 Entering Gaussian System, Link 0=g16
 Input=1hzu12.com
 Output=1hzu12.log
 Initial command:
 /sw/chem/gaussian/g16_C02/a100/g16/l1.exe "/local/bebjones_7948064/Gau-1264807.inp" -scrdir="/local/bebjones_7948064/"
 Entering Link 1 = /sw/chem/gaussian/g16_C02/a100/g16/l1.exe PID=   1264808.
  
 Copyright (c) 1988-2021, Gaussian, Inc.  All Rights Reserved.
  
 This is part of the Gaussian(R) 16 program.  It is based on
 the Gaussian(R) 09 system (copyright 2009, Gaussian, Inc.),
 the Gaussian(R) 03 system (copyright 2003, Gaussian, Inc.),
 the Gaussian(R) 98 system (copyright 1998, Gaussian, Inc.),
 the Gaussian(R) 94 system (copyright 1995, Gaussian, Inc.),
 the Gaussian 92(TM) system (copyright 1992, Gaussian, Inc.),
 the Gaussian 90(TM) system (copyright 1990, Gaussian, Inc.),
 the Gaussian 88(TM) system (copyright 1988, Gaussian, Inc.),
 the Gaussian 86(TM) system (copyright 1986, Carnegie Mellon
 University), and the Gaussian 82(TM) system (copyright 1983,
 Carnegie Mellon University). Gaussian is a federally registered
 trademark of Gaussian, Inc.
  
 This software contains proprietary and confidential information,
 including trade secrets, belonging to Gaussian, Inc.
  
 This software is provided under written license and may be
 used, copied, transmitted, or stored only in accord with that
 written license.
  
 The following legend is applicable only to US Government
 contracts under FAR:
  
                    RESTRICTED RIGHTS LEGEND
  
 Use, reproduction and disclosure by the US Government is
 subject to restrictions as set forth in subparagraphs (a)
 and (c) of the Commercial Computer Software - Restricted
 Rights clause in FAR 52.227-19.
  
 Gaussian, Inc.
 340 Quinnipiac St., Bldg. 40, Wallingford CT 06492
  
  
 ---------------------------------------------------------------
 Warning -- This program may not be used in any manner that
 competes with the business of Gaussian, Inc. or will provide
 assistance to any competitor of Gaussian, Inc.  The licensee
 of this program is prohibited from giving any competitor of
 Gaussian, Inc. access to this program.  By using this program,
 the user acknowledges that Gaussian, Inc. is engaged in the
 business of creating and licensing software in the field of
 computational chemistry and represents and warrants to the
 licensee that it is not a competitor of Gaussian, Inc. and that
 it will not use this program in any manner prohibited above.
 ---------------------------------------------------------------
  

 Cite this work as:
 Gaussian 16, Revision C.02,
 M. J. Frisch, G. W. Trucks, H. B. Schlegel, G. E. Scuseria, 
 M. A. Robb, J. R. Cheeseman, G. Scalmani, V. Barone, 
 G. A. Petersson, H. Nakatsuji, X. Li, M. Caricato, A. V. Marenich, 
 J. Bloino, B. G. Janesko, R. Gomperts, B. Mennucci, H. P. Hratchian, 
 J. V. Ortiz, A. F. Izmaylov, J. L. Sonnenberg, D. Williams-Young, 
 F. Ding, F. Lipparini, F. Egidi, J. Goings, B. Peng, A. Petrone, 
 T. Henderson, D. Ranasinghe, V. G. Zakrzewski, J. Gao, N. Rega, 
 G. Zheng, W. Liang, M. Hada, M. Ehara, K. Toyota, R. Fukuda, 
 J. Hasegawa, M. Ishida, T. Nakajima, Y. Honda, O. Kitao, H. Nakai, 
 T. Vreven, K. Throssell, J. A. Montgomery, Jr., J. E. Peralta, 
 F. Ogliaro, M. J. Bearpark, J. J. Heyd, E. N. Brothers, K. N. Kudin, 
 V. N. Staroverov, T. A. Keith, R. Kobayashi, J. Normand, 
 K. Raghavachari, A. P. Rendell, J. C. Burant, S. S. Iyengar, 
 J. Tomasi, M. Cossi, J. M. Millam, M. Klene, C. Adamo, R. Cammi, 
 J. W. Ochterski, R. L. Martin, K. Morokuma, O. Farkas, 
 J. B. Foresman, and D. J. Fox, Gaussian, Inc., Wallingford CT, 2019.
 
 ******************************************
 Gaussian 16:  ES64L-G16RevC.02  7-Dec-2021
                23-Jul-2024 
 ******************************************
 %mem=16GB
 %CPU=0-71
 SetSPE:  set environment variable "OMP_PROC_BIND" = "true"
 SetSPE:  set environment variable "OMP_PLACES" = "{0},{1},{2},{3},{4},{5},{6},{7},{8},{9},{10},{11},{12},{13},{14},{15},{16},{17},{18},{19},{20},{21},{22},{23},{24},{25},{26},{27},{28},{29},{30},{31},{32},{33},{34},{35},{36},{37},{38},{39},{40},{41},{42},{43},{44},{45},{46},{47},{48},{49},{50},{51},{52},{53},{54},{55},{56},{57},{58},{59},{60},{61},{62},{63},{64},{65},{66},{67},{68},{69},{70},{71}"
 Will use up to   72 processors via shared memory.
 %gpucpu=0,1,2,3=0,1,2,3
 Will use    4 GPUs:
 Thread  CPU   GPU
      0    0     0
      1    1     1
      2    2     2
      3    3     3
      4    4    -1
      5    5    -1
      6    6    -1
      7    7    -1
      8    8    -1
      9    9    -1
     10   10    -1
     11   11    -1
     12   12    -1
     13   13    -1
     14   14    -1
     15   15    -1
     16   16    -1
     17   17    -1
     18   18    -1
     19   19    -1
     20   20    -1
     21   21    -1
     22   22    -1
     23   23    -1
     24   24    -1
     25   25    -1
     26   26    -1
     27   27    -1
     28   28    -1
     29   29    -1
     30   30    -1
     31   31    -1
     32   32    -1
     33   33    -1
     34   34    -1
     35   35    -1
     36   36    -1
     37   37    -1
     38   38    -1
     39   39    -1
     40   40    -1
     41   41    -1
     42   42    -1
     43   43    -1
     44   44    -1
     45   45    -1
     46   46    -1
     47   47    -1
     48   48    -1
     49   49    -1
     50   50    -1
     51   51    -1
     52   52    -1
     53   53    -1
     54   54    -1
     55   55    -1
     56   56    -1
     57   57    -1
     58   58    -1
     59   59    -1
     60   60    -1
     61   61    -1
     62   62    -1
     63   63    -1
     64   64    -1
     65   65    -1
     66   66    -1
     67   67    -1
     68   68    -1
     69   69    -1
     70   70    -1
     71   71    -1
 SetGPE:  set environment variable "OMP_PROC_BIND" = "true"
 SetGPE:  set environment variable "OMP_PLACES" = "{0},{1},{2},{3},{4},{5},{6},{7},{8},{9},{10},{11},{12},{13},{14},{15},{16},{17},{18},{19},{20},{21},{22},{23},{24},{25},{26},{27},{28},{29},{30},{31},{32},{33},{34},{35},{36},{37},{38},{39},{40},{41},{42},{43},{44},{45},{46},{47},{48},{49},{50},{51},{52},{53},{54},{55},{56},{57},{58},{59},{60},{61},{62},{63},{64},{65},{66},{67},{68},{69},{70},{71}"
 %oldchk=1hzu_II_Sre.chk
 %chk=1hzu_III_Dn.chk
 Properties for Device   0
 Minimum vector length:                              32
 Maximum vector length:                            1024
 Number of SMPs:                                    108
 Maximum number of threads per SMP:                2048
 Number of ASync Engines:                             5
 Memory:                                           9207742464
 Properties for Device   1
 Minimum vector length:                              32
 Maximum vector length:                            1024
 Number of SMPs:                                    108
 Maximum number of threads per SMP:                2048
 Number of ASync Engines:                             5
 Memory:                                           9207742464
 Properties for Device   2
 Minimum vector length:                              32
 Maximum vector length:                            1024
 Number of SMPs:                                    108
 Maximum number of threads per SMP:                2048
 Number of ASync Engines:                             5
 Memory:                                           9207742464
 Properties for Device   3
 Minimum vector length:                              32
 Maximum vector length:                            1024
 Number of SMPs:                                    108
 Maximum number of threads per SMP:                2048
 Number of ASync Engines:                             5
 Memory:                                           9207742464
   8286968217 words of memory will be used on each GPU.
 Copying data from "1hzu_II_Sre.chk" to current chk file "1hzu_III_Dn.chk"
 IOpt=  2 FromEx=T IUOpen= 4 IOptOp= 5 NList=   0 IFRang= 0 IUIn= 4 IUOut= 2.
 --------------------------------------------------------------
 # apfd/def2TZVP guess=read scf=maxcycle=999 geom=check pop=nbo
 --------------------------------------------------------------
 1/29=2,38=1,172=1/1;
 2/12=2,40=1/2;
 3/5=44,7=101,11=2,14=-4,25=1,30=1,74=-44,116=-2/1,2,3;
 4/5=1/1;
 5/5=2,7=999,38=6/2;
 6/7=2,8=2,9=2,10=2,28=1,40=1/1,7;
 99/5=1,9=1/99;
 ----------
 1hzu_III_D
 ----------
 Structure from the checkpoint file:  "1hzu_III_Dn.chk"
 Charge =  1 Multiplicity = 2
 Z-Matrix found in chk file.
 Fe,0,-3.5322058561,64.110859972,113.4137934313
 N,0,-2.7614357297,65.9802042038,113.2510049704
 N,0,-1.9803912285,63.4325346618,112.341786594
 N,0,-4.2332205606,62.283288053,113.621282859
 N,0,-4.9555181337,64.8316816138,114.6151486318
 C,0,-3.139998112,67.0783315298,113.9609111192
 C,0,-2.2374200962,68.1821294185,113.7259679608
 C,0,-1.3029303717,67.7284348623,112.8488265621
 C,0,-1.6619804012,66.3604150479,112.5461804578
 C,0,-0.9992111588,64.1474269159,111.7335774301
 C,0,-0.0487776556,63.2681389367,111.0904317184
 C,0,-0.5011811844,62.0022768007,111.2970384268
 C,0,-1.7126269029,62.1260110784,112.0780783885
 C,0,-3.6944782872,61.1387823384,113.1390357032
 C,0,-4.5425928796,60.0038054012,113.4506178904
 C,0,-5.6186228592,60.5125682269,114.127870635
 C,0,-5.4055087684,61.9356188034,114.2165125602
 C,0,-6.0645029882,64.1629705472,115.0217722437
 C,0,-6.9306430055,65.0306173952,115.7966249758
 C,0,-6.2840463084,66.2367974286,115.869076501
 C,0,-5.0696260383,66.0929578361,115.1084454116
 C,0,-4.2167441623,67.1444995692,114.821793313
 H,0,-4.4133097481,68.0920122565,115.2993970104
 C,0,-0.8579009856,65.5213933919,111.7945616537
 H,0,-0.0220506468,65.9632501288,111.2738901393
 C,0,-2.5109091,61.0535077091,112.4296594096
 H,0,-2.1888316205,60.0742617343,112.109850938
 C,0,-6.283325736,62.8109143971,114.8335134338
 H,0,-7.2055792265,62.3978643835,115.2124995423
 C,0,-2.3553143135,69.5190235812,114.3736420468
 H,0,-2.2868686903,69.4281672644,115.4581013155
 H,0,-3.3148802278,69.9777250388,114.1335036169
 H,0,-1.5642884966,70.1840524694,114.0353985975
 C,0,-0.1323571608,68.4413602775,112.2625741806
 H,0,-0.1791464573,68.4268761411,111.1734519005
 H,0,0.8010304951,67.9655824266,112.5662149777
 H,0,-0.1083361828,69.4779516479,112.5899560175
 C,0,-6.6837609209,67.4611098035,116.6162586441
 H,0,-7.1684871976,68.1822995555,115.9557209144
 H,0,-5.8123772421,67.9420883031,117.0584260584
 H,0,-7.3803513215,67.2025300838,117.4112621466
 C,0,-8.193940837,64.6352326129,116.3773660345
 H,0,-8.2720574115,63.5940628296,116.6677055806
 C,0,-9.2420080954,65.4316284657,116.5627784718
 H,0,-9.2441268564,66.4608636751,116.2493274517
 H,0,-10.1512336538,65.0689654638,117.0128284705
 C,0,-6.7613313184,59.7777269571,114.7369997671
 H,0,-7.6379155365,59.8180803694,114.0884319079
 H,0,-7.0330220723,60.212970289,115.6975995932
 H,0,-6.4953030682,58.7338178859,114.8907297763
 C,0,-4.2408003771,58.6324580871,113.1058868997
 H,0,-3.1878672595,58.3745783601,113.0947084396
 C,0,-5.13491967,57.6971104922,112.801920919
 H,0,-6.1884820087,57.9079759834,112.7478187503
 H,0,-4.8373003433,56.6886123738,112.5664529389
 C,0,0.0832935567,60.7065868276,110.8500098697
 H,0,-0.6321571623,60.154305742,110.2414681021
 H,0,0.34486882,60.087388654,111.7080998391
 H,0,0.9803220252,60.8697318932,110.2582823292
 C,0,1.155686434,63.7326663578,110.3454342987
 H,0,0.8655947347,64.3399171183,109.4871045771
 H,0,1.7377085743,62.8873670804,109.9858502961
 H,0,1.7953545561,64.3399353568,110.9867848221
 C,0,-1.6818854585,62.7780867542,118.4963351499
 H,0,-0.9139675571,62.0088896127,118.5783991437
 H,0,-2.6327887078,62.3543901599,118.8036738124
 H,0,-1.424962529,63.5901842935,119.1764403209
 N,0,-0.7380179438,63.8649494071,116.4465338083
 H,0,0.1800484027,64.0225374947,116.8285867781
 C,0,-1.7867119588,63.2721270178,117.1001103334
 C,0,-1.1623393299,64.1940294359,115.2059486521
 H,0,-0.5506619585,64.6743301745,114.4706106961
 N,0,-2.4135506373,63.8462941264,115.0350430256
 C,0,-2.8164159787,63.2717448209,116.2037153144
 H,0,-3.8126369796,62.8992530809,116.3202482791
 C,0,-3.6436349482,63.3865566858,109.3453298454
 H,0,-3.1147414414,62.7258159953,110.0257993246
 H,0,-3.0191585093,63.5608843955,108.4715417616
 H,0,-4.560367402,62.8940489929,109.0306838764
 C,0,-3.9591399856,64.7012143941,110.0317304271
 H,0,-4.5536442007,65.3446353302,109.3824420456
 H,0,-3.0499070861,65.2176808406,110.3348672611
 S,0,-4.9624452786,64.3970391038,111.5416532482
 C,0,-5.659622066,66.0677066702,111.7142203815
 H,0,-4.8580121075,66.7880731944,111.8419009068
 H,0,-6.2879620415,66.0584599769,112.5978539902
 H,0,-6.2561298589,66.2967639324,110.8350821546
 Recover connectivity data from disk.
 Stoichiometry    C37H42FeN6S(1+,2)
 Framework group  C1[X(C37H42FeN6S)]
 Deg. of freedom   255
 Full point group                 C1      NOp   1
 Largest Abelian subgroup         C1      NOp   1
 Largest concise Abelian subgroup C1      NOp   1
                         Standard orientation:                         
 ---------------------------------------------------------------------
 Center     Atomic      Atomic             Coordinates (Angstroms)
 Number     Number       Type             X           Y           Z
 ---------------------------------------------------------------------
      1         26           0       -0.066033   -0.090660   -0.179077
      2          7           0       -0.099254   -2.118670   -0.212363
      3          7           0       -2.064371   -0.111032   -0.025189
      4          7           0       -0.042953    1.874973   -0.077855
      5          7           0        1.930170   -0.150656   -0.163890
      6          6           0        0.968307   -2.949967   -0.062632
      7          6           0        0.539686   -4.324332    0.062350
      8          6           0       -0.817194   -4.308095   -0.021907
      9          6           0       -1.194271   -2.925546   -0.217762
     10          6           0       -2.903453   -1.177040   -0.082389
     11          6           0       -4.274602   -0.760055    0.107827
     12          6           0       -4.245200    0.592527    0.247183
     13          6           0       -2.854361    0.980289    0.156954
     14          6           0       -1.106744    2.701723    0.054553
     15          6           0       -0.682459    4.088740    0.027719
     16          6           0        0.676569    4.063575   -0.138897
     17          6           0        1.050551    2.672982   -0.207710
     18          6           0        2.757403    0.909354   -0.349439
     19          6           0        4.141920    0.478862   -0.384006
     20          6           0        4.117758   -0.875863   -0.178232
     21          6           0        2.730216   -1.244997   -0.066286
     22          6           0        2.289424   -2.555270   -0.001456
     23          1           0        3.035159   -3.329393    0.094134
     24          6           0       -2.510101   -2.496749   -0.205332
     25          1           0       -3.282371   -3.250526   -0.225385
     26          6           0       -2.421580    2.293049    0.179107
     27          1           0       -3.175121    3.058169    0.287275
     28          6           0        2.351827    2.230774   -0.376612
     29          1           0        3.112050    2.982418   -0.524548
     30          6           0        1.460035   -5.478277    0.267374
     31          1           0        2.027668   -5.357944    1.190578
     32          1           0        2.169336   -5.553756   -0.557269
     33          1           0        0.904122   -6.410932    0.326616
     34          6           0       -1.781828   -5.442523    0.047033
     35          1           0       -2.403286   -5.473939   -0.848170
     36          1           0       -2.439828   -5.337736    0.910648
     37          1           0       -1.256770   -6.390863    0.132142
     38          6           0        5.265240   -1.813662   -0.033959
     39          1           0        5.465211   -2.335106   -0.971771
     40          1           0        5.055428   -2.561786    0.729225
     41          1           0        6.161278   -1.266112    0.251412
     42          6           0        5.277116    1.354496   -0.568684
     43          1           0        5.159008    2.362918   -0.189778
     44          6           0        6.418188    1.024727   -1.165571
     45          1           0        6.576960    0.056298   -1.606614
     46          1           0        7.228240    1.728959   -1.258481
     47          6           0        1.627230    5.209051   -0.169591
     48          1           0        1.892014    5.465470   -1.196629
     49          1           0        2.544814    4.964445    0.363525
     50          1           0        1.175808    6.082254    0.297191
     51          6           0       -1.567351    5.222481    0.176410
     52          1           0       -2.427622    5.062694    0.816487
     53          6           0       -1.410488    6.407057   -0.405735
     54          1           0       -0.604497    6.606789   -1.089747
     55          1           0       -2.105607    7.213284   -0.238708
     56          6           0       -5.371879    1.543762    0.461671
     57          1           0       -5.398964    2.289379   -0.332388
     58          1           0       -5.257072    2.066514    1.411248
     59          1           0       -6.324471    1.020408    0.470953
     60          6           0       -5.441919   -1.686804    0.114803
     61          1           0       -5.540088   -2.187762   -0.849065
     62          1           0       -6.363812   -1.145893    0.315073
     63          1           0       -5.321603   -2.452753    0.881698
     64          6           0        1.176142    0.734135    5.188317
     65          1           0        0.408125    1.159865    5.834072
     66          1           0        1.910872    1.502325    4.968660
     67          1           0        1.667079   -0.074412    5.729877
     68          7           0       -0.372538   -0.744256    3.888397
     69          1           0       -0.760527   -1.214564    4.689595
     70          6           0        0.583706    0.237020    3.920877
     71          6           0       -0.694384   -0.959372    2.593200
     72          1           0       -1.418684   -1.676366    2.266293
     73          7           0       -0.001124   -0.175450    1.805472
     74          6           0        0.798367    0.574678    2.615610
     75          1           0        1.469261    1.301707    2.208035
     76          6           0       -2.658010    0.387481   -3.363800
     77          1           0       -2.858024    0.837527   -2.395916
     78          1           0       -3.576770   -0.059496   -3.737910
     79          1           0       -2.342823    1.170695   -4.048780
     80          6           0       -1.577967   -0.669092   -3.236627
     81          1           0       -1.317309   -1.076574   -4.213877
     82          1           0       -1.886545   -1.472279   -2.569540
     83         16           0       -0.046551    0.077389   -2.546306
     84          6           0        1.123786   -1.193608   -3.113619
     85          1           0        0.857053   -2.154681   -2.685830
     86          1           0        2.106498   -0.897181   -2.764174
     87          1           0        1.109883   -1.230549   -4.199719
 ---------------------------------------------------------------------
 Rotational constants (GHZ):           0.0834257           0.0814424           0.0581546
 Standard basis: def2TZVP (5D, 7F)
 There are  1894 symmetry adapted cartesian basis functions of A   symmetry.
 There are  1667 symmetry adapted basis functions of A   symmetry.
  1667 basis functions,  2700 primitive gaussians,  1894 cartesian basis functions
   174 alpha electrons      173 beta electrons
       nuclear repulsion energy      7162.1731387317 Hartrees.
 NAtoms=   87 NActive=   87 NUniq=   87 SFac= 1.00D+00 NAtFMM=   60 NAOKFM=T Big=T
 Integral buffers will be    131072 words long.
 Raffenetti 2 integral format.
 Two-electron integral symmetry is turned on.
 R6APFD:  NTU= -4 IXU= 1 FactS= 1.050
 Nuclear repulsion after empirical dispersion term =     7161.9892088948 Hartrees.
 One-electron integrals computed using PRISM.
   1 Symmetry operations used in ECPInt.
 ECPInt:  NShTT=  224115 NPrTT=  692067 LenC2=  178403 LenP2D=  363415.
 LDataN:  DoStor=T MaxTD1= 6 Len=  172
 Number of processors reduced to  21 by ecpmxn.
 NBasis=  1667 RedAO= T EigKep=  3.39D-06  NBF=  1667
 NBsUse=  1667 1.00D-06 EigRej= -1.00D+00 NBFU=  1667
 Initial guess from the checkpoint file:  "1hzu_III_Dn.chk"
 B after Tr=     0.000000    0.000000   -0.000000
         Rot=    1.000000    0.000000   -0.000000    0.000000 Ang=   0.00 deg.
 Initial guess <Sx>= 0.0000 <Sy>= 0.0000 <Sz>= 0.5000 <S**2>= 0.7982 S= 0.5238
 Requested convergence on RMS density matrix=1.00D-08 within 999 cycles.
 Requested convergence on MAX density matrix=1.00D-06.
 Requested convergence on             energy=1.00D-06.
 No special actions if energy rises.
 Restarting incremental Fock formation.
 Restarting incremental Fock formation.
 SCF Done:  E(UAPFD) =  -3424.66723587     A.U. after   44 cycles
            NFock= 44  Conv=0.11D-08     -V/T= 2.0033
 <Sx>= 0.0000 <Sy>= 0.0000 <Sz>= 0.5000 <S**2>= 0.8033 S= 0.5263
 <L.S>=  0.00000000000    
 Annihilation of the first spin contaminant:
 S**2 before annihilation     0.8033,   after     0.7510

 **********************************************************************

            Population analysis using the SCF Density.

 **********************************************************************

 Orbital symmetries:
 Alpha Orbitals:
       Occupied  (A) (A) (A) (A) (A) (A) (A) (A) (A) (A) (A) (A)
                 (A) (A) (A) (A) (A) (A) (A) (A) (A) (A) (A) (A)
                 (A) (A) (A) (A) (A) (A) (A) (A) (A) (A) (A) (A)
                 (A) (A) (A) (A) (A) (A) (A) (A) (A) (A) (A) (A)
                 (A) (A) (A) (A) (A) (A) (A) (A) (A) (A) (A) (A)
                 (A) (A) (A) (A) (A) (A) (A) (A) (A) (A) (A) (A)
                 (A) (A) (A) (A) (A) (A) (A) (A) (A) (A) (A) (A)
                 (A) (A) (A) (A) (A) (A) (A) (A) (A) (A) (A) (A)
                 (A) (A) (A) (A) (A) (A) (A) (A) (A) (A) (A) (A)
                 (A) (A) (A) (A) (A) (A) (A) (A) (A) (A) (A) (A)
                 (A) (A) (A) (A) (A) (A) (A) (A) (A) (A) (A) (A)
                 (A) (A) (A) (A) (A) (A) (A) (A) (A) (A) (A) (A)
                 (A) (A) (A) (A) (A) (A) (A) (A) (A) (A) (A) (A)
                 (A) (A) (A) (A) (A) (A) (A) (A) (A) (A) (A) (A)
                 (A) (A) (A) (A) (A) (A)
       Virtual   (A) (A) (A) (A) (A) (A) (A) (A) (A) (A) (A) (A)
                 (A) (A) (A) (A) (A) (A) (A) (A) (A) (A) (A) (A)
                 (A) (A) (A) (A) (A) (A) (A) (A) (A) (A) (A) (A)
                 (A) (A) (A) (A) (A) (A) (A) (A) (A) (A) (A) (A)
                 (A) (A) (A) (A) (A) (A) (A) (A) (A) (A) (A) (A)
                 (A) (A) (A) (A) (A) (A) (A) (A) (A) (A) (A) (A)
                 (A) (A) (A) (A) (A) (A) (A) (A) (A) (A) (A) (A)
                 (A) (A) (A) (A) (A) (A) (A) (A) (A) (A) (A) (A)
                 (A) (A) (A) (A) (A) (A) (A) (A) (A) (A) (A) (A)
                 (A) (A) (A) (A) (A) (A) (A) (A) (A) (A) (A) (A)
                 (A) (A) (A) (A) (A) (A) (A) (A) (A) (A) (A) (A)
                 (A) (A) (A) (A) (A) (A) (A) (A) (A) (A) (A) (A)
                 (A) (A) (A) (A) (A) (A) (A) (A) (A) (A) (A) (A)
                 (A) (A) (A) (A) (A) (A) (A) (A) (A) (A) (A) (A)
                 (A) (A) (A) (A) (A) (A) (A) (A) (A) (A) (A) (A)
                 (A) (A) (A) (A) (A) (A) (A) (A) (A) (A) (A) (A)
                 (A) (A) (A) (A) (A) (A) (A) (A) (A) (A) (A) (A)
                 (A) (A) (A) (A) (A) (A) (A) (A) (A) (A) (A) (A)
                 (A) (A) (A) (A) (A) (A) (A) (A) (A) (A) (A) (A)
                 (A) (A) (A) (A) (A) (A) (A) (A) (A) (A) (A) (A)
                 (A) (A) (A) (A) (A) (A) (A) (A) (A) (A) (A) (A)
                 (A) (A) (A) (A) (A) (A) (A) (A) (A) (A) (A) (A)
                 (A) (A) (A) (A) (A) (A) (A) (A) (A) (A) (A) (A)
                 (A) (A) (A) (A) (A) (A) (A) (A) (A) (A) (A) (A)
                 (A) (A) (A) (A) (A) (A) (A) (A) (A) (A) (A) (A)
                 (A) (A) (A) (A) (A) (A) (A) (A) (A) (A) (A) (A)
                 (A) (A) (A) (A) (A) (A) (A) (A) (A) (A) (A) (A)
                 (A) (A) (A) (A) (A) (A) (A) (A) (A) (A) (A) (A)
                 (A) (A) (A) (A) (A) (A) (A) (A) (A) (A) (A) (A)
                 (A) (A) (A) (A) (A) (A) (A) (A) (A) (A) (A) (A)
                 (A) (A) (A) (A) (A) (A) (A) (A) (A) (A) (A) (A)
                 (A) (A) (A) (A) (A) (A) (A) (A) (A) (A) (A) (A)
                 (A) (A) (A) (A) (A) (A) (A) (A) (A) (A) (A) (A)
                 (A) (A) (A) (A) (A) (A) (A) (A) (A) (A) (A) (A)
                 (A) (A) (A) (A) (A) (A) (A) (A) (A) (A) (A) (A)
                 (A) (A) (A) (A) (A) (A) (A) (A) (A) (A) (A) (A)
                 (A) (A) (A) (A) (A) (A) (A) (A) (A) (A) (A) (A)
                 (A) (A) (A) (A) (A) (A) (A) (A) (A) (A) (A) (A)
                 (A) (A) (A) (A) (A) (A) (A) (A) (A) (A) (A) (A)
                 (A) (A) (A) (A) (A) (A) (A) (A) (A) (A) (A) (A)
                 (A) (A) (A) (A) (A) (A) (A) (A) (A) (A) (A) (A)
                 (A) (A) (A) (A) (A) (A) (A) (A) (A) (A) (A) (A)
                 (A) (A) (A) (A) (A) (A) (A) (A) (A) (A) (A) (A)
                 (A) (A) (A) (A) (A) (A) (A) (A) (A) (A) (A) (A)
                 (A) (A) (A) (A) (A) (A) (A) (A) (A) (A) (A) (A)
                 (A) (A) (A) (A) (A) (A) (A) (A) (A) (A) (A) (A)
                 (A) (A) (A) (A) (A) (A) (A) (A) (A) (A) (A) (A)
                 (A) (A) (A) (A) (A) (A) (A) (A) (A) (A) (A) (A)
                 (A) (A) (A) (A) (A) (A) (A) (A) (A) (A) (A) (A)
                 (A) (A) (A) (A) (A) (A) (A) (A) (A) (A) (A) (A)
                 (A) (A) (A) (A) (A) (A) (A) (A) (A) (A) (A) (A)
                 (A) (A) (A) (A) (A) (A) (A) (A) (A) (A) (A) (A)
                 (A) (A) (A) (A) (A) (A) (A) (A) (A) (A) (A) (A)
                 (A) (A) (A) (A) (A) (A) (A) (A) (A) (A) (A) (A)
                 (A) (A) (A) (A) (A) (A) (A) (A) (A) (A) (A) (A)
                 (A) (A) (A) (A) (A) (A) (A) (A) (A) (A) (A) (A)
                 (A) (A) (A) (A) (A) (A) (A) (A) (A) (A) (A) (A)
                 (A) (A) (A) (A) (A) (A) (A) (A) (A) (A) (A) (A)
                 (A) (A) (A) (A) (A) (A) (A) (A) (A) (A) (A) (A)
                 (A) (A) (A) (A) (A) (A) (A) (A) (A) (A) (A) (A)
                 (A) (A) (A) (A) (A) (A) (A) (A) (A) (A) (A) (A)
                 (A) (A) (A) (A) (A) (A) (A) (A) (A) (A) (A) (A)
                 (A) (A) (A) (A) (A) (A) (A) (A) (A) (A) (A) (A)
                 (A) (A) (A) (A) (A) (A) (A) (A) (A) (A) (A) (A)
                 (A) (A) (A) (A) (A) (A) (A) (A) (A) (A) (A) (A)
                 (A) (A) (A) (A) (A) (A) (A) (A) (A) (A) (A) (A)
                 (A) (A) (A) (A) (A) (A) (A) (A) (A) (A) (A) (A)
                 (A) (A) (A) (A) (A) (A) (A) (A) (A) (A) (A) (A)
                 (A) (A) (A) (A) (A) (A) (A) (A) (A) (A) (A) (A)
                 (A) (A) (A) (A) (A) (A) (A) (A) (A) (A) (A) (A)
                 (A) (A) (A) (A) (A) (A) (A) (A) (A) (A) (A) (A)
                 (A) (A) (A) (A) (A) (A) (A) (A) (A) (A) (A) (A)
                 (A) (A) (A) (A) (A) (A) (A) (A) (A) (A) (A) (A)
                 (A) (A) (A) (A) (A) (A) (A) (A) (A) (A) (A) (A)
                 (A) (A) (A) (A) (A) (A) (A) (A) (A) (A) (A) (A)
                 (A) (A) (A) (A) (A) (A) (A) (A) (A) (A) (A) (A)
                 (A) (A) (A) (A) (A) (A) (A) (A) (A) (A) (A) (A)
                 (A) (A) (A) (A) (A) (A) (A) (A) (A) (A) (A) (A)
                 (A) (A) (A) (A) (A) (A) (A) (A) (A) (A) (A) (A)
                 (A) (A) (A) (A) (A) (A) (A) (A) (A) (A) (A) (A)
                 (A) (A) (A) (A) (A) (A) (A) (A) (A) (A) (A) (A)
                 (A) (A) (A) (A) (A) (A) (A) (A) (A) (A) (A) (A)
                 (A) (A) (A) (A) (A) (A) (A) (A) (A) (A) (A) (A)
                 (A) (A) (A) (A) (A) (A) (A) (A) (A) (A) (A) (A)
                 (A) (A) (A) (A) (A) (A) (A) (A) (A) (A) (A) (A)
                 (A) (A) (A) (A) (A) (A) (A) (A) (A) (A) (A) (A)
                 (A) (A) (A) (A) (A) (A) (A) (A) (A) (A) (A) (A)
                 (A) (A) (A) (A) (A) (A) (A) (A) (A) (A) (A) (A)
                 (A) (A) (A) (A) (A) (A) (A) (A) (A) (A) (A) (A)
                 (A) (A) (A) (A) (A) (A) (A) (A) (A) (A) (A) (A)
                 (A) (A) (A) (A) (A) (A) (A) (A) (A) (A) (A) (A)
                 (A) (A) (A) (A) (A) (A) (A) (A) (A) (A) (A) (A)
                 (A) (A) (A) (A) (A) (A) (A) (A) (A) (A) (A) (A)
                 (A) (A) (A) (A) (A) (A) (A) (A) (A) (A) (A) (A)
                 (A) (A) (A) (A) (A) (A) (A) (A) (A) (A) (A) (A)
                 (A) (A) (A) (A) (A) (A) (A) (A) (A) (A) (A) (A)
                 (A) (A) (A) (A) (A) (A) (A) (A) (A) (A) (A) (A)
                 (A) (A) (A) (A) (A) (A) (A) (A) (A) (A) (A) (A)
                 (A) (A) (A) (A) (A) (A) (A) (A) (A) (A) (A) (A)
                 (A) (A) (A) (A) (A) (A) (A) (A) (A) (A) (A) (A)
                 (A) (A) (A) (A) (A) (A) (A) (A) (A) (A) (A) (A)
                 (A) (A) (A) (A) (A) (A) (A) (A) (A) (A) (A) (A)
                 (A) (A) (A) (A) (A) (A) (A) (A) (A) (A) (A) (A)
                 (A) (A) (A) (A) (A) (A) (A) (A) (A) (A) (A) (A)
                 (A) (A) (A) (A) (A) (A) (A) (A) (A) (A) (A) (A)
                 (A) (A) (A) (A) (A) (A) (A) (A) (A) (A) (A) (A)
                 (A) (A) (A) (A) (A) (A) (A) (A) (A) (A) (A) (A)
                 (A) (A) (A) (A) (A) (A) (A) (A) (A) (A) (A) (A)
                 (A) (A) (A) (A) (A) (A) (A) (A) (A) (A) (A) (A)
                 (A) (A) (A) (A) (A) (A) (A) (A) (A) (A) (A) (A)
                 (A) (A) (A) (A) (A) (A) (A) (A) (A) (A) (A) (A)
                 (A) (A) (A) (A) (A) (A) (A) (A) (A) (A) (A) (A)
                 (A) (A) (A) (A) (A) (A) (A) (A) (A) (A) (A) (A)
                 (A) (A) (A) (A) (A) (A) (A) (A) (A) (A) (A) (A)
                 (A) (A) (A) (A) (A) (A) (A) (A) (A) (A) (A) (A)
                 (A) (A) (A) (A) (A) (A) (A) (A) (A) (A) (A) (A)
                 (A) (A) (A) (A) (A) (A) (A) (A) (A) (A) (A) (A)
                 (A) (A) (A) (A) (A) (A) (A) (A) (A) (A) (A) (A)
                 (A) (A) (A) (A) (A) (A) (A) (A) (A) (A) (A) (A)
                 (A) (A) (A) (A) (A) (A) (A) (A) (A) (A) (A) (A)
                 (A) (A) (A) (A) (A) (A) (A) (A) (A) (A) (A) (A)
                 (A) (A) (A) (A) (A) (A) (A) (A) (A) (A) (A) (A)
                 (A) (A) (A) (A) (A) (A) (A) (A) (A) (A) (A) (A)
                 (A) (A) (A) (A) (A) (A) (A) (A) (A) (A) (A) (A)
                 (A) (A) (A) (A) (A)
 Beta  Orbitals:
       Occupied  (A) (A) (A) (A) (A) (A) (A) (A) (A) (A) (A) (A)
                 (A) (A) (A) (A) (A) (A) (A) (A) (A) (A) (A) (A)
                 (A) (A) (A) (A) (A) (A) (A) (A) (A) (A) (A) (A)
                 (A) (A) (A) (A) (A) (A) (A) (A) (A) (A) (A) (A)
                 (A) (A) (A) (A) (A) (A) (A) (A) (A) (A) (A) (A)
                 (A) (A) (A) (A) (A) (A) (A) (A) (A) (A) (A) (A)
                 (A) (A) (A) (A) (A) (A) (A) (A) (A) (A) (A) (A)
                 (A) (A) (A) (A) (A) (A) (A) (A) (A) (A) (A) (A)
                 (A) (A) (A) (A) (A) (A) (A) (A) (A) (A) (A) (A)
                 (A) (A) (A) (A) (A) (A) (A) (A) (A) (A) (A) (A)
                 (A) (A) (A) (A) (A) (A) (A) (A) (A) (A) (A) (A)
                 (A) (A) (A) (A) (A) (A) (A) (A) (A) (A) (A) (A)
                 (A) (A) (A) (A) (A) (A) (A) (A) (A) (A) (A) (A)
                 (A) (A) (A) (A) (A) (A) (A) (A) (A) (A) (A) (A)
                 (A) (A) (A) (A) (A)
       Virtual   (A) (A) (A) (A) (A) (A) (A) (A) (A) (A) (A) (A)
                 (A) (A) (A) (A) (A) (A) (A) (A) (A) (A) (A) (A)
                 (A) (A) (A) (A) (A) (A) (A) (A) (A) (A) (A) (A)
                 (A) (A) (A) (A) (A) (A) (A) (A) (A) (A) (A) (A)
                 (A) (A) (A) (A) (A) (A) (A) (A) (A) (A) (A) (A)
                 (A) (A) (A) (A) (A) (A) (A) (A) (A) (A) (A) (A)
                 (A) (A) (A) (A) (A) (A) (A) (A) (A) (A) (A) (A)
                 (A) (A) (A) (A) (A) (A) (A) (A) (A) (A) (A) (A)
                 (A) (A) (A) (A) (A) (A) (A) (A) (A) (A) (A) (A)
                 (A) (A) (A) (A) (A) (A) (A) (A) (A) (A) (A) (A)
                 (A) (A) (A) (A) (A) (A) (A) (A) (A) (A) (A) (A)
                 (A) (A) (A) (A) (A) (A) (A) (A) (A) (A) (A) (A)
                 (A) (A) (A) (A) (A) (A) (A) (A) (A) (A) (A) (A)
                 (A) (A) (A) (A) (A) (A) (A) (A) (A) (A) (A) (A)
                 (A) (A) (A) (A) (A) (A) (A) (A) (A) (A) (A) (A)
                 (A) (A) (A) (A) (A) (A) (A) (A) (A) (A) (A) (A)
                 (A) (A) (A) (A) (A) (A) (A) (A) (A) (A) (A) (A)
                 (A) (A) (A) (A) (A) (A) (A) (A) (A) (A) (A) (A)
                 (A) (A) (A) (A) (A) (A) (A) (A) (A) (A) (A) (A)
                 (A) (A) (A) (A) (A) (A) (A) (A) (A) (A) (A) (A)
                 (A) (A) (A) (A) (A) (A) (A) (A) (A) (A) (A) (A)
                 (A) (A) (A) (A) (A) (A) (A) (A) (A) (A) (A) (A)
                 (A) (A) (A) (A) (A) (A) (A) (A) (A) (A) (A) (A)
                 (A) (A) (A) (A) (A) (A) (A) (A) (A) (A) (A) (A)
                 (A) (A) (A) (A) (A) (A) (A) (A) (A) (A) (A) (A)
                 (A) (A) (A) (A) (A) (A) (A) (A) (A) (A) (A) (A)
                 (A) (A) (A) (A) (A) (A) (A) (A) (A) (A) (A) (A)
                 (A) (A) (A) (A) (A) (A) (A) (A) (A) (A) (A) (A)
                 (A) (A) (A) (A) (A) (A) (A) (A) (A) (A) (A) (A)
                 (A) (A) (A) (A) (A) (A) (A) (A) (A) (A) (A) (A)
                 (A) (A) (A) (A) (A) (A) (A) (A) (A) (A) (A) (A)
                 (A) (A) (A) (A) (A) (A) (A) (A) (A) (A) (A) (A)
                 (A) (A) (A) (A) (A) (A) (A) (A) (A) (A) (A) (A)
                 (A) (A) (A) (A) (A) (A) (A) (A) (A) (A) (A) (A)
                 (A) (A) (A) (A) (A) (A) (A) (A) (A) (A) (A) (A)
                 (A) (A) (A) (A) (A) (A) (A) (A) (A) (A) (A) (A)
                 (A) (A) (A) (A) (A) (A) (A) (A) (A) (A) (A) (A)
                 (A) (A) (A) (A) (A) (A) (A) (A) (A) (A) (A) (A)
                 (A) (A) (A) (A) (A) (A) (A) (A) (A) (A) (A) (A)
                 (A) (A) (A) (A) (A) (A) (A) (A) (A) (A) (A) (A)
                 (A) (A) (A) (A) (A) (A) (A) (A) (A) (A) (A) (A)
                 (A) (A) (A) (A) (A) (A) (A) (A) (A) (A) (A) (A)
                 (A) (A) (A) (A) (A) (A) (A) (A) (A) (A) (A) (A)
                 (A) (A) (A) (A) (A) (A) (A) (A) (A) (A) (A) (A)
                 (A) (A) (A) (A) (A) (A) (A) (A) (A) (A) (A) (A)
                 (A) (A) (A) (A) (A) (A) (A) (A) (A) (A) (A) (A)
                 (A) (A) (A) (A) (A) (A) (A) (A) (A) (A) (A) (A)
                 (A) (A) (A) (A) (A) (A) (A) (A) (A) (A) (A) (A)
                 (A) (A) (A) (A) (A) (A) (A) (A) (A) (A) (A) (A)
                 (A) (A) (A) (A) (A) (A) (A) (A) (A) (A) (A) (A)
                 (A) (A) (A) (A) (A) (A) (A) (A) (A) (A) (A) (A)
                 (A) (A) (A) (A) (A) (A) (A) (A) (A) (A) (A) (A)
                 (A) (A) (A) (A) (A) (A) (A) (A) (A) (A) (A) (A)
                 (A) (A) (A) (A) (A) (A) (A) (A) (A) (A) (A) (A)
                 (A) (A) (A) (A) (A) (A) (A) (A) (A) (A) (A) (A)
                 (A) (A) (A) (A) (A) (A) (A) (A) (A) (A) (A) (A)
                 (A) (A) (A) (A) (A) (A) (A) (A) (A) (A) (A) (A)
                 (A) (A) (A) (A) (A) (A) (A) (A) (A) (A) (A) (A)
                 (A) (A) (A) (A) (A) (A) (A) (A) (A) (A) (A) (A)
                 (A) (A) (A) (A) (A) (A) (A) (A) (A) (A) (A) (A)
                 (A) (A) (A) (A) (A) (A) (A) (A) (A) (A) (A) (A)
                 (A) (A) (A) (A) (A) (A) (A) (A) (A) (A) (A) (A)
                 (A) (A) (A) (A) (A) (A) (A) (A) (A) (A) (A) (A)
                 (A) (A) (A) (A) (A) (A) (A) (A) (A) (A) (A) (A)
                 (A) (A) (A) (A) (A) (A) (A) (A) (A) (A) (A) (A)
                 (A) (A) (A) (A) (A) (A) (A) (A) (A) (A) (A) (A)
                 (A) (A) (A) (A) (A) (A) (A) (A) (A) (A) (A) (A)
                 (A) (A) (A) (A) (A) (A) (A) (A) (A) (A) (A) (A)
                 (A) (A) (A) (A) (A) (A) (A) (A) (A) (A) (A) (A)
                 (A) (A) (A) (A) (A) (A) (A) (A) (A) (A) (A) (A)
                 (A) (A) (A) (A) (A) (A) (A) (A) (A) (A) (A) (A)
                 (A) (A) (A) (A) (A) (A) (A) (A) (A) (A) (A) (A)
                 (A) (A) (A) (A) (A) (A) (A) (A) (A) (A) (A) (A)
                 (A) (A) (A) (A) (A) (A) (A) (A) (A) (A) (A) (A)
                 (A) (A) (A) (A) (A) (A) (A) (A) (A) (A) (A) (A)
                 (A) (A) (A) (A) (A) (A) (A) (A) (A) (A) (A) (A)
                 (A) (A) (A) (A) (A) (A) (A) (A) (A) (A) (A) (A)
                 (A) (A) (A) (A) (A) (A) (A) (A) (A) (A) (A) (A)
                 (A) (A) (A) (A) (A) (A) (A) (A) (A) (A) (A) (A)
                 (A) (A) (A) (A) (A) (A) (A) (A) (A) (A) (A) (A)
                 (A) (A) (A) (A) (A) (A) (A) (A) (A) (A) (A) (A)
                 (A) (A) (A) (A) (A) (A) (A) (A) (A) (A) (A) (A)
                 (A) (A) (A) (A) (A) (A) (A) (A) (A) (A) (A) (A)
                 (A) (A) (A) (A) (A) (A) (A) (A) (A) (A) (A) (A)
                 (A) (A) (A) (A) (A) (A) (A) (A) (A) (A) (A) (A)
                 (A) (A) (A) (A) (A) (A) (A) (A) (A) (A) (A) (A)
                 (A) (A) (A) (A) (A) (A) (A) (A) (A) (A) (A) (A)
                 (A) (A) (A) (A) (A) (A) (A) (A) (A) (A) (A) (A)
                 (A) (A) (A) (A) (A) (A) (A) (A) (A) (A) (A) (A)
                 (A) (A) (A) (A) (A) (A) (A) (A) (A) (A) (A) (A)
                 (A) (A) (A) (A) (A) (A) (A) (A) (A) (A) (A) (A)
                 (A) (A) (A) (A) (A) (A) (A) (A) (A) (A) (A) (A)
                 (A) (A) (A) (A) (A) (A) (A) (A) (A) (A) (A) (A)
                 (A) (A) (A) (A) (A) (A) (A) (A) (A) (A) (A) (A)
                 (A) (A) (A) (A) (A) (A) (A) (A) (A) (A) (A) (A)
                 (A) (A) (A) (A) (A) (A) (A) (A) (A) (A) (A) (A)
                 (A) (A) (A) (A) (A) (A) (A) (A) (A) (A) (A) (A)
                 (A) (A) (A) (A) (A) (A) (A) (A) (A) (A) (A) (A)
                 (A) (A) (A) (A) (A) (A) (A) (A) (A) (A) (A) (A)
                 (A) (A) (A) (A) (A) (A) (A) (A) (A) (A) (A) (A)
                 (A) (A) (A) (A) (A) (A) (A) (A) (A) (A) (A) (A)
                 (A) (A) (A) (A) (A) (A) (A) (A) (A) (A) (A) (A)
                 (A) (A) (A) (A) (A) (A) (A) (A) (A) (A) (A) (A)
                 (A) (A) (A) (A) (A) (A) (A) (A) (A) (A) (A) (A)
                 (A) (A) (A) (A) (A) (A) (A) (A) (A) (A) (A) (A)
                 (A) (A) (A) (A) (A) (A) (A) (A) (A) (A) (A) (A)
                 (A) (A) (A) (A) (A) (A) (A) (A) (A) (A) (A) (A)
                 (A) (A) (A) (A) (A) (A) (A) (A) (A) (A) (A) (A)
                 (A) (A) (A) (A) (A) (A) (A) (A) (A) (A) (A) (A)
                 (A) (A) (A) (A) (A) (A) (A) (A) (A) (A) (A) (A)
                 (A) (A) (A) (A) (A) (A) (A) (A) (A) (A) (A) (A)
                 (A) (A) (A) (A) (A) (A) (A) (A) (A) (A) (A) (A)
                 (A) (A) (A) (A) (A) (A) (A) (A) (A) (A) (A) (A)
                 (A) (A) (A) (A) (A) (A) (A) (A) (A) (A) (A) (A)
                 (A) (A) (A) (A) (A) (A) (A) (A) (A) (A) (A) (A)
                 (A) (A) (A) (A) (A) (A) (A) (A) (A) (A) (A) (A)
                 (A) (A) (A) (A) (A) (A) (A) (A) (A) (A) (A) (A)
                 (A) (A) (A) (A) (A) (A) (A) (A) (A) (A) (A) (A)
                 (A) (A) (A) (A) (A) (A) (A) (A) (A) (A) (A) (A)
                 (A) (A) (A) (A) (A) (A) (A) (A) (A) (A) (A) (A)
                 (A) (A) (A) (A) (A) (A) (A) (A) (A) (A) (A) (A)
                 (A) (A) (A) (A) (A) (A) (A) (A) (A) (A) (A) (A)
                 (A) (A) (A) (A) (A) (A) (A) (A) (A) (A) (A) (A)
                 (A) (A) (A) (A) (A) (A) (A) (A) (A) (A) (A) (A)
                 (A) (A) (A) (A) (A) (A)
 The electronic state is 2-A.
 Alpha  occ. eigenvalues -- -256.37501 -89.07264 -30.24361 -26.09034 -26.08118
 Alpha  occ. eigenvalues --  -26.06806 -14.52176 -14.48251 -14.45662 -14.45580
 Alpha  occ. eigenvalues --  -14.45554 -14.45438 -10.36639 -10.34047 -10.32599
 Alpha  occ. eigenvalues --  -10.32516 -10.32506 -10.32425 -10.32418 -10.32390
 Alpha  occ. eigenvalues --  -10.32385 -10.32340 -10.32333 -10.31547 -10.31493
 Alpha  occ. eigenvalues --  -10.29742 -10.29654 -10.29608 -10.29588 -10.29507
 Alpha  occ. eigenvalues --  -10.29456 -10.29454 -10.29448 -10.29398 -10.29385
 Alpha  occ. eigenvalues --  -10.29348 -10.29315 -10.29187 -10.28668 -10.28509
 Alpha  occ. eigenvalues --  -10.28084 -10.27995 -10.27945 -10.27734 -10.27595
 Alpha  occ. eigenvalues --  -10.27592 -10.27450 -10.27302 -10.27149  -8.09912
 Alpha  occ. eigenvalues --   -6.04451  -6.04189  -6.03741  -3.62872  -2.41188
 Alpha  occ. eigenvalues --   -2.39243  -2.36445  -1.16204  -1.08824  -1.07814
 Alpha  occ. eigenvalues --   -1.07776  -1.06803  -1.02010  -0.93503  -0.93420
 Alpha  occ. eigenvalues --   -0.92066  -0.91797  -0.91345  -0.91015  -0.90655
 Alpha  occ. eigenvalues --   -0.90551  -0.90159  -0.86653  -0.85751  -0.85388
 Alpha  occ. eigenvalues --   -0.85127  -0.84264  -0.82974  -0.81740  -0.81104
 Alpha  occ. eigenvalues --   -0.80088  -0.78510  -0.78296  -0.78096  -0.76158
 Alpha  occ. eigenvalues --   -0.75346  -0.75044  -0.75005  -0.71883  -0.70573
 Alpha  occ. eigenvalues --   -0.70279  -0.69856  -0.68763  -0.68076  -0.66506
 Alpha  occ. eigenvalues --   -0.65124  -0.64352  -0.63505  -0.63270  -0.61813
 Alpha  occ. eigenvalues --   -0.61754  -0.61385  -0.59190  -0.58751  -0.58410
 Alpha  occ. eigenvalues --   -0.58112  -0.58017  -0.57840  -0.56034  -0.55628
 Alpha  occ. eigenvalues --   -0.55088  -0.54944  -0.54462  -0.54341  -0.54067
 Alpha  occ. eigenvalues --   -0.53759  -0.53537  -0.53309  -0.53245  -0.53061
 Alpha  occ. eigenvalues --   -0.53010  -0.52800  -0.52485  -0.52143  -0.51966
 Alpha  occ. eigenvalues --   -0.51814  -0.51291  -0.50792  -0.50660  -0.50482
 Alpha  occ. eigenvalues --   -0.50229  -0.50148  -0.49774  -0.49747  -0.49677
 Alpha  occ. eigenvalues --   -0.49415  -0.48969  -0.48717  -0.48605  -0.48286
 Alpha  occ. eigenvalues --   -0.47790  -0.47686  -0.47560  -0.47436  -0.47228
 Alpha  occ. eigenvalues --   -0.46617  -0.46442  -0.46104  -0.45843  -0.45455
 Alpha  occ. eigenvalues --   -0.45351  -0.44812  -0.44527  -0.43610  -0.43512
 Alpha  occ. eigenvalues --   -0.43146  -0.42774  -0.42408  -0.41680  -0.40953
 Alpha  occ. eigenvalues --   -0.39644  -0.39577  -0.39116  -0.38984  -0.37528
 Alpha  occ. eigenvalues --   -0.37362  -0.37104  -0.34408  -0.33664  -0.33207
 Alpha  occ. eigenvalues --   -0.32224  -0.31858  -0.29506  -0.28913
 Alpha virt. eigenvalues --   -0.17829  -0.17624  -0.16906  -0.14001  -0.12079
 Alpha virt. eigenvalues --   -0.09238  -0.08810  -0.08091  -0.07535  -0.06408
 Alpha virt. eigenvalues --   -0.05760  -0.05254  -0.04979  -0.04061  -0.03829
 Alpha virt. eigenvalues --   -0.03321  -0.02911  -0.02533  -0.02392  -0.01920
 Alpha virt. eigenvalues --   -0.01703  -0.01414  -0.00979  -0.00535  -0.00215
 Alpha virt. eigenvalues --    0.00360   0.00436   0.00661   0.00684   0.00889
 Alpha virt. eigenvalues --    0.01409   0.01918   0.02152   0.02630   0.02742
 Alpha virt. eigenvalues --    0.02862   0.03035   0.03122   0.03272   0.03619
 Alpha virt. eigenvalues --    0.03922   0.03985   0.04255   0.04403   0.04573
 Alpha virt. eigenvalues --    0.04618   0.04769   0.04950   0.05047   0.05292
 Alpha virt. eigenvalues --    0.05603   0.05745   0.05885   0.06166   0.06373
 Alpha virt. eigenvalues --    0.06479   0.06589   0.07032   0.07170   0.07283
 Alpha virt. eigenvalues --    0.07674   0.07760   0.07914   0.08223   0.08523
 Alpha virt. eigenvalues --    0.08658   0.08942   0.09073   0.09283   0.09507
 Alpha virt. eigenvalues --    0.09854   0.09895   0.10346   0.10510   0.10568
 Alpha virt. eigenvalues --    0.11027   0.11195   0.11469   0.11509   0.11891
 Alpha virt. eigenvalues --    0.12173   0.12362   0.12696   0.12927   0.13252
 Alpha virt. eigenvalues --    0.13296   0.13546   0.13902   0.13961   0.14075
 Alpha virt. eigenvalues --    0.14455   0.14604   0.14965   0.15157   0.15394
 Alpha virt. eigenvalues --    0.15802   0.16402   0.16650   0.16945   0.17141
 Alpha virt. eigenvalues --    0.17340   0.17482   0.17723   0.17865   0.17961
 Alpha virt. eigenvalues --    0.18388   0.18658   0.18824   0.18958   0.19572
 Alpha virt. eigenvalues --    0.19755   0.20035   0.20145   0.20256   0.20431
 Alpha virt. eigenvalues --    0.20819   0.20911   0.21162   0.21340   0.21787
 Alpha virt. eigenvalues --    0.21951   0.22144   0.22401   0.22773   0.22905
 Alpha virt. eigenvalues --    0.23280   0.23511   0.23612   0.24130   0.24428
 Alpha virt. eigenvalues --    0.24589   0.24711   0.24866   0.25326   0.25604
 Alpha virt. eigenvalues --    0.25794   0.26205   0.26529   0.26651   0.27062
 Alpha virt. eigenvalues --    0.27559   0.27805   0.27853   0.28073   0.28656
 Alpha virt. eigenvalues --    0.28783   0.28856   0.29085   0.29225   0.29296
 Alpha virt. eigenvalues --    0.29831   0.29894   0.30051   0.30370   0.30638
 Alpha virt. eigenvalues --    0.30809   0.30947   0.31297   0.31397   0.31559
 Alpha virt. eigenvalues --    0.31743   0.32212   0.32401   0.32713   0.32804
 Alpha virt. eigenvalues --    0.32920   0.33017   0.33478   0.33668   0.33689
 Alpha virt. eigenvalues --    0.33885   0.34041   0.34212   0.34561   0.34637
 Alpha virt. eigenvalues --    0.34850   0.35151   0.35228   0.35390   0.35581
 Alpha virt. eigenvalues --    0.35860   0.36024   0.36078   0.36339   0.36492
 Alpha virt. eigenvalues --    0.36678   0.36923   0.37246   0.37400   0.37716
 Alpha virt. eigenvalues --    0.37878   0.37913   0.38226   0.38352   0.38517
 Alpha virt. eigenvalues --    0.38612   0.38923   0.39022   0.39291   0.39439
 Alpha virt. eigenvalues --    0.39592   0.39666   0.40196   0.40335   0.40337
 Alpha virt. eigenvalues --    0.40746   0.40911   0.41020   0.41177   0.41549
 Alpha virt. eigenvalues --    0.41799   0.41863   0.41943   0.42270   0.42443
 Alpha virt. eigenvalues --    0.42684   0.42825   0.42918   0.43196   0.43427
 Alpha virt. eigenvalues --    0.43654   0.43726   0.43898   0.44198   0.44220
 Alpha virt. eigenvalues --    0.44698   0.44915   0.45136   0.45364   0.45676
 Alpha virt. eigenvalues --    0.45908   0.46029   0.46182   0.46531   0.46809
 Alpha virt. eigenvalues --    0.46947   0.47253   0.47282   0.47735   0.47955
 Alpha virt. eigenvalues --    0.48419   0.48576   0.48724   0.48987   0.49163
 Alpha virt. eigenvalues --    0.49302   0.49432   0.49869   0.50190   0.50298
 Alpha virt. eigenvalues --    0.50425   0.50954   0.51165   0.51778   0.52241
 Alpha virt. eigenvalues --    0.52392   0.52553   0.52928   0.53128   0.53457
 Alpha virt. eigenvalues --    0.53625   0.53922   0.54262   0.54317   0.54555
 Alpha virt. eigenvalues --    0.54826   0.55227   0.55438   0.55794   0.55853
 Alpha virt. eigenvalues --    0.56086   0.56352   0.57055   0.57477   0.57607
 Alpha virt. eigenvalues --    0.57946   0.58114   0.58545   0.58891   0.59132
 Alpha virt. eigenvalues --    0.59300   0.59459   0.60170   0.60565   0.60579
 Alpha virt. eigenvalues --    0.61108   0.61355   0.61691   0.62002   0.62456
 Alpha virt. eigenvalues --    0.62565   0.62942   0.62998   0.63264   0.63604
 Alpha virt. eigenvalues --    0.63928   0.64012   0.64494   0.65124   0.65492
 Alpha virt. eigenvalues --    0.65602   0.66128   0.66375   0.66577   0.66811
 Alpha virt. eigenvalues --    0.67224   0.67257   0.67570   0.67838   0.68122
 Alpha virt. eigenvalues --    0.68232   0.68629   0.69002   0.69372   0.69795
 Alpha virt. eigenvalues --    0.70190   0.70583   0.70836   0.71439   0.71526
 Alpha virt. eigenvalues --    0.71820   0.72462   0.72894   0.73112   0.73473
 Alpha virt. eigenvalues --    0.73776   0.73901   0.74261   0.74511   0.74929
 Alpha virt. eigenvalues --    0.75274   0.75718   0.76336   0.76490   0.76692
 Alpha virt. eigenvalues --    0.77186   0.77338   0.78045   0.78204   0.78716
 Alpha virt. eigenvalues --    0.78923   0.79175   0.79458   0.79950   0.80123
 Alpha virt. eigenvalues --    0.80501   0.80910   0.81082   0.81826   0.82032
 Alpha virt. eigenvalues --    0.82223   0.82467   0.82879   0.82928   0.83315
 Alpha virt. eigenvalues --    0.83615   0.84240   0.84598   0.84734   0.85070
 Alpha virt. eigenvalues --    0.85538   0.85688   0.86200   0.86257   0.86663
 Alpha virt. eigenvalues --    0.87287   0.87450   0.87584   0.88225   0.88373
 Alpha virt. eigenvalues --    0.88648   0.88951   0.89429   0.89698   0.89997
 Alpha virt. eigenvalues --    0.90104   0.90361   0.90687   0.90817   0.91360
 Alpha virt. eigenvalues --    0.91552   0.92169   0.92322   0.92702   0.92884
 Alpha virt. eigenvalues --    0.93209   0.93302   0.93783   0.93913   0.94051
 Alpha virt. eigenvalues --    0.94265   0.94702   0.95075   0.95370   0.95616
 Alpha virt. eigenvalues --    0.96115   0.96815   0.97146   0.97454   0.97698
 Alpha virt. eigenvalues --    0.97921   0.98137   0.98459   0.98884   0.99242
 Alpha virt. eigenvalues --    0.99606   0.99847   0.99911   1.00325   1.00716
 Alpha virt. eigenvalues --    1.00839   1.01583   1.01704   1.02135   1.02440
 Alpha virt. eigenvalues --    1.02997   1.03151   1.04520   1.04756   1.04961
 Alpha virt. eigenvalues --    1.05226   1.05547   1.05843   1.06670   1.06960
 Alpha virt. eigenvalues --    1.07037   1.07416   1.07835   1.07889   1.08594
 Alpha virt. eigenvalues --    1.09344   1.09547   1.09657   1.10144   1.10413
 Alpha virt. eigenvalues --    1.10916   1.11135   1.11198   1.11719   1.12066
 Alpha virt. eigenvalues --    1.12343   1.12682   1.13070   1.13251   1.13457
 Alpha virt. eigenvalues --    1.13757   1.13958   1.14261   1.14810   1.15276
 Alpha virt. eigenvalues --    1.15833   1.16118   1.16920   1.17146   1.17626
 Alpha virt. eigenvalues --    1.17841   1.17990   1.18511   1.18781   1.18944
 Alpha virt. eigenvalues --    1.19077   1.19511   1.20255   1.20729   1.20994
 Alpha virt. eigenvalues --    1.21176   1.21619   1.21792   1.22392   1.22527
 Alpha virt. eigenvalues --    1.22964   1.23170   1.23875   1.24339   1.24679
 Alpha virt. eigenvalues --    1.25752   1.26451   1.26752   1.27150   1.27304
 Alpha virt. eigenvalues --    1.27891   1.28777   1.29333   1.29683   1.30487
 Alpha virt. eigenvalues --    1.31041   1.31164   1.31719   1.32173   1.32892
 Alpha virt. eigenvalues --    1.33178   1.33661   1.34415   1.34630   1.34812
 Alpha virt. eigenvalues --    1.35606   1.36042   1.36174   1.36795   1.37120
 Alpha virt. eigenvalues --    1.37449   1.37978   1.38574   1.38833   1.39275
 Alpha virt. eigenvalues --    1.39485   1.39832   1.39964   1.40309   1.40484
 Alpha virt. eigenvalues --    1.40775   1.41177   1.41660   1.41864   1.42347
 Alpha virt. eigenvalues --    1.42419   1.42798   1.43057   1.43158   1.43322
 Alpha virt. eigenvalues --    1.43701   1.43862   1.44409   1.44550   1.44793
 Alpha virt. eigenvalues --    1.44879   1.45233   1.45719   1.45910   1.46346
 Alpha virt. eigenvalues --    1.46501   1.46711   1.46898   1.47058   1.47240
 Alpha virt. eigenvalues --    1.47443   1.47771   1.48070   1.48536   1.48598
 Alpha virt. eigenvalues --    1.48992   1.49053   1.49391   1.49818   1.49993
 Alpha virt. eigenvalues --    1.50346   1.50540   1.50706   1.51064   1.51446
 Alpha virt. eigenvalues --    1.51836   1.52253   1.52546   1.52647   1.52905
 Alpha virt. eigenvalues --    1.53410   1.53653   1.53773   1.54201   1.54258
 Alpha virt. eigenvalues --    1.54415   1.54601   1.54797   1.54948   1.55617
 Alpha virt. eigenvalues --    1.56119   1.56229   1.56481   1.56754   1.57006
 Alpha virt. eigenvalues --    1.57393   1.57432   1.58101   1.58411   1.58561
 Alpha virt. eigenvalues --    1.58726   1.59021   1.59305   1.59536   1.59580
 Alpha virt. eigenvalues --    1.60016   1.60417   1.60638   1.60988   1.61023
 Alpha virt. eigenvalues --    1.61372   1.61921   1.62046   1.62425   1.63007
 Alpha virt. eigenvalues --    1.63300   1.63573   1.63777   1.63896   1.64319
 Alpha virt. eigenvalues --    1.64991   1.65200   1.65351   1.65989   1.66657
 Alpha virt. eigenvalues --    1.67134   1.67732   1.68332   1.68537   1.68787
 Alpha virt. eigenvalues --    1.69510   1.70276   1.70494   1.71019   1.71421
 Alpha virt. eigenvalues --    1.71659   1.72048   1.72413   1.72742   1.73573
 Alpha virt. eigenvalues --    1.74632   1.74732   1.75011   1.75380   1.75471
 Alpha virt. eigenvalues --    1.75710   1.76253   1.76670   1.77146   1.77258
 Alpha virt. eigenvalues --    1.77621   1.78020   1.78219   1.78413   1.78562
 Alpha virt. eigenvalues --    1.79132   1.79597   1.80067   1.80128   1.80706
 Alpha virt. eigenvalues --    1.81034   1.81648   1.82038   1.82475   1.83247
 Alpha virt. eigenvalues --    1.83580   1.84128   1.84854   1.84927   1.85437
 Alpha virt. eigenvalues --    1.85778   1.86126   1.86626   1.86983   1.87294
 Alpha virt. eigenvalues --    1.87896   1.88134   1.88229   1.88475   1.89336
 Alpha virt. eigenvalues --    1.89595   1.90171   1.90278   1.90557   1.90807
 Alpha virt. eigenvalues --    1.91055   1.91686   1.91976   1.92292   1.92698
 Alpha virt. eigenvalues --    1.93204   1.93975   1.94364   1.94480   1.95242
 Alpha virt. eigenvalues --    1.96104   1.96306   1.96652   1.97332   1.97535
 Alpha virt. eigenvalues --    1.97998   1.98431   1.99064   1.99546   2.00028
 Alpha virt. eigenvalues --    2.00098   2.00566   2.01276   2.01490   2.01558
 Alpha virt. eigenvalues --    2.02047   2.02110   2.02624   2.02898   2.03223
 Alpha virt. eigenvalues --    2.03734   2.03970   2.04511   2.05506   2.05604
 Alpha virt. eigenvalues --    2.06037   2.06454   2.06648   2.06952   2.07375
 Alpha virt. eigenvalues --    2.07750   2.08212   2.08349   2.08925   2.09799
 Alpha virt. eigenvalues --    2.10025   2.10080   2.10424   2.10878   2.11478
 Alpha virt. eigenvalues --    2.11623   2.11765   2.12222   2.12863   2.13360
 Alpha virt. eigenvalues --    2.13663   2.14044   2.15149   2.15402   2.15831
 Alpha virt. eigenvalues --    2.16577   2.16919   2.17315   2.17392   2.17936
 Alpha virt. eigenvalues --    2.18435   2.18917   2.19112   2.19533   2.19755
 Alpha virt. eigenvalues --    2.20017   2.20631   2.20991   2.21103   2.21631
 Alpha virt. eigenvalues --    2.22300   2.22326   2.23335   2.23587   2.23730
 Alpha virt. eigenvalues --    2.24317   2.24728   2.25378   2.25777   2.26078
 Alpha virt. eigenvalues --    2.26361   2.26939   2.27450   2.27477   2.27784
 Alpha virt. eigenvalues --    2.28201   2.28305   2.28792   2.28964   2.29200
 Alpha virt. eigenvalues --    2.29661   2.30620   2.31046   2.31260   2.31879
 Alpha virt. eigenvalues --    2.32301   2.32366   2.32933   2.33424   2.33540
 Alpha virt. eigenvalues --    2.34172   2.34501   2.34630   2.35009   2.35387
 Alpha virt. eigenvalues --    2.35849   2.36426   2.36788   2.36983   2.37505
 Alpha virt. eigenvalues --    2.37875   2.38069   2.38277   2.38768   2.38980
 Alpha virt. eigenvalues --    2.39480   2.39677   2.39870   2.40260   2.40918
 Alpha virt. eigenvalues --    2.41292   2.42005   2.42543   2.42961   2.43152
 Alpha virt. eigenvalues --    2.43221   2.43671   2.44109   2.44569   2.44889
 Alpha virt. eigenvalues --    2.45072   2.45620   2.46009   2.46585   2.46947
 Alpha virt. eigenvalues --    2.47422   2.47469   2.47689   2.47843   2.48172
 Alpha virt. eigenvalues --    2.48467   2.48819   2.49088   2.49215   2.49669
 Alpha virt. eigenvalues --    2.49890   2.50101   2.50698   2.50779   2.51378
 Alpha virt. eigenvalues --    2.51801   2.52245   2.52471   2.52528   2.52959
 Alpha virt. eigenvalues --    2.53494   2.53931   2.54091   2.54718   2.54883
 Alpha virt. eigenvalues --    2.55038   2.55656   2.55958   2.56137   2.56342
 Alpha virt. eigenvalues --    2.56860   2.57052   2.57672   2.57930   2.58040
 Alpha virt. eigenvalues --    2.58769   2.58961   2.59163   2.59899   2.60218
 Alpha virt. eigenvalues --    2.60592   2.60883   2.61027   2.61102   2.61274
 Alpha virt. eigenvalues --    2.61933   2.62261   2.62581   2.62842   2.63484
 Alpha virt. eigenvalues --    2.63792   2.64099   2.64590   2.64991   2.65311
 Alpha virt. eigenvalues --    2.65953   2.66290   2.66516   2.66913   2.67256
 Alpha virt. eigenvalues --    2.67810   2.68061   2.68667   2.68940   2.69523
 Alpha virt. eigenvalues --    2.69658   2.70079   2.70606   2.70974   2.71563
 Alpha virt. eigenvalues --    2.71974   2.72524   2.72691   2.73205   2.73469
 Alpha virt. eigenvalues --    2.73778   2.74138   2.74726   2.74761   2.75158
 Alpha virt. eigenvalues --    2.75611   2.75803   2.76504   2.76687   2.77098
 Alpha virt. eigenvalues --    2.77391   2.78249   2.78734   2.78812   2.78859
 Alpha virt. eigenvalues --    2.79534   2.79584   2.79867   2.80501   2.81026
 Alpha virt. eigenvalues --    2.81258   2.81589   2.81967   2.82373   2.82759
 Alpha virt. eigenvalues --    2.83089   2.83388   2.83841   2.84285   2.84328
 Alpha virt. eigenvalues --    2.85177   2.85198   2.85453   2.85884   2.86272
 Alpha virt. eigenvalues --    2.86767   2.87005   2.87496   2.87707   2.88068
 Alpha virt. eigenvalues --    2.88599   2.88870   2.89084   2.89602   2.89755
 Alpha virt. eigenvalues --    2.90189   2.90333   2.90546   2.91108   2.91606
 Alpha virt. eigenvalues --    2.91822   2.92019   2.92331   2.92611   2.92748
 Alpha virt. eigenvalues --    2.93578   2.94268   2.94457   2.94568   2.95360
 Alpha virt. eigenvalues --    2.95968   2.96143   2.96479   2.96791   2.97030
 Alpha virt. eigenvalues --    2.97542   2.97776   2.98205   2.98254   2.98514
 Alpha virt. eigenvalues --    2.99024   2.99378   2.99461   2.99648   3.00097
 Alpha virt. eigenvalues --    3.00249   3.00791   3.00977   3.01395   3.01669
 Alpha virt. eigenvalues --    3.02440   3.02563   3.02786   3.02993   3.03342
 Alpha virt. eigenvalues --    3.04134   3.04231   3.04592   3.04643   3.05075
 Alpha virt. eigenvalues --    3.05354   3.05666   3.05955   3.06072   3.06509
 Alpha virt. eigenvalues --    3.07036   3.07174   3.07423   3.07632   3.07896
 Alpha virt. eigenvalues --    3.08084   3.08571   3.08877   3.09268   3.09530
 Alpha virt. eigenvalues --    3.09727   3.09845   3.10513   3.10828   3.11123
 Alpha virt. eigenvalues --    3.11399   3.11693   3.12254   3.12500   3.12549
 Alpha virt. eigenvalues --    3.12841   3.13231   3.13369   3.13801   3.14050
 Alpha virt. eigenvalues --    3.14423   3.14683   3.14958   3.15037   3.15282
 Alpha virt. eigenvalues --    3.15894   3.16208   3.16560   3.16622   3.16909
 Alpha virt. eigenvalues --    3.17160   3.17230   3.17621   3.17757   3.18001
 Alpha virt. eigenvalues --    3.18263   3.18372   3.18923   3.18984   3.19318
 Alpha virt. eigenvalues --    3.20180   3.20200   3.20457   3.20685   3.21022
 Alpha virt. eigenvalues --    3.21136   3.21353   3.21417   3.21695   3.21831
 Alpha virt. eigenvalues --    3.22090   3.22337   3.22499   3.23009   3.23388
 Alpha virt. eigenvalues --    3.23767   3.24101   3.24275   3.24515   3.24951
 Alpha virt. eigenvalues --    3.25091   3.25480   3.25533   3.25762   3.25984
 Alpha virt. eigenvalues --    3.26026   3.26468   3.26829   3.26884   3.27181
 Alpha virt. eigenvalues --    3.27424   3.27632   3.28043   3.28206   3.28393
 Alpha virt. eigenvalues --    3.28852   3.29197   3.29380   3.29695   3.29900
 Alpha virt. eigenvalues --    3.30315   3.30698   3.30877   3.30985   3.31246
 Alpha virt. eigenvalues --    3.31866   3.32213   3.32722   3.32944   3.33317
 Alpha virt. eigenvalues --    3.33502   3.33874   3.34240   3.34982   3.35181
 Alpha virt. eigenvalues --    3.35601   3.35832   3.36098   3.36264   3.36577
 Alpha virt. eigenvalues --    3.36791   3.37392   3.37659   3.37727   3.38574
 Alpha virt. eigenvalues --    3.38869   3.39303   3.39653   3.39925   3.40808
 Alpha virt. eigenvalues --    3.41010   3.41364   3.41773   3.42479   3.42569
 Alpha virt. eigenvalues --    3.42773   3.43518   3.44385   3.44581   3.44734
 Alpha virt. eigenvalues --    3.44865   3.45136   3.45968   3.45978   3.46542
 Alpha virt. eigenvalues --    3.46988   3.47492   3.47772   3.48028   3.48196
 Alpha virt. eigenvalues --    3.48570   3.48947   3.49151   3.49248   3.49903
 Alpha virt. eigenvalues --    3.50296   3.50576   3.51252   3.51848   3.52100
 Alpha virt. eigenvalues --    3.52428   3.52975   3.53460   3.53989   3.54642
 Alpha virt. eigenvalues --    3.54941   3.55099   3.55506   3.55862   3.56198
 Alpha virt. eigenvalues --    3.56423   3.56988   3.57917   3.58240   3.58913
 Alpha virt. eigenvalues --    3.59353   3.59949   3.60142   3.60357   3.60620
 Alpha virt. eigenvalues --    3.61163   3.61695   3.61895   3.62079   3.62188
 Alpha virt. eigenvalues --    3.62295   3.62571   3.63383   3.63728   3.64152
 Alpha virt. eigenvalues --    3.64507   3.65105   3.65268   3.65383   3.65948
 Alpha virt. eigenvalues --    3.66511   3.66779   3.66898   3.67661   3.68095
 Alpha virt. eigenvalues --    3.68600   3.69570   3.69792   3.70545   3.70824
 Alpha virt. eigenvalues --    3.71530   3.71727   3.71879   3.72260   3.72958
 Alpha virt. eigenvalues --    3.73134   3.73886   3.74556   3.75206   3.75538
 Alpha virt. eigenvalues --    3.75928   3.76823   3.77151   3.78370   3.78510
 Alpha virt. eigenvalues --    3.79391   3.79817   3.80186   3.81042   3.81530
 Alpha virt. eigenvalues --    3.81768   3.81989   3.82262   3.82623   3.82897
 Alpha virt. eigenvalues --    3.84305   3.84613   3.85025   3.86417   3.86956
 Alpha virt. eigenvalues --    3.87127   3.87922   3.88362   3.88762   3.89357
 Alpha virt. eigenvalues --    3.89953   3.90053   3.90544   3.90762   3.91749
 Alpha virt. eigenvalues --    3.91861   3.92633   3.93039   3.93212   3.93520
 Alpha virt. eigenvalues --    3.93830   3.94931   3.95191   3.95826   3.96487
 Alpha virt. eigenvalues --    3.96765   3.97316   3.98289   3.99449   4.00034
 Alpha virt. eigenvalues --    4.00840   4.01015   4.01262   4.02589   4.02672
 Alpha virt. eigenvalues --    4.03493   4.04647   4.05277   4.05629   4.05967
 Alpha virt. eigenvalues --    4.06263   4.06501   4.07410   4.08121   4.08630
 Alpha virt. eigenvalues --    4.09299   4.09817   4.10416   4.11045   4.11814
 Alpha virt. eigenvalues --    4.12002   4.12078   4.12609   4.13668   4.14433
 Alpha virt. eigenvalues --    4.14534   4.15346   4.15916   4.16827   4.17311
 Alpha virt. eigenvalues --    4.17665   4.18325   4.18539   4.18983   4.19508
 Alpha virt. eigenvalues --    4.19984   4.20111   4.20920   4.21507   4.22420
 Alpha virt. eigenvalues --    4.22858   4.23213   4.24243   4.24755   4.25131
 Alpha virt. eigenvalues --    4.25651   4.26141   4.26289   4.26734   4.27269
 Alpha virt. eigenvalues --    4.27602   4.27936   4.29073   4.29815   4.30101
 Alpha virt. eigenvalues --    4.31044   4.31584   4.31715   4.31939   4.32332
 Alpha virt. eigenvalues --    4.32992   4.33745   4.33911   4.34422   4.34962
 Alpha virt. eigenvalues --    4.35069   4.35594   4.35961   4.36210   4.36261
 Alpha virt. eigenvalues --    4.37179   4.37649   4.38345   4.38959   4.39058
 Alpha virt. eigenvalues --    4.40102   4.40718   4.41436   4.42078   4.43419
 Alpha virt. eigenvalues --    4.43760   4.44605   4.45129   4.46366   4.46903
 Alpha virt. eigenvalues --    4.47635   4.47894   4.48037   4.48822   4.49822
 Alpha virt. eigenvalues --    4.51100   4.51995   4.53589   4.54883   4.55255
 Alpha virt. eigenvalues --    4.56434   4.57638   4.58126   4.58924   4.59269
 Alpha virt. eigenvalues --    4.59551   4.60313   4.60771   4.61733   4.62178
 Alpha virt. eigenvalues --    4.63147   4.63611   4.64450   4.64875   4.65904
 Alpha virt. eigenvalues --    4.66819   4.67021   4.67985   4.69342   4.71174
 Alpha virt. eigenvalues --    4.72070   4.72849   4.73134   4.73430   4.74115
 Alpha virt. eigenvalues --    4.74799   4.75190   4.75646   4.75997   4.76225
 Alpha virt. eigenvalues --    4.76744   4.77514   4.78297   4.78970   4.80198
 Alpha virt. eigenvalues --    4.81079   4.81856   4.83161   4.83889   4.84810
 Alpha virt. eigenvalues --    4.84865   4.85505   4.86326   4.87091   4.88350
 Alpha virt. eigenvalues --    4.89404   4.90157   4.90849   4.92023   4.92347
 Alpha virt. eigenvalues --    4.93813   4.94060   4.95262   4.96100   4.96575
 Alpha virt. eigenvalues --    4.97504   4.98673   4.99081   5.00569   5.01576
 Alpha virt. eigenvalues --    5.02078   5.03978   5.04546   5.05691   5.08588
 Alpha virt. eigenvalues --    5.09717   5.09991   5.11143   5.12312   5.12879
 Alpha virt. eigenvalues --    5.13174   5.13796   5.15325   5.16730   5.18228
 Alpha virt. eigenvalues --    5.18563   5.19713   5.19806   5.22862   5.24945
 Alpha virt. eigenvalues --    5.25690   5.27622   5.28038   5.28379   5.28864
 Alpha virt. eigenvalues --    5.29461   5.30459   5.31404   5.32050   5.34141
 Alpha virt. eigenvalues --    5.36208   5.37531   5.38181   5.39727   5.40432
 Alpha virt. eigenvalues --    5.40917   5.42858   5.42949   5.46615   5.49503
 Alpha virt. eigenvalues --    5.51000   5.51533   5.52049   5.52899   5.53863
 Alpha virt. eigenvalues --    5.55454   5.56297   5.57587   5.57760   5.59111
 Alpha virt. eigenvalues --    5.61898   5.64539   5.66425   5.67606   5.71551
 Alpha virt. eigenvalues --    5.75547   5.77593   5.83685   5.83817   5.86956
 Alpha virt. eigenvalues --    5.88494   5.90199   5.91103   5.91757   5.93115
 Alpha virt. eigenvalues --    5.99726   6.02434   6.03604   6.04193   6.06573
 Alpha virt. eigenvalues --    6.07642   6.10904   6.16265   6.23491   6.24714
 Alpha virt. eigenvalues --    6.30858   9.17328   9.34112   9.45599  19.88568
 Alpha virt. eigenvalues --   22.27343  22.28040  22.30669  22.35542  22.36808
 Alpha virt. eigenvalues --   22.37086  22.39258  22.43907  22.44058  22.45053
 Alpha virt. eigenvalues --   22.53339  22.54052  22.71847  22.77442  22.78472
 Alpha virt. eigenvalues --   22.81381  22.85762  22.86410  22.86958  22.88811
 Alpha virt. eigenvalues --   22.93357  22.94440  23.02364  23.03478  23.17255
 Alpha virt. eigenvalues --   23.19218  23.21639  23.22619  23.31243  23.32916
 Alpha virt. eigenvalues --   23.41133  23.41285  23.45825  23.63197  23.68256
 Alpha virt. eigenvalues --   23.69005  23.79088  32.31808  32.75577  32.84588
 Alpha virt. eigenvalues --   32.91750  32.97348  33.03990
  Beta  occ. eigenvalues -- -256.37466 -89.07291 -30.22139 -26.06555 -26.06213
  Beta  occ. eigenvalues --  -26.05630 -14.52179 -14.48321 -14.45710 -14.45629
  Beta  occ. eigenvalues --  -14.45609 -14.45495 -10.36638 -10.34049 -10.32587
  Beta  occ. eigenvalues --  -10.32518 -10.32509 -10.32428 -10.32408 -10.32378
  Beta  occ. eigenvalues --  -10.32374 -10.32334 -10.32327 -10.31541 -10.31493
  Beta  occ. eigenvalues --  -10.29742 -10.29629 -10.29616 -10.29570 -10.29508
  Beta  occ. eigenvalues --  -10.29455 -10.29455 -10.29441 -10.29403 -10.29368
  Beta  occ. eigenvalues --  -10.29354 -10.29321 -10.29188 -10.28675 -10.28511
  Beta  occ. eigenvalues --  -10.28085 -10.27996 -10.27945 -10.27735 -10.27596
  Beta  occ. eigenvalues --  -10.27592 -10.27451 -10.27290 -10.27147  -8.09938
  Beta  occ. eigenvalues --   -6.04468  -6.04224  -6.03807  -3.57475  -2.33371
  Beta  occ. eigenvalues --   -2.33337  -2.32865  -1.16230  -1.08842  -1.07832
  Beta  occ. eigenvalues --   -1.07796  -1.06822  -1.02055  -0.93553  -0.93423
  Beta  occ. eigenvalues --   -0.92063  -0.91787  -0.91345  -0.91009  -0.90660
  Beta  occ. eigenvalues --   -0.90558  -0.90162  -0.86649  -0.85765  -0.85385
  Beta  occ. eigenvalues --   -0.85138  -0.84261  -0.82973  -0.81741  -0.81103
  Beta  occ. eigenvalues --   -0.80093  -0.78518  -0.78303  -0.78113  -0.76186
  Beta  occ. eigenvalues --   -0.75366  -0.75030  -0.75015  -0.71884  -0.70573
  Beta  occ. eigenvalues --   -0.70297  -0.69862  -0.68757  -0.68067  -0.66498
  Beta  occ. eigenvalues --   -0.65128  -0.64359  -0.63510  -0.63268  -0.61832
  Beta  occ. eigenvalues --   -0.61774  -0.61395  -0.59170  -0.58743  -0.58417
  Beta  occ. eigenvalues --   -0.58102  -0.58012  -0.57843  -0.55975  -0.55618
  Beta  occ. eigenvalues --   -0.55015  -0.54917  -0.54445  -0.54343  -0.54054
  Beta  occ. eigenvalues --   -0.53743  -0.53498  -0.53299  -0.53251  -0.53058
  Beta  occ. eigenvalues --   -0.52990  -0.52742  -0.52477  -0.52141  -0.51957
  Beta  occ. eigenvalues --   -0.51807  -0.51266  -0.50784  -0.50646  -0.50440
  Beta  occ. eigenvalues --   -0.50198  -0.50100  -0.49758  -0.49649  -0.49529
  Beta  occ. eigenvalues --   -0.49269  -0.48925  -0.48681  -0.48602  -0.48272
  Beta  occ. eigenvalues --   -0.47750  -0.47645  -0.47430  -0.47352  -0.47057
  Beta  occ. eigenvalues --   -0.46611  -0.46438  -0.45961  -0.45822  -0.45429
  Beta  occ. eigenvalues --   -0.44867  -0.44427  -0.43847  -0.43405  -0.43374
  Beta  occ. eigenvalues --   -0.42631  -0.42311  -0.41791  -0.41010  -0.39663
  Beta  occ. eigenvalues --   -0.39355  -0.38755  -0.37929  -0.37523  -0.36641
  Beta  occ. eigenvalues --   -0.35758  -0.34299  -0.33997  -0.33024  -0.32568
  Beta  occ. eigenvalues --   -0.31522  -0.29560  -0.28844
  Beta virt. eigenvalues --   -0.19963  -0.17600  -0.16333  -0.14433  -0.12035
  Beta virt. eigenvalues --   -0.11308  -0.09177  -0.08759  -0.07937  -0.07504
  Beta virt. eigenvalues --   -0.06397  -0.05716  -0.05255  -0.04980  -0.04041
  Beta virt. eigenvalues --   -0.03817  -0.03244  -0.02894  -0.02477  -0.02298
  Beta virt. eigenvalues --   -0.01906  -0.01676  -0.01352  -0.00972  -0.00527
  Beta virt. eigenvalues --   -0.00175   0.00372   0.00445   0.00667   0.00687
  Beta virt. eigenvalues --    0.00896   0.01423   0.01942   0.02162   0.02648
  Beta virt. eigenvalues --    0.02789   0.02886   0.03053   0.03143   0.03296
  Beta virt. eigenvalues --    0.03648   0.03930   0.04009   0.04260   0.04420
  Beta virt. eigenvalues --    0.04576   0.04636   0.04771   0.04961   0.05069
  Beta virt. eigenvalues --    0.05306   0.05617   0.05759   0.05899   0.06168
  Beta virt. eigenvalues --    0.06392   0.06500   0.06598   0.07045   0.07179
  Beta virt. eigenvalues --    0.07287   0.07686   0.07784   0.07935   0.08223
  Beta virt. eigenvalues --    0.08551   0.08674   0.08967   0.09079   0.09301
  Beta virt. eigenvalues --    0.09513   0.09855   0.09921   0.10354   0.10519
  Beta virt. eigenvalues --    0.10602   0.11056   0.11208   0.11472   0.11514
  Beta virt. eigenvalues --    0.11890   0.12178   0.12379   0.12705   0.12946
  Beta virt. eigenvalues --    0.13255   0.13335   0.13598   0.13911   0.13999
  Beta virt. eigenvalues --    0.14096   0.14485   0.14626   0.14999   0.15180
  Beta virt. eigenvalues --    0.15426   0.15813   0.16409   0.16665   0.16980
  Beta virt. eigenvalues --    0.17196   0.17381   0.17523   0.17772   0.17943
  Beta virt. eigenvalues --    0.17991   0.18411   0.18677   0.18841   0.19060
  Beta virt. eigenvalues --    0.19576   0.19829   0.20065   0.20151   0.20299
  Beta virt. eigenvalues --    0.20491   0.20825   0.20944   0.21224   0.21362
  Beta virt. eigenvalues --    0.21805   0.21956   0.22168   0.22420   0.22791
  Beta virt. eigenvalues --    0.22913   0.23305   0.23521   0.23624   0.24145
  Beta virt. eigenvalues --    0.24433   0.24607   0.24750   0.24885   0.25340
  Beta virt. eigenvalues --    0.25629   0.25860   0.26225   0.26551   0.26662
  Beta virt. eigenvalues --    0.27178   0.27578   0.27813   0.27866   0.28091
  Beta virt. eigenvalues --    0.28656   0.28799   0.28896   0.29110   0.29236
  Beta virt. eigenvalues --    0.29314   0.29839   0.29921   0.30085   0.30401
  Beta virt. eigenvalues --    0.30673   0.30853   0.30993   0.31301   0.31425
  Beta virt. eigenvalues --    0.31585   0.31761   0.32220   0.32422   0.32732
  Beta virt. eigenvalues --    0.32811   0.32963   0.33070   0.33503   0.33679
  Beta virt. eigenvalues --    0.33704   0.33917   0.34073   0.34298   0.34585
  Beta virt. eigenvalues --    0.34715   0.34895   0.35180   0.35249   0.35404
  Beta virt. eigenvalues --    0.35619   0.35867   0.36034   0.36100   0.36397
  Beta virt. eigenvalues --    0.36501   0.36723   0.36951   0.37277   0.37404
  Beta virt. eigenvalues --    0.37724   0.37883   0.37935   0.38233   0.38363
  Beta virt. eigenvalues --    0.38537   0.38628   0.38928   0.39043   0.39299
  Beta virt. eigenvalues --    0.39443   0.39602   0.39672   0.40250   0.40340
  Beta virt. eigenvalues --    0.40343   0.40748   0.40943   0.41032   0.41189
  Beta virt. eigenvalues --    0.41567   0.41805   0.41892   0.41951   0.42288
  Beta virt. eigenvalues --    0.42448   0.42687   0.42830   0.42919   0.43203
  Beta virt. eigenvalues --    0.43448   0.43680   0.43737   0.43904   0.44213
  Beta virt. eigenvalues --    0.44232   0.44701   0.44918   0.45173   0.45386
  Beta virt. eigenvalues --    0.45692   0.45920   0.46054   0.46187   0.46539
  Beta virt. eigenvalues --    0.46838   0.46993   0.47275   0.47297   0.47758
  Beta virt. eigenvalues --    0.48003   0.48421   0.48602   0.48733   0.49003
  Beta virt. eigenvalues --    0.49174   0.49308   0.49466   0.49896   0.50212
  Beta virt. eigenvalues --    0.50305   0.50425   0.50985   0.51172   0.51793
  Beta virt. eigenvalues --    0.52277   0.52405   0.52558   0.52937   0.53161
  Beta virt. eigenvalues --    0.53468   0.53640   0.53931   0.54286   0.54331
  Beta virt. eigenvalues --    0.54585   0.54842   0.55243   0.55457   0.55797
  Beta virt. eigenvalues --    0.55918   0.56106   0.56399   0.57090   0.57495
  Beta virt. eigenvalues --    0.57632   0.57975   0.58116   0.58623   0.58919
  Beta virt. eigenvalues --    0.59139   0.59333   0.59481   0.60187   0.60591
  Beta virt. eigenvalues --    0.60607   0.61113   0.61381   0.61710   0.62005
  Beta virt. eigenvalues --    0.62462   0.62637   0.62975   0.63068   0.63293
  Beta virt. eigenvalues --    0.63619   0.63956   0.64105   0.64561   0.65177
  Beta virt. eigenvalues --    0.65518   0.65633   0.66225   0.66422   0.66596
  Beta virt. eigenvalues --    0.66871   0.67226   0.67283   0.67594   0.67854
  Beta virt. eigenvalues --    0.68139   0.68289   0.68640   0.69023   0.69458
  Beta virt. eigenvalues --    0.69881   0.70227   0.70602   0.70869   0.71453
  Beta virt. eigenvalues --    0.71541   0.71849   0.72493   0.72902   0.73123
  Beta virt. eigenvalues --    0.73512   0.73795   0.73933   0.74294   0.74574
  Beta virt. eigenvalues --    0.74953   0.75298   0.75729   0.76347   0.76504
  Beta virt. eigenvalues --    0.76710   0.77209   0.77384   0.78071   0.78231
  Beta virt. eigenvalues --    0.78737   0.78946   0.79198   0.79488   0.79977
  Beta virt. eigenvalues --    0.80145   0.80520   0.80922   0.81097   0.81846
  Beta virt. eigenvalues --    0.82059   0.82272   0.82486   0.82906   0.82952
  Beta virt. eigenvalues --    0.83323   0.83630   0.84263   0.84648   0.84753
  Beta virt. eigenvalues --    0.85092   0.85575   0.85729   0.86215   0.86283
  Beta virt. eigenvalues --    0.86694   0.87300   0.87478   0.87601   0.88244
  Beta virt. eigenvalues --    0.88419   0.88661   0.89023   0.89442   0.89707
  Beta virt. eigenvalues --    0.90005   0.90113   0.90412   0.90706   0.90833
  Beta virt. eigenvalues --    0.91411   0.91559   0.92232   0.92332   0.92725
  Beta virt. eigenvalues --    0.92924   0.93242   0.93355   0.93791   0.93951
  Beta virt. eigenvalues --    0.94079   0.94280   0.94717   0.95126   0.95470
  Beta virt. eigenvalues --    0.95641   0.96231   0.96850   0.97195   0.97491
  Beta virt. eigenvalues --    0.97722   0.97943   0.98193   0.98470   0.98918
  Beta virt. eigenvalues --    0.99262   0.99699   0.99877   0.99946   1.00364
  Beta virt. eigenvalues --    1.00814   1.00931   1.01592   1.01763   1.02186
  Beta virt. eigenvalues --    1.02461   1.03034   1.03238   1.04545   1.04769
  Beta virt. eigenvalues --    1.05029   1.05261   1.05585   1.05896   1.06692
  Beta virt. eigenvalues --    1.07031   1.07070   1.07458   1.07861   1.07900
  Beta virt. eigenvalues --    1.08624   1.09417   1.09573   1.09681   1.10164
  Beta virt. eigenvalues --    1.10455   1.10933   1.11173   1.11239   1.11736
  Beta virt. eigenvalues --    1.12133   1.12356   1.12705   1.13112   1.13318
  Beta virt. eigenvalues --    1.13500   1.13783   1.14002   1.14330   1.14834
  Beta virt. eigenvalues --    1.15310   1.15855   1.16311   1.16937   1.17191
  Beta virt. eigenvalues --    1.17643   1.17873   1.18016   1.18551   1.18827
  Beta virt. eigenvalues --    1.19007   1.19109   1.19523   1.20366   1.20758
  Beta virt. eigenvalues --    1.21078   1.21267   1.21718   1.21875   1.22408
  Beta virt. eigenvalues --    1.22641   1.23036   1.23218   1.23920   1.24402
  Beta virt. eigenvalues --    1.24710   1.25819   1.26477   1.26765   1.27180
  Beta virt. eigenvalues --    1.27386   1.28012   1.28800   1.29364   1.29728
  Beta virt. eigenvalues --    1.30516   1.31147   1.31203   1.31782   1.32197
  Beta virt. eigenvalues --    1.32926   1.33298   1.33736   1.34445   1.34661
  Beta virt. eigenvalues --    1.34850   1.35661   1.36102   1.36230   1.36809
  Beta virt. eigenvalues --    1.37144   1.37517   1.37996   1.38596   1.38874
  Beta virt. eigenvalues --    1.39295   1.39519   1.39864   1.39992   1.40331
  Beta virt. eigenvalues --    1.40524   1.40804   1.41203   1.41670   1.41894
  Beta virt. eigenvalues --    1.42369   1.42450   1.42814   1.43097   1.43249
  Beta virt. eigenvalues --    1.43358   1.43707   1.43874   1.44431   1.44553
  Beta virt. eigenvalues --    1.44807   1.44929   1.45271   1.45731   1.45929
  Beta virt. eigenvalues --    1.46380   1.46517   1.46738   1.46920   1.47070
  Beta virt. eigenvalues --    1.47260   1.47455   1.47788   1.48084   1.48545
  Beta virt. eigenvalues --    1.48606   1.49024   1.49079   1.49404   1.49832
  Beta virt. eigenvalues --    1.50003   1.50379   1.50566   1.50720   1.51083
  Beta virt. eigenvalues --    1.51464   1.51863   1.52260   1.52555   1.52668
  Beta virt. eigenvalues --    1.52930   1.53425   1.53679   1.53777   1.54216
  Beta virt. eigenvalues --    1.54263   1.54419   1.54606   1.54804   1.54961
  Beta virt. eigenvalues --    1.55619   1.56146   1.56243   1.56496   1.56775
  Beta virt. eigenvalues --    1.57023   1.57400   1.57455   1.58131   1.58410
  Beta virt. eigenvalues --    1.58575   1.58747   1.59025   1.59311   1.59538
  Beta virt. eigenvalues --    1.59588   1.60019   1.60417   1.60649   1.60994
  Beta virt. eigenvalues --    1.61033   1.61377   1.61919   1.62054   1.62432
  Beta virt. eigenvalues --    1.63007   1.63300   1.63576   1.63780   1.63920
  Beta virt. eigenvalues --    1.64332   1.64992   1.65207   1.65352   1.66031
  Beta virt. eigenvalues --    1.66697   1.67136   1.67749   1.68338   1.68543
  Beta virt. eigenvalues --    1.68784   1.69512   1.70279   1.70488   1.71012
  Beta virt. eigenvalues --    1.71414   1.71670   1.72051   1.72417   1.72757
  Beta virt. eigenvalues --    1.73597   1.74644   1.74738   1.75035   1.75389
  Beta virt. eigenvalues --    1.75464   1.75731   1.76259   1.76684   1.77156
  Beta virt. eigenvalues --    1.77262   1.77637   1.78049   1.78234   1.78428
  Beta virt. eigenvalues --    1.78573   1.79143   1.79612   1.80078   1.80141
  Beta virt. eigenvalues --    1.80707   1.81039   1.81667   1.82043   1.82489
  Beta virt. eigenvalues --    1.83261   1.83589   1.84162   1.84879   1.84953
  Beta virt. eigenvalues --    1.85478   1.85814   1.86162   1.86642   1.87012
  Beta virt. eigenvalues --    1.87299   1.87925   1.88151   1.88265   1.88519
  Beta virt. eigenvalues --    1.89361   1.89610   1.90191   1.90306   1.90580
  Beta virt. eigenvalues --    1.90819   1.91073   1.91709   1.91989   1.92319
  Beta virt. eigenvalues --    1.92719   1.93228   1.93997   1.94400   1.94512
  Beta virt. eigenvalues --    1.95270   1.96149   1.96326   1.96665   1.97353
  Beta virt. eigenvalues --    1.97564   1.98020   1.98454   1.99195   1.99571
  Beta virt. eigenvalues --    2.00077   2.00131   2.00588   2.01284   2.01511
  Beta virt. eigenvalues --    2.01567   2.02078   2.02142   2.02649   2.02930
  Beta virt. eigenvalues --    2.03307   2.03754   2.03986   2.04531   2.05532
[...]
  1468. RY*(  16) C  80                  0.00000    21.09170   
  1469. RY*(  17) C  80                  0.00000     2.26047   
  1470. RY*(  18) C  80                  0.00001     2.94143   
  1471. RY*(  19) C  80                  0.00000     3.16117   
  1472. RY*(  20) C  80                  0.00000     3.00915   
  1473. RY*(  21) C  80                  0.00000     3.23354   
  1474. RY*(  22) C  80                  0.00000     3.36988   
  1475. RY*(  23) C  80                  0.00000     3.34343   
  1476. RY*(  24) C  80                  0.00000     3.22504   
  1477. RY*(  25) C  80                  0.00000     3.34005   
  1478. RY*(  26) C  80                  0.00000     3.20406   
  1479. RY*(   1) H  81                  0.00040     1.08761   
  1480. RY*(   2) H  81                  0.00012     1.62958   
  1481. RY*(   3) H  81                  0.00007     2.22201   
  1482. RY*(   4) H  81                  0.00004     1.96728   
  1483. RY*(   5) H  81                  0.00000     2.97496   
  1484. RY*(   1) H  82                  0.00070     0.85476   
  1485. RY*(   2) H  82                  0.00015     2.37445   
  1486. RY*(   3) H  82                  0.00006     2.41188   
  1487. RY*(   4) H  82                  0.00002     2.85719   
  1488. RY*(   5) H  82                  0.00002     2.40541   
  1489. RY*(   1) S  83                  0.00287     0.54888   
  1490. RY*(   2) S  83                  0.00167     0.99247   
  1491. RY*(   3) S  83                  0.00146     0.90990   
  1492. RY*(   4) S  83                  0.00084     1.12448   
  1493. RY*(   5) S  83                  0.00043     1.10188   
  1494. RY*(   6) S  83                  0.00038     1.71152   
  1495. RY*(   7) S  83                  0.00036     1.66574   
  1496. RY*(   8) S  83                  0.00018     1.86382   
  1497. RY*(   9) S  83                  0.00016     1.56669   
  1498. RY*(  10) S  83                  0.00013     1.72139   
  1499. RY*(  11) S  83                  0.00009     1.73821   
  1500. RY*(  12) S  83                  0.00006     2.54929   
  1501. RY*(  13) S  83                  0.00004     2.35687   
  1502. RY*(  14) S  83                  0.00005     2.06678   
  1503. RY*(  15) S  83                  0.00002     1.78719   
  1504. RY*(  16) S  83                  0.00001     2.59505   
  1505. RY*(  17) S  83                  0.00002     3.05521   
  1506. RY*(  18) S  83                  0.00001     2.50657   
  1507. RY*(  19) S  83                  0.00000    16.87251   
  1508. RY*(  20) S  83                  0.00000     7.35585   
  1509. RY*(  21) S  83                  0.00000     8.28416   
  1510. RY*(  22) S  83                  0.00000     2.52017   
  1511. RY*(  23) S  83                  0.00000     8.27735   
  1512. RY*(  24) S  83                  0.00000     2.08628   
  1513. RY*(  25) S  83                  0.00000     2.01087   
  1514. RY*(  26) S  83                  0.00000     2.39709   
  1515. RY*(  27) S  83                  0.00000     2.10135   
  1516. RY*(  28) S  83                  0.00000     2.09710   
  1517. RY*(   1) C  84                  0.00089     1.39601   
  1518. RY*(   2) C  84                  0.00049     0.90738   
  1519. RY*(   3) C  84                  0.00032     0.93947   
  1520. RY*(   4) C  84                  0.00028     1.22250   
  1521. RY*(   5) C  84                  0.00018     0.74685   
  1522. RY*(   6) C  84                  0.00014     1.00755   
  1523. RY*(   7) C  84                  0.00010     1.21241   
  1524. RY*(   8) C  84                  0.00004     1.45040   
  1525. RY*(   9) C  84                  0.00002     1.45360   
  1526. RY*(  10) C  84                  0.00003     1.38893   
  1527. RY*(  11) C  84                  0.00001     1.58261   
  1528. RY*(  12) C  84                  0.00001     1.43310   
  1529. RY*(  13) C  84                  0.00000     3.02802   
  1530. RY*(  14) C  84                  0.00000    21.01224   
  1531. RY*(  15) C  84                  0.00000     2.99451   
  1532. RY*(  16) C  84                  0.00001     2.20360   
  1533. RY*(  17) C  84                  0.00000     2.86599   
  1534. RY*(  18) C  84                  0.00000     3.07374   
  1535. RY*(  19) C  84                  0.00000     3.21984   
  1536. RY*(  20) C  84                  0.00000     3.61095   
  1537. RY*(  21) C  84                  0.00000     3.07348   
  1538. RY*(  22) C  84                  0.00000     3.03236   
  1539. RY*(  23) C  84                  0.00000     3.40885   
  1540. RY*(  24) C  84                  0.00000     3.13523   
  1541. RY*(  25) C  84                  0.00000     3.14531   
  1542. RY*(  26) C  84                  0.00000     3.16116   
  1543. RY*(   1) H  85                  0.00054     0.84167   
  1544. RY*(   2) H  85                  0.00014     2.23988   
  1545. RY*(   3) H  85                  0.00005     2.22535   
  1546. RY*(   4) H  85                  0.00003     2.94528   
  1547. RY*(   5) H  85                  0.00002     2.11488   
  1548. RY*(   1) H  86                  0.00023     1.56680   
  1549. RY*(   2) H  86                  0.00008     1.82353   
  1550. RY*(   3) H  86                  0.00004     2.25101   
  1551. RY*(   4) H  86                  0.00002     1.68086   
  1552. RY*(   5) H  86                  0.00001     2.91197   
  1553. RY*(   1) H  87                  0.00034     1.14955   
  1554. RY*(   2) H  87                  0.00008     1.50003   
  1555. RY*(   3) H  87                  0.00006     1.93739   
  1556. RY*(   4) H  87                  0.00004     2.03552   
  1557. RY*(   5) H  87                  0.00000     2.84032   
  1558. BD*(   1)Fe   1 - N   2          0.03355     0.27753   
  1559. BD*(   1)Fe   1 - N   3          0.03258     0.28272   
  1560. BD*(   1)Fe   1 - N   4          0.03655     0.29739   
  1561. BD*(   1)Fe   1 - N   5          0.03307     0.29233   
  1562. BD*(   1)Fe   1 - N  73          0.03981     0.26092   
  1563. BD*(   1)Fe   1 - S  83          0.02986     0.22237   
  1564. BD*(   1) N   2 - C   6          0.01463     0.39900   
  1565. BD*(   2) N   2 - C   6          0.32870    -0.10035  1611(v),1584(v),1579(v)
                                                    308(g),171(v),722(v),203(g)
  1566. BD*(   1) N   2 - C   9          0.01372     0.40054   
  1567. BD*(   1) N   3 - C  10          0.01419     0.40350   
  1568. BD*(   2) N   3 - C  10          0.32423    -0.10180  1584(v),1588(v),1593(v)
                                                    412(g),1574(r),753(v),229(g)
                                                    171(v),1655(r),1562(v)
  1569. BD*(   1) N   3 - C  13          0.01456     0.40256   
  1570. BD*(   1) N   4 - C  14          0.01421     0.41000   
  1571. BD*(   2) N   4 - C  14          0.31699    -0.09549  1593(v),1602(v),1597(v)
                                                    171(v),515(g),255(g),784(v)
                                                    516(g)
  1572. BD*(   1) N   4 - C  17          0.01435     0.40059   
  1573. BD*(   1) N   5 - C  18          0.01372     0.40432   
  1574. BD*(   2) N   5 - C  18          0.32105    -0.10076  1602(v),1606(v),1611(v)
                                                    620(g),1568(r),171(v),281(g)
                                                    285(g)
  1575. BD*(   1) N   5 - C  21          0.01448     0.40239   
  1576. BD*(   1) C   6 - C   7          0.01747     0.38774   
  1577. BD*(   1) C   6 - C  22          0.01045     0.47338   
  1578. BD*(   1) C   7 - C   8          0.01161     0.50603   
  1579. BD*(   2) C   7 - C   8          0.12091    -0.03249  1584(v),1565(v),1620(v)
                                                    1616(v),1617(v),1619(v)
  1580. BD*(   1) C   7 - C  30          0.00824     0.31955   
  1581. BD*(   1) C   8 - C   9          0.01792     0.38476   
  1582. BD*(   1) C   8 - C  34          0.00827     0.31812   
  1583. BD*(   1) C   9 - C  24          0.01072     0.46339   
  1584. BD*(   2) C   9 - C  24          0.21155    -0.06268  1568(v),1579(v),1565(v)
                                                    753(g),1611(r),388(g)
                                                    1593(r)
  1585. BD*(   1) C  10 - C  11          0.01791     0.38813   
  1586. BD*(   1) C  10 - C  24          0.01090     0.46641   
  1587. BD*(   1) C  11 - C  12          0.01163     0.50693   
  1588. BD*(   2) C  11 - C  12          0.11940    -0.03126  1593(v),1568(v),1641(v)
                                                    1639(v),1643(v),1638(v)
  1589. BD*(   1) C  11 - C  60          0.00831     0.31946   
  1590. BD*(   1) C  12 - C  13          0.01744     0.38676   
  1591. BD*(   1) C  12 - C  56          0.00828     0.32178   
  1592. BD*(   1) C  13 - C  26          0.01054     0.47109   
  1593. BD*(   2) C  13 - C  26          0.19747    -0.05629  1571(v),1588(v),1568(v)
                                                    784(g),1602(r),492(g)
                                                    1584(r)
  1594. BD*(   1) C  14 - C  15          0.01663     0.38359   
  1595. BD*(   1) C  14 - C  26          0.01031     0.47077   
  1596. BD*(   1) C  15 - C  16          0.01255     0.49370   
  1597. BD*(   2) C  15 - C  16          0.13637    -0.03271  1635(v),1602(v),1571(v)
                                                    1630(v),1631(v)
  1598. BD*(   1) C  15 - C  51          0.01329     0.40434   
  1599. BD*(   1) C  16 - C  17          0.01695     0.39373   
  1600. BD*(   1) C  16 - C  47          0.00773     0.32411   
  1601. BD*(   1) C  17 - C  28          0.01053     0.46741   
  1602. BD*(   2) C  17 - C  28          0.20566    -0.05810  1611(r),1574(v),1597(v)
                                                    1571(v),1593(r),596(g)
                                                    815(g)
  1603. BD*(   1) C  18 - C  19          0.01715     0.38385   
  1604. BD*(   1) C  18 - C  28          0.01048     0.46966   
  1605. BD*(   1) C  19 - C  20          0.01261     0.49125   
  1606. BD*(   2) C  19 - C  20          0.13905    -0.03513  1627(v),1611(v),1574(v)
                                                    1622(v)
  1607. BD*(   1) C  19 - C  42          0.01336     0.40355   
  1608. BD*(   1) C  20 - C  21          0.01688     0.39432   
  1609. BD*(   1) C  20 - C  38          0.00785     0.32273   
  1610. BD*(   1) C  21 - C  22          0.01061     0.46759   
  1611. BD*(   2) C  21 - C  22          0.20399    -0.05814  1602(r),1565(v),1606(v)
                                                    1574(v),722(g),1584(r)
                                                    700(g)
  1612. BD*(   1) C  22 - H  23          0.00642     0.33449   
  1613. BD*(   1) C  24 - H  25          0.00650     0.33618   
  1614. BD*(   1) C  26 - H  27          0.00643     0.33474   
  1615. BD*(   1) C  28 - H  29          0.00669     0.33641   
  1616. BD*(   1) C  30 - H  31          0.00474     0.29205   
  1617. BD*(   1) C  30 - H  32          0.00459     0.29233   
  1618. BD*(   1) C  30 - H  33          0.00303     0.30490   
  1619. BD*(   1) C  34 - H  35          0.00441     0.29159   
  1620. BD*(   1) C  34 - H  36          0.00488     0.28914   
  1621. BD*(   1) C  34 - H  37          0.00305     0.30427   
  1622. BD*(   1) C  38 - H  39          0.00557     0.29240   
  1623. BD*(   1) C  38 - H  40          0.00440     0.29921   
  1624. BD*(   1) C  38 - H  41          0.00378     0.30816   
  1625. BD*(   1) C  42 - H  43          0.01032     0.33551   
  1626. BD*(   1) C  42 - C  44          0.00364     0.54512   
  1627. BD*(   2) C  42 - C  44          0.03052    -0.02724   
  1628. BD*(   1) C  44 - H  45          0.00516     0.35190   
  1629. BD*(   1) C  44 - H  46          0.00384     0.35629   
  1630. BD*(   1) C  47 - H  48          0.00532     0.29523   
  1631. BD*(   1) C  47 - H  49          0.00437     0.29981   
  1632. BD*(   1) C  47 - H  50          0.00374     0.30936   
  1633. BD*(   1) C  51 - H  52          0.01032     0.33653   
  1634. BD*(   1) C  51 - C  53          0.00366     0.54690   
  1635. BD*(   2) C  51 - C  53          0.03040    -0.02585   
  1636. BD*(   1) C  53 - H  54          0.00514     0.35387   
  1637. BD*(   1) C  53 - H  55          0.00387     0.35717   
  1638. BD*(   1) C  56 - H  57          0.00460     0.29518   
  1639. BD*(   1) C  56 - H  58          0.00477     0.29442   
  1640. BD*(   1) C  56 - H  59          0.00303     0.30690   
  1641. BD*(   1) C  60 - H  61          0.00478     0.29133   
  1642. BD*(   1) C  60 - H  62          0.00302     0.30477   
  1643. BD*(   1) C  60 - H  63          0.00460     0.29036   
  1644. BD*(   1) C  64 - H  65          0.00511     0.27633   
  1645. BD*(   1) C  64 - H  66          0.00157     0.28828   
  1646. BD*(   1) C  64 - H  67          0.00507     0.27616   
  1647. BD*(   1) C  64 - C  70          0.00624     0.29605   
  1648. BD*(   1) N  68 - H  69          0.00662     0.27211   
  1649. BD*(   1) N  68 - C  70          0.01356     0.32679   
  1650. BD*(   1) N  68 - C  71          0.01041     0.34082   
  1651. BD*(   1) C  70 - C  74          0.01041     0.46145   
  1652. BD*(   1) C  71 - H  72          0.00865     0.28295   
  1653. BD*(   1) C  71 - N  73          0.00919     0.41916   
  1654. BD*(   1) N  73 - C  74          0.00842     0.36685   
  1655. BD*(   2) N  73 - C  74          0.33461    -0.12584  94(v),173(v),1382(g),1355(g)
                                                    1325(v),1359(g),1568(r)
  1656. BD*(   1) C  74 - H  75          0.00704     0.32473   
  1657. BD*(   1) C  76 - H  77          0.00443     0.31255   
  1658. BD*(   1) C  76 - H  78          0.00360     0.29362   
  1659. BD*(   1) C  76 - H  79          0.00385     0.29495   
  1660. BD*(   1) C  76 - C  80          0.00313     0.25889   
  1661. BD*(   1) C  80 - H  81          0.00873     0.26220   
  1662. BD*(   1) C  80 - H  82          0.01073     0.28592   
  1663. BD*(   1) C  80 - S  83          0.01658     0.03871   
  1664. BD*(   1) S  83 - C  84          0.00687     0.04967   
  1665. BD*(   1) C  84 - H  85          0.00721     0.28337   
  1666. BD*(   1) C  84 - H  86          0.00328     0.28463   
  1667. BD*(   1) C  84 - H  87          0.00532     0.27378   
       -------------------------------
              Total Lewis  168.28925  ( 97.2770%)
        Valence non-Lewis    4.37494  (  2.5289%)
        Rydberg non-Lewis    0.33581  (  0.1941%)
       -------------------------------
            Total unit  1  173.00000  (100.0000%)
           Charge unit  1    1.00000
 Unable to Open any file for archive entry.
 1\1\GINC-BGN1036\SP\UAPFD\def2TZVP\C37H42Fe1N6S1(1+,2)\BEBJONES\23-Jul
 -2024\0\\# apfd/def2TZVP guess=read scf=maxcycle=999 geom=check pop=nb
 o\\1hzu_III_D\\1,2\Fe,0,-3.5322058561,64.110859972,113.4137934313\N,0,
 -2.7614357297,65.9802042038,113.2510049704\N,0,-1.9803912285,63.432534
 6618,112.341786594\N,0,-4.2332205606,62.283288053,113.621282859\N,0,-4
 .9555181337,64.8316816138,114.6151486318\C,0,-3.139998112,67.078331529
 8,113.9609111192\C,0,-2.2374200962,68.1821294185,113.7259679608\C,0,-1
 .3029303717,67.7284348623,112.8488265621\C,0,-1.6619804012,66.36041504
 79,112.5461804578\C,0,-0.9992111588,64.1474269159,111.7335774301\C,0,-
 0.0487776556,63.2681389367,111.0904317184\C,0,-0.5011811844,62.0022768
 007,111.2970384268\C,0,-1.7126269029,62.1260110784,112.0780783885\C,0,
 -3.6944782872,61.1387823384,113.1390357032\C,0,-4.5425928796,60.003805
 4012,113.4506178904\C,0,-5.6186228592,60.5125682269,114.127870635\C,0,
 -5.4055087684,61.9356188034,114.2165125602\C,0,-6.0645029882,64.162970
 5472,115.0217722437\C,0,-6.9306430055,65.0306173952,115.7966249758\C,0
 ,-6.2840463084,66.2367974286,115.869076501\C,0,-5.0696260383,66.092957
 8361,115.1084454116\C,0,-4.2167441623,67.1444995692,114.821793313\H,0,
 -4.4133097481,68.0920122565,115.2993970104\C,0,-0.8579009856,65.521393
 3919,111.7945616537\H,0,-0.0220506468,65.9632501288,111.2738901393\C,0
 ,-2.5109091,61.0535077091,112.4296594096\H,0,-2.1888316205,60.07426173
 43,112.109850938\C,0,-6.283325736,62.8109143971,114.8335134338\H,0,-7.
 2055792265,62.3978643835,115.2124995423\C,0,-2.3553143135,69.519023581
 2,114.3736420468\H,0,-2.2868686903,69.4281672644,115.4581013155\H,0,-3
 .3148802278,69.9777250388,114.1335036169\H,0,-1.5642884966,70.18405246
 94,114.0353985975\C,0,-0.1323571608,68.4413602775,112.2625741806\H,0,-
 0.1791464573,68.4268761411,111.1734519005\H,0,0.8010304951,67.96558242
 66,112.5662149777\H,0,-0.1083361828,69.4779516479,112.5899560175\C,0,-
 6.6837609209,67.4611098035,116.6162586441\H,0,-7.1684871976,68.1822995
 555,115.9557209144\H,0,-5.8123772421,67.9420883031,117.0584260584\H,0,
 -7.3803513215,67.2025300838,117.4112621466\C,0,-8.193940837,64.6352326
 129,116.3773660345\H,0,-8.2720574115,63.5940628296,116.6677055806\C,0,
 -9.2420080954,65.4316284657,116.5627784718\H,0,-9.2441268564,66.460863
 6751,116.2493274517\H,0,-10.1512336538,65.0689654638,117.0128284705\C,
 0,-6.7613313184,59.7777269571,114.7369997671\H,0,-7.6379155365,59.8180
 803694,114.0884319079\H,0,-7.0330220723,60.212970289,115.6975995932\H,
 0,-6.4953030682,58.7338178859,114.8907297763\C,0,-4.2408003771,58.6324
 580871,113.1058868997\H,0,-3.1878672595,58.3745783601,113.0947084396\C
 ,0,-5.13491967,57.6971104922,112.801920919\H,0,-6.1884820087,57.907975
 9834,112.7478187503\H,0,-4.8373003433,56.6886123738,112.5664529389\C,0
 ,0.0832935567,60.7065868276,110.8500098697\H,0,-0.6321571623,60.154305
 742,110.2414681021\H,0,0.34486882,60.087388654,111.7080998391\H,0,0.98
 03220252,60.8697318932,110.2582823292\C,0,1.155686434,63.7326663578,11
 0.3454342987\H,0,0.8655947347,64.3399171183,109.4871045771\H,0,1.73770
 85743,62.8873670804,109.9858502961\H,0,1.7953545561,64.3399353568,110.
 9867848221\C,0,-1.6818854585,62.7780867542,118.4963351499\H,0,-0.91396
 75571,62.0088896127,118.5783991437\H,0,-2.6327887078,62.3543901599,118
 .8036738124\H,0,-1.424962529,63.5901842935,119.1764403209\N,0,-0.73801
 79438,63.8649494071,116.4465338083\H,0,0.1800484027,64.0225374947,116.
 8285867781\C,0,-1.7867119588,63.2721270178,117.1001103334\C,0,-1.16233
 93299,64.1940294359,115.2059486521\H,0,-0.5506619585,64.6743301745,114
 .4706106961\N,0,-2.4135506373,63.8462941264,115.0350430256\C,0,-2.8164
 159787,63.2717448209,116.2037153144\H,0,-3.8126369796,62.8992530809,11
 6.3202482791\C,0,-3.6436349482,63.3865566858,109.3453298454\H,0,-3.114
 7414414,62.7258159953,110.0257993246\H,0,-3.0191585093,63.5608843955,1
 08.4715417616\H,0,-4.560367402,62.8940489929,109.0306838764\C,0,-3.959
 1399856,64.7012143941,110.0317304271\H,0,-4.5536442007,65.3446353302,1
 09.3824420456\H,0,-3.0499070861,65.2176808406,110.3348672611\S,0,-4.96
 24452786,64.3970391038,111.5416532482\C,0,-5.659622066,66.0677066702,1
 11.7142203815\H,0,-4.8580121075,66.7880731944,111.8419009068\H,0,-6.28
 79620415,66.0584599769,112.5978539902\H,0,-6.2561298589,66.2967639324,
 110.8350821546\\Version=ES64L-G16RevC.02\State=2-A\HF=-3424.6672359\S2
 =0.803291\S2-1=0.\S2A=0.751012\RMSD=1.104e-09\Dipole=1.4023086,0.57673
 63,0.6803994\Quadrupole=3.8926164,0.0074504,-3.9000668,1.3026407,-2.79
 98062,0.0531098\PG=C01 [X(C37H42Fe1N6S1)]\\@
 The archive entry for this job was punched.


 WHEN YOU REACH FOR THE STARS, YOU MAY NOT QUITE GET ONE,
 BUT YOU WON'T COME UP WITH A HANDFUL OF MUD, EITHER.

                                         -- LEO BURNETT (AD AGENCY HEAD)
 Job cpu time:       1 days 16 hours 58 minutes 19.6 seconds.
 Elapsed time:       0 days  0 hours 37 minutes  8.6 seconds.
 File lengths (MBytes):  RWF=   2563 Int=      0 D2E=      0 Chk=    233 Scr=      1
 Normal termination of Gaussian 16 at Tue Jul 23 20:11:29 2024.
