 Entering Gaussian System, Link 0=g16
 Input=1jdr12re.com
 Output=1jdr12re.log
 Initial command:
 /sw/chem/gaussian/g16_C02/a100/g16/l1.exe "/local/bebjones_7976937/Gau-1850009.inp" -scrdir="/local/bebjones_7976937/"
 Entering Link 1 = /sw/chem/gaussian/g16_C02/a100/g16/l1.exe PID=   1850010.
  
 Copyright (c) 1988-2021, Gaussian, Inc.  All Rights Reserved.
  
 This is part of the Gaussian(R) 16 program.  It is based on
 the Gaussian(R) 09 system (copyright 2009, Gaussian, Inc.),
 the Gaussian(R) 03 system (copyright 2003, Gaussian, Inc.),
 the Gaussian(R) 98 system (copyright 1998, Gaussian, Inc.),
 the Gaussian(R) 94 system (copyright 1995, Gaussian, Inc.),
 the Gaussian 92(TM) system (copyright 1992, Gaussian, Inc.),
 the Gaussian 90(TM) system (copyright 1990, Gaussian, Inc.),
 the Gaussian 88(TM) system (copyright 1988, Gaussian, Inc.),
 the Gaussian 86(TM) system (copyright 1986, Carnegie Mellon
 University), and the Gaussian 82(TM) system (copyright 1983,
 Carnegie Mellon University). Gaussian is a federally registered
 trademark of Gaussian, Inc.
  
 This software contains proprietary and confidential information,
 including trade secrets, belonging to Gaussian, Inc.
  
 This software is provided under written license and may be
 used, copied, transmitted, or stored only in accord with that
 written license.
  
 The following legend is applicable only to US Government
 contracts under FAR:
  
                    RESTRICTED RIGHTS LEGEND
  
 Use, reproduction and disclosure by the US Government is
 subject to restrictions as set forth in subparagraphs (a)
 and (c) of the Commercial Computer Software - Restricted
 Rights clause in FAR 52.227-19.
  
 Gaussian, Inc.
 340 Quinnipiac St., Bldg. 40, Wallingford CT 06492
  
  
 ---------------------------------------------------------------
 Warning -- This program may not be used in any manner that
 competes with the business of Gaussian, Inc. or will provide
 assistance to any competitor of Gaussian, Inc.  The licensee
 of this program is prohibited from giving any competitor of
 Gaussian, Inc. access to this program.  By using this program,
 the user acknowledges that Gaussian, Inc. is engaged in the
 business of creating and licensing software in the field of
 computational chemistry and represents and warrants to the
 licensee that it is not a competitor of Gaussian, Inc. and that
 it will not use this program in any manner prohibited above.
 ---------------------------------------------------------------
  

 Cite this work as:
 Gaussian 16, Revision C.02,
 M. J. Frisch, G. W. Trucks, H. B. Schlegel, G. E. Scuseria, 
 M. A. Robb, J. R. Cheeseman, G. Scalmani, V. Barone, 
 G. A. Petersson, H. Nakatsuji, X. Li, M. Caricato, A. V. Marenich, 
 J. Bloino, B. G. Janesko, R. Gomperts, B. Mennucci, H. P. Hratchian, 
 J. V. Ortiz, A. F. Izmaylov, J. L. Sonnenberg, D. Williams-Young, 
 F. Ding, F. Lipparini, F. Egidi, J. Goings, B. Peng, A. Petrone, 
 T. Henderson, D. Ranasinghe, V. G. Zakrzewski, J. Gao, N. Rega, 
 G. Zheng, W. Liang, M. Hada, M. Ehara, K. Toyota, R. Fukuda, 
 J. Hasegawa, M. Ishida, T. Nakajima, Y. Honda, O. Kitao, H. Nakai, 
 T. Vreven, K. Throssell, J. A. Montgomery, Jr., J. E. Peralta, 
 F. Ogliaro, M. J. Bearpark, J. J. Heyd, E. N. Brothers, K. N. Kudin, 
 V. N. Staroverov, T. A. Keith, R. Kobayashi, J. Normand, 
 K. Raghavachari, A. P. Rendell, J. C. Burant, S. S. Iyengar, 
 J. Tomasi, M. Cossi, J. M. Millam, M. Klene, C. Adamo, R. Cammi, 
 J. W. Ochterski, R. L. Martin, K. Morokuma, O. Farkas, 
 J. B. Foresman, and D. J. Fox, Gaussian, Inc., Wallingford CT, 2019.
 
 ******************************************
 Gaussian 16:  ES64L-G16RevC.02  7-Dec-2021
                14-Aug-2024 
 ******************************************
 %mem=16GB
 %CPU=0-71
 SetSPE:  set environment variable "OMP_PROC_BIND" = "true"
 SetSPE:  set environment variable "OMP_PLACES" = "{0},{1},{2},{3},{4},{5},{6},{7},{8},{9},{10},{11},{12},{13},{14},{15},{16},{17},{18},{19},{20},{21},{22},{23},{24},{25},{26},{27},{28},{29},{30},{31},{32},{33},{34},{35},{36},{37},{38},{39},{40},{41},{42},{43},{44},{45},{46},{47},{48},{49},{50},{51},{52},{53},{54},{55},{56},{57},{58},{59},{60},{61},{62},{63},{64},{65},{66},{67},{68},{69},{70},{71}"
 Will use up to   72 processors via shared memory.
 %gpucpu=0,1,2,3=0,1,2,3
 Will use    4 GPUs:
 Thread  CPU   GPU
      0    0     0
      1    1     1
      2    2     2
      3    3     3
      4    4    -1
      5    5    -1
      6    6    -1
      7    7    -1
      8    8    -1
      9    9    -1
     10   10    -1
     11   11    -1
     12   12    -1
     13   13    -1
     14   14    -1
     15   15    -1
     16   16    -1
     17   17    -1
     18   18    -1
     19   19    -1
     20   20    -1
     21   21    -1
     22   22    -1
     23   23    -1
     24   24    -1
     25   25    -1
     26   26    -1
     27   27    -1
     28   28    -1
     29   29    -1
     30   30    -1
     31   31    -1
     32   32    -1
     33   33    -1
     34   34    -1
     35   35    -1
     36   36    -1
     37   37    -1
     38   38    -1
     39   39    -1
     40   40    -1
     41   41    -1
     42   42    -1
     43   43    -1
     44   44    -1
     45   45    -1
     46   46    -1
     47   47    -1
     48   48    -1
     49   49    -1
     50   50    -1
     51   51    -1
     52   52    -1
     53   53    -1
     54   54    -1
     55   55    -1
     56   56    -1
     57   57    -1
     58   58    -1
     59   59    -1
     60   60    -1
     61   61    -1
     62   62    -1
     63   63    -1
     64   64    -1
     65   65    -1
     66   66    -1
     67   67    -1
     68   68    -1
     69   69    -1
     70   70    -1
     71   71    -1
 SetGPE:  set environment variable "OMP_PROC_BIND" = "true"
 SetGPE:  set environment variable "OMP_PLACES" = "{0},{1},{2},{3},{4},{5},{6},{7},{8},{9},{10},{11},{12},{13},{14},{15},{16},{17},{18},{19},{20},{21},{22},{23},{24},{25},{26},{27},{28},{29},{30},{31},{32},{33},{34},{35},{36},{37},{38},{39},{40},{41},{42},{43},{44},{45},{46},{47},{48},{49},{50},{51},{52},{53},{54},{55},{56},{57},{58},{59},{60},{61},{62},{63},{64},{65},{66},{67},{68},{69},{70},{71}"
 %oldchk=1jdr_II_S.chk
 %chk=1jdr_II_Sre.chk
 Properties for Device   0
 Minimum vector length:                              32
 Maximum vector length:                            1024
 Number of SMPs:                                    108
 Maximum number of threads per SMP:                2048
 Number of ASync Engines:                             5
 Memory:                                           9207742464
 Properties for Device   1
 Minimum vector length:                              32
 Maximum vector length:                            1024
 Number of SMPs:                                    108
 Maximum number of threads per SMP:                2048
 Number of ASync Engines:                             5
 Memory:                                           9207742464
 Properties for Device   2
 Minimum vector length:                              32
 Maximum vector length:                            1024
 Number of SMPs:                                    108
 Maximum number of threads per SMP:                2048
 Number of ASync Engines:                             5
 Memory:                                           9207742464
 Properties for Device   3
 Minimum vector length:                              32
 Maximum vector length:                            1024
 Number of SMPs:                                    108
 Maximum number of threads per SMP:                2048
 Number of ASync Engines:                             5
 Memory:                                           9207742464
   8286968217 words of memory will be used on each GPU.
 Copying data from "1jdr_II_S.chk" to current chk file "1jdr_II_Sre.chk"
 IOpt=  2 FromEx=T IUOpen= 4 IOptOp= 5 NList=   0 IFRang= 0 IUIn= 4 IUOut= 2.
 --------------------------------------
 # apfd/gen scf=maxcycle=999 geom=check
 --------------------------------------
 1/29=2,38=1,172=1/1;
 2/12=2,40=1/2;
 3/5=7,11=2,14=-4,25=1,30=1,74=-44/1,2,3;
 4//1;
 5/5=2,7=999,38=5/2;
 6/7=2,8=2,9=2,10=2,28=1/1;
 99/5=1,9=1/99;
 ----------
 1jdr_III_D
 ----------
 Structure from the checkpoint file:  "1jdr_II_Sre.chk"
 Charge =  1 Multiplicity = 2
 Z-Matrix found in chk file.
 Fe,0,28.1519861048,91.8479716215,52.4889141466
 N,0,29.082869056,93.5273868212,51.9229385592
 N,0,29.3036779693,91.7516620179,54.1231279312
 N,0,27.1067328646,90.2661715543,53.1330027869
 N,0,26.9776311343,91.9568234979,50.8790997173
 C,0,28.8154401398,94.2807516171,50.8234074325
 C,0,29.6448760488,95.4638253691,50.8003581057
 C,0,30.4261850337,95.4057472181,51.9132330873
 C,0,30.0676252745,94.1836897802,52.5969292921
 C,0,30.2763084105,92.6314712285,54.4891982571
 C,0,30.9007035275,92.2237115106,55.7215889748
 C,0,30.290193505,91.0549941235,56.0933692708
 C,0,29.2664376566,90.8054199362,55.0956173555
 C,0,27.3231190951,89.5549299131,54.2728602123
 C,0,26.2809483026,88.580782681,54.4770603564
 C,0,25.4298520673,88.7002691115,53.4101254397
 C,0,25.9911038902,89.7392215929,52.5681545947
 C,0,25.9449344929,91.1355708945,50.5561959117
 C,0,25.4703834958,91.4149384038,49.2174172479
 C,0,26.1547817298,92.5107876497,48.7946058717
 C,0,27.0547461021,92.866657662,49.8717506508
 C,0,27.9036147902,93.9554743913,49.835662535
 H,0,27.830108636,94.6185927198,48.9871568228
 C,0,30.6322310158,93.772059679,53.7884803411
 H,0,31.4165951832,94.3874250711,54.2025575406
 C,0,28.3593319226,89.7676215004,55.1649926483
 H,0,28.4406982108,89.0875121295,55.9989052143
 C,0,25.4460169435,90.1267867072,51.3574637156
 H,0,24.5874355189,89.5815350498,50.9957195759
 C,0,31.4573156008,96.368569009,52.3949677105
 H,0,31.546650011,97.2120202827,51.7147529722
 H,0,32.4314348766,95.8844697459,52.4700495952
 H,0,31.1942873153,96.7507267409,53.3818530907
 C,0,29.5899670812,96.5082024544,49.7383958263
 H,0,28.5866119913,96.9284211177,49.6655079703
 H,0,29.8479287725,96.082185007,48.7684650985
 H,0,30.2850463914,97.3163880599,49.9527805186
 C,0,31.9564038558,92.9856013238,56.4450157245
 H,0,31.7814349541,94.0574713727,56.3656578625
 H,0,32.9450142447,92.7739151575,56.0335167476
 H,0,31.9579477341,92.7106483115,57.4978884606
 C,0,30.532189587,90.2306657275,57.2557927407
 H,0,29.6644527828,89.7252543665,57.663283821
 C,0,31.7131129907,90.0440730614,57.8371227047
 H,0,32.6180354464,90.4796191418,57.4509351766
 H,0,31.8185488624,89.4228816332,58.7110996866
 C,0,26.1474664381,87.7044703358,55.6736131812
 H,0,26.4543671842,88.2323948789,56.5751839744
 H,0,26.7705185339,86.813870793,55.5751984443
 H,0,25.1128309076,87.3884474584,55.7912273808
 C,0,24.2037925288,87.9871125157,53.1283430587
 H,0,23.4431991572,88.5562177211,52.6058621415
 C,0,23.9523665756,86.7219134138,53.4493844632
 H,0,24.6855711591,86.0945031986,53.9252109686
 H,0,23.0056645027,86.2605185247,53.2212625389
 C,0,24.4073662562,90.6351304934,48.5224871979
 H,0,23.4563189545,90.7307511697,49.0477687395
 H,0,24.6680624966,89.5772942188,48.4876403662
 H,0,24.2708773108,90.9894565536,47.5035962387
 C,0,26.053891891,93.2489401511,47.5038672837
 H,0,25.3464294514,92.7643767198,46.8353418618
 H,0,27.0239616079,93.2906172279,47.0083018078
 H,0,25.7172681545,94.2722008946,47.6738322219
 O,0,26.753,93.249,53.59
 H,0,27.097,94.122,53.4
 H,0,26.061,93.06,54.115
 C,0,30.5396587871,88.0061065473,49.2349115758
 H,0,31.0297058225,88.3452158006,48.3223655929
 H,0,29.595583997,87.5402663316,48.9708200026
 H,0,31.1776541902,87.2591097853,49.707078368
 N,0,31.3011711455,89.9346797196,50.6390054391
 H,0,32.2809270797,89.8286873239,50.4331247206
 C,0,30.2911736645,89.1452141358,50.1543874182
 C,0,30.7416252584,90.8707829287,51.438627935
 H,0,31.2939147164,91.6276499186,51.9563748236
 N,0,29.440260573,90.7219180391,51.4891375618
 C,0,29.1448628957,89.6520382936,50.6962267673
 H,0,28.1342352653,89.3228784761,50.5697529242
 Recover connectivity data from disk.
 Stoichiometry    C34H36FeN6O(1+,2)
 Framework group  C1[X(C34H36FeN6O)]
 Deg. of freedom   228
 Full point group                 C1      NOp   1
 Largest Abelian subgroup         C1      NOp   1
 Largest concise Abelian subgroup C1      NOp   1
                         Standard orientation:                         
 ---------------------------------------------------------------------
 Center     Atomic      Atomic             Coordinates (Angstroms)
 Number     Number       Type             X           Y           Z
 ---------------------------------------------------------------------
      1         26           0        0.058431   -0.173284   -0.358451
      2          7           0        1.320335   -1.725375   -0.435403
      3          7           0        1.607630    1.092847   -0.301701
      4          7           0       -1.204895    1.377506   -0.450930
      5          7           0       -1.490352   -1.428481   -0.449061
      6          6           0        0.994069   -3.041661   -0.530199
      7          6           0        2.182408   -3.855802   -0.645025
      8          6           0        3.238876   -2.998402   -0.612688
      9          6           0        2.680724   -1.672536   -0.471351
     10          6           0        2.929437    0.767056   -0.329412
     11          6           0        3.751328    1.947817   -0.257145
     12          6           0        2.890842    3.010128   -0.168245
     13          6           0        1.554983    2.447807   -0.239984
     14          6           0       -0.877497    2.698289   -0.433493
     15          6           0       -2.038741    3.519282   -0.666433
     16          6           0       -3.095952    2.658579   -0.802405
     17          6           0       -2.549254    1.326604   -0.628316
     18          6           0       -2.808344   -1.106512   -0.515536
     19          6           0       -3.630452   -2.288305   -0.363626
     20          6           0       -2.774134   -3.343802   -0.337158
     21          6           0       -1.441838   -2.787208   -0.446751
     22          6           0       -0.291413   -3.550231   -0.488217
     23          1           0       -0.404242   -4.623255   -0.519507
     24          6           0        3.437778   -0.518415   -0.417636
     25          1           0        4.511273   -0.629712   -0.441770
     26          6           0        0.401536    3.204401   -0.282494
     27          1           0        0.505214    4.277248   -0.229302
     28          6           0       -3.312349    0.173145   -0.646121
     29          1           0       -4.382688    0.280421   -0.736603
     30          6           0        4.697489   -3.292570   -0.703453
     31          1           0        4.870769   -4.360732   -0.808746
     32          1           0        5.216545   -2.947973    0.191382
     33          1           0        5.138052   -2.787607   -1.563736
     34          6           0        2.174372   -5.339876   -0.782732
     35          1           0        1.603131   -5.640247   -1.661412
     36          1           0        1.716132   -5.803220    0.091412
     37          1           0        3.185958   -5.725614   -0.883534
     38          6           0        5.238842    1.967054   -0.329637
     39          1           0        5.600901    1.212144   -1.025943
     40          1           0        5.682135    1.765102    0.647194
     41          1           0        5.582140    2.943358   -0.665970
     42          6           0        3.191791    4.421091   -0.079242
     43          1           0        2.483210    5.084766   -0.560807
     44          6           0        4.240628    4.948517    0.544539
     45          1           0        4.952074    4.345505    1.081146
     46          1           0        4.409379    6.012510    0.561084
     47          6           0       -2.026781    5.000946   -0.814786
     48          1           0       -1.129834    5.329572   -1.337483
     49          1           0       -2.047400    5.489908    0.160682
     50          1           0       -2.897514    5.326429   -1.380524
     51          6           0       -4.485650    2.946707   -1.079778
     52          1           0       -5.007194    2.201800   -1.670095
     53          6           0       -5.149991    4.023174   -0.671267
     54          1           0       -4.698673    4.771644   -0.043774
     55          1           0       -6.183856    4.179379   -0.931830
     56          6           0       -5.119301   -2.274062   -0.299133
     57          1           0       -5.540257   -1.911302   -1.237619
     58          1           0       -5.462583   -1.617240    0.500202
     59          1           0       -5.508307   -3.272554   -0.114733
     60          6           0       -3.070940   -4.799704   -0.221796
     61          1           0       -4.138308   -4.968624   -0.101703
     62          1           0       -2.554744   -5.230187    0.636449
     63          1           0       -2.739790   -5.329483   -1.115631
     64          8           0        0.209031   -0.214174   -2.618557
     65          1           0        0.808370   -0.938054   -2.801194
     66          1           0       -0.159865    0.326696   -3.219876
     67          6           0       -1.536822   -0.196571    4.980469
     68          1           0       -1.419764   -1.122877    5.542728
     69          1           0       -2.587242   -0.064761    4.741150
     70          1           0       -1.216783    0.629992    5.614782
     71          7           0        0.615668   -0.415510    3.719665
     72          1           0        1.197719   -0.530615    4.532998
     73          6           0       -0.743162   -0.237342    3.726201
     74          6           0        1.023941   -0.405370    2.430484
     75          1           0        2.041806   -0.523860    2.120899
     76          7           0        0.007015   -0.232065    1.621727
     77          6           0       -1.099068   -0.124890    2.412742
     78          1           0       -2.069162    0.023750    1.985502
 ---------------------------------------------------------------------
 Rotational constants (GHZ):           0.0931933           0.0913275           0.0593792
 General basis read from cards:  (5D, 7F)
 There are   723 symmetry adapted cartesian basis functions of A   symmetry.
 There are   679 symmetry adapted basis functions of A   symmetry.
   679 basis functions,  1378 primitive gaussians,   723 cartesian basis functions
   158 alpha electrons      157 beta electrons
       nuclear repulsion energy      5968.9227925069 Hartrees.
 NAtoms=   78 NActive=   78 NUniq=   78 SFac= 1.00D+00 NAtFMM=   60 NAOKFM=T Big=T
 Integral buffers will be    131072 words long.
 Raffenetti 2 integral format.
 Two-electron integral symmetry is turned on.
 R6APFD:  NTU= -4 IXU= 1 FactS= 1.050
 Nuclear repulsion after empirical dispersion term =     5968.7698653328 Hartrees.
 One-electron integrals computed using PRISM.
 NBasis=   679 RedAO= T EigKep=  2.55D-04  NBF=   679
 NBsUse=   679 1.00D-06 EigRej= -1.00D+00 NBFU=   679
 ExpMin= 4.20D-02 ExpMax= 3.01D+05 ExpMxC= 2.91D+03 IAcc=3 IRadAn=         5 AccDes= 0.00D+00
 Harris functional with IExCor= 3731 and IRadAn=       5 diagonalized for initial guess.
 HarFok:  IExCor= 3731 AccDes= 0.00D+00 IRadAn=         5 IDoV= 1 UseB2=F ITyADJ=14
 ICtDFT=  3500011 ScaDFX=  1.000000  1.000000  1.000000  1.000000
 FoFCou: FMM=F IPFlag=           0 FMFlag=      100000 FMFlg1=        2001
         NFxFlg=           0 DoJE=T BraDBF=F KetDBF=T FulRan=T
         wScrn=  0.000000 ICntrl=       500 IOpCl=  0 I1Cent=   200000004 NGrid=           0
         NMat0=    1 NMatS0=      1 NMatT0=    0 NMatD0=    1 NMtDS0=    0 NMtDT0=    0
 Petite list used in FoFCou.
 Initial guess <Sx>= 0.0000 <Sy>= 0.0000 <Sz>= 0.5000 <S**2>= 0.7500 S= 0.5000
 Requested convergence on RMS density matrix=1.00D-08 within 999 cycles.
 Requested convergence on MAX density matrix=1.00D-06.
 Requested convergence on             energy=1.00D-06.
 No special actions if energy rises.
 EnCoef did   100 forward-backward iterations
 EnCoef did   100 forward-backward iterations
 EnCoef did   100 forward-backward iterations
 EnCoef did   100 forward-backward iterations
 EnCoef did     2 forward-backward iterations
 EnCoef did     3 forward-backward iterations
 EnCoef did     1 forward-backward iterations
 EnCoef did     4 forward-backward iterations
 Restarting incremental Fock formation.
 Rare condition: small coef for last iteration:  0.000D+00
 Rare condition: small coef for last iteration:  0.000D+00
 Rare condition: small coef for last iteration:  0.000D+00
 Restarting incremental Fock formation.
 Restarting incremental Fock formation.
 Restarting incremental Fock formation.
 Restarting incremental Fock formation.
 SCF Done:  E(UAPFD) =  -2983.20923120     A.U. after  103 cycles
            NFock=103  Conv=0.12D-08     -V/T= 2.0038
 <Sx>= 0.0000 <Sy>= 0.0000 <Sz>= 0.5000 <S**2>= 0.7928 S= 0.5212
 <L.S>=  0.00000000000    
 Annihilation of the first spin contaminant:
 S**2 before annihilation     0.7928,   after     0.7507

 **********************************************************************

            Population analysis using the SCF Density.

 **********************************************************************

 Orbital symmetries:
 Alpha Orbitals:
       Occupied  (A) (A) (A) (A) (A) (A) (A) (A) (A) (A) (A) (A)
                 (A) (A) (A) (A) (A) (A) (A) (A) (A) (A) (A) (A)
                 (A) (A) (A) (A) (A) (A) (A) (A) (A) (A) (A) (A)
                 (A) (A) (A) (A) (A) (A) (A) (A) (A) (A) (A) (A)
                 (A) (A) (A) (A) (A) (A) (A) (A) (A) (A) (A) (A)
                 (A) (A) (A) (A) (A) (A) (A) (A) (A) (A) (A) (A)
                 (A) (A) (A) (A) (A) (A) (A) (A) (A) (A) (A) (A)
                 (A) (A) (A) (A) (A) (A) (A) (A) (A) (A) (A) (A)
                 (A) (A) (A) (A) (A) (A) (A) (A) (A) (A) (A) (A)
                 (A) (A) (A) (A) (A) (A) (A) (A) (A) (A) (A) (A)
                 (A) (A) (A) (A) (A) (A) (A) (A) (A) (A) (A) (A)
                 (A) (A) (A) (A) (A) (A) (A) (A) (A) (A) (A) (A)
                 (A) (A) (A) (A) (A) (A) (A) (A) (A) (A) (A) (A)
                 (A) (A)
       Virtual   (A) (A) (A) (A) (A) (A) (A) (A) (A) (A) (A) (A)
                 (A) (A) (A) (A) (A) (A) (A) (A) (A) (A) (A) (A)
                 (A) (A) (A) (A) (A) (A) (A) (A) (A) (A) (A) (A)
                 (A) (A) (A) (A) (A) (A) (A) (A) (A) (A) (A) (A)
                 (A) (A) (A) (A) (A) (A) (A) (A) (A) (A) (A) (A)
                 (A) (A) (A) (A) (A) (A) (A) (A) (A) (A) (A) (A)
                 (A) (A) (A) (A) (A) (A) (A) (A) (A) (A) (A) (A)
                 (A) (A) (A) (A) (A) (A) (A) (A) (A) (A) (A) (A)
                 (A) (A) (A) (A) (A) (A) (A) (A) (A) (A) (A) (A)
                 (A) (A) (A) (A) (A) (A) (A) (A) (A) (A) (A) (A)
                 (A) (A) (A) (A) (A) (A) (A) (A) (A) (A) (A) (A)
                 (A) (A) (A) (A) (A) (A) (A) (A) (A) (A) (A) (A)
                 (A) (A) (A) (A) (A) (A) (A) (A) (A) (A) (A) (A)
                 (A) (A) (A) (A) (A) (A) (A) (A) (A) (A) (A) (A)
                 (A) (A) (A) (A) (A) (A) (A) (A) (A) (A) (A) (A)
                 (A) (A) (A) (A) (A) (A) (A) (A) (A) (A) (A) (A)
                 (A) (A) (A) (A) (A) (A) (A) (A) (A) (A) (A) (A)
                 (A) (A) (A) (A) (A) (A) (A) (A) (A) (A) (A) (A)
                 (A) (A) (A) (A) (A) (A) (A) (A) (A) (A) (A) (A)
                 (A) (A) (A) (A) (A) (A) (A) (A) (A) (A) (A) (A)
                 (A) (A) (A) (A) (A) (A) (A) (A) (A) (A) (A) (A)
                 (A) (A) (A) (A) (A) (A) (A) (A) (A) (A) (A) (A)
                 (A) (A) (A) (A) (A) (A) (A) (A) (A) (A) (A) (A)
                 (A) (A) (A) (A) (A) (A) (A) (A) (A) (A) (A) (A)
                 (A) (A) (A) (A) (A) (A) (A) (A) (A) (A) (A) (A)
                 (A) (A) (A) (A) (A) (A) (A) (A) (A) (A) (A) (A)
                 (A) (A) (A) (A) (A) (A) (A) (A) (A) (A) (A) (A)
                 (A) (A) (A) (A) (A) (A) (A) (A) (A) (A) (A) (A)
                 (A) (A) (A) (A) (A) (A) (A) (A) (A) (A) (A) (A)
                 (A) (A) (A) (A) (A) (A) (A) (A) (A) (A) (A) (A)
                 (A) (A) (A) (A) (A) (A) (A) (A) (A) (A) (A) (A)
                 (A) (A) (A) (A) (A) (A) (A) (A) (A) (A) (A) (A)
                 (A) (A) (A) (A) (A) (A) (A) (A) (A) (A) (A) (A)
                 (A) (A) (A) (A) (A) (A) (A) (A) (A) (A) (A) (A)
                 (A) (A) (A) (A) (A) (A) (A) (A) (A) (A) (A) (A)
                 (A) (A) (A) (A) (A) (A) (A) (A) (A) (A) (A) (A)
                 (A) (A) (A) (A) (A) (A) (A) (A) (A) (A) (A) (A)
                 (A) (A) (A) (A) (A) (A) (A) (A) (A) (A) (A) (A)
                 (A) (A) (A) (A) (A) (A) (A) (A) (A) (A) (A) (A)
                 (A) (A) (A) (A) (A) (A) (A) (A) (A) (A) (A) (A)
                 (A) (A) (A) (A) (A) (A) (A) (A) (A) (A) (A) (A)
                 (A) (A) (A) (A) (A) (A) (A) (A) (A) (A) (A) (A)
                 (A) (A) (A) (A) (A) (A) (A) (A) (A) (A) (A) (A)
                 (A) (A) (A) (A) (A)
 Beta  Orbitals:
       Occupied  (A) (A) (A) (A) (A) (A) (A) (A) (A) (A) (A) (A)
                 (A) (A) (A) (A) (A) (A) (A) (A) (A) (A) (A) (A)
                 (A) (A) (A) (A) (A) (A) (A) (A) (A) (A) (A) (A)
                 (A) (A) (A) (A) (A) (A) (A) (A) (A) (A) (A) (A)
                 (A) (A) (A) (A) (A) (A) (A) (A) (A) (A) (A) (A)
                 (A) (A) (A) (A) (A) (A) (A) (A) (A) (A) (A) (A)
                 (A) (A) (A) (A) (A) (A) (A) (A) (A) (A) (A) (A)
                 (A) (A) (A) (A) (A) (A) (A) (A) (A) (A) (A) (A)
                 (A) (A) (A) (A) (A) (A) (A) (A) (A) (A) (A) (A)
                 (A) (A) (A) (A) (A) (A) (A) (A) (A) (A) (A) (A)
                 (A) (A) (A) (A) (A) (A) (A) (A) (A) (A) (A) (A)
                 (A) (A) (A) (A) (A) (A) (A) (A) (A) (A) (A) (A)
                 (A) (A) (A) (A) (A) (A) (A) (A) (A) (A) (A) (A)
                 (A)
       Virtual   (A) (A) (A) (A) (A) (A) (A) (A) (A) (A) (A) (A)
                 (A) (A) (A) (A) (A) (A) (A) (A) (A) (A) (A) (A)
                 (A) (A) (A) (A) (A) (A) (A) (A) (A) (A) (A) (A)
                 (A) (A) (A) (A) (A) (A) (A) (A) (A) (A) (A) (A)
                 (A) (A) (A) (A) (A) (A) (A) (A) (A) (A) (A) (A)
                 (A) (A) (A) (A) (A) (A) (A) (A) (A) (A) (A) (A)
                 (A) (A) (A) (A) (A) (A) (A) (A) (A) (A) (A) (A)
                 (A) (A) (A) (A) (A) (A) (A) (A) (A) (A) (A) (A)
                 (A) (A) (A) (A) (A) (A) (A) (A) (A) (A) (A) (A)
                 (A) (A) (A) (A) (A) (A) (A) (A) (A) (A) (A) (A)
                 (A) (A) (A) (A) (A) (A) (A) (A) (A) (A) (A) (A)
                 (A) (A) (A) (A) (A) (A) (A) (A) (A) (A) (A) (A)
                 (A) (A) (A) (A) (A) (A) (A) (A) (A) (A) (A) (A)
                 (A) (A) (A) (A) (A) (A) (A) (A) (A) (A) (A) (A)
                 (A) (A) (A) (A) (A) (A) (A) (A) (A) (A) (A) (A)
                 (A) (A) (A) (A) (A) (A) (A) (A) (A) (A) (A) (A)
                 (A) (A) (A) (A) (A) (A) (A) (A) (A) (A) (A) (A)
                 (A) (A) (A) (A) (A) (A) (A) (A) (A) (A) (A) (A)
                 (A) (A) (A) (A) (A) (A) (A) (A) (A) (A) (A) (A)
                 (A) (A) (A) (A) (A) (A) (A) (A) (A) (A) (A) (A)
                 (A) (A) (A) (A) (A) (A) (A) (A) (A) (A) (A) (A)
                 (A) (A) (A) (A) (A) (A) (A) (A) (A) (A) (A) (A)
                 (A) (A) (A) (A) (A) (A) (A) (A) (A) (A) (A) (A)
                 (A) (A) (A) (A) (A) (A) (A) (A) (A) (A) (A) (A)
                 (A) (A) (A) (A) (A) (A) (A) (A) (A) (A) (A) (A)
                 (A) (A) (A) (A) (A) (A) (A) (A) (A) (A) (A) (A)
                 (A) (A) (A) (A) (A) (A) (A) (A) (A) (A) (A) (A)
                 (A) (A) (A) (A) (A) (A) (A) (A) (A) (A) (A) (A)
                 (A) (A) (A) (A) (A) (A) (A) (A) (A) (A) (A) (A)
                 (A) (A) (A) (A) (A) (A) (A) (A) (A) (A) (A) (A)
                 (A) (A) (A) (A) (A) (A) (A) (A) (A) (A) (A) (A)
                 (A) (A) (A) (A) (A) (A) (A) (A) (A) (A) (A) (A)
                 (A) (A) (A) (A) (A) (A) (A) (A) (A) (A) (A) (A)
                 (A) (A) (A) (A) (A) (A) (A) (A) (A) (A) (A) (A)
                 (A) (A) (A) (A) (A) (A) (A) (A) (A) (A) (A) (A)
                 (A) (A) (A) (A) (A) (A) (A) (A) (A) (A) (A) (A)
                 (A) (A) (A) (A) (A) (A) (A) (A) (A) (A) (A) (A)
                 (A) (A) (A) (A) (A) (A) (A) (A) (A) (A) (A) (A)
                 (A) (A) (A) (A) (A) (A) (A) (A) (A) (A) (A) (A)
                 (A) (A) (A) (A) (A) (A) (A) (A) (A) (A) (A) (A)
                 (A) (A) (A) (A) (A) (A) (A) (A) (A) (A) (A) (A)
                 (A) (A) (A) (A) (A) (A) (A) (A) (A) (A) (A) (A)
                 (A) (A) (A) (A) (A) (A) (A) (A) (A) (A) (A) (A)
                 (A) (A) (A) (A) (A) (A)
 The electronic state is 2-A.
 Alpha  occ. eigenvalues -- -256.38035 -30.24971 -26.09692 -26.09444 -26.06626
 Alpha  occ. eigenvalues --  -19.30512 -14.54285 -14.51226 -14.47242 -14.47060
 Alpha  occ. eigenvalues --  -14.46897 -14.46695 -10.38426 -10.35520 -10.33202
 Alpha  occ. eigenvalues --  -10.33199 -10.33039 -10.33014 -10.33008 -10.33006
 Alpha  occ. eigenvalues --  -10.33002 -10.32932 -10.32753 -10.30597 -10.30343
 Alpha  occ. eigenvalues --  -10.30179 -10.30093 -10.30027 -10.30004 -10.29918
 Alpha  occ. eigenvalues --  -10.29900 -10.29874 -10.29869 -10.29796 -10.29789
 Alpha  occ. eigenvalues --  -10.29444 -10.29234 -10.28930 -10.28175 -10.28135
 Alpha  occ. eigenvalues --  -10.28119 -10.28061 -10.28024 -10.27911 -10.27615
 Alpha  occ. eigenvalues --  -10.27565  -3.63635  -2.42010  -2.41438  -2.35517
 Alpha  occ. eigenvalues --   -1.17149  -1.16686  -1.08639  -1.07773  -1.07476
 Alpha  occ. eigenvalues --   -1.06636  -1.02959  -0.93145  -0.91919  -0.91399
 Alpha  occ. eigenvalues --   -0.91081  -0.90862  -0.90699  -0.90398  -0.90278
 Alpha  occ. eigenvalues --   -0.86398  -0.85113  -0.84878  -0.83998  -0.82714
 Alpha  occ. eigenvalues --   -0.82352  -0.80880  -0.79848  -0.78278  -0.78074
 Alpha  occ. eigenvalues --   -0.77881  -0.76135  -0.74777  -0.74743  -0.72510
 Alpha  occ. eigenvalues --   -0.72356  -0.70355  -0.69643  -0.68353  -0.67873
 Alpha  occ. eigenvalues --   -0.67066  -0.64809  -0.64057  -0.63223  -0.62935
 Alpha  occ. eigenvalues --   -0.61519  -0.61389  -0.61015  -0.59135  -0.58862
 Alpha  occ. eigenvalues --   -0.58290  -0.57888  -0.57669  -0.55699  -0.55085
 Alpha  occ. eigenvalues --   -0.54757  -0.54356  -0.53992  -0.53858  -0.53678
 Alpha  occ. eigenvalues --   -0.53560  -0.53126  -0.52974  -0.52873  -0.52435
 Alpha  occ. eigenvalues --   -0.52187  -0.52037  -0.51874  -0.51628  -0.51328
 Alpha  occ. eigenvalues --   -0.50454  -0.50349  -0.50212  -0.50074  -0.49890
 Alpha  occ. eigenvalues --   -0.49836  -0.49486  -0.49321  -0.49072  -0.48756
 Alpha  occ. eigenvalues --   -0.48347  -0.48042  -0.47783  -0.47667  -0.47530
 Alpha  occ. eigenvalues --   -0.47209  -0.46821  -0.46323  -0.46261  -0.45879
 Alpha  occ. eigenvalues --   -0.45419  -0.44602  -0.44381  -0.43866  -0.43281
 Alpha  occ. eigenvalues --   -0.42837  -0.42552  -0.42054  -0.41454  -0.41030
 Alpha  occ. eigenvalues --   -0.39521  -0.39209  -0.39098  -0.38570  -0.36937
 Alpha  occ. eigenvalues --   -0.36620  -0.34675  -0.33358  -0.32899  -0.31833
 Alpha  occ. eigenvalues --   -0.31278  -0.29170  -0.28260
 Alpha virt. eigenvalues --   -0.18967  -0.16960  -0.16886  -0.14021  -0.11297
 Alpha virt. eigenvalues --   -0.09018  -0.07611  -0.06368  -0.04925  -0.04244
 Alpha virt. eigenvalues --   -0.03357  -0.01705  -0.01460  -0.00516   0.01100
 Alpha virt. eigenvalues --    0.01403   0.02094   0.02587   0.03264   0.03542
 Alpha virt. eigenvalues --    0.04210   0.04454   0.04716   0.04923   0.05188
 Alpha virt. eigenvalues --    0.05395   0.05698   0.05951   0.06488   0.06645
 Alpha virt. eigenvalues --    0.06843   0.07114   0.07663   0.07803   0.08143
 Alpha virt. eigenvalues --    0.08267   0.08605   0.08790   0.09300   0.09376
 Alpha virt. eigenvalues --    0.09470   0.09705   0.10058   0.10487   0.10610
 Alpha virt. eigenvalues --    0.10877   0.11525   0.11836   0.12228   0.12364
 Alpha virt. eigenvalues --    0.12454   0.12948   0.13095   0.13569   0.13939
 Alpha virt. eigenvalues --    0.14326   0.15239   0.15381   0.15865   0.16361
 Alpha virt. eigenvalues --    0.16684   0.16925   0.17202   0.17579   0.18178
 Alpha virt. eigenvalues --    0.18201   0.19782   0.20195   0.20708   0.21014
 Alpha virt. eigenvalues --    0.21922   0.22043   0.23230   0.23737   0.23919
 Alpha virt. eigenvalues --    0.25327   0.25847   0.26056   0.26465   0.27323
 Alpha virt. eigenvalues --    0.27543   0.29001   0.29646   0.30420   0.31284
 Alpha virt. eigenvalues --    0.31839   0.33001   0.33710   0.34120   0.34423
 Alpha virt. eigenvalues --    0.34763   0.36421   0.38134   0.38302   0.38496
 Alpha virt. eigenvalues --    0.39148   0.39550   0.40045   0.40463   0.40847
 Alpha virt. eigenvalues --    0.41341   0.41749   0.41893   0.42201   0.42927
 Alpha virt. eigenvalues --    0.43042   0.43602   0.43801   0.44304   0.44664
 Alpha virt. eigenvalues --    0.45206   0.45610   0.45701   0.45903   0.46504
 Alpha virt. eigenvalues --    0.46685   0.47070   0.47847   0.48343   0.48809
 Alpha virt. eigenvalues --    0.49143   0.49495   0.49824   0.50678   0.50786
 Alpha virt. eigenvalues --    0.51082   0.51643   0.52275   0.52640   0.52885
 Alpha virt. eigenvalues --    0.53214   0.53567   0.54333   0.54612   0.55139
 Alpha virt. eigenvalues --    0.55449   0.55804   0.56005   0.56398   0.56556
 Alpha virt. eigenvalues --    0.56867   0.57182   0.57520   0.57871   0.58059
 Alpha virt. eigenvalues --    0.58322   0.58542   0.59959   0.60199   0.60333
 Alpha virt. eigenvalues --    0.61637   0.61702   0.62070   0.62927   0.63048
 Alpha virt. eigenvalues --    0.63341   0.63696   0.64347   0.64999   0.65337
 Alpha virt. eigenvalues --    0.66240   0.66421   0.66857   0.67166   0.67964
 Alpha virt. eigenvalues --    0.68101   0.68619   0.68691   0.69108   0.69290
 Alpha virt. eigenvalues --    0.69546   0.69902   0.70399   0.70454   0.71226
 Alpha virt. eigenvalues --    0.71658   0.72059   0.73007   0.73828   0.73972
 Alpha virt. eigenvalues --    0.74484   0.74810   0.76227   0.76461   0.76711
 Alpha virt. eigenvalues --    0.77471   0.77840   0.78114   0.78537   0.78731
 Alpha virt. eigenvalues --    0.79186   0.79450   0.79841   0.80110   0.80514
 Alpha virt. eigenvalues --    0.81084   0.81452   0.81654   0.82185   0.82509
 Alpha virt. eigenvalues --    0.83109   0.83452   0.83755   0.84170   0.84312
 Alpha virt. eigenvalues --    0.84755   0.84936   0.85472   0.86191   0.86361
 Alpha virt. eigenvalues --    0.86702   0.87005   0.87280   0.87608   0.87978
 Alpha virt. eigenvalues --    0.88195   0.88671   0.89201   0.89853   0.90413
 Alpha virt. eigenvalues --    0.90549   0.90870   0.91296   0.91592   0.92122
 Alpha virt. eigenvalues --    0.92640   0.92941   0.93171   0.93648   0.94024
 Alpha virt. eigenvalues --    0.94464   0.95120   0.95742   0.96567   0.96830
 Alpha virt. eigenvalues --    0.97083   0.97641   0.98154   0.98846   0.99554
 Alpha virt. eigenvalues --    1.00307   1.01494   1.01822   1.03433   1.04019
 Alpha virt. eigenvalues --    1.05195   1.05454   1.06088   1.07261   1.07798
 Alpha virt. eigenvalues --    1.08225   1.08402   1.09026   1.09732   1.09962
 Alpha virt. eigenvalues --    1.10211   1.10651   1.10995   1.11126   1.11713
 Alpha virt. eigenvalues --    1.12505   1.13168   1.14482   1.14698   1.15017
 Alpha virt. eigenvalues --    1.16211   1.17208   1.17640   1.18682   1.19669
 Alpha virt. eigenvalues --    1.20579   1.20831   1.21369   1.21649   1.22241
 Alpha virt. eigenvalues --    1.22921   1.23659   1.24583   1.24800   1.25881
 Alpha virt. eigenvalues --    1.26472   1.27242   1.27800   1.27942   1.28109
 Alpha virt. eigenvalues --    1.28488   1.28970   1.29224   1.29498   1.30487
 Alpha virt. eigenvalues --    1.31700   1.32767   1.33358   1.33788   1.34629
 Alpha virt. eigenvalues --    1.35372   1.35736   1.37314   1.37549   1.38198
 Alpha virt. eigenvalues --    1.38967   1.39583   1.40750   1.41018   1.41875
 Alpha virt. eigenvalues --    1.41999   1.43802   1.44199   1.44891   1.45173
 Alpha virt. eigenvalues --    1.45805   1.46365   1.47454   1.49019   1.49913
 Alpha virt. eigenvalues --    1.51438   1.51562   1.52803   1.53338   1.54318
 Alpha virt. eigenvalues --    1.54496   1.55438   1.56359   1.57423   1.58060
 Alpha virt. eigenvalues --    1.59424   1.60378   1.61010   1.61658   1.62559
 Alpha virt. eigenvalues --    1.63939   1.64842   1.65647   1.69208   1.69826
 Alpha virt. eigenvalues --    1.70427   1.70696   1.71073   1.71629   1.71815
 Alpha virt. eigenvalues --    1.72550   1.72702   1.72880   1.73420   1.74145
 Alpha virt. eigenvalues --    1.74340   1.75005   1.75850   1.76694   1.77190
 Alpha virt. eigenvalues --    1.77471   1.77577   1.78474   1.79376   1.79957
 Alpha virt. eigenvalues --    1.80406   1.81236   1.82033   1.82783   1.83085
 Alpha virt. eigenvalues --    1.83634   1.85216   1.85453   1.85759   1.86208
 Alpha virt. eigenvalues --    1.86567   1.87267   1.88813   1.89012   1.89239
 Alpha virt. eigenvalues --    1.90673   1.90890   1.91291   1.92004   1.92632
 Alpha virt. eigenvalues --    1.93676   1.94795   1.95524   1.96108   1.96773
 Alpha virt. eigenvalues --    1.96850   1.97380   1.97928   1.98507   1.99101
 Alpha virt. eigenvalues --    1.99700   2.00825   2.01271   2.02003   2.03150
 Alpha virt. eigenvalues --    2.04301   2.04418   2.04892   2.06404   2.06937
 Alpha virt. eigenvalues --    2.07047   2.07548   2.08549   2.09393   2.10126
 Alpha virt. eigenvalues --    2.11013   2.11565   2.12718   2.13312   2.13638
 Alpha virt. eigenvalues --    2.13790   2.14669   2.15723   2.16388   2.16540
 Alpha virt. eigenvalues --    2.16980   2.17250   2.17601   2.18460   2.19144
 Alpha virt. eigenvalues --    2.19768   2.19954   2.20525   2.20672   2.21396
 Alpha virt. eigenvalues --    2.21731   2.22635   2.22814   2.23526   2.24755
 Alpha virt. eigenvalues --    2.25603   2.25704   2.26129   2.26325   2.27006
 Alpha virt. eigenvalues --    2.27605   2.28113   2.28631   2.28789   2.29712
 Alpha virt. eigenvalues --    2.29980   2.31308   2.31498   2.32478   2.32954
 Alpha virt. eigenvalues --    2.33444   2.33812   2.34423   2.34568   2.35339
 Alpha virt. eigenvalues --    2.35789   2.36829   2.38197   2.38661   2.40583
 Alpha virt. eigenvalues --    2.41264   2.42760   2.43261   2.43409   2.43727
 Alpha virt. eigenvalues --    2.43937   2.45603   2.46020   2.46310   2.47129
 Alpha virt. eigenvalues --    2.47528   2.47926   2.48855   2.50315   2.50492
 Alpha virt. eigenvalues --    2.51184   2.53147   2.54595   2.55835   2.57159
 Alpha virt. eigenvalues --    2.58655   2.59107   2.59483   2.60525   2.61161
 Alpha virt. eigenvalues --    2.62051   2.64685   2.65235   2.66367   2.68564
 Alpha virt. eigenvalues --    2.69441   2.70483   2.71246   2.71493   2.77199
 Alpha virt. eigenvalues --    2.78168   2.78452   2.79603   2.81429   2.82863
 Alpha virt. eigenvalues --    2.83371   2.86130   2.87230   2.87555   2.89390
 Alpha virt. eigenvalues --    2.89962   2.90800   2.91000   2.93630   2.95574
 Alpha virt. eigenvalues --    2.96141   2.96797   3.02871   3.04383   3.04878
 Alpha virt. eigenvalues --    3.11241   3.13676   3.15597   3.20726   3.20746
 Alpha virt. eigenvalues --    3.29039   3.29734   3.30789   3.36961   3.37105
 Alpha virt. eigenvalues --    3.48000   3.54941   3.74567   3.78745   4.05658
 Alpha virt. eigenvalues --    4.15392
  Beta  occ. eigenvalues -- -256.38000 -30.22785 -26.07295 -26.07062 -26.05931
  Beta  occ. eigenvalues --  -19.30506 -14.54283 -14.51307 -14.47281 -14.47092
  Beta  occ. eigenvalues --  -14.46956 -14.46757 -10.38413 -10.35522 -10.33196
  Beta  occ. eigenvalues --  -10.33192 -10.33027 -10.33013 -10.33005 -10.33000
  Beta  occ. eigenvalues --  -10.33000 -10.32929 -10.32749 -10.30598 -10.30319
  Beta  occ. eigenvalues --  -10.30186 -10.30071 -10.30005 -10.29986 -10.29929
  Beta  occ. eigenvalues --  -10.29909 -10.29879 -10.29875 -10.29801 -10.29793
  Beta  occ. eigenvalues --  -10.29446 -10.29242 -10.28930 -10.28175 -10.28136
  Beta  occ. eigenvalues --  -10.28121 -10.28062 -10.28025 -10.27898 -10.27614
  Beta  occ. eigenvalues --  -10.27565  -3.58331  -2.34532  -2.34282  -2.33259
  Beta  occ. eigenvalues --   -1.17167  -1.16671  -1.08654  -1.07755  -1.07532
  Beta  occ. eigenvalues --   -1.06659  -1.03009  -0.93148  -0.91893  -0.91410
  Beta  occ. eigenvalues --   -0.91062  -0.90862  -0.90700  -0.90407  -0.90286
  Beta  occ. eigenvalues --   -0.86392  -0.85110  -0.84897  -0.83995  -0.82712
  Beta  occ. eigenvalues --   -0.82354  -0.80879  -0.79852  -0.78283  -0.78080
  Beta  occ. eigenvalues --   -0.77893  -0.76166  -0.74777  -0.74739  -0.72513
  Beta  occ. eigenvalues --   -0.72350  -0.70351  -0.69649  -0.68345  -0.67875
  Beta  occ. eigenvalues --   -0.67067  -0.64811  -0.64067  -0.63224  -0.62934
  Beta  occ. eigenvalues --   -0.61531  -0.61411  -0.61029  -0.59123  -0.58833
  Beta  occ. eigenvalues --   -0.58233  -0.57895  -0.57658  -0.55697  -0.55054
  Beta  occ. eigenvalues --   -0.54700  -0.54304  -0.53916  -0.53732  -0.53622
  Beta  occ. eigenvalues --   -0.53518  -0.53111  -0.52986  -0.52844  -0.52380
  Beta  occ. eigenvalues --   -0.52156  -0.52015  -0.51874  -0.51619  -0.51342
  Beta  occ. eigenvalues --   -0.50440  -0.50317  -0.50127  -0.49895  -0.49821
  Beta  occ. eigenvalues --   -0.49519  -0.49435  -0.49291  -0.48981  -0.48682
  Beta  occ. eigenvalues --   -0.48327  -0.48051  -0.47708  -0.47541  -0.47453
  Beta  occ. eigenvalues --   -0.47081  -0.46695  -0.46229  -0.45863  -0.45382
  Beta  occ. eigenvalues --   -0.44776  -0.44506  -0.43930  -0.43509  -0.43032
  Beta  occ. eigenvalues --   -0.42460  -0.41953  -0.41273  -0.41118  -0.39175
  Beta  occ. eigenvalues --   -0.38747  -0.38245  -0.37159  -0.36810  -0.36348
  Beta  occ. eigenvalues --   -0.34618  -0.33548  -0.32968  -0.31912  -0.31128
  Beta  occ. eigenvalues --   -0.29185  -0.28176
  Beta virt. eigenvalues --   -0.20346  -0.16865  -0.16744  -0.15951  -0.11300
  Beta virt. eigenvalues --   -0.10975  -0.08834  -0.07513  -0.06333  -0.04827
  Beta virt. eigenvalues --   -0.04224  -0.03310  -0.01660  -0.01307  -0.00406
  Beta virt. eigenvalues --    0.01144   0.01444   0.02095   0.02588   0.03270
  Beta virt. eigenvalues --    0.03550   0.04213   0.04491   0.04754   0.04948
  Beta virt. eigenvalues --    0.05201   0.05446   0.05699   0.05967   0.06493
  Beta virt. eigenvalues --    0.06665   0.06878   0.07127   0.07670   0.07810
  Beta virt. eigenvalues --    0.08148   0.08277   0.08618   0.08794   0.09315
  Beta virt. eigenvalues --    0.09384   0.09477   0.09717   0.10075   0.10503
  Beta virt. eigenvalues --    0.10629   0.10888   0.11542   0.11862   0.12240
  Beta virt. eigenvalues --    0.12373   0.12460   0.12964   0.13112   0.13587
  Beta virt. eigenvalues --    0.13973   0.14358   0.15264   0.15399   0.15879
  Beta virt. eigenvalues --    0.16400   0.16698   0.16920   0.17210   0.17623
  Beta virt. eigenvalues --    0.18182   0.18227   0.19879   0.20488   0.20935
  Beta virt. eigenvalues --    0.21050   0.21976   0.22152   0.23320   0.23772
  Beta virt. eigenvalues --    0.24005   0.25359   0.25885   0.26078   0.26493
  Beta virt. eigenvalues --    0.27342   0.27549   0.29043   0.29783   0.30485
  Beta virt. eigenvalues --    0.31398   0.31898   0.33149   0.33713   0.34131
  Beta virt. eigenvalues --    0.34444   0.34807   0.36600   0.38233   0.38355
  Beta virt. eigenvalues --    0.38519   0.39223   0.39640   0.40108   0.40487
  Beta virt. eigenvalues --    0.40866   0.41382   0.41759   0.42077   0.42225
  Beta virt. eigenvalues --    0.42946   0.43040   0.43608   0.43833   0.44324
  Beta virt. eigenvalues --    0.44688   0.45274   0.45655   0.45752   0.45939
  Beta virt. eigenvalues --    0.46538   0.46789   0.47169   0.47853   0.48355
  Beta virt. eigenvalues --    0.48823   0.49191   0.49535   0.49858   0.50696
  Beta virt. eigenvalues --    0.50792   0.51105   0.51718   0.52301   0.52649
  Beta virt. eigenvalues --    0.52895   0.53252   0.53580   0.54389   0.54654
  Beta virt. eigenvalues --    0.55195   0.55638   0.55853   0.56004   0.56416
  Beta virt. eigenvalues --    0.56598   0.57028   0.57253   0.57531   0.57874
  Beta virt. eigenvalues --    0.58235   0.58324   0.58567   0.59974   0.60222
  Beta virt. eigenvalues --    0.60387   0.61751   0.61793   0.62143   0.62948
  Beta virt. eigenvalues --    0.63098   0.63428   0.63802   0.64371   0.65063
  Beta virt. eigenvalues --    0.65369   0.66250   0.66430   0.66882   0.67207
  Beta virt. eigenvalues --    0.67988   0.68244   0.68656   0.68725   0.69166
  Beta virt. eigenvalues --    0.69344   0.69575   0.69991   0.70407   0.70753
  Beta virt. eigenvalues --    0.71356   0.71681   0.72164   0.73040   0.73859
  Beta virt. eigenvalues --    0.73994   0.74491   0.74814   0.76248   0.76481
  Beta virt. eigenvalues --    0.76729   0.77499   0.77843   0.78136   0.78553
  Beta virt. eigenvalues --    0.78763   0.79207   0.79466   0.79884   0.80132
  Beta virt. eigenvalues --    0.80550   0.81120   0.81515   0.81666   0.82216
  Beta virt. eigenvalues --    0.82527   0.83121   0.83476   0.83808   0.84273
  Beta virt. eigenvalues --    0.84360   0.84792   0.84977   0.85559   0.86203
  Beta virt. eigenvalues --    0.86700   0.86803   0.87068   0.87286   0.87646
  Beta virt. eigenvalues --    0.87994   0.88261   0.88707   0.89250   0.89883
  Beta virt. eigenvalues --    0.90507   0.90601   0.90883   0.91317   0.91624
  Beta virt. eigenvalues --    0.92142   0.92668   0.92975   0.93203   0.93670
  Beta virt. eigenvalues --    0.94064   0.94470   0.95196   0.95823   0.96585
  Beta virt. eigenvalues --    0.96871   0.97110   0.97661   0.98204   0.98886
  Beta virt. eigenvalues --    0.99588   1.00381   1.01549   1.01852   1.03519
  Beta virt. eigenvalues --    1.04122   1.05204   1.05473   1.06174   1.07335
  Beta virt. eigenvalues --    1.07850   1.08249   1.08467   1.09109   1.09819
  Beta virt. eigenvalues --    1.10002   1.10278   1.10656   1.11015   1.11138
  Beta virt. eigenvalues --    1.11745   1.12542   1.13189   1.14538   1.14727
  Beta virt. eigenvalues --    1.15167   1.16375   1.17332   1.17660   1.18696
  Beta virt. eigenvalues --    1.19692   1.20644   1.20845   1.21381   1.21678
  Beta virt. eigenvalues --    1.22285   1.22925   1.23682   1.24643   1.24875
  Beta virt. eigenvalues --    1.25908   1.26513   1.27246   1.27798   1.27977
  Beta virt. eigenvalues --    1.28142   1.28507   1.28980   1.29265   1.29584
  Beta virt. eigenvalues --    1.30571   1.31710   1.32813   1.33366   1.33802
  Beta virt. eigenvalues --    1.34647   1.35385   1.35762   1.37333   1.37562
  Beta virt. eigenvalues --    1.38220   1.38980   1.39589   1.40803   1.41096
  Beta virt. eigenvalues --    1.41899   1.41991   1.43805   1.44215   1.44894
  Beta virt. eigenvalues --    1.45204   1.45810   1.46362   1.47497   1.49095
  Beta virt. eigenvalues --    1.49926   1.51536   1.51650   1.52816   1.53354
  Beta virt. eigenvalues --    1.54412   1.54539   1.55475   1.56380   1.57544
  Beta virt. eigenvalues --    1.58084   1.59434   1.60444   1.61030   1.61744
  Beta virt. eigenvalues --    1.62573   1.64179   1.64882   1.65669   1.69203
  Beta virt. eigenvalues --    1.69834   1.70431   1.70706   1.71078   1.71648
  Beta virt. eigenvalues --    1.71892   1.72568   1.72712   1.72877   1.73441
  Beta virt. eigenvalues --    1.74161   1.74343   1.75062   1.75840   1.76698
  Beta virt. eigenvalues --    1.77191   1.77454   1.77572   1.78486   1.79385
  Beta virt. eigenvalues --    1.79998   1.80415   1.81250   1.82059   1.82823
  Beta virt. eigenvalues --    1.83178   1.83697   1.85262   1.85493   1.85847
  Beta virt. eigenvalues --    1.86282   1.86642   1.87367   1.88921   1.89216
  Beta virt. eigenvalues --    1.89628   1.90702   1.90922   1.91378   1.92072
  Beta virt. eigenvalues --    1.92703   1.93712   1.94820   1.95562   1.96156
  Beta virt. eigenvalues --    1.96831   1.96901   1.97405   1.97961   1.98571
  Beta virt. eigenvalues --    1.99174   1.99814   2.00993   2.01331   2.02038
  Beta virt. eigenvalues --    2.03178   2.04392   2.04565   2.04890   2.06422
  Beta virt. eigenvalues --    2.06968   2.07067   2.07563   2.08647   2.09724
  Beta virt. eigenvalues --    2.10201   2.11066   2.11584   2.12750   2.13395
  Beta virt. eigenvalues --    2.13686   2.13817   2.14716   2.15819   2.16440
  Beta virt. eigenvalues --    2.16580   2.16999   2.17294   2.17608   2.18495
  Beta virt. eigenvalues --    2.19162   2.19790   2.19991   2.20599   2.20744
  Beta virt. eigenvalues --    2.21431   2.22080   2.22651   2.22922   2.23594
  Beta virt. eigenvalues --    2.24833   2.25694   2.25844   2.26187   2.26453
  Beta virt. eigenvalues --    2.27030   2.27621   2.28168   2.28734   2.28817
  Beta virt. eigenvalues --    2.29904   2.30036   2.31342   2.31540   2.32533
  Beta virt. eigenvalues --    2.32986   2.33477   2.33889   2.34526   2.34608
  Beta virt. eigenvalues --    2.35362   2.35890   2.37040   2.38287   2.38709
  Beta virt. eigenvalues --    2.40758   2.41552   2.42783   2.43314   2.43432
  Beta virt. eigenvalues --    2.43749   2.44115   2.45659   2.46103   2.46429
  Beta virt. eigenvalues --    2.47204   2.47558   2.47952   2.48865   2.50432
  Beta virt. eigenvalues --    2.50526   2.51231   2.53172   2.54611   2.55839
  Beta virt. eigenvalues --    2.57171   2.58701   2.59135   2.59488   2.60556
  Beta virt. eigenvalues --    2.61197   2.62043   2.64691   2.65267   2.66385
  Beta virt. eigenvalues --    2.68579   2.69465   2.70487   2.71253   2.71495
  Beta virt. eigenvalues --    2.77177   2.78191   2.78454   2.79614   2.81443
  Beta virt. eigenvalues --    2.82887   2.83377   2.86131   2.87218   2.87550
  Beta virt. eigenvalues --    2.89375   2.89965   2.90815   2.91024   2.93696
  Beta virt. eigenvalues --    2.95557   2.96136   2.96866   3.02862   3.04410
  Beta virt. eigenvalues --    3.04880   3.11231   3.13698   3.15691   3.20728
  Beta virt. eigenvalues --    3.20757   3.29018   3.29729   3.30855   3.36965
  Beta virt. eigenvalues --    3.37096   3.53510   3.58809   3.77127   3.80263
  Beta virt. eigenvalues --    4.06834   4.17208
          Condensed to atoms (all electrons):
          Atomic-Atomic Spin Densities.
 Mulliken charges and spin densities:
               1          2
     1  Fe   0.900410   1.063653
     2  N   -0.665085  -0.026926
     3  N   -0.675739  -0.025385
     4  N   -0.665907  -0.027705
     5  N   -0.666691  -0.022787
     6  C    0.301659   0.004359
     7  C    0.037416  -0.002384
     8  C    0.039411   0.000329
     9  C    0.281625   0.002902
    10  C    0.303792   0.003894
    11  C    0.042436   0.015825
    12  C    0.004207   0.011581
    13  C    0.328130   0.005503
    14  C    0.315696   0.004842
    15  C    0.039246  -0.002255
    16  C    0.006924  -0.000408
    17  C    0.305729   0.005579
    18  C    0.307902   0.006508
    19  C    0.043238   0.014198
    20  C    0.040667   0.013739
    21  C    0.327469   0.004187
    22  C   -0.301413  -0.007051
    23  H    0.189954   0.000310
    24  C   -0.312758  -0.005319
    25  H    0.189371   0.000251
    26  C   -0.295979  -0.006067
    27  H    0.192006   0.000258
    28  C   -0.304994  -0.007662
    29  H    0.192165   0.000336
    30  C   -0.610317  -0.000126
    31  H    0.203931  -0.000100
    32  H    0.198916   0.000063
    33  H    0.202697   0.000070
    34  C   -0.610802  -0.000027
    35  H    0.202865  -0.000027
    36  H    0.201855  -0.000024
    37  H    0.202745  -0.000126
    38  C   -0.613574  -0.001540
    39  H    0.196797   0.000568
    40  H    0.201375   0.001131
    41  H    0.214263   0.000148
    42  C   -0.149417  -0.005914
    43  H    0.179924   0.000453
    44  C   -0.392224   0.009614
    45  H    0.185692  -0.000477
    46  H    0.193885  -0.000489
    47  C   -0.614128  -0.000036
    48  H    0.192722  -0.000045
    49  H    0.204896  -0.000025
    50  H    0.211525  -0.000090
    51  C   -0.155194  -0.000408
    52  H    0.177568   0.000017
    53  C   -0.391082   0.000870
    54  H    0.187468  -0.000038
    55  H    0.191926  -0.000073
    56  C   -0.610293  -0.001389
    57  H    0.207492   0.000940
    58  H    0.200697   0.000840
    59  H    0.203556  -0.000054
    60  C   -0.611458  -0.001589
    61  H    0.203438  -0.000110
    62  H    0.202032   0.000917
    63  H    0.206344   0.000916
    64  O   -0.806353  -0.001165
    65  H    0.481113  -0.000031
    66  H    0.468516   0.000091
    67  C   -0.602624  -0.000154
    68  H    0.214047  -0.000114
    69  H    0.222815  -0.000025
    70  H    0.216142   0.000058
    71  N   -0.630636   0.001154
    72  H    0.389110  -0.000231
    73  C    0.282164  -0.001104
    74  C    0.266049   0.009048
    75  H    0.237821  -0.000568
    76  N   -0.434168  -0.036346
    77  C   -0.038352   0.001485
    78  H    0.217343  -0.000247
 Sum of Mulliken charges =   1.00000   1.00000
 Mulliken charges and spin densities with hydrogens summed into heavy atoms:
               1          2
     1  Fe   0.900410   1.063653
     2  N   -0.665085  -0.026926
     3  N   -0.675739  -0.025385
     4  N   -0.665907  -0.027705
     5  N   -0.666691  -0.022787
     6  C    0.301659   0.004359
     7  C    0.037416  -0.002384
     8  C    0.039411   0.000329
     9  C    0.281625   0.002902
    10  C    0.303792   0.003894
    11  C    0.042436   0.015825
    12  C    0.004207   0.011581
    13  C    0.328130   0.005503
    14  C    0.315696   0.004842
    15  C    0.039246  -0.002255
    16  C    0.006924  -0.000408
    17  C    0.305729   0.005579
    18  C    0.307902   0.006508
    19  C    0.043238   0.014198
    20  C    0.040667   0.013739
    21  C    0.327469   0.004187
    22  C   -0.111459  -0.006741
    24  C   -0.123387  -0.005068
    26  C   -0.103973  -0.005809
    28  C   -0.112830  -0.007326
    30  C   -0.004772  -0.000093
    34  C   -0.003337  -0.000205
    38  C   -0.001138   0.000308
    42  C    0.030507  -0.005461
    44  C   -0.012646   0.008648
    47  C   -0.004984  -0.000195
    51  C    0.022374  -0.000391
    53  C   -0.011688   0.000759
    56  C    0.001452   0.000337
    60  C    0.000356   0.000135
    64  O    0.143276  -0.001105
    67  C    0.050381  -0.000235
    71  N   -0.241525   0.000923
    73  C    0.282164  -0.001104
    74  C    0.503870   0.008480
    76  N   -0.434168  -0.036346
    77  C    0.178991   0.001238
 Electronic spatial extent (au):  <R**2>=          19886.8869
 Charge=              1.0000 electrons
 Dipole moment (field-independent basis, Debye):
    X=              0.9976    Y=             -1.6636    Z=              3.4882  Tot=              3.9913
 Quadrupole moment (field-independent basis, Debye-Ang):
   XX=           -183.9295   YY=           -190.9655   ZZ=           -198.8974
   XY=             -0.8050   XZ=              3.8835   YZ=             -0.4554
 Traceless Quadrupole moment (field-independent basis, Debye-Ang):
   XX=              7.3346   YY=              0.2986   ZZ=             -7.6332
   XY=             -0.8050   XZ=              3.8835   YZ=             -0.4554
 Octapole moment (field-independent basis, Debye-Ang**2):
  XXX=             -1.9950  YYY=             -7.7907  ZZZ=            137.2843  XYY=              5.0218
  XXY=              3.0184  XXZ=             -4.2521  XZZ=             12.1936  YZZ=            -29.3706
  YYZ=            -28.7062  XYZ=             17.0843
 Hexadecapole moment (field-independent basis, Debye-Ang**3):
 XXXX=         -10371.0999 YYYY=         -10052.3785 ZZZZ=          -2279.0723 XXXY=             -5.7169
 XXXZ=            138.1660 YYYX=             35.7001 YYYZ=             86.3563 ZZZX=              4.5303
 ZZZY=            -66.3106 XXYY=          -3219.5099 XXZZ=          -2466.1037 YYZZ=          -2538.4337
 XXYZ=             44.4664 YYXZ=             10.9973 ZZXY=            -37.4021
 N-N= 5.968769865333D+03 E-N=-1.891216386519D+04  KE= 2.971981114765D+03
                          Isotropic Fermi Contact Couplings
        Atom                 a.u.       MegaHertz       Gauss      10(-4) cm-1
     1  Fe(57)             0.11415      16.55565       5.90747       5.52237
     2  N(14)             -0.02203      -7.11942      -2.54039      -2.37478
     3  N(14)             -0.02128      -6.87511      -2.45321      -2.29329
     4  N(14)             -0.02180      -7.04322      -2.51320      -2.34937
     5  N(14)             -0.02087      -6.74330      -2.40618      -2.24932
     6  C(13)             -0.00041      -0.46506      -0.16595      -0.15513
     7  C(13)             -0.00100      -1.12825      -0.40259      -0.37634
     8  C(13)             -0.00046      -0.51685      -0.18443      -0.17240
     9  C(13)             -0.00020      -0.22504      -0.08030      -0.07506
    10  C(13)              0.00046       0.51599       0.18412       0.17212
    11  C(13)              0.00163       1.82875       0.65254       0.61001
    12  C(13)              0.00067       0.75527       0.26950       0.25193
    13  C(13)             -0.00111      -1.24850      -0.44550      -0.41646
    14  C(13)             -0.00028      -0.31708      -0.11314      -0.10577
    15  C(13)             -0.00093      -1.04904      -0.37432      -0.34992
    16  C(13)             -0.00064      -0.71611      -0.25553      -0.23887
    17  C(13)              0.00014       0.15809       0.05641       0.05273
    18  C(13)              0.00087       0.97846       0.34914       0.32638
    19  C(13)              0.00136       1.53120       0.54637       0.51075
    20  C(13)              0.00097       1.09405       0.39039       0.36494
    21  C(13)             -0.00130      -1.46223      -0.52176      -0.48775
    22  C(13)             -0.00108      -1.21828      -0.43471      -0.40638
    23  H(1)               0.00011       0.49073       0.17510       0.16369
    24  C(13)             -0.00093      -1.04090      -0.37142      -0.34721
    25  H(1)               0.00009       0.38476       0.13729       0.12834
    26  C(13)             -0.00095      -1.06787      -0.38104      -0.35620
    27  H(1)               0.00010       0.44439       0.15857       0.14823
    28  C(13)             -0.00131      -1.47157      -0.52509      -0.49086
    29  H(1)               0.00012       0.53010       0.18915       0.17682
    30  C(13)             -0.00005      -0.06079      -0.02169      -0.02028
    31  H(1)              -0.00004      -0.18882      -0.06737      -0.06298
    32  H(1)               0.00004       0.17196       0.06136       0.05736
    33  H(1)               0.00004       0.19615       0.06999       0.06543
    34  C(13)             -0.00005      -0.05964      -0.02128      -0.01989
    35  H(1)              -0.00000      -0.01541      -0.00550      -0.00514
    36  H(1)              -0.00001      -0.02462      -0.00879      -0.00821
    37  H(1)              -0.00005      -0.24197      -0.08634      -0.08071
    38  C(13)             -0.00057      -0.63767      -0.22754      -0.21270
    39  H(1)               0.00024       1.05670       0.37706       0.35248
    40  H(1)               0.00057       2.55878       0.91304       0.85352
    41  H(1)               0.00005       0.20859       0.07443       0.06958
    42  C(13)             -0.00121      -1.35557      -0.48370      -0.45217
    43  H(1)               0.00016       0.72931       0.26024       0.24327
    44  C(13)              0.00129       1.44875       0.51695       0.48325
    45  H(1)              -0.00014      -0.64633      -0.23063      -0.21559
    46  H(1)              -0.00016      -0.70554      -0.25176      -0.23534
    47  C(13)             -0.00005      -0.05106      -0.01822      -0.01703
    48  H(1)              -0.00002      -0.09379      -0.03347      -0.03128
    49  H(1)              -0.00001      -0.03903      -0.01393      -0.01302
    50  H(1)              -0.00004      -0.15909      -0.05677      -0.05307
    51  C(13)             -0.00009      -0.10667      -0.03806      -0.03558
    52  H(1)               0.00001       0.05427       0.01936       0.01810
    53  C(13)              0.00006       0.06653       0.02374       0.02219
    54  H(1)              -0.00001      -0.05534      -0.01975      -0.01846
    55  H(1)              -0.00003      -0.11357      -0.04052      -0.03788
    56  C(13)             -0.00053      -0.59308      -0.21163      -0.19783
    57  H(1)               0.00045       2.02192       0.72147       0.67444
    58  H(1)               0.00039       1.72618       0.61594       0.57579
    59  H(1)              -0.00003      -0.11664      -0.04162      -0.03891
    60  C(13)             -0.00066      -0.73971      -0.26395      -0.24674
    61  H(1)              -0.00005      -0.23625      -0.08430      -0.07881
    62  H(1)               0.00042       1.88507       0.67264       0.62879
    63  H(1)               0.00044       1.95039       0.69595       0.65058
    64  O(17)              0.00028      -0.16693      -0.05956      -0.05568
    65  H(1)              -0.00014      -0.62053      -0.22142      -0.20699
    66  H(1)              -0.00009      -0.40460      -0.14437      -0.13496
    67  C(13)             -0.00007      -0.07905      -0.02821      -0.02637
    68  H(1)              -0.00004      -0.19858      -0.07086      -0.06624
    69  H(1)              -0.00002      -0.06795      -0.02425      -0.02267
    70  H(1)               0.00004       0.17089       0.06098       0.05700
    71  N(14)             -0.00130      -0.42036      -0.14999      -0.14022
    72  H(1)              -0.00011      -0.49799      -0.17769      -0.16611
    73  C(13)             -0.00123      -1.38101      -0.49278      -0.46066
    74  C(13)              0.00048       0.54460       0.19433       0.18166
    75  H(1)              -0.00026      -1.17659      -0.41984      -0.39247
    76  N(14)             -0.03686     -11.91047      -4.24995      -3.97291
    77  C(13)             -0.00010      -0.11289      -0.04028      -0.03765
    78  H(1)              -0.00017      -0.74370      -0.26537      -0.24807
 --------------------------------------------------------
       Center         ----  Spin Dipole Couplings  ----
                      3XX-RR        3YY-RR        3ZZ-RR
 --------------------------------------------------------
     1   Atom       -0.908463     -0.420571      1.329033
     2   Atom        0.004144     -0.000486     -0.003658
     3   Atom       -0.003456     -0.011707      0.015163
     4   Atom        0.007477      0.000460     -0.007938
     5   Atom       -0.006176     -0.015771      0.021947
     6   Atom       -0.004195      0.002818      0.001377
     7   Atom       -0.000795      0.002493     -0.001698
     8   Atom        0.000719     -0.000995      0.000277
     9   Atom        0.003022     -0.001505     -0.001517
    10   Atom        0.005901     -0.006336      0.000435
    11   Atom       -0.007318     -0.010378      0.017696
    12   Atom       -0.008843     -0.005846      0.014688
    13   Atom       -0.004049     -0.001075      0.005124
    14   Atom       -0.004240      0.002493      0.001747
    15   Atom       -0.000923      0.002362     -0.001439
    16   Atom        0.000896     -0.000906      0.000010
    17   Atom        0.001655     -0.002593      0.000938
    18   Atom        0.004685     -0.007730      0.003045
    19   Atom       -0.006473     -0.009501      0.015974
    20   Atom       -0.010103     -0.006946      0.017049
    21   Atom       -0.003419     -0.000714      0.004133
    22   Atom       -0.000587      0.010153     -0.009566
    23   Atom       -0.001049      0.002653     -0.001604
    24   Atom        0.009086     -0.001215     -0.007871
    25   Atom        0.002649     -0.001038     -0.001611
    26   Atom       -0.001185      0.009530     -0.008345
    27   Atom       -0.001161      0.002745     -0.001584
    28   Atom        0.009920     -0.000095     -0.009825
    29   Atom        0.002530     -0.000923     -0.001606
    30   Atom        0.000650     -0.000036     -0.000614
    31   Atom        0.000339      0.000166     -0.000505
    32   Atom        0.000841     -0.000183     -0.000658
    33   Atom        0.000858     -0.000238     -0.000620
    34   Atom       -0.000301      0.000878     -0.000577
    35   Atom       -0.000509      0.001118     -0.000609
    36   Atom       -0.000470      0.001128     -0.000658
    37   Atom       -0.000155      0.000647     -0.000492
    38   Atom        0.001424     -0.000819     -0.000604
    39   Atom        0.001524     -0.000684     -0.000841
    40   Atom        0.001316     -0.000651     -0.000665
    41   Atom        0.001045     -0.000291     -0.000755
    42   Atom        0.000189      0.002998     -0.003187
    43   Atom       -0.000398      0.001270     -0.000873
    44   Atom        0.000091     -0.003902      0.003812
    45   Atom        0.000409      0.000076     -0.000485
    46   Atom       -0.000455      0.001007     -0.000552
    47   Atom       -0.000335      0.000886     -0.000551
    48   Atom       -0.000603      0.001279     -0.000676
    49   Atom       -0.000343      0.000963     -0.000620
    50   Atom       -0.000153      0.000662     -0.000509
    51   Atom        0.000731      0.000029     -0.000760
    52   Atom        0.000936     -0.000288     -0.000648
    53   Atom       -0.000067      0.000174     -0.000107
    54   Atom        0.000144      0.000263     -0.000408
    55   Atom        0.000352     -0.000024     -0.000328
    56   Atom        0.001483     -0.000858     -0.000626
    57   Atom        0.001408     -0.000686     -0.000722
    58   Atom        0.001511     -0.000701     -0.000810
    59   Atom        0.001115     -0.000382     -0.000733
    60   Atom       -0.000421      0.000887     -0.000466
    61   Atom        0.000002      0.000710     -0.000712
    62   Atom       -0.000470      0.001230     -0.000760
    63   Atom       -0.000442      0.001205     -0.000763
    64   Atom        0.003657     -0.004321      0.000664
    65   Atom       -0.005469     -0.005452      0.010922
    66   Atom       -0.005730     -0.005396      0.011126
    67   Atom       -0.000486     -0.000574      0.001061
    68   Atom       -0.000471     -0.000608      0.001080
    69   Atom       -0.000305     -0.000716      0.001021
    70   Atom       -0.000484     -0.000587      0.001070
    71   Atom       -0.003649      0.004419     -0.000769
    72   Atom       -0.001021     -0.001077      0.002098
    73   Atom       -0.000892     -0.001379      0.002271
    74   Atom       -0.009776      0.005209      0.004567
    75   Atom        0.000932     -0.003968      0.003036
    76   Atom        0.011133      0.003422     -0.014555
    77   Atom       -0.004088     -0.003352      0.007439
    78   Atom        0.001227     -0.004192      0.002966
 --------------------------------------------------------
                        XY            XZ            YZ
 --------------------------------------------------------
     1   Atom        2.143427     -0.234617      0.310790
     2   Atom        0.005335      0.005011     -0.008244
     3   Atom       -0.000798      0.009329      0.010431
     4   Atom        0.004373     -0.006019      0.012109
     5   Atom       -0.000421     -0.012143     -0.008160
     6   Atom       -0.005206     -0.000010     -0.000405
     7   Atom       -0.001091      0.000122      0.000038
     8   Atom       -0.001899      0.000225     -0.000663
     9   Atom       -0.006033      0.000377     -0.000021
    10   Atom        0.004148      0.000996     -0.000344
    11   Atom        0.001311      0.001396     -0.002152
    12   Atom        0.001583     -0.001873     -0.001904
    13   Atom        0.006048     -0.001215     -0.001969
    14   Atom       -0.005205     -0.000961     -0.000192
    15   Atom       -0.001012      0.000321     -0.000513
    16   Atom       -0.001752      0.000252     -0.000370
    17   Atom       -0.006012     -0.000398     -0.000194
    18   Atom        0.004108      0.001126      0.001919
    19   Atom        0.001595      0.002077      0.003582
    20   Atom        0.001582      0.002645      0.001746
    21   Atom        0.005907      0.001069      0.000977
    22   Atom        0.000690     -0.000238      0.000168
    23   Atom        0.000214     -0.000020      0.000058
    24   Atom       -0.001468      0.000468      0.000281
    25   Atom       -0.000596     -0.000050      0.000044
    26   Atom        0.000615      0.000485      0.000924
    27   Atom        0.000201      0.000037      0.000181
    28   Atom       -0.001498      0.001102     -0.000406
    29   Atom       -0.000548      0.000308     -0.000088
    30   Atom       -0.000978     -0.000064      0.000046
    31   Atom       -0.000789     -0.000075      0.000070
    32   Atom       -0.000847      0.000155     -0.000086
    33   Atom       -0.000826     -0.000345      0.000193
    34   Atom       -0.000721     -0.000051      0.000115
    35   Atom       -0.000555     -0.000140      0.000385
    36   Atom       -0.000572      0.000058     -0.000123
    37   Atom       -0.000664     -0.000054      0.000100
    38   Atom        0.000567      0.000072      0.000005
    39   Atom        0.000279     -0.000361      0.000021
    40   Atom        0.000427      0.000477      0.000040
    41   Atom        0.000841     -0.000187      0.000004
    42   Atom        0.001299      0.002991     -0.000064
    43   Atom        0.000902      0.000041      0.000039
    44   Atom        0.000656     -0.006546      0.000161
    45   Atom        0.000297      0.000381      0.000054
    46   Atom        0.000618     -0.000189      0.000161
    47   Atom       -0.000682      0.000079     -0.000163
    48   Atom       -0.000507      0.000101     -0.000320
    49   Atom       -0.000611     -0.000063      0.000131
    50   Atom       -0.000657      0.000096     -0.000211
    51   Atom       -0.001103      0.000275      0.000038
    52   Atom       -0.000835      0.000397     -0.000214
    53   Atom       -0.000439     -0.000111     -0.000714
    54   Atom       -0.000587     -0.000014      0.000058
    55   Atom       -0.000451      0.000068     -0.000068
    56   Atom        0.000589      0.000060      0.000040
    57   Atom        0.000370      0.000441     -0.000006
    58   Atom        0.000281     -0.000461      0.000023
    59   Atom        0.000855     -0.000120     -0.000042
    60   Atom        0.000844      0.000023     -0.000015
    61   Atom        0.001079     -0.000067     -0.000116
    62   Atom        0.000724     -0.000095     -0.000493
    63   Atom        0.000732      0.000069      0.000355
    64   Atom        0.019049      0.004361     -0.001691
    65   Atom       -0.001896     -0.006497      0.006824
    66   Atom        0.000211      0.001944     -0.003721
    67   Atom       -0.000014     -0.000529      0.000158
    68   Atom        0.000097     -0.000419     -0.000252
    69   Atom       -0.000010     -0.000864      0.000076
    70   Atom       -0.000045     -0.000381      0.000229
    71   Atom        0.001787      0.001173     -0.000468
    72   Atom        0.000034      0.000905     -0.000258
    73   Atom        0.000793     -0.001247      0.001508
    74   Atom       -0.000725      0.004054     -0.003538
    75   Atom       -0.000949      0.005835     -0.001454
    76   Atom        0.002725      0.002638     -0.002681
    77   Atom       -0.001867     -0.004448      0.003015
    78   Atom       -0.000638     -0.006565      0.001037
 --------------------------------------------------------


 ---------------------------------------------------------------------------------
              Anisotropic Spin Dipole Couplings in Principal Axis System
 ---------------------------------------------------------------------------------

       Atom             a.u.   MegaHertz   Gauss  10(-4) cm-1        Axes

              Baa    -2.8567   -49.457   -17.647   -16.497  0.7419 -0.6643  0.0909
     1 Fe(57) Bbb     1.3292    23.013     8.211     7.676 -0.3406 -0.2566  0.9045
              Bcc     1.5274    26.444     9.436     8.821  0.5776  0.7020  0.4167
 
              Baa    -0.0135    -0.519    -0.185    -0.173 -0.3819  0.6022  0.7011
     2 N(14)  Bbb     0.0058     0.223     0.080     0.074  0.4883 -0.5126  0.7062
              Bcc     0.0077     0.296     0.106     0.099  0.7847  0.6121 -0.0983
 
              Baa    -0.0166    -0.639    -0.228    -0.213  0.3228  0.8669 -0.3798
     3 N(14)  Bbb    -0.0051    -0.198    -0.071    -0.066  0.8883 -0.4160 -0.1946
              Bcc     0.0217     0.837     0.299     0.279  0.3267  0.2746  0.9044
 
              Baa    -0.0187    -0.720    -0.257    -0.240  0.2736 -0.5583  0.7832
     4 N(14)  Bbb     0.0091     0.350     0.125     0.117 -0.1270  0.7862  0.6048
              Bcc     0.0096     0.370     0.132     0.124  0.9534  0.2650 -0.1442
 
              Baa    -0.0184    -0.709    -0.253    -0.237  0.3062  0.9109  0.2765
     5 N(14)  Bbb    -0.0094    -0.362    -0.129    -0.121  0.8929 -0.3755  0.2483
              Bcc     0.0278     1.071     0.382     0.357 -0.3300 -0.1708  0.9284
 
              Baa    -0.0070    -0.935    -0.334    -0.312  0.8822  0.4702  0.0239
     6 C(13)  Bbb     0.0014     0.181     0.065     0.061 -0.0601  0.0621  0.9963
              Bcc     0.0056     0.754     0.269     0.251 -0.4670  0.8804 -0.0830
 
              Baa    -0.0017    -0.231    -0.083    -0.077 -0.1994 -0.0603  0.9781
     7 C(13)  Bbb    -0.0011    -0.147    -0.053    -0.049  0.9364  0.2824  0.2083
              Bcc     0.0028     0.379     0.135     0.126 -0.2888  0.9574  0.0002
 
              Baa    -0.0023    -0.308    -0.110    -0.103  0.5157  0.8395  0.1712
     8 C(13)  Bbb     0.0002     0.025     0.009     0.008 -0.3387  0.0162  0.9408
              Bcc     0.0021     0.284     0.101     0.095  0.7870 -0.5432  0.2927
 
              Baa    -0.0057    -0.764    -0.273    -0.255  0.5699  0.8204 -0.0473
     9 C(13)  Bbb    -0.0015    -0.204    -0.073    -0.068 -0.0032  0.0599  0.9982
              Bcc     0.0072     0.968     0.345     0.323  0.8217 -0.5687  0.0368
 
              Baa    -0.0077    -1.028    -0.367    -0.343 -0.2969  0.9518  0.0770
    10 C(13)  Bbb     0.0004     0.051     0.018     0.017 -0.0958 -0.1100  0.9893
              Bcc     0.0073     0.977     0.349     0.326  0.9501  0.2863  0.1238
 
              Baa    -0.0111    -1.487    -0.531    -0.496 -0.3562  0.9303  0.0869
    11 C(13)  Bbb    -0.0068    -0.919    -0.328    -0.306  0.9330  0.3593 -0.0216
              Bcc     0.0179     2.406     0.858     0.802  0.0513 -0.0734  0.9960
 
              Baa    -0.0096    -1.284    -0.458    -0.428  0.9269 -0.3729  0.0423
    12 C(13)  Bbb    -0.0055    -0.734    -0.262    -0.245  0.3657  0.9228  0.1211
              Bcc     0.0150     2.017     0.720     0.673 -0.0842 -0.0968  0.9917
 
              Baa    -0.0088    -1.180    -0.421    -0.394  0.7847 -0.6196 -0.0192
    13 C(13)  Bbb     0.0020     0.266     0.095     0.089  0.5091  0.6265  0.5902
              Bcc     0.0068     0.914     0.326     0.305 -0.3537 -0.4729  0.8070
 
              Baa    -0.0072    -0.962    -0.343    -0.321  0.8747  0.4732  0.1045
    14 C(13)  Bbb     0.0018     0.244     0.087     0.082 -0.0523 -0.1221  0.9911
              Bcc     0.0053     0.718     0.256     0.239 -0.4818  0.8724  0.0820
 
              Baa    -0.0016    -0.214    -0.076    -0.071 -0.4186  0.0108  0.9081
    15 C(13)  Bbb    -0.0011    -0.153    -0.054    -0.051  0.8653  0.3082  0.3952
              Bcc     0.0027     0.366     0.131     0.122 -0.2756  0.9513 -0.1384
 
              Baa    -0.0020    -0.267    -0.095    -0.089  0.5103  0.8549  0.0937
    16 C(13)  Bbb    -0.0001    -0.007    -0.003    -0.002 -0.2172  0.0227  0.9759
              Bcc     0.0020     0.275     0.098     0.092  0.8321 -0.5184  0.1972
 
              Baa    -0.0069    -0.921    -0.329    -0.307  0.5774  0.8149  0.0497
    17 C(13)  Bbb     0.0009     0.127     0.045     0.042  0.0062 -0.0653  0.9978
              Bcc     0.0059     0.794     0.283     0.265  0.8164 -0.5759 -0.0427
 
              Baa    -0.0092    -1.229    -0.438    -0.410 -0.2729  0.9539 -0.1248
    18 C(13)  Bbb     0.0025     0.332     0.118     0.111 -0.4408 -0.0087  0.8975
              Bcc     0.0067     0.897     0.320     0.299  0.8551  0.3000  0.4229
 
              Baa    -0.0104    -1.401    -0.500    -0.467 -0.3245  0.9404 -0.1020
    19 C(13)  Bbb    -0.0063    -0.839    -0.299    -0.280  0.9408  0.3097 -0.1378
              Bcc     0.0167     2.240     0.799     0.747  0.0980  0.1407  0.9852
 
              Baa    -0.0109    -1.460    -0.521    -0.487  0.9356 -0.3467 -0.0669
    20 C(13)  Bbb    -0.0066    -0.882    -0.315    -0.294  0.3387  0.9348 -0.1070
              Bcc     0.0175     2.342     0.836     0.781  0.0997  0.0775  0.9920
 
              Baa    -0.0081    -1.091    -0.389    -0.364  0.7833 -0.6214 -0.0188
    21 C(13)  Bbb     0.0026     0.353     0.126     0.118 -0.4402 -0.5758  0.6890
              Bcc     0.0055     0.738     0.263     0.246  0.4389  0.5314  0.7245
 
              Baa    -0.0096    -1.285    -0.458    -0.429  0.0272 -0.0095  0.9996
    22 C(13)  Bbb    -0.0006    -0.084    -0.030    -0.028  0.9976 -0.0634 -0.0278
              Bcc     0.0102     1.368     0.488     0.456  0.0637  0.9979  0.0077
 
              Baa    -0.0016    -0.857    -0.306    -0.286  0.0425 -0.0158  0.9990
    23 H(1)   Bbb    -0.0011    -0.566    -0.202    -0.189  0.9974 -0.0569 -0.0433
              Bcc     0.0027     1.423     0.508     0.475  0.0575  0.9983  0.0134
 
              Baa    -0.0079    -1.060    -0.378    -0.354 -0.0317 -0.0490  0.9983
    24 C(13)  Bbb    -0.0014    -0.188    -0.067    -0.063  0.1361  0.9893  0.0529
              Bcc     0.0093     1.248     0.445     0.416  0.9902 -0.1375  0.0247
 
              Baa    -0.0016    -0.862    -0.307    -0.287  0.0010 -0.0757  0.9971
    25 H(1)   Bbb    -0.0011    -0.603    -0.215    -0.201  0.1564  0.9849  0.0746
              Bcc     0.0027     1.464     0.522     0.488  0.9877 -0.1559 -0.0129
 
              Baa    -0.0084    -1.130    -0.403    -0.377 -0.0626 -0.0492  0.9968
    26 C(13)  Bbb    -0.0012    -0.160    -0.057    -0.053  0.9963 -0.0622  0.0595
              Bcc     0.0096     1.290     0.460     0.430  0.0591  0.9968  0.0529
 
              Baa    -0.0016    -0.850    -0.303    -0.284 -0.0673 -0.0385  0.9970
    27 H(1)   Bbb    -0.0012    -0.624    -0.223    -0.208  0.9964 -0.0543  0.0652
              Bcc     0.0028     1.474     0.526     0.492  0.0516  0.9978  0.0421
 
              Baa    -0.0099    -1.328    -0.474    -0.443 -0.0530  0.0332  0.9980
    28 C(13)  Bbb    -0.0003    -0.041    -0.015    -0.014  0.1475  0.9887 -0.0251
              Bcc     0.0102     1.369     0.489     0.457  0.9876 -0.1459  0.0573
 
              Baa    -0.0016    -0.871    -0.311    -0.291 -0.0639  0.0734  0.9953
    29 H(1)   Bbb    -0.0010    -0.537    -0.191    -0.179  0.1583  0.9854 -0.0625
              Bcc     0.0026     1.408     0.502     0.470  0.9853 -0.1535  0.0746
 
              Baa    -0.0007    -0.098    -0.035    -0.033  0.5783  0.8158 -0.0057
    30 C(13)  Bbb    -0.0006    -0.083    -0.030    -0.028  0.0362 -0.0187  0.9992
              Bcc     0.0013     0.181     0.064     0.060  0.8150 -0.5780 -0.0404
 
              Baa    -0.0005    -0.289    -0.103    -0.096  0.6625  0.7460 -0.0677
    31 H(1)   Bbb    -0.0005    -0.273    -0.097    -0.091  0.0939  0.0070  0.9956
              Bcc     0.0011     0.562     0.200     0.187  0.7431 -0.6659 -0.0654
 
              Baa    -0.0007    -0.360    -0.128    -0.120 -0.1219 -0.0364  0.9919
    32 H(1)   Bbb    -0.0007    -0.353    -0.126    -0.118  0.4821  0.8714  0.0912
              Bcc     0.0013     0.712     0.254     0.238  0.8676 -0.4893  0.0887
 
              Baa    -0.0007    -0.374    -0.133    -0.125 -0.0027 -0.3900  0.9208
    33 H(1)   Bbb    -0.0007    -0.362    -0.129    -0.121  0.5034  0.7951  0.3382
              Bcc     0.0014     0.736     0.263     0.246  0.8641 -0.4644 -0.1942
 
              Baa    -0.0006    -0.086    -0.031    -0.029  0.8998  0.4314 -0.0650
    34 C(13)  Bbb    -0.0006    -0.079    -0.028    -0.026  0.0887 -0.0348  0.9955
              Bcc     0.0012     0.165     0.059     0.055 -0.4272  0.9015  0.0696
 
              Baa    -0.0007    -0.377    -0.135    -0.126  0.6089  0.0180  0.7930
    35 H(1)   Bbb    -0.0007    -0.356    -0.127    -0.119  0.7380  0.3535 -0.5748
              Bcc     0.0014     0.733     0.262     0.245 -0.2907  0.9353  0.2019
 
              Baa    -0.0007    -0.362    -0.129    -0.121 -0.5536 -0.1188  0.8243
    36 H(1)   Bbb    -0.0006    -0.342    -0.122    -0.114  0.7748  0.2895  0.5621
              Bcc     0.0013     0.705     0.251     0.235 -0.3054  0.9498 -0.0682
 
              Baa    -0.0005    -0.283    -0.101    -0.094  0.8674  0.4942 -0.0590
    37 H(1)   Bbb    -0.0005    -0.267    -0.095    -0.089  0.0881 -0.0357  0.9955
              Bcc     0.0010     0.550     0.196     0.183 -0.4898  0.8686  0.0745
 
              Baa    -0.0010    -0.128    -0.046    -0.043 -0.2327  0.9720  0.0333
    38 C(13)  Bbb    -0.0006    -0.081    -0.029    -0.027 -0.0243 -0.0400  0.9989
              Bcc     0.0016     0.209     0.075     0.070  0.9722  0.2317  0.0329
 
              Baa    -0.0009    -0.488    -0.174    -0.163  0.1730 -0.2954  0.9396
    39 H(1)   Bbb    -0.0007    -0.372    -0.133    -0.124 -0.0686  0.9480  0.3106
              Bcc     0.0016     0.859     0.307     0.287  0.9825  0.1182 -0.1438
 
              Baa    -0.0008    -0.433    -0.155    -0.145 -0.2867  0.5682  0.7713
    40 H(1)   Bbb    -0.0007    -0.371    -0.133    -0.124 -0.0276  0.7999 -0.5995
              Bcc     0.0015     0.805     0.287     0.268  0.9576  0.1932  0.2136
 
              Baa    -0.0008    -0.439    -0.157    -0.147  0.2957 -0.4726  0.8302
    41 H(1)   Bbb    -0.0006    -0.341    -0.122    -0.114 -0.3222  0.7688  0.5524
              Bcc     0.0015     0.781     0.279     0.260  0.8993  0.4308 -0.0751
 
              Baa    -0.0050    -0.671    -0.239    -0.224 -0.5144  0.0905  0.8528
    42 C(13)  Bbb     0.0013     0.171     0.061     0.057  0.7079 -0.5164  0.4818
              Bcc     0.0037     0.499     0.178     0.167  0.4840  0.8515  0.2016
 
              Baa    -0.0009    -0.469    -0.167    -0.157 -0.2360  0.0816  0.9683
    43 H(1)   Bbb    -0.0008    -0.420    -0.150    -0.140  0.8853 -0.3928  0.2488
              Bcc     0.0017     0.889     0.317     0.296  0.4007  0.9160  0.0205
 
              Baa    -0.0052    -0.693    -0.247    -0.231  0.7202 -0.4435  0.5334
    44 C(13)  Bbb    -0.0036    -0.483    -0.172    -0.161  0.3423  0.8960  0.2828
              Bcc     0.0088     1.176     0.420     0.392 -0.6034 -0.0211  0.7972
 
              Baa    -0.0006    -0.336    -0.120    -0.112 -0.3642  0.0818  0.9277
    45 H(1)   Bbb    -0.0001    -0.034    -0.012    -0.011 -0.3795  0.8967 -0.2281
              Bcc     0.0007     0.370     0.132     0.123  0.8505  0.4351  0.2955
 
              Baa    -0.0009    -0.459    -0.164    -0.153  0.7362 -0.2963  0.6084
    46 H(1)   Bbb    -0.0004    -0.202    -0.072    -0.067 -0.5863  0.1696  0.7921
              Bcc     0.0012     0.660     0.236     0.220  0.3379  0.9399  0.0489
 
              Baa    -0.0006    -0.086    -0.031    -0.029  0.9131  0.3998 -0.0801
    47 C(13)  Bbb    -0.0006    -0.076    -0.027    -0.025  0.0318  0.1260  0.9915
              Bcc     0.0012     0.162     0.058     0.054 -0.4065  0.9079 -0.1024
 
              Baa    -0.0007    -0.400    -0.143    -0.133  0.7271  0.0738 -0.6826
    48 H(1)   Bbb    -0.0007    -0.379    -0.135    -0.126  0.6422  0.2785  0.7142
              Bcc     0.0015     0.779     0.278     0.260 -0.2428  0.9576 -0.1551
 
              Baa    -0.0006    -0.338    -0.121    -0.113  0.2217  0.0049  0.9751
    49 H(1)   Bbb    -0.0006    -0.310    -0.111    -0.103  0.9036  0.3748 -0.2074
              Bcc     0.0012     0.648     0.231     0.216 -0.3665  0.9271  0.0787
 
              Baa    -0.0006    -0.295    -0.105    -0.098  0.3563  0.3438  0.8688
    50 H(1)   Bbb    -0.0005    -0.271    -0.097    -0.090  0.8020  0.3645 -0.4732
              Bcc     0.0011     0.566     0.202     0.189 -0.4794  0.8654 -0.1459
 
              Baa    -0.0010    -0.130    -0.046    -0.043 -0.4631 -0.5386  0.7039
    51 C(13)  Bbb    -0.0006    -0.078    -0.028    -0.026  0.3633  0.6090  0.7050
              Bcc     0.0016     0.209     0.074     0.070  0.8084 -0.5822  0.0863
 
              Baa    -0.0007    -0.399    -0.142    -0.133 -0.0442  0.3546  0.9340
    52 H(1)   Bbb    -0.0007    -0.378    -0.135    -0.126  0.4881  0.8234 -0.2895
              Bcc     0.0015     0.777     0.277     0.259  0.8717 -0.4431  0.2094
 
              Baa    -0.0009    -0.117    -0.042    -0.039  0.4324  0.6261  0.6489
    53 C(13)  Bbb     0.0000     0.003     0.001     0.001  0.8476 -0.0366 -0.5294
              Bcc     0.0008     0.114     0.041     0.038 -0.3077  0.7789 -0.5465
 
              Baa    -0.0004    -0.229    -0.082    -0.076 -0.3881 -0.3987  0.8309
    54 H(1)   Bbb    -0.0004    -0.196    -0.070    -0.065  0.6340  0.5389  0.5547
              Bcc     0.0008     0.425     0.152     0.142 -0.6689  0.7420  0.0436
 
              Baa    -0.0004    -0.187    -0.067    -0.062  0.2559  0.5221  0.8136
    55 H(1)   Bbb    -0.0003    -0.166    -0.059    -0.055  0.4999  0.6489 -0.5736
              Bcc     0.0007     0.353     0.126     0.118  0.8274 -0.5535  0.0949
 
              Baa    -0.0010    -0.134    -0.048    -0.045 -0.2288  0.9712 -0.0663
    56 C(13)  Bbb    -0.0006    -0.084    -0.030    -0.028 -0.0444  0.0576  0.9974
              Bcc     0.0016     0.218     0.078     0.073  0.9725  0.2312  0.0299
 
              Baa    -0.0009    -0.460    -0.164    -0.153 -0.2449  0.5449  0.8020
    57 H(1)   Bbb    -0.0007    -0.370    -0.132    -0.123 -0.0259  0.8232 -0.5672
              Bcc     0.0016     0.830     0.296     0.277  0.9692  0.1597  0.1875
 
              Baa    -0.0009    -0.495    -0.177    -0.165  0.2131 -0.3572  0.9094
    58 H(1)   Bbb    -0.0007    -0.375    -0.134    -0.125 -0.0399  0.9268  0.3734
              Bcc     0.0016     0.870     0.310     0.290  0.9762  0.1159 -0.1832
 
              Baa    -0.0008    -0.413    -0.147    -0.138 -0.4072  0.8538 -0.3244
    59 H(1)   Bbb    -0.0007    -0.393    -0.140    -0.131 -0.0857  0.3178  0.9443
              Bcc     0.0015     0.806     0.287     0.269  0.9093  0.4123 -0.0562
 
              Baa    -0.0008    -0.112    -0.040    -0.037  0.8955 -0.4390 -0.0735
    60 C(13)  Bbb    -0.0005    -0.062    -0.022    -0.021  0.0668 -0.0308  0.9973
              Bcc     0.0013     0.175     0.062     0.058  0.4400  0.8980 -0.0017
 
              Baa    -0.0008    -0.418    -0.149    -0.139  0.7829 -0.5829 -0.2176
    61 H(1)   Bbb    -0.0007    -0.382    -0.136    -0.128  0.2110 -0.0804  0.9742
              Bcc     0.0015     0.800     0.285     0.267  0.5853  0.8086 -0.0601
 
              Baa    -0.0009    -0.481    -0.172    -0.161 -0.3438  0.3207  0.8826
    62 H(1)   Bbb    -0.0007    -0.372    -0.133    -0.124  0.8786 -0.2219  0.4228
              Bcc     0.0016     0.854     0.305     0.285  0.3314  0.9208 -0.2055
 
              Baa    -0.0008    -0.452    -0.161    -0.151  0.3551 -0.2807  0.8917
    63 H(1)   Bbb    -0.0007    -0.369    -0.132    -0.123  0.8679 -0.2555 -0.4260
              Bcc     0.0015     0.821     0.293     0.274  0.3474  0.9252  0.1529
 
              Baa    -0.0206     1.489     0.531     0.497 -0.6277  0.7552  0.1890
    64 O(17)  Bbb     0.0012    -0.083    -0.030    -0.028  0.0216 -0.2258  0.9739
              Bcc     0.0194    -1.405    -0.502    -0.469  0.7782  0.6154  0.1254
 
              Baa    -0.0082    -4.383    -1.564    -1.462 -0.5525  0.7079 -0.4400
    65 H(1)   Bbb    -0.0073    -3.921    -1.399    -1.308  0.7754  0.6302  0.0403
              Bcc     0.0156     8.303     2.963     2.770 -0.3059  0.3189  0.8971
 
              Baa    -0.0067    -3.567    -1.273    -1.190 -0.6225  0.7497  0.2246
    66 H(1)   Bbb    -0.0054    -2.899    -1.034    -0.967  0.7757  0.6290  0.0503
              Bcc     0.0121     6.466     2.307     2.157  0.1036 -0.2055  0.9732
 
              Baa    -0.0007    -0.089    -0.032    -0.030  0.8670 -0.3962  0.3022
    67 C(13)  Bbb    -0.0006    -0.077    -0.027    -0.026  0.4031  0.9142  0.0420
              Bcc     0.0012     0.166     0.059     0.055 -0.2929  0.0854  0.9523
 
              Baa    -0.0007    -0.352    -0.126    -0.117 -0.3834  0.9227  0.0415
    68 H(1)   Bbb    -0.0006    -0.301    -0.107    -0.100  0.8905  0.3573  0.2816
              Bcc     0.0012     0.653     0.233     0.218 -0.2450 -0.1449  0.9586
 
              Baa    -0.0008    -0.400    -0.143    -0.134  0.7005 -0.6116  0.3677
    69 H(1)   Bbb    -0.0007    -0.373    -0.133    -0.124  0.5606  0.7904  0.2468
              Bcc     0.0014     0.773     0.276     0.258 -0.4416  0.0333  0.8966
 
              Baa    -0.0006    -0.330    -0.118    -0.110 -0.1325  0.9778 -0.1624
    70 H(1)   Bbb    -0.0006    -0.304    -0.109    -0.102  0.9657  0.1643  0.2012
              Bcc     0.0012     0.634     0.226     0.212 -0.2234  0.1301  0.9660
 
              Baa    -0.0044    -0.172    -0.061    -0.057  0.9251 -0.2034 -0.3207
    71 N(14)  Bbb    -0.0004    -0.014    -0.005    -0.005  0.3220 -0.0278  0.9463
              Bcc     0.0048     0.185     0.066     0.062  0.2014  0.9787 -0.0398
 
              Baa    -0.0013    -0.699    -0.249    -0.233  0.8703 -0.4167 -0.2627
    72 H(1)   Bbb    -0.0010    -0.559    -0.199    -0.186  0.4199  0.9064 -0.0464
              Bcc     0.0024     1.258     0.449     0.420  0.2574 -0.0700  0.9638
 
              Baa    -0.0027    -0.366    -0.131    -0.122 -0.5664  0.7393 -0.3642
    73 C(13)  Bbb    -0.0003    -0.041    -0.015    -0.014  0.7884  0.6148  0.0218
              Bcc     0.0030     0.408     0.145     0.136 -0.2400  0.2748  0.9311
 
              Baa    -0.0108    -1.455    -0.519    -0.485  0.9663 -0.0130 -0.2571
    74 C(13)  Bbb     0.0018     0.243     0.087     0.081  0.1856  0.7274  0.6607
              Bcc     0.0090     1.212     0.433     0.404  0.1784 -0.6861  0.7053
 
              Baa    -0.0043    -2.306    -0.823    -0.769 -0.2841  0.8724  0.3977
    75 H(1)   Bbb    -0.0038    -2.047    -0.730    -0.683  0.7200  0.4680 -0.5123
              Bcc     0.0082     4.353     1.553     1.452  0.6331 -0.1408  0.7612
 
              Baa    -0.0153    -0.590    -0.210    -0.197 -0.1141  0.1571  0.9810
    76 N(14)  Bbb     0.0032     0.123     0.044     0.041 -0.2640  0.9471 -0.1824
              Bcc     0.0121     0.467     0.167     0.156  0.9578  0.2797  0.0666
 
              Baa    -0.0060    -0.799    -0.285    -0.267  0.8924  0.4016  0.2059
    77 C(13)  Bbb    -0.0039    -0.524    -0.187    -0.175 -0.3137  0.8800 -0.3567
              Bcc     0.0099     1.323     0.472     0.441 -0.3245  0.2537  0.9112
 
              Baa    -0.0046    -2.479    -0.885    -0.827  0.6176 -0.5065  0.6017
    78 H(1)   Bbb    -0.0042    -2.232    -0.796    -0.745  0.4350  0.8573  0.2752
              Bcc     0.0088     4.711     1.681     1.571 -0.6552  0.0918  0.7499
 

 ---------------------------------------------------------------------------------

 Unable to Open any file for archive entry.
 1\1\GINC-BGN1017\SP\UAPFD\Gen\C34H36Fe1N6O1(1+,2)\BEBJONES\14-Aug-2024
 \0\\# apfd/gen scf=maxcycle=999 geom=check\\1jdr_III_D\\1,2\Fe,0,28.15
 19861048,91.8479716215,52.4889141466\N,0,29.082869056,93.5273868212,51
 .9229385592\N,0,29.3036779693,91.7516620179,54.1231279312\N,0,27.10673
 28646,90.2661715543,53.1330027869\N,0,26.9776311343,91.9568234979,50.8
 790997173\C,0,28.8154401398,94.2807516171,50.8234074325\C,0,29.6448760
 488,95.4638253691,50.8003581057\C,0,30.4261850337,95.4057472181,51.913
 2330873\C,0,30.0676252745,94.1836897802,52.5969292921\C,0,30.276308410
 5,92.6314712285,54.4891982571\C,0,30.9007035275,92.2237115106,55.72158
 89748\C,0,30.290193505,91.0549941235,56.0933692708\C,0,29.2664376566,9
 0.8054199362,55.0956173555\C,0,27.3231190951,89.5549299131,54.27286021
 23\C,0,26.2809483026,88.580782681,54.4770603564\C,0,25.4298520673,88.7
 002691115,53.4101254397\C,0,25.9911038902,89.7392215929,52.5681545947\
 C,0,25.9449344929,91.1355708945,50.5561959117\C,0,25.4703834958,91.414
 9384038,49.2174172479\C,0,26.1547817298,92.5107876497,48.7946058717\C,
 0,27.0547461021,92.866657662,49.8717506508\C,0,27.9036147902,93.955474
 3913,49.835662535\H,0,27.830108636,94.6185927198,48.9871568228\C,0,30.
 6322310158,93.772059679,53.7884803411\H,0,31.4165951832,94.3874250711,
 54.2025575406\C,0,28.3593319226,89.7676215004,55.1649926483\H,0,28.440
 6982108,89.0875121295,55.9989052143\C,0,25.4460169435,90.1267867072,51
 .3574637156\H,0,24.5874355189,89.5815350498,50.9957195759\C,0,31.45731
 56008,96.368569009,52.3949677105\H,0,31.546650011,97.2120202827,51.714
 7529722\H,0,32.4314348766,95.8844697459,52.4700495952\H,0,31.194287315
 3,96.7507267409,53.3818530907\C,0,29.5899670812,96.5082024544,49.73839
 58263\H,0,28.5866119913,96.9284211177,49.6655079703\H,0,29.8479287725,
 96.082185007,48.7684650985\H,0,30.2850463914,97.3163880599,49.95278051
 86\C,0,31.9564038558,92.9856013238,56.4450157245\H,0,31.7814349541,94.
 0574713727,56.3656578625\H,0,32.9450142447,92.7739151575,56.0335167476
 \H,0,31.9579477341,92.7106483115,57.4978884606\C,0,30.532189587,90.230
 6657275,57.2557927407\H,0,29.6644527828,89.7252543665,57.663283821\C,0
 ,31.7131129907,90.0440730614,57.8371227047\H,0,32.6180354464,90.479619
 1418,57.4509351766\H,0,31.8185488624,89.4228816332,58.7110996866\C,0,2
 6.1474664381,87.7044703358,55.6736131812\H,0,26.4543671842,88.23239487
 89,56.5751839744\H,0,26.7705185339,86.813870793,55.5751984443\H,0,25.1
 128309076,87.3884474584,55.7912273808\C,0,24.2037925288,87.9871125157,
 53.1283430587\H,0,23.4431991572,88.5562177211,52.6058621415\C,0,23.952
 3665756,86.7219134138,53.4493844632\H,0,24.6855711591,86.0945031986,53
 .9252109686\H,0,23.0056645027,86.2605185247,53.2212625389\C,0,24.40736
 62562,90.6351304934,48.5224871979\H,0,23.4563189545,90.7307511697,49.0
 477687395\H,0,24.6680624966,89.5772942188,48.4876403662\H,0,24.2708773
 108,90.9894565536,47.5035962387\C,0,26.053891891,93.2489401511,47.5038
 672837\H,0,25.3464294514,92.7643767198,46.8353418618\H,0,27.0239616079
 ,93.2906172279,47.0083018078\H,0,25.7172681545,94.2722008946,47.673832
 2219\O,0,26.753,93.249,53.59\H,0,27.097,94.122,53.4\H,0,26.061,93.06,5
 4.115\C,0,30.5396587871,88.0061065473,49.2349115758\H,0,31.0297058225,
 88.3452158006,48.3223655929\H,0,29.595583997,87.5402663316,48.97082000
 26\H,0,31.1776541902,87.2591097853,49.707078368\N,0,31.3011711455,89.9
 346797196,50.6390054391\H,0,32.2809270797,89.8286873239,50.4331247206\
 C,0,30.2911736645,89.1452141358,50.1543874182\C,0,30.7416252584,90.870
 7829287,51.438627935\H,0,31.2939147164,91.6276499186,51.9563748236\N,0
 ,29.440260573,90.7219180391,51.4891375618\C,0,29.1448628957,89.6520382
 936,50.6962267673\H,0,28.1342352653,89.3228784761,50.5697529242\\Versi
 on=ES64L-G16RevC.02\State=2-A\HF=-2983.2092312\S2=0.792777\S2-1=0.\S2A
 =0.750676\RMSD=1.197e-09\Dipole=1.2286484,-0.168737,-0.9631958\Quadrup
 ole=3.376235,-1.9657816,-1.4104534,4.3423415,2.9815324,-1.8530124\PG=C
 01 [X(C34H36Fe1N6O1)]\\@
 The archive entry for this job was punched.


 IN THE UNIVERSE THE DIFFICULT THINGS ARE DONE AS IF THEY WERE EASY.

                                                          -- LAO-TSU
 Job cpu time:       0 days  6 hours 11 minutes 20.4 seconds.
 Elapsed time:       0 days  0 hours  6 minutes 25.9 seconds.
 File lengths (MBytes):  RWF=    430 Int=      0 D2E=      0 Chk=    155 Scr=      1
 Normal termination of Gaussian 16 at Wed Aug 14 20:02:49 2024.
