 Entering Gaussian System, Link 0=g16
 Input=1jf401.com
 Output=1jf401.log
 Initial command:
 /sw/chem/gaussian/g16_C02/a100/g16/l1.exe "/local/bebjones_7975111/Gau-2217165.inp" -scrdir="/local/bebjones_7975111/"
 Entering Link 1 = /sw/chem/gaussian/g16_C02/a100/g16/l1.exe PID=   2217166.
  
 Copyright (c) 1988-2021, Gaussian, Inc.  All Rights Reserved.
  
 This is part of the Gaussian(R) 16 program.  It is based on
 the Gaussian(R) 09 system (copyright 2009, Gaussian, Inc.),
 the Gaussian(R) 03 system (copyright 2003, Gaussian, Inc.),
 the Gaussian(R) 98 system (copyright 1998, Gaussian, Inc.),
 the Gaussian(R) 94 system (copyright 1995, Gaussian, Inc.),
 the Gaussian 92(TM) system (copyright 1992, Gaussian, Inc.),
 the Gaussian 90(TM) system (copyright 1990, Gaussian, Inc.),
 the Gaussian 88(TM) system (copyright 1988, Gaussian, Inc.),
 the Gaussian 86(TM) system (copyright 1986, Carnegie Mellon
 University), and the Gaussian 82(TM) system (copyright 1983,
 Carnegie Mellon University). Gaussian is a federally registered
 trademark of Gaussian, Inc.
  
 This software contains proprietary and confidential information,
 including trade secrets, belonging to Gaussian, Inc.
  
 This software is provided under written license and may be
 used, copied, transmitted, or stored only in accord with that
 written license.
  
 The following legend is applicable only to US Government
 contracts under FAR:
  
                    RESTRICTED RIGHTS LEGEND
  
 Use, reproduction and disclosure by the US Government is
 subject to restrictions as set forth in subparagraphs (a)
 and (c) of the Commercial Computer Software - Restricted
 Rights clause in FAR 52.227-19.
  
 Gaussian, Inc.
 340 Quinnipiac St., Bldg. 40, Wallingford CT 06492
  
  
 ---------------------------------------------------------------
 Warning -- This program may not be used in any manner that
 competes with the business of Gaussian, Inc. or will provide
 assistance to any competitor of Gaussian, Inc.  The licensee
 of this program is prohibited from giving any competitor of
 Gaussian, Inc. access to this program.  By using this program,
 the user acknowledges that Gaussian, Inc. is engaged in the
 business of creating and licensing software in the field of
 computational chemistry and represents and warrants to the
 licensee that it is not a competitor of Gaussian, Inc. and that
 it will not use this program in any manner prohibited above.
 ---------------------------------------------------------------
  

 Cite this work as:
 Gaussian 16, Revision C.02,
 M. J. Frisch, G. W. Trucks, H. B. Schlegel, G. E. Scuseria, 
 M. A. Robb, J. R. Cheeseman, G. Scalmani, V. Barone, 
 G. A. Petersson, H. Nakatsuji, X. Li, M. Caricato, A. V. Marenich, 
 J. Bloino, B. G. Janesko, R. Gomperts, B. Mennucci, H. P. Hratchian, 
 J. V. Ortiz, A. F. Izmaylov, J. L. Sonnenberg, D. Williams-Young, 
 F. Ding, F. Lipparini, F. Egidi, J. Goings, B. Peng, A. Petrone, 
 T. Henderson, D. Ranasinghe, V. G. Zakrzewski, J. Gao, N. Rega, 
 G. Zheng, W. Liang, M. Hada, M. Ehara, K. Toyota, R. Fukuda, 
 J. Hasegawa, M. Ishida, T. Nakajima, Y. Honda, O. Kitao, H. Nakai, 
 T. Vreven, K. Throssell, J. A. Montgomery, Jr., J. E. Peralta, 
 F. Ogliaro, M. J. Bearpark, J. J. Heyd, E. N. Brothers, K. N. Kudin, 
 V. N. Staroverov, T. A. Keith, R. Kobayashi, J. Normand, 
 K. Raghavachari, A. P. Rendell, J. C. Burant, S. S. Iyengar, 
 J. Tomasi, M. Cossi, J. M. Millam, M. Klene, C. Adamo, R. Cammi, 
 J. W. Ochterski, R. L. Martin, K. Morokuma, O. Farkas, 
 J. B. Foresman, and D. J. Fox, Gaussian, Inc., Wallingford CT, 2019.
 
 ******************************************
 Gaussian 16:  ES64L-G16RevC.02  7-Dec-2021
                13-Aug-2024 
 ******************************************
 %mem=16GB
 %CPU=0-71
 SetSPE:  set environment variable "OMP_PROC_BIND" = "true"
 SetSPE:  set environment variable "OMP_PLACES" = "{0},{1},{2},{3},{4},{5},{6},{7},{8},{9},{10},{11},{12},{13},{14},{15},{16},{17},{18},{19},{20},{21},{22},{23},{24},{25},{26},{27},{28},{29},{30},{31},{32},{33},{34},{35},{36},{37},{38},{39},{40},{41},{42},{43},{44},{45},{46},{47},{48},{49},{50},{51},{52},{53},{54},{55},{56},{57},{58},{59},{60},{61},{62},{63},{64},{65},{66},{67},{68},{69},{70},{71}"
 Will use up to   72 processors via shared memory.
 %gpucpu=0,1,2,3=0,1,2,3
 Will use    4 GPUs:
 Thread  CPU   GPU
      0    0     0
      1    1     1
      2    2     2
      3    3     3
      4    4    -1
      5    5    -1
      6    6    -1
      7    7    -1
      8    8    -1
      9    9    -1
     10   10    -1
     11   11    -1
     12   12    -1
     13   13    -1
     14   14    -1
     15   15    -1
     16   16    -1
     17   17    -1
     18   18    -1
     19   19    -1
     20   20    -1
     21   21    -1
     22   22    -1
     23   23    -1
     24   24    -1
     25   25    -1
     26   26    -1
     27   27    -1
     28   28    -1
     29   29    -1
     30   30    -1
     31   31    -1
     32   32    -1
     33   33    -1
     34   34    -1
     35   35    -1
     36   36    -1
     37   37    -1
     38   38    -1
     39   39    -1
     40   40    -1
     41   41    -1
     42   42    -1
     43   43    -1
     44   44    -1
     45   45    -1
     46   46    -1
     47   47    -1
     48   48    -1
     49   49    -1
     50   50    -1
     51   51    -1
     52   52    -1
     53   53    -1
     54   54    -1
     55   55    -1
     56   56    -1
     57   57    -1
     58   58    -1
     59   59    -1
     60   60    -1
     61   61    -1
     62   62    -1
     63   63    -1
     64   64    -1
     65   65    -1
     66   66    -1
     67   67    -1
     68   68    -1
     69   69    -1
     70   70    -1
     71   71    -1
 SetGPE:  set environment variable "OMP_PROC_BIND" = "true"
 SetGPE:  set environment variable "OMP_PLACES" = "{0},{1},{2},{3},{4},{5},{6},{7},{8},{9},{10},{11},{12},{13},{14},{15},{16},{17},{18},{19},{20},{21},{22},{23},{24},{25},{26},{27},{28},{29},{30},{31},{32},{33},{34},{35},{36},{37},{38},{39},{40},{41},{42},{43},{44},{45},{46},{47},{48},{49},{50},{51},{52},{53},{54},{55},{56},{57},{58},{59},{60},{61},{62},{63},{64},{65},{66},{67},{68},{69},{70},{71}"
 %chk=1jf4_II_O.chk
 Properties for Device   0
 Minimum vector length:                              32
 Maximum vector length:                            1024
 Number of SMPs:                                    108
 Maximum number of threads per SMP:                2048
 Number of ASync Engines:                             5
 Memory:                                           9207742464
 Properties for Device   1
 Minimum vector length:                              32
 Maximum vector length:                            1024
 Number of SMPs:                                    108
 Maximum number of threads per SMP:                2048
 Number of ASync Engines:                             5
 Memory:                                           9207742464
 Properties for Device   2
 Minimum vector length:                              32
 Maximum vector length:                            1024
 Number of SMPs:                                    108
 Maximum number of threads per SMP:                2048
 Number of ASync Engines:                             5
 Memory:                                           9207742464
 Properties for Device   3
 Minimum vector length:                              32
 Maximum vector length:                            1024
 Number of SMPs:                                    108
 Maximum number of threads per SMP:                2048
 Number of ASync Engines:                             5
 Memory:                                           9207742464
   8286968217 words of memory will be used on each GPU.
 ------------------------------------------
 # polar def2tzvp apfd int=(grid=ultrafine)
 ------------------------------------------
 1/38=1,172=1/1;
 2/12=2,17=6,18=5,40=1/2;
 3/5=44,7=101,11=2,25=1,30=1,74=-44,75=-5/1,2,3;
 4//1;
 5/5=2,38=5,98=1/2;
 8/6=4,10=90,11=11/1;
 10/6=1,13=10/2;
 6/7=2,8=2,9=2,10=2,28=1/1;
 99/5=1,9=1/99;
 ---------
 1jf4_II_S
 ---------
 Symbolic Z-matrix:
 Charge =  0 Multiplicity = 1
 Fe                   -24.2342  -6.70282   18.8284 
 N                    -25.54558  -6.14839   17.43758 
 N                    -24.51541  -8.60614   18.31389 
 N                    -23.31334  -7.32074   20.50339 
 N                    -24.18889  -4.83151   19.52811 
 C                    -25.98319  -4.8831    17.17851 
 C                    -26.99906  -4.88748   16.15056 
 C                    -27.15519  -6.1852    15.77611 
 C                    -26.22068  -6.95288   16.56865 
 C                    -25.26123  -9.08783   17.27975 
 C                    -25.12977  -10.52162   17.16906 
 C                    -24.27921  -10.90362   18.15934 
 C                    -23.91616  -9.6983    18.86923 
 C                    -22.88238  -8.58141   20.78449 
 C                    -22.17466  -8.61521   22.04729 
 C                    -22.22332  -7.33981   22.53885 
 C                    -22.91794  -6.54936   21.55736 
 C                    -23.60377  -4.37478   20.66855 
 C                    -23.65888  -2.928     20.73677 
 C                    -24.33054  -2.5239    19.61381 
 C                    -24.67589  -3.72376   18.89619 
 C                    -25.52346  -3.74038   17.80187 
 H                    -25.90618  -2.79347   17.45244 
 C                    -26.07429  -8.32217   16.46641 
 H                    -26.64934  -8.83217   15.70892 
 C                    -23.11694  -9.69106   19.99592 
 H                    -22.67566  -10.62531   20.30569 
 C                    -23.04862  -5.17593   21.64573 
 H                    -22.67184  -4.69821   22.53697 
 C                    -27.708   -3.67005   15.66524 
 H                    -27.00335  -2.96625   15.22101 
 H                    -28.21312  -3.16755   16.49013 
 H                    -28.45088  -3.92894   14.91495 
 C                    -28.07825  -6.77242   14.76467 
 H                    -28.73392  -7.50921   15.2288 
 H                    -27.51549  -7.2703    13.97461 
 H                    -28.69612  -6.00138   14.31117 
 C                    -24.61747  -1.13874   19.14929 
 H                    -25.62579  -0.83324   19.43371 
 H                    -24.53706  -1.07129   18.06533 
 H                    -23.91058  -0.44252   19.59624 
 C                    -23.08439  -2.13511   21.80093 
 H                    -22.19842  -2.5524    22.26553 
 C                    -23.55374  -0.97167   22.24009 
 H                    -24.45559  -0.53293   21.85094 
 H                    -23.06237  -0.42924   23.03075 
 C                    -21.68644  -6.82716   23.8302 
 H                    -22.48031  -6.36789   24.41903 
 H                    -20.91738  -6.0734    23.65579 
 H                    -21.25424  -7.63797   24.41123 
 C                    -21.57896  -9.77115   22.69258 
 H                    -20.61061  -9.59292   23.1489 
 C                    -22.13054  -10.97366   22.79699 
 H                    -23.11369  -11.18667   22.41304 
 H                    -21.62728  -11.78311   23.29961 
 C                    -23.80367  -12.26902   18.52057 
 H                    -24.18743  -12.56081   19.49884 
 H                    -22.71486  -12.30063   18.56254 
 H                    -24.14092  -13.00086   17.79023 
 C                    -25.83145  -11.35471   16.15227 
 H                    -26.9099  -11.32521   16.31338 
 H                    -25.50627  -12.39098   16.21028 
 H                    -25.62893  -10.98556   15.14682 
 C                    -20.32149  -4.90127   15.28019 
 H                    -19.38926  -4.53101   15.70673 
 H                    -20.91319  -4.05341   14.94969 
 H                    -20.07921  -5.51791   14.41486 
 N                    -20.6017  -6.83131   16.84954 
 H                    -19.70979  -7.25346   16.6495 
 C                    -21.08698  -5.68133   16.2851 
 C                    -21.53318  -7.28929   17.71639 
 H                    -21.42332  -8.17871   18.30398 
 N                    -22.58201  -6.49802   17.73667 
 C                    -22.31617  -5.49246   16.84896 
 H                    -23.02469  -4.70726   16.67886 
 
 Stoichiometry    C34H34FeN6
 Framework group  C1[X(C34H34FeN6)]
 Deg. of freedom   219
 Full point group                 C1      NOp   1
 Largest Abelian subgroup         C1      NOp   1
 Largest concise Abelian subgroup C1      NOp   1
                         Standard orientation:                         
 ---------------------------------------------------------------------
 Center     Atomic      Atomic             Coordinates (Angstroms)
 Number     Number       Type             X           Y           Z
 ---------------------------------------------------------------------
      1         26           0        0.055767    0.145428   -0.257359
      2          7           0       -0.729976    1.947785   -0.566515
      3          7           0        1.879722    0.935952   -0.378523
      4          7           0        0.867166   -1.683747   -0.433915
      5          7           0       -1.758331   -0.673407   -0.436319
      6          6           0       -2.052304    2.257951   -0.688345
      7          6           0       -2.228931    3.660056   -0.990990
      8          6           0       -0.981820    4.200228   -1.031022
      9          6           0       -0.062341    3.124064   -0.735737
     10          6           0        2.210610    2.253330   -0.491329
     11          6           0        3.642413    2.434600   -0.442675
     12          6           0        4.178431    1.193704   -0.291332
     13          6           0        3.065692    0.271925   -0.265104
     14          6           0        2.185098   -2.009485   -0.329081
     15          6           0        2.370677   -3.442998   -0.414391
     16          6           0        1.124623   -3.971527   -0.611029
     17          6           0        0.204783   -2.864990   -0.601613
     18          6           0       -2.080318   -1.992984   -0.517580
     19          6           0       -3.517091   -2.180101   -0.478245
     20          6           0       -4.058060   -0.924057   -0.406335
     21          6           0       -2.948796   -0.005683   -0.413087
     22          6           0       -3.094588    1.365037   -0.539814
     23          1           0       -4.098766    1.757354   -0.594001
     24          6           0        1.307927    3.283269   -0.673621
     25          1           0        1.702209    4.280606   -0.793674
     26          6           0        3.216032   -1.099574   -0.197122
     27          1           0        4.213398   -1.490709   -0.071427
     28          6           0       -1.168213   -3.021231   -0.642744
     29          1           0       -1.549926   -4.023309   -0.763652
     30          6           0       -3.549888    4.309120   -1.223493
     31          1           0       -4.176484    4.235115   -0.334055
     32          1           0       -4.073929    3.824886   -2.047509
     33          1           0       -3.425758    5.361281   -1.467170
     34          6           0       -0.568380    5.603428   -1.313784
     35          1           0        0.098202    5.638476   -2.175537
     36          1           0       -0.039766    6.027441   -0.459635
     37          1           0       -1.433891    6.226640   -1.524557
     38          6           0       -5.489290   -0.533256   -0.281349
     39          1           0       -5.909360   -0.275239   -1.254954
     40          1           0       -5.597245    0.330600    0.372922
     41          1           0       -6.065661   -1.358746    0.131631
     42          6           0       -4.177016   -3.466646   -0.499153
     43          1           0       -3.626477   -4.279248   -0.039261
     44          6           0       -5.369355   -3.717093   -1.030526
     45          1           0       -5.939611   -2.962066   -1.542391
     46          1           0       -5.805052   -4.701865   -0.995810
     47          6           0        0.748165   -5.399018   -0.808984
     48          1           0        0.218176   -5.527421   -1.752649
     49          1           0        0.093311   -5.739862   -0.005851
     50          1           0        1.635007   -6.027542   -0.825886
     51          6           0        3.623634   -4.173972   -0.357550
     52          1           0        3.594695   -5.088308    0.226273
     53          6           0        4.747849   -3.839508   -0.978392
     54          1           0        4.812754   -2.974559   -1.616374
     55          1           0        5.638848   -4.439521   -0.893463
     56          6           0        5.609688    0.788421   -0.200846
     57          1           0        5.895369    0.198068   -1.072220
     58          1           0        5.784501    0.182873    0.688547
     59          1           0        6.255886    1.661926   -0.154451
     60          6           0        4.327882    3.752640   -0.557384
     61          1           0        4.166173    4.181798   -1.547110
     62          1           0        5.399201    3.646059   -0.402869
     63          1           0        3.940739    4.452902    0.182860
     64          6           0       -1.388845    0.877059    5.083286
     65          1           0       -1.614069   -0.014205    5.668953
     66          1           0       -2.321178    1.374383    4.835047
     67          1           0       -0.787850    1.546371    5.698554
     68          7           0        0.560917   -0.086405    3.843685
     69          1           0        1.085402   -0.341411    4.664429
     70          6           0       -0.667936    0.518906    3.835752
     71          6           0        0.934694   -0.276047    2.557931
     72          1           0        1.857808   -0.731649    2.260123
     73          7           0        0.015697    0.172669    1.732922
     74          6           0       -0.987899    0.670553    2.516983
     75          1           0       -1.865722    1.101100    2.079357
 ---------------------------------------------------------------------
 Rotational constants (GHZ):           0.0967701           0.0901150           0.0602109
 Standard basis: def2TZVP (5D, 7F)
 There are  1696 symmetry adapted cartesian basis functions of A   symmetry.
 There are  1489 symmetry adapted basis functions of A   symmetry.
  1489 basis functions,  2414 primitive gaussians,  1696 cartesian basis functions
   153 alpha electrons      153 beta electrons
       nuclear repulsion energy      5572.3412745830 Hartrees.
 NAtoms=   75 NActive=   75 NUniq=   75 SFac= 1.00D+00 NAtFMM=   60 NAOKFM=T Big=T
 Integral buffers will be    131072 words long.
 Raffenetti 2 integral format.
 Two-electron integral symmetry is turned on.
 R6APFD:  NTU= -4 IXU= 1 FactS= 1.050
 Nuclear repulsion after empirical dispersion term =     5572.2084150320 Hartrees.
 One-electron integrals computed using PRISM.
   1 Symmetry operations used in ECPInt.
 ECPInt:  NShTT=  174936 NPrTT=  542361 LenC2=  137434 LenP2D=  282137.
 LDataN:  DoStor=T MaxTD1= 6 Len=  172
 Number of processors reduced to  23 by ecpmxn.
 NBasis=  1489 RedAO= T EigKep=  3.32D-06  NBF=  1489
 NBsUse=  1489 1.00D-06 EigRej= -1.00D+00 NBFU=  1489
 ExpMin= 4.20D-02 ExpMax= 3.01D+05 ExpMxC= 2.91D+03 IAcc=3 IRadAn=         5 AccDes= 0.00D+00
 Harris functional with IExCor= 3731 and IRadAn=       5 diagonalized for initial guess.
 HarFok:  IExCor= 3731 AccDes= 0.00D+00 IRadAn=         5 IDoV= 1 UseB2=F ITyADJ=14
 ICtDFT=  3500011 ScaDFX=  1.000000  1.000000  1.000000  1.000000
 FoFCou: FMM=F IPFlag=           0 FMFlag=      100000 FMFlg1=        2001
         NFxFlg=           0 DoJE=T BraDBF=F KetDBF=T FulRan=T
         wScrn=  0.000000 ICntrl=       500 IOpCl=  0 I1Cent=   200000004 NGrid=           0
         NMat0=    1 NMatS0=      1 NMatT0=    0 NMatD0=    1 NMtDS0=    0 NMtDT0=    0
 Petite list used in FoFCou.
 Requested convergence on RMS density matrix=1.00D-08 within 128 cycles.
 Requested convergence on MAX density matrix=1.00D-06.
 Requested convergence on             energy=1.00D-06.
 No special actions if energy rises.
 EnCoef did     4 forward-backward iterations
 EnCoef did   100 forward-backward iterations
 EnCoef did   100 forward-backward iterations
 EnCoef did   100 forward-backward iterations
 EnCoef did   100 forward-backward iterations
 EnCoef did     2 forward-backward iterations
 EnCoef did     3 forward-backward iterations
 Restarting incremental Fock formation.
 SCF Done:  E(RAPFD) =  -2907.60170330     A.U. after   29 cycles
            NFock= 29  Conv=0.32D-08     -V/T= 2.0035
 DoSCS=F DFT=T ScalE2(SS,OS)=  1.000000  1.000000
 Range of M.O.s used for correlation:     1  1489
 NBasis=  1489 NAE=   153 NBE=   153 NFC=     0 NFV=     0
 NROrb=   1489 NOA=   153 NOB=   153 NVA=  1336 NVB=  1336

 **** Warning!!: The largest alpha MO coefficient is  0.51771589D+02

          Differentiating once with respect to electric field.
                with respect to dipole field.
          Electric field/nuclear overlap derivatives assumed to be zero.
          There are     3 degrees of freedom in the 1st order CPHF.  IDoFFX=0 NUNeed=     3.
      3 vectors produced by pass  0 Test12= 6.81D-12 3.33D-08 XBig12= 1.85D+03 2.92D+01.
 AX will form     3 AO Fock derivatives at one time.
      3 vectors produced by pass  1 Test12= 6.81D-12 3.33D-08 XBig12= 1.16D+03 9.42D+00.
      3 vectors produced by pass  2 Test12= 6.81D-12 3.33D-08 XBig12= 3.46D+02 4.84D+00.
      3 vectors produced by pass  3 Test12= 6.81D-12 3.33D-08 XBig12= 2.61D+02 3.64D+00.
      3 vectors produced by pass  4 Test12= 6.81D-12 3.33D-08 XBig12= 1.63D+02 2.84D+00.
      3 vectors produced by pass  5 Test12= 6.81D-12 3.33D-08 XBig12= 7.58D+01 1.80D+00.
      3 vectors produced by pass  6 Test12= 6.81D-12 3.33D-08 XBig12= 5.20D+01 2.01D+00.
      3 vectors produced by pass  7 Test12= 6.81D-12 3.33D-08 XBig12= 2.05D+01 1.91D+00.
      3 vectors produced by pass  8 Test12= 6.81D-12 3.33D-08 XBig12= 1.23D+01 1.06D+00.
      3 vectors produced by pass  9 Test12= 6.81D-12 3.33D-08 XBig12= 8.95D+00 6.94D-01.
      3 vectors produced by pass 10 Test12= 6.81D-12 3.33D-08 XBig12= 2.49D+00 3.29D-01.
      3 vectors produced by pass 11 Test12= 6.81D-12 3.33D-08 XBig12= 8.82D-01 1.81D-01.
      3 vectors produced by pass 12 Test12= 6.81D-12 3.33D-08 XBig12= 2.70D-01 8.05D-02.
      3 vectors produced by pass 13 Test12= 6.81D-12 3.33D-08 XBig12= 9.04D-02 5.44D-02.
      3 vectors produced by pass 14 Test12= 6.81D-12 3.33D-08 XBig12= 3.76D-02 3.37D-02.
      3 vectors produced by pass 15 Test12= 6.81D-12 3.33D-08 XBig12= 1.28D-02 2.79D-02.
      3 vectors produced by pass 16 Test12= 6.81D-12 3.33D-08 XBig12= 4.25D-03 1.93D-02.
      3 vectors produced by pass 17 Test12= 6.81D-12 3.33D-08 XBig12= 1.19D-03 7.68D-03.
      3 vectors produced by pass 18 Test12= 6.81D-12 3.33D-08 XBig12= 3.35D-04 3.84D-03.
      3 vectors produced by pass 19 Test12= 6.81D-12 3.33D-08 XBig12= 8.87D-05 1.71D-03.
      3 vectors produced by pass 20 Test12= 6.81D-12 3.33D-08 XBig12= 1.70D-05 6.42D-04.
      3 vectors produced by pass 21 Test12= 6.81D-12 3.33D-08 XBig12= 3.50D-06 3.82D-04.
      3 vectors produced by pass 22 Test12= 6.81D-12 3.33D-08 XBig12= 1.08D-06 2.67D-04.
      3 vectors produced by pass 23 Test12= 6.81D-12 3.33D-08 XBig12= 1.73D-07 9.46D-05.
      3 vectors produced by pass 24 Test12= 6.81D-12 3.33D-08 XBig12= 4.28D-08 3.15D-05.
      3 vectors produced by pass 25 Test12= 6.81D-12 3.33D-08 XBig12= 8.87D-09 1.35D-05.
      3 vectors produced by pass 26 Test12= 6.81D-12 3.33D-08 XBig12= 1.46D-09 4.69D-06.
      3 vectors produced by pass 27 Test12= 6.81D-12 3.33D-08 XBig12= 2.92D-10 1.70D-06.
      3 vectors produced by pass 28 Test12= 6.81D-12 3.33D-08 XBig12= 4.23D-11 8.40D-07.
      3 vectors produced by pass 29 Test12= 6.81D-12 3.33D-08 XBig12= 4.57D-12 3.53D-07.
      2 vectors produced by pass 30 Test12= 6.81D-12 3.33D-08 XBig12= 8.10D-13 1.28D-07.
      2 vectors produced by pass 31 Test12= 6.81D-12 3.33D-08 XBig12= 1.22D-13 6.79D-08.
 InvSVY:  IOpt=1 It=  1 EMax= 7.65D-15
 Solved reduced A of dimension    94 with     3 vectors.
 Isotropic polarizability for W=    0.000000      565.16 Bohr**3.
 End of Minotr F.D. properties file   721 does not exist.
 End of Minotr F.D. properties file   722 does not exist.
 End of Minotr F.D. properties file   788 does not exist.

 **********************************************************************

            Population analysis using the SCF Density.

 **********************************************************************

 Orbital symmetries:
       Occupied  (A) (A) (A) (A) (A) (A) (A) (A) (A) (A) (A) (A)
                 (A) (A) (A) (A) (A) (A) (A) (A) (A) (A) (A) (A)
                 (A) (A) (A) (A) (A) (A) (A) (A) (A) (A) (A) (A)
                 (A) (A) (A) (A) (A) (A) (A) (A) (A) (A) (A) (A)
                 (A) (A) (A) (A) (A) (A) (A) (A) (A) (A) (A) (A)
                 (A) (A) (A) (A) (A) (A) (A) (A) (A) (A) (A) (A)
                 (A) (A) (A) (A) (A) (A) (A) (A) (A) (A) (A) (A)
                 (A) (A) (A) (A) (A) (A) (A) (A) (A) (A) (A) (A)
                 (A) (A) (A) (A) (A) (A) (A) (A) (A) (A) (A) (A)
                 (A) (A) (A) (A) (A) (A) (A) (A) (A) (A) (A) (A)
                 (A) (A) (A) (A) (A) (A) (A) (A) (A) (A) (A) (A)
                 (A) (A) (A) (A) (A) (A) (A) (A) (A) (A) (A) (A)
                 (A) (A) (A) (A) (A) (A) (A) (A) (A)
       Virtual   (A) (A) (A) (A) (A) (A) (A) (A) (A) (A) (A) (A)
                 (A) (A) (A) (A) (A) (A) (A) (A) (A) (A) (A) (A)
                 (A) (A) (A) (A) (A) (A) (A) (A) (A) (A) (A) (A)
                 (A) (A) (A) (A) (A) (A) (A) (A) (A) (A) (A) (A)
                 (A) (A) (A) (A) (A) (A) (A) (A) (A) (A) (A) (A)
                 (A) (A) (A) (A) (A) (A) (A) (A) (A) (A) (A) (A)
                 (A) (A) (A) (A) (A) (A) (A) (A) (A) (A) (A) (A)
                 (A) (A) (A) (A) (A) (A) (A) (A) (A) (A) (A) (A)
                 (A) (A) (A) (A) (A) (A) (A) (A) (A) (A) (A) (A)
                 (A) (A) (A) (A) (A) (A) (A) (A) (A) (A) (A) (A)
                 (A) (A) (A) (A) (A) (A) (A) (A) (A) (A) (A) (A)
                 (A) (A) (A) (A) (A) (A) (A) (A) (A) (A) (A) (A)
                 (A) (A) (A) (A) (A) (A) (A) (A) (A) (A) (A) (A)
                 (A) (A) (A) (A) (A) (A) (A) (A) (A) (A) (A) (A)
                 (A) (A) (A) (A) (A) (A) (A) (A) (A) (A) (A) (A)
                 (A) (A) (A) (A) (A) (A) (A) (A) (A) (A) (A) (A)
                 (A) (A) (A) (A) (A) (A) (A) (A) (A) (A) (A) (A)
                 (A) (A) (A) (A) (A) (A) (A) (A) (A) (A) (A) (A)
                 (A) (A) (A) (A) (A) (A) (A) (A) (A) (A) (A) (A)
                 (A) (A) (A) (A) (A) (A) (A) (A) (A) (A) (A) (A)
                 (A) (A) (A) (A) (A) (A) (A) (A) (A) (A) (A) (A)
                 (A) (A) (A) (A) (A) (A) (A) (A) (A) (A) (A) (A)
                 (A) (A) (A) (A) (A) (A) (A) (A) (A) (A) (A) (A)
                 (A) (A) (A) (A) (A) (A) (A) (A) (A) (A) (A) (A)
                 (A) (A) (A) (A) (A) (A) (A) (A) (A) (A) (A) (A)
                 (A) (A) (A) (A) (A) (A) (A) (A) (A) (A) (A) (A)
                 (A) (A) (A) (A) (A) (A) (A) (A) (A) (A) (A) (A)
                 (A) (A) (A) (A) (A) (A) (A) (A) (A) (A) (A) (A)
                 (A) (A) (A) (A) (A) (A) (A) (A) (A) (A) (A) (A)
                 (A) (A) (A) (A) (A) (A) (A) (A) (A) (A) (A) (A)
                 (A) (A) (A) (A) (A) (A) (A) (A) (A) (A) (A) (A)
                 (A) (A) (A) (A) (A) (A) (A) (A) (A) (A) (A) (A)
                 (A) (A) (A) (A) (A) (A) (A) (A) (A) (A) (A) (A)
                 (A) (A) (A) (A) (A) (A) (A) (A) (A) (A) (A) (A)
                 (A) (A) (A) (A) (A) (A) (A) (A) (A) (A) (A) (A)
                 (A) (A) (A) (A) (A) (A) (A) (A) (A) (A) (A) (A)
                 (A) (A) (A) (A) (A) (A) (A) (A) (A) (A) (A) (A)
                 (A) (A) (A) (A) (A) (A) (A) (A) (A) (A) (A) (A)
                 (A) (A) (A) (A) (A) (A) (A) (A) (A) (A) (A) (A)
                 (A) (A) (A) (A) (A) (A) (A) (A) (A) (A) (A) (A)
                 (A) (A) (A) (A) (A) (A) (A) (A) (A) (A) (A) (A)
                 (A) (A) (A) (A) (A) (A) (A) (A) (A) (A) (A) (A)
                 (A) (A) (A) (A) (A) (A) (A) (A) (A) (A) (A) (A)
                 (A) (A) (A) (A) (A) (A) (A) (A) (A) (A) (A) (A)
                 (A) (A) (A) (A) (A) (A) (A) (A) (A) (A) (A) (A)
                 (A) (A) (A) (A) (A) (A) (A) (A) (A) (A) (A) (A)
                 (A) (A) (A) (A) (A) (A) (A) (A) (A) (A) (A) (A)
                 (A) (A) (A) (A) (A) (A) (A) (A) (A) (A) (A) (A)
                 (A) (A) (A) (A) (A) (A) (A) (A) (A) (A) (A) (A)
                 (A) (A) (A) (A) (A) (A) (A) (A) (A) (A) (A) (A)
                 (A) (A) (A) (A) (A) (A) (A) (A) (A) (A) (A) (A)
                 (A) (A) (A) (A) (A) (A) (A) (A) (A) (A) (A) (A)
                 (A) (A) (A) (A) (A) (A) (A) (A) (A) (A) (A) (A)
                 (A) (A) (A) (A) (A) (A) (A) (A) (A) (A) (A) (A)
                 (A) (A) (A) (A) (A) (A) (A) (A) (A) (A) (A) (A)
                 (A) (A) (A) (A) (A) (A) (A) (A) (A) (A) (A) (A)
                 (A) (A) (A) (A) (A) (A) (A) (A) (A) (A) (A) (A)
                 (A) (A) (A) (A) (A) (A) (A) (A) (A) (A) (A) (A)
                 (A) (A) (A) (A) (A) (A) (A) (A) (A) (A) (A) (A)
                 (A) (A) (A) (A) (A) (A) (A) (A) (A) (A) (A) (A)
                 (A) (A) (A) (A) (A) (A) (A) (A) (A) (A) (A) (A)
                 (A) (A) (A) (A) (A) (A) (A) (A) (A) (A) (A) (A)
                 (A) (A) (A) (A) (A) (A) (A) (A) (A) (A) (A) (A)
                 (A) (A) (A) (A) (A) (A) (A) (A) (A) (A) (A) (A)
                 (A) (A) (A) (A) (A) (A) (A) (A) (A) (A) (A) (A)
                 (A) (A) (A) (A) (A) (A) (A) (A) (A) (A) (A) (A)
                 (A) (A) (A) (A) (A) (A) (A) (A) (A) (A) (A) (A)
                 (A) (A) (A) (A) (A) (A) (A) (A) (A) (A) (A) (A)
                 (A) (A) (A) (A) (A) (A) (A) (A) (A) (A) (A) (A)
                 (A) (A) (A) (A) (A) (A) (A) (A) (A) (A) (A) (A)
                 (A) (A) (A) (A) (A) (A) (A) (A) (A) (A) (A) (A)
                 (A) (A) (A) (A) (A) (A) (A) (A) (A) (A) (A) (A)
                 (A) (A) (A) (A) (A) (A) (A) (A) (A) (A) (A) (A)
                 (A) (A) (A) (A) (A) (A) (A) (A) (A) (A) (A) (A)
                 (A) (A) (A) (A) (A) (A) (A) (A) (A) (A) (A) (A)
                 (A) (A) (A) (A) (A) (A) (A) (A) (A) (A) (A) (A)
                 (A) (A) (A) (A) (A) (A) (A) (A) (A) (A) (A) (A)
                 (A) (A) (A) (A) (A) (A) (A) (A) (A) (A) (A) (A)
                 (A) (A) (A) (A) (A) (A) (A) (A) (A) (A) (A) (A)
                 (A) (A) (A) (A) (A) (A) (A) (A) (A) (A) (A) (A)
                 (A) (A) (A) (A) (A) (A) (A) (A) (A) (A) (A) (A)
                 (A) (A) (A) (A) (A) (A) (A) (A) (A) (A) (A) (A)
                 (A) (A) (A) (A) (A) (A) (A) (A) (A) (A) (A) (A)
                 (A) (A) (A) (A) (A) (A) (A) (A) (A) (A) (A) (A)
                 (A) (A) (A) (A) (A) (A) (A) (A) (A) (A) (A) (A)
                 (A) (A) (A) (A) (A) (A) (A) (A) (A) (A) (A) (A)
                 (A) (A) (A) (A) (A) (A) (A) (A) (A) (A) (A) (A)
                 (A) (A) (A) (A) (A) (A) (A) (A) (A) (A) (A) (A)
                 (A) (A) (A) (A) (A) (A) (A) (A) (A) (A) (A) (A)
                 (A) (A) (A) (A) (A) (A) (A) (A) (A) (A) (A) (A)
                 (A) (A) (A) (A) (A) (A) (A) (A) (A) (A) (A) (A)
                 (A) (A) (A) (A) (A) (A) (A) (A) (A) (A) (A) (A)
                 (A) (A) (A) (A) (A) (A) (A) (A) (A) (A) (A) (A)
                 (A) (A) (A) (A) (A) (A) (A) (A) (A) (A) (A) (A)
                 (A) (A) (A) (A) (A) (A) (A) (A) (A) (A) (A) (A)
                 (A) (A) (A) (A) (A) (A) (A) (A) (A) (A) (A) (A)
                 (A) (A) (A) (A) (A) (A) (A) (A) (A) (A) (A) (A)
                 (A) (A) (A) (A) (A) (A) (A) (A) (A) (A) (A) (A)
                 (A) (A) (A) (A) (A) (A) (A) (A) (A) (A) (A) (A)
                 (A) (A) (A) (A) (A) (A) (A) (A) (A) (A) (A) (A)
                 (A) (A) (A) (A) (A) (A) (A) (A) (A) (A) (A) (A)
                 (A) (A) (A) (A) (A) (A) (A) (A) (A) (A) (A) (A)
                 (A) (A) (A) (A) (A) (A) (A) (A) (A) (A) (A) (A)
                 (A) (A) (A) (A) (A) (A) (A) (A) (A) (A) (A) (A)
                 (A) (A) (A) (A) (A) (A) (A) (A) (A) (A) (A) (A)
                 (A) (A) (A) (A) (A) (A) (A) (A) (A) (A) (A) (A)
                 (A) (A) (A) (A) (A) (A) (A) (A) (A) (A) (A) (A)
                 (A) (A) (A) (A) (A) (A) (A) (A) (A) (A) (A) (A)
                 (A) (A) (A) (A) (A) (A) (A) (A) (A) (A) (A) (A)
                 (A) (A) (A) (A) (A) (A) (A) (A) (A) (A) (A) (A)
                 (A) (A) (A) (A) (A) (A) (A) (A) (A) (A) (A) (A)
                 (A) (A) (A) (A)
 The electronic state is 1-A.
 Alpha  occ. eigenvalues -- -256.18184 -30.03127 -25.87322 -25.86913 -25.86825
 Alpha  occ. eigenvalues --  -14.42315 -14.37394 -14.33756 -14.33701 -14.33662
 Alpha  occ. eigenvalues --  -14.33560 -10.26110 -10.24298 -10.21541 -10.21457
 Alpha  occ. eigenvalues --  -10.21279 -10.21092 -10.21012 -10.20911 -10.20899
 Alpha  occ. eigenvalues --  -10.20868 -10.20856 -10.20823 -10.19885 -10.19589
 Alpha  occ. eigenvalues --  -10.19101 -10.19011 -10.18731 -10.18701 -10.18700
 Alpha  occ. eigenvalues --  -10.18677 -10.18673 -10.18661 -10.18633 -10.18632
 Alpha  occ. eigenvalues --  -10.18611 -10.18595 -10.18594 -10.18584 -10.18517
 Alpha  occ. eigenvalues --  -10.18493 -10.18386 -10.18381 -10.18366 -10.18189
 Alpha  occ. eigenvalues --   -3.40899  -2.17693  -2.16732  -2.16618  -1.05871
 Alpha  occ. eigenvalues --   -0.96998  -0.96042  -0.95987  -0.95019  -0.91487
 Alpha  occ. eigenvalues --   -0.82392  -0.81945  -0.81626  -0.80800  -0.80765
 Alpha  occ. eigenvalues --   -0.80463  -0.79758  -0.79627  -0.76981  -0.75918
 Alpha  occ. eigenvalues --   -0.74295  -0.74067  -0.73175  -0.72330  -0.71023
 Alpha  occ. eigenvalues --   -0.70102  -0.68303  -0.67975  -0.67902  -0.65117
 Alpha  occ. eigenvalues --   -0.64336  -0.64099  -0.61862  -0.61049  -0.60050
 Alpha  occ. eigenvalues --   -0.57704  -0.56715  -0.56405  -0.54683  -0.54196
 Alpha  occ. eigenvalues --   -0.53408  -0.52125  -0.51166  -0.50867  -0.50508
 Alpha  occ. eigenvalues --   -0.48674  -0.48286  -0.48030  -0.47834  -0.47443
 Alpha  occ. eigenvalues --   -0.46184  -0.44951  -0.44673  -0.44530  -0.44186
 Alpha  occ. eigenvalues --   -0.43820  -0.43686  -0.43495  -0.43448  -0.43222
 Alpha  occ. eigenvalues --   -0.42955  -0.42868  -0.42762  -0.42181  -0.42087
 Alpha  occ. eigenvalues --   -0.41646  -0.41461  -0.41361  -0.40395  -0.40374
 Alpha  occ. eigenvalues --   -0.40043  -0.40026  -0.39503  -0.39289  -0.39232
 Alpha  occ. eigenvalues --   -0.38677  -0.38471  -0.38103  -0.37554  -0.37340
 Alpha  occ. eigenvalues --   -0.37157  -0.36352  -0.36292  -0.36069  -0.35583
 Alpha  occ. eigenvalues --   -0.34652  -0.34344  -0.34159  -0.33815  -0.32465
 Alpha  occ. eigenvalues --   -0.31787  -0.31515  -0.30445  -0.30137  -0.29387
 Alpha  occ. eigenvalues --   -0.28950  -0.26811  -0.26730  -0.24858  -0.24173
 Alpha  occ. eigenvalues --   -0.23811  -0.23060  -0.22200  -0.19836  -0.18901
 Alpha  occ. eigenvalues --   -0.18410  -0.18216  -0.17898
 Alpha virt. eigenvalues --   -0.06621  -0.06510  -0.01926  -0.01609   0.00375
 Alpha virt. eigenvalues --    0.00948   0.01881   0.02453   0.04088   0.04523
 Alpha virt. eigenvalues --    0.04566   0.04898   0.05294   0.05848   0.05983
 Alpha virt. eigenvalues --    0.06164   0.07239   0.07382   0.07567   0.08026
 Alpha virt. eigenvalues --    0.08521   0.08730   0.09107   0.09212   0.10133
 Alpha virt. eigenvalues --    0.10290   0.10498   0.11046   0.11116   0.11497
 Alpha virt. eigenvalues --    0.11627   0.11718   0.11937   0.12169   0.12314
 Alpha virt. eigenvalues --    0.12669   0.12871   0.13139   0.13246   0.13779
 Alpha virt. eigenvalues --    0.13806   0.13943   0.14183   0.14316   0.14608
 Alpha virt. eigenvalues --    0.14869   0.15240   0.15388   0.15688   0.15814
 Alpha virt. eigenvalues --    0.15968   0.16098   0.16259   0.16695   0.16810
 Alpha virt. eigenvalues --    0.17140   0.17402   0.17711   0.17861   0.18290
 Alpha virt. eigenvalues --    0.18551   0.18865   0.19429   0.19509   0.19740
 Alpha virt. eigenvalues --    0.19802   0.19974   0.20271   0.20413   0.20917
 Alpha virt. eigenvalues --    0.21314   0.21458   0.22087   0.22401   0.22565
 Alpha virt. eigenvalues --    0.22721   0.22915   0.23149   0.23340   0.23916
 Alpha virt. eigenvalues --    0.24158   0.24465   0.24760   0.25615   0.25734
 Alpha virt. eigenvalues --    0.25899   0.26138   0.26226   0.26701   0.26974
 Alpha virt. eigenvalues --    0.27358   0.27474   0.27520   0.28017   0.28337
 Alpha virt. eigenvalues --    0.28706   0.28780   0.29022   0.29208   0.29383
 Alpha virt. eigenvalues --    0.29640   0.29787   0.29913   0.30446   0.30637
 Alpha virt. eigenvalues --    0.30949   0.31465   0.31538   0.32200   0.32276
 Alpha virt. eigenvalues --    0.32689   0.32764   0.33088   0.33413   0.33573
 Alpha virt. eigenvalues --    0.34020   0.34214   0.34299   0.34555   0.35107
 Alpha virt. eigenvalues --    0.35305   0.35779   0.36039   0.36252   0.36602
 Alpha virt. eigenvalues --    0.36716   0.37139   0.37253   0.37648   0.38023
 Alpha virt. eigenvalues --    0.38301   0.38349   0.38867   0.38998   0.39153
 Alpha virt. eigenvalues --    0.39596   0.39940   0.40063   0.40311   0.40461
 Alpha virt. eigenvalues --    0.40591   0.40890   0.41125   0.41201   0.41760
 Alpha virt. eigenvalues --    0.41928   0.42202   0.42351   0.42433   0.42732
 Alpha virt. eigenvalues --    0.42888   0.43054   0.43216   0.43443   0.43591
 Alpha virt. eigenvalues --    0.43706   0.43966   0.44139   0.44547   0.44981
 Alpha virt. eigenvalues --    0.45086   0.45335   0.45575   0.46054   0.46184
 Alpha virt. eigenvalues --    0.46406   0.46558   0.46614   0.46824   0.47000
 Alpha virt. eigenvalues --    0.47096   0.47271   0.47390   0.47901   0.48072
 Alpha virt. eigenvalues --    0.48228   0.48344   0.48731   0.48914   0.49093
 Alpha virt. eigenvalues --    0.49125   0.49373   0.49621   0.50126   0.50339
 Alpha virt. eigenvalues --    0.50508   0.50678   0.50891   0.51257   0.51565
 Alpha virt. eigenvalues --    0.51645   0.51699   0.52023   0.52212   0.52736
 Alpha virt. eigenvalues --    0.52785   0.53107   0.53202   0.53557   0.53712
 Alpha virt. eigenvalues --    0.53888   0.54102   0.54324   0.54543   0.55184
 Alpha virt. eigenvalues --    0.55284   0.55348   0.56278   0.56388   0.56690
 Alpha virt. eigenvalues --    0.56944   0.56986   0.57224   0.57455   0.57584
 Alpha virt. eigenvalues --    0.58325   0.58491   0.58824   0.59164   0.59716
 Alpha virt. eigenvalues --    0.59969   0.60062   0.60315   0.60546   0.60791
 Alpha virt. eigenvalues --    0.61260   0.61658   0.61964   0.62391   0.62800
 Alpha virt. eigenvalues --    0.62945   0.63479   0.63570   0.64287   0.64844
 Alpha virt. eigenvalues --    0.65073   0.65188   0.65434   0.65602   0.65964
 Alpha virt. eigenvalues --    0.66149   0.66645   0.66898   0.67286   0.67540
 Alpha virt. eigenvalues --    0.67937   0.68003   0.68363   0.68851   0.69019
 Alpha virt. eigenvalues --    0.69840   0.70043   0.70187   0.70537   0.70894
 Alpha virt. eigenvalues --    0.71181   0.71523   0.71593   0.71995   0.72131
 Alpha virt. eigenvalues --    0.72510   0.72902   0.73364   0.73587   0.73996
 Alpha virt. eigenvalues --    0.74194   0.74484   0.75100   0.75328   0.75605
 Alpha virt. eigenvalues --    0.75810   0.76106   0.76486   0.76956   0.77259
 Alpha virt. eigenvalues --    0.77408   0.77770   0.77986   0.78196   0.78714
 Alpha virt. eigenvalues --    0.79274   0.79545   0.79591   0.80292   0.80591
 Alpha virt. eigenvalues --    0.80766   0.81088   0.81688   0.81888   0.82309
 Alpha virt. eigenvalues --    0.82842   0.83175   0.83574   0.83942   0.84262
 Alpha virt. eigenvalues --    0.84672   0.85358   0.85727   0.85921   0.86297
 Alpha virt. eigenvalues --    0.86659   0.87111   0.87455   0.87954   0.88527
 Alpha virt. eigenvalues --    0.88680   0.89395   0.89466   0.89735   0.90179
 Alpha virt. eigenvalues --    0.90482   0.90904   0.91362   0.91889   0.92067
 Alpha virt. eigenvalues --    0.92456   0.93126   0.93408   0.93765   0.94118
 Alpha virt. eigenvalues --    0.94189   0.94645   0.95256   0.95549   0.95774
 Alpha virt. eigenvalues --    0.96205   0.96428   0.97014   0.97308   0.97660
 Alpha virt. eigenvalues --    0.98144   0.98470   0.98865   0.99054   0.99570
 Alpha virt. eigenvalues --    0.99750   1.00157   1.00714   1.00825   1.01131
 Alpha virt. eigenvalues --    1.01573   1.01963   1.02239   1.02327   1.02506
 Alpha virt. eigenvalues --    1.02967   1.03367   1.03563   1.03901   1.04386
 Alpha virt. eigenvalues --    1.04583   1.04727   1.05047   1.05646   1.06005
 Alpha virt. eigenvalues --    1.06364   1.06580   1.07517   1.08009   1.08158
 Alpha virt. eigenvalues --    1.08535   1.09056   1.09196   1.09417   1.09883
 Alpha virt. eigenvalues --    1.10359   1.10713   1.11109   1.11287   1.12141
 Alpha virt. eigenvalues --    1.12516   1.12953   1.13593   1.13840   1.14745
 Alpha virt. eigenvalues --    1.14865   1.15469   1.15894   1.16417   1.16584
 Alpha virt. eigenvalues --    1.17285   1.17491   1.17895   1.18138   1.18623
 Alpha virt. eigenvalues --    1.19380   1.19740   1.20276   1.20394   1.20617
 Alpha virt. eigenvalues --    1.20962   1.21181   1.21535   1.22748   1.23029
 Alpha virt. eigenvalues --    1.23746   1.24148   1.24473   1.25008   1.25677
 Alpha virt. eigenvalues --    1.25812   1.26541   1.26819   1.27113   1.27423
 Alpha virt. eigenvalues --    1.27678   1.28013   1.28325   1.28543   1.28836
 Alpha virt. eigenvalues --    1.29306   1.29617   1.30101   1.30168   1.30610
 Alpha virt. eigenvalues --    1.31116   1.31355   1.31855   1.32122   1.32740
 Alpha virt. eigenvalues --    1.33073   1.33327   1.34347   1.35905   1.36290
 Alpha virt. eigenvalues --    1.37215   1.37900   1.38114   1.38596   1.39286
 Alpha virt. eigenvalues --    1.39481   1.39811   1.40282   1.40499   1.41585
 Alpha virt. eigenvalues --    1.41845   1.42388   1.42562   1.42889   1.44171
 Alpha virt. eigenvalues --    1.44706   1.44974   1.45603   1.46126   1.46519
 Alpha virt. eigenvalues --    1.47293   1.47771   1.48058   1.48259   1.48547
 Alpha virt. eigenvalues --    1.48850   1.49282   1.49492   1.49979   1.50323
 Alpha virt. eigenvalues --    1.50867   1.50897   1.51275   1.51709   1.51798
 Alpha virt. eigenvalues --    1.52020   1.52145   1.52407   1.52739   1.52880
 Alpha virt. eigenvalues --    1.53240   1.53564   1.53829   1.53990   1.54206
 Alpha virt. eigenvalues --    1.54565   1.54907   1.55236   1.55296   1.55625
 Alpha virt. eigenvalues --    1.55904   1.56314   1.56670   1.56847   1.56965
 Alpha virt. eigenvalues --    1.57216   1.57522   1.57895   1.57990   1.58551
 Alpha virt. eigenvalues --    1.58639   1.58858   1.59040   1.59404   1.59599
 Alpha virt. eigenvalues --    1.59878   1.60067   1.60819   1.61121   1.61613
 Alpha virt. eigenvalues --    1.62039   1.62220   1.62436   1.62655   1.63267
 Alpha virt. eigenvalues --    1.63402   1.63858   1.64138   1.64616   1.64754
 Alpha virt. eigenvalues --    1.64919   1.65518   1.65629   1.65912   1.66220
 Alpha virt. eigenvalues --    1.66647   1.67154   1.67322   1.67607   1.67712
 Alpha virt. eigenvalues --    1.68011   1.68688   1.69483   1.69630   1.70035
 Alpha virt. eigenvalues --    1.70262   1.70572   1.70993   1.71316   1.71661
 Alpha virt. eigenvalues --    1.72286   1.72621   1.73218   1.73490   1.74082
 Alpha virt. eigenvalues --    1.74170   1.74701   1.75062   1.75282   1.76100
 Alpha virt. eigenvalues --    1.77222   1.77508   1.78082   1.79144   1.79616
 Alpha virt. eigenvalues --    1.79920   1.80476   1.81078   1.81341   1.81966
 Alpha virt. eigenvalues --    1.82768   1.82975   1.83493   1.83596   1.84252
 Alpha virt. eigenvalues --    1.84770   1.85102   1.85814   1.86216   1.86618
 Alpha virt. eigenvalues --    1.86755   1.87389   1.88139   1.88595   1.88630
 Alpha virt. eigenvalues --    1.89263   1.89656   1.90180   1.90550   1.91213
 Alpha virt. eigenvalues --    1.91733   1.92672   1.93035   1.93732   1.93844
 Alpha virt. eigenvalues --    1.94773   1.94937   1.95233   1.95536   1.95848
 Alpha virt. eigenvalues --    1.96921   1.97512   1.97772   1.98453   1.99236
 Alpha virt. eigenvalues --    1.99646   1.99787   2.00256   2.00293   2.01243
 Alpha virt. eigenvalues --    2.01524   2.02295   2.02544   2.02617   2.03001
 Alpha virt. eigenvalues --    2.03463   2.03683   2.04769   2.05445   2.05759
 Alpha virt. eigenvalues --    2.06405   2.06793   2.07311   2.07737   2.08175
 Alpha virt. eigenvalues --    2.08496   2.08890   2.09795   2.10158   2.10263
 Alpha virt. eigenvalues --    2.10439   2.11009   2.11642   2.11886   2.12286
 Alpha virt. eigenvalues --    2.12842   2.13293   2.14017   2.14754   2.15010
 Alpha virt. eigenvalues --    2.15639   2.16021   2.16563   2.16613   2.17035
 Alpha virt. eigenvalues --    2.17853   2.18440   2.18660   2.18855   2.19494
 Alpha virt. eigenvalues --    2.19967   2.20315   2.20651   2.21408   2.21934
 Alpha virt. eigenvalues --    2.22332   2.22738   2.23293   2.23999   2.24357
 Alpha virt. eigenvalues --    2.24710   2.25000   2.26611   2.26768   2.27010
 Alpha virt. eigenvalues --    2.28044   2.28122   2.28502   2.29061   2.29391
 Alpha virt. eigenvalues --    2.30187   2.30422   2.30621   2.30983   2.31485
 Alpha virt. eigenvalues --    2.31840   2.31911   2.32634   2.33719   2.33934
 Alpha virt. eigenvalues --    2.34631   2.34793   2.34942   2.35696   2.35805
 Alpha virt. eigenvalues --    2.36106   2.36629   2.37189   2.37470   2.37926
 Alpha virt. eigenvalues --    2.38575   2.38774   2.39548   2.39733   2.40314
 Alpha virt. eigenvalues --    2.40391   2.40597   2.41218   2.41772   2.41974
 Alpha virt. eigenvalues --    2.42510   2.43106   2.43514   2.43796   2.44350
 Alpha virt. eigenvalues --    2.44950   2.45494   2.45618   2.46104   2.46279
 Alpha virt. eigenvalues --    2.46601   2.47371   2.47594   2.48502   2.49083
 Alpha virt. eigenvalues --    2.49330   2.49885   2.50375   2.51029   2.51363
 Alpha virt. eigenvalues --    2.51961   2.52095   2.52450   2.52696   2.53201
 Alpha virt. eigenvalues --    2.53459   2.53831   2.54878   2.55343   2.55650
 Alpha virt. eigenvalues --    2.56137   2.56373   2.56804   2.56989   2.57276
 Alpha virt. eigenvalues --    2.57535   2.57802   2.58117   2.58763   2.59053
 Alpha virt. eigenvalues --    2.59793   2.59991   2.60382   2.60760   2.61253
 Alpha virt. eigenvalues --    2.61516   2.61860   2.62483   2.62686   2.62974
 Alpha virt. eigenvalues --    2.63237   2.63552   2.63851   2.64964   2.65560
 Alpha virt. eigenvalues --    2.65681   2.66118   2.66494   2.67181   2.67519
 Alpha virt. eigenvalues --    2.67670   2.68147   2.69026   2.69189   2.69466
 Alpha virt. eigenvalues --    2.69977   2.70701   2.71139   2.71690   2.71902
 Alpha virt. eigenvalues --    2.72067   2.73002   2.73314   2.73772   2.74335
 Alpha virt. eigenvalues --    2.74865   2.75306   2.75837   2.76213   2.76825
 Alpha virt. eigenvalues --    2.77036   2.77431   2.78064   2.78600   2.79286
 Alpha virt. eigenvalues --    2.79500   2.79946   2.80321   2.80990   2.81300
 Alpha virt. eigenvalues --    2.81575   2.81845   2.82592   2.83017   2.83361
 Alpha virt. eigenvalues --    2.83805   2.83941   2.84659   2.85163   2.85868
 Alpha virt. eigenvalues --    2.85947   2.86394   2.86974   2.87347   2.87602
 Alpha virt. eigenvalues --    2.87837   2.88370   2.88478   2.88793   2.89483
 Alpha virt. eigenvalues --    2.89724   2.90371   2.90799   2.91134   2.91508
 Alpha virt. eigenvalues --    2.91783   2.92015   2.92510   2.92716   2.92869
 Alpha virt. eigenvalues --    2.93457   2.93645   2.93843   2.94401   2.94630
 Alpha virt. eigenvalues --    2.94943   2.95142   2.95619   2.95991   2.96607
 Alpha virt. eigenvalues --    2.97356   2.98128   2.98194   2.98497   2.98788
 Alpha virt. eigenvalues --    2.99229   2.99586   3.00032   3.00722   3.00977
 Alpha virt. eigenvalues --    3.01233   3.01874   3.02186   3.02561   3.03093
 Alpha virt. eigenvalues --    3.03476   3.03798   3.04245   3.04872   3.05376
 Alpha virt. eigenvalues --    3.05460   3.05838   3.06263   3.06298   3.06685
 Alpha virt. eigenvalues --    3.07105   3.07181   3.07736   3.08038   3.08604
 Alpha virt. eigenvalues --    3.08844   3.09111   3.09484   3.09856   3.10050
 Alpha virt. eigenvalues --    3.10197   3.10625   3.11153   3.11531   3.11786
 Alpha virt. eigenvalues --    3.12167   3.12434   3.12729   3.13045   3.13553
 Alpha virt. eigenvalues --    3.13899   3.14389   3.14677   3.14901   3.15148
 Alpha virt. eigenvalues --    3.15537   3.15639   3.15871   3.16390   3.16571
 Alpha virt. eigenvalues --    3.17012   3.17471   3.17972   3.18149   3.18517
 Alpha virt. eigenvalues --    3.19257   3.19328   3.19606   3.19813   3.20211
 Alpha virt. eigenvalues --    3.20506   3.20891   3.21309   3.21334   3.21555
 Alpha virt. eigenvalues --    3.21834   3.22745   3.22825   3.23432   3.23728
 Alpha virt. eigenvalues --    3.24250   3.24406   3.24660   3.24843   3.25104
 Alpha virt. eigenvalues --    3.25261   3.25448   3.25626   3.25982   3.26252
 Alpha virt. eigenvalues --    3.26485   3.26653   3.27319   3.27562   3.27733
 Alpha virt. eigenvalues --    3.28363   3.28503   3.28628   3.28885   3.29459
 Alpha virt. eigenvalues --    3.29831   3.30027   3.30303   3.30342   3.30735
 Alpha virt. eigenvalues --    3.30981   3.31146   3.31290   3.31941   3.32151
 Alpha virt. eigenvalues --    3.32343   3.32608   3.32720   3.33248   3.33410
 Alpha virt. eigenvalues --    3.33664   3.33982   3.34374   3.34759   3.34996
 Alpha virt. eigenvalues --    3.35244   3.35499   3.35784   3.35964   3.36456
 Alpha virt. eigenvalues --    3.36981   3.37217   3.37290   3.37462   3.37672
 Alpha virt. eigenvalues --    3.37789   3.38314   3.38550   3.38791   3.39075
 Alpha virt. eigenvalues --    3.39393   3.39959   3.40270   3.40539   3.40946
 Alpha virt. eigenvalues --    3.41175   3.41684   3.41848   3.42352   3.42495
 Alpha virt. eigenvalues --    3.42939   3.43488   3.44027   3.44692   3.44983
 Alpha virt. eigenvalues --    3.45650   3.45709   3.46395   3.46930   3.47448
 Alpha virt. eigenvalues --    3.47688   3.48148   3.48534   3.48876   3.49359
 Alpha virt. eigenvalues --    3.49792   3.50166   3.50468   3.50854   3.51184
 Alpha virt. eigenvalues --    3.52158   3.52524   3.53141   3.53710   3.54687
 Alpha virt. eigenvalues --    3.54902   3.55096   3.55535   3.55955   3.56521
 Alpha virt. eigenvalues --    3.57246   3.57501   3.57760   3.58570   3.58932
 Alpha virt. eigenvalues --    3.59350   3.59866   3.60069   3.60821   3.61435
 Alpha virt. eigenvalues --    3.61666   3.62076   3.62495   3.63018   3.63449
 Alpha virt. eigenvalues --    3.63774   3.64853   3.65444   3.65593   3.65881
 Alpha virt. eigenvalues --    3.66259   3.67112   3.67875   3.68287   3.68488
 Alpha virt. eigenvalues --    3.68890   3.69389   3.69872   3.70164   3.70742
 Alpha virt. eigenvalues --    3.70890   3.71273   3.71730   3.72110   3.72531
 Alpha virt. eigenvalues --    3.73122   3.73502   3.73588   3.74786   3.74985
 Alpha virt. eigenvalues --    3.75085   3.75540   3.75717   3.76098   3.76681
 Alpha virt. eigenvalues --    3.76758   3.77285   3.78061   3.78830   3.79195
 Alpha virt. eigenvalues --    3.79624   3.79997   3.80695   3.81834   3.82676
 Alpha virt. eigenvalues --    3.82932   3.83913   3.84364   3.84607   3.85574
 Alpha virt. eigenvalues --    3.85843   3.86514   3.87239   3.87392   3.87661
 Alpha virt. eigenvalues --    3.88356   3.89494   3.89556   3.89888   3.91028
 Alpha virt. eigenvalues --    3.91355   3.91917   3.91945   3.93113   3.93552
 Alpha virt. eigenvalues --    3.93720   3.94648   3.94798   3.95624   3.96802
 Alpha virt. eigenvalues --    3.97305   3.97562   3.98885   3.99325   3.99594
 Alpha virt. eigenvalues --    4.00137   4.00755   4.01252   4.02031   4.02655
 Alpha virt. eigenvalues --    4.03386   4.03861   4.04097   4.04865   4.05678
 Alpha virt. eigenvalues --    4.06048   4.06230   4.07332   4.07734   4.08291
 Alpha virt. eigenvalues --    4.09660   4.10589   4.10869   4.11565   4.12435
 Alpha virt. eigenvalues --    4.13457   4.13885   4.14135   4.15129   4.16095
 Alpha virt. eigenvalues --    4.16703   4.17146   4.17255   4.17370   4.18990
 Alpha virt. eigenvalues --    4.19486   4.20019   4.20093   4.20250   4.21150
 Alpha virt. eigenvalues --    4.21495   4.21701   4.23075   4.23301   4.23793
 Alpha virt. eigenvalues --    4.24462   4.24934   4.25723   4.26201   4.27516
 Alpha virt. eigenvalues --    4.27666   4.27859   4.28302   4.28832   4.29534
 Alpha virt. eigenvalues --    4.29877   4.30891   4.31721   4.32326   4.32773
 Alpha virt. eigenvalues --    4.33476   4.33972   4.34362   4.35177   4.36409
 Alpha virt. eigenvalues --    4.36968   4.37294   4.38611   4.38979   4.39564
 Alpha virt. eigenvalues --    4.40125   4.40307   4.40763   4.41154   4.41439
 Alpha virt. eigenvalues --    4.41543   4.42132   4.42642   4.43023   4.43405
 Alpha virt. eigenvalues --    4.44146   4.44667   4.45113   4.45370   4.45824
 Alpha virt. eigenvalues --    4.46186   4.46590   4.47498   4.47823   4.48083
 Alpha virt. eigenvalues --    4.49261   4.50588   4.51103   4.52805   4.54222
 Alpha virt. eigenvalues --    4.54639   4.55559   4.55951   4.56542   4.58041
 Alpha virt. eigenvalues --    4.58753   4.59049   4.61468   4.62024   4.62544
 Alpha virt. eigenvalues --    4.64113   4.64887   4.66060   4.66765   4.67633
 Alpha virt. eigenvalues --    4.68189   4.68560   4.69458   4.70105   4.70796
 Alpha virt. eigenvalues --    4.71431   4.71768   4.72510   4.74071   4.74460
 Alpha virt. eigenvalues --    4.74860   4.75549   4.76374   4.78042   4.79369
 Alpha virt. eigenvalues --    4.79882   4.80762   4.81172   4.82164   4.82602
 Alpha virt. eigenvalues --    4.83772   4.84063   4.84346   4.84531   4.85015
 Alpha virt. eigenvalues --    4.85907   4.86328   4.87351   4.88914   4.89355
 Alpha virt. eigenvalues --    4.90953   4.92085   4.92584   4.93148   4.93957
 Alpha virt. eigenvalues --    4.94667   4.95232   4.95616   4.96530   4.97419
 Alpha virt. eigenvalues --    4.98089   4.99846   5.00495   5.01115   5.01702
 Alpha virt. eigenvalues --    5.03101   5.03907   5.04847   5.05228   5.06040
 Alpha virt. eigenvalues --    5.06671   5.07476   5.08225   5.08548   5.08855
 Alpha virt. eigenvalues --    5.09779   5.10227   5.11871   5.12839   5.16041
 Alpha virt. eigenvalues --    5.17662   5.18477   5.19572   5.20486   5.20822
 Alpha virt. eigenvalues --    5.21372   5.22789   5.23196   5.23437   5.25591
 Alpha virt. eigenvalues --    5.26031   5.28020   5.29327   5.29885   5.34332
 Alpha virt. eigenvalues --    5.35237   5.36339   5.36741   5.37407   5.38578
 Alpha virt. eigenvalues --    5.39103   5.40132   5.40538   5.41638   5.42784
 Alpha virt. eigenvalues --    5.43140   5.46022   5.48456   5.48984   5.50102
 Alpha virt. eigenvalues --    5.50659   5.51527   5.51842   5.53819   5.55306
 Alpha virt. eigenvalues --    5.57392   5.60769   5.61165   5.61703   5.62826
 Alpha virt. eigenvalues --    5.62949   5.65103   5.65889   5.66727   5.68209
 Alpha virt. eigenvalues --    5.68618   5.71442   5.74197   5.76241   5.77065
 Alpha virt. eigenvalues --    5.77747   5.78545   5.78943   5.88101   5.89545
 Alpha virt. eigenvalues --    5.92230   5.95357   6.00994   6.01496   6.02811
 Alpha virt. eigenvalues --    6.07341   6.09994   6.12429   6.12855   6.13857
 Alpha virt. eigenvalues --    6.16696   6.17813   6.27601   6.33599   6.34208
 Alpha virt. eigenvalues --    6.40889  22.34055  22.36359  22.43583  22.45872
 Alpha virt. eigenvalues --   22.46514  22.53547  22.55079  22.62300  22.62864
 Alpha virt. eigenvalues --   22.75058  22.82071  22.86225  22.88804  22.93297
 Alpha virt. eigenvalues --   22.93598  22.95679  22.96121  23.03494  23.04312
 Alpha virt. eigenvalues --   23.04778  23.14917  23.25841  23.27731  23.29418
 Alpha virt. eigenvalues --   23.31295  23.36916  23.42836  23.51217  23.52427
 Alpha virt. eigenvalues --   23.56829  23.75246  23.79375  23.79655  23.88861
 Alpha virt. eigenvalues --   32.39765  32.66116  32.85729  32.93077  32.94699
 Alpha virt. eigenvalues --   33.08968
          Condensed to atoms (all electrons):
 Mulliken charges:
               1
     1  Fe  -0.213946
     2  N   -0.072625
     3  N   -0.047751
     4  N   -0.078668
     5  N   -0.057864
     6  C    0.253560
     7  C   -0.043085
     8  C   -0.043282
     9  C    0.255826
    10  C    0.267532
    11  C   -0.064254
    12  C   -0.039268
    13  C    0.279944
    14  C    0.232632
    15  C    0.082034
    16  C   -0.085514
    17  C    0.217562
    18  C    0.247017
    19  C    0.028383
    20  C   -0.026538
    21  C    0.241349
    22  C   -0.477934
    23  H    0.133122
    24  C   -0.441952
    25  H    0.139630
    26  C   -0.548423
    27  H    0.178167
    28  C   -0.405829
    29  H    0.124937
    30  C   -0.419076
    31  H    0.131475
    32  H    0.140267
    33  H    0.119946
    34  C   -0.413962
    35  H    0.139273
    36  H    0.132553
    37  H    0.119539
    38  C   -0.458301
    39  H    0.145419
    40  H    0.127588
    41  H    0.157833
    42  C   -0.209817
    43  H    0.110071
    44  C   -0.284455
    45  H    0.139465
    46  H    0.121736
    47  C   -0.405463
    48  H    0.141364
    49  H    0.134711
    50  H    0.128365
    51  C   -0.261334
    52  H    0.119265
    53  C   -0.300244
    54  H    0.146778
    55  H    0.122236
    56  C   -0.412461
    57  H    0.139488
    58  H    0.129844
    59  H    0.119717
    60  C   -0.414122
    61  H    0.138195
    62  H    0.119509
    63  H    0.133090
    64  C   -0.390885
    65  H    0.137872
    66  H    0.146282
    67  H    0.135546
    68  N   -0.229410
    69  H    0.237283
    70  C    0.171880
    71  C    0.010746
    72  H    0.178452
    73  N    0.046822
    74  C   -0.215662
    75  H    0.157819
 Sum of Mulliken charges =  -0.00000
 Mulliken charges with hydrogens summed into heavy atoms:
               1
     1  Fe  -0.213946
     2  N   -0.072625
     3  N   -0.047751
     4  N   -0.078668
     5  N   -0.057864
     6  C    0.253560
     7  C   -0.043085
     8  C   -0.043282
     9  C    0.255826
    10  C    0.267532
    11  C   -0.064254
    12  C   -0.039268
    13  C    0.279944
    14  C    0.232632
    15  C    0.082034
    16  C   -0.085514
    17  C    0.217562
    18  C    0.247017
    19  C    0.028383
    20  C   -0.026538
    21  C    0.241349
    22  C   -0.344811
    24  C   -0.302321
    26  C   -0.370256
    28  C   -0.280892
    30  C   -0.027388
    34  C   -0.022597
    38  C   -0.027461
    42  C   -0.099746
    44  C   -0.023254
    47  C   -0.001024
    51  C   -0.142069
    53  C   -0.031231
    56  C   -0.023412
    60  C   -0.023328
    64  C    0.028814
    68  N    0.007873
    70  C    0.171880
    71  C    0.189197
    73  N    0.046822
    74  C   -0.057842
 Electronic spatial extent (au):  <R**2>=          19716.8629
 Charge=             -0.0000 electrons
 Dipole moment (field-independent basis, Debye):
    X=              0.5981    Y=              0.9851    Z=              5.7750  Tot=              5.8888
 Quadrupole moment (field-independent basis, Debye-Ang):
   XX=           -231.3288   YY=           -232.5990   ZZ=           -223.3112
   XY=             -3.3744   XZ=              3.8262   YZ=             -4.0056
 Traceless Quadrupole moment (field-independent basis, Debye-Ang):
   XX=             -2.2491   YY=             -3.5193   ZZ=              5.7685
   XY=             -3.3744   XZ=              3.8262   YZ=             -4.0056
 Octapole moment (field-independent basis, Debye-Ang**2):
  XXX=             14.2715  YYY=             14.6423  ZZZ=            169.8630  XYY=              1.1533
  XXY=             27.2094  XXZ=             -1.8305  XZZ=             13.2947  YZZ=             14.5453
  YYZ=             -5.9398  XYZ=            -11.5826
 Hexadecapole moment (field-independent basis, Debye-Ang**3):
 XXXX=         -12094.9079 YYYY=         -10904.8295 ZZZZ=          -2839.5172 XXXY=            -50.2548
 XXXZ=             48.7785 YYYX=             14.5002 YYYZ=           -120.7644 ZZZX=             58.8221
 ZZZY=            -26.7988 XXYY=          -3856.6971 XXZZ=          -2670.0679 YYZZ=          -2552.4142
 XXYZ=             -2.7804 YYXZ=             30.4376 ZZXY=            -42.3821
 N-N= 5.572208415032D+03 E-N=-1.797670156630D+04  KE= 2.897588242476D+03
  Exact polarizability:     720.044       9.274     668.601       8.554      -5.076     306.827
 Approx polarizability:    1327.935      10.739    1245.838      29.270     -23.027     487.449

 ----------------------------------------------------------------------

 Electric dipole moment (input orientation):
 (Debye = 10**-18 statcoulomb cm , SI units = C m)
                  (au)            (Debye)         (10**-30 SI)
   Tot        0.231685D+01      0.588885D+01      0.196431D+02
   x          0.173484D+01      0.440951D+01      0.147085D+02
   y         -0.836386D-01     -0.212588D+00     -0.709117D+00
   z         -0.153335D+01     -0.389738D+01     -0.130002D+02

 Dipole polarizability, Alpha (input orientation).
 (esu units = cm**3 , SI units = C**2 m**2 J**-1)
 Alpha(0;0):
               (au)            (10**-24 esu)      (10**-40 SI)
   iso        0.565157D+03      0.837476D+02      0.931818D+02
   aniso      0.390758D+03      0.579044D+02      0.644273D+02
   xx         0.419317D+03      0.621364D+02      0.691361D+02
   yx        -0.339085D+02     -0.502472D+01     -0.559075D+01
   yy         0.717155D+03      0.106271D+03      0.118243D+03
   zx         0.163864D+03      0.242822D+02      0.270175D+02
   zy         0.262844D+02      0.389495D+01      0.433371D+01
   zz         0.559000D+03      0.828352D+02      0.921666D+02

 First dipole hyperpolarizability, Beta (input orientation).
 ||, _|_  parallel and perpendicular components, (z) with respect to z axis,
 vector components x,y,z.  Values do not include the 1/n! factor of 1/2.
 (esu units = statvolt**-1 cm**4 , SI units = C**3 m**3 J**-2)
 Beta(0;0,0):
               (au)            (10**-30 esu)      (10**-50 SI)
   || (z)     0.712049D+03      0.615155D+01      0.228309D+01
   _|_(z)     0.237350D+03      0.205052D+01      0.761029D+00
   x          0.187092D+04      0.161633D+02      0.599885D+01
   y          0.246094D+04      0.212606D+02      0.789068D+01
   z          0.356025D+04      0.307578D+02      0.114154D+02
   ||         0.943015D+03      0.814692D+01      0.302365D+01
   xxx        0.539407D+02      0.466006D+00      0.172954D+00
   xxy       -0.360738D+02     -0.311650D+00     -0.115666D+00
   yxy        0.351952D+03      0.304059D+01      0.112849D+01
   yyy        0.104560D+04      0.903314D+01      0.335256D+01
   xxz       -0.126108D+03     -0.108948D+01     -0.404348D+00
   yxz       -0.176472D+03     -0.152458D+01     -0.565832D+00
   yyz        0.886327D+03      0.765717D+01      0.284188D+01
   zxz        0.217747D+03      0.188117D+01      0.698176D+00
   zyz       -0.189208D+03     -0.163461D+01     -0.606670D+00
   zzz        0.426530D+03      0.368489D+01      0.136761D+01

 ----------------------------------------------------------------------

 Dipole orientation:
    26         -3.90847053         14.68594661        -57.38234872
     7         -7.50147630         13.58448167        -57.53634754
     7         -5.04712434         18.25342141        -57.00694062
     7         -0.40427526         15.93868732        -58.13201848
     7         -2.80410314         11.19879294        -58.32100290
     6         -8.37712005         11.19106867        -57.91786482
     6        -11.10382892         11.16044910        -58.06941460
     6        -11.86907434         13.59012085        -57.73350008
     6         -9.60107435         15.06502651        -57.34998771
     6         -7.45910740         19.11534801        -56.73605802
     6         -7.49521913         21.81110086        -56.31379440
     6         -5.04067425         22.57382621        -56.32270217
     6         -3.54453076         20.33514947        -56.77903704
     6          0.49436017         18.32507351        -57.78776427
     6          3.16636276         18.45329557        -58.36337907
     6          3.84019091         16.08004150        -59.13400571
     6          1.60590363         14.54189043        -58.94331733
     6         -0.44367943         10.39619573        -58.95051256
     6         -0.37167781          7.67066167        -59.21251751
     6         -2.78927091          6.85165987        -58.78604307
     6         -4.27402693          9.07895434        -58.29535944
     6         -6.88429083          9.06174378        -58.12490164
     1         -7.82884956          7.26166365        -58.29403545
     6         -9.60454308         17.63910635        -56.92156128
     1        -11.41210910         18.56809772        -56.75310917
     6         -0.94929247         20.37376653        -57.05773220
     1          0.01286705         22.14544492        -56.75701566
     6          1.60953637         11.95854689        -59.33244012
     1          3.35711996         11.10572776        -59.94652646
     6        -12.64084001          8.85032822        -58.54863991
     1        -12.36547253          7.46941312        -57.04399521
     1        -12.09066112          7.97328591        -60.32934084
     1        -14.64065695          9.31083212        -58.64380614
     6        -14.47411765         14.65829621        -57.73460758
     1        -14.66101864         16.10135864        -59.19258513
     1        -14.90271447         15.52721999        -55.91622246
     1        -15.86578970         13.19044406        -58.09432331
     6         -3.76327299          4.21327759        -58.70557450
     1         -4.61399644          3.68681204        -60.50891159
     1         -5.19432747          4.00950162        -57.24073901
     1         -2.22429903          2.90739652        -58.31180537
     6          1.87783135          6.22843659        -59.78460057
     1          3.63177134          7.02084298        -59.08353766
     6          1.94731172          4.07595313        -61.07734135
     1          0.28090288          3.24867949        -61.89670529
     1          3.69804457          3.09056262        -61.40791532
     6          6.35547442         15.18362453        -60.02433777
     1          6.20874489         14.38099146        -61.91543318
     1          7.09484205         13.72480496        -58.76940633
     1          7.69390294         16.74098611        -60.08413077
     6          4.78982644         20.66170123        -58.24863122
     1          6.65351972         20.32651724        -57.46127437
     6          4.20994445         22.95640623        -59.07767919
     1          2.42905722         23.36265373        -59.97411028
     1          5.52642218         24.50367095        -58.93895047
     6         -3.97604417         25.16205262        -56.00843142
     1         -3.08127886         25.79155964        -57.75503506
     1         -2.55428596         25.19113359        -54.51808326
     1         -5.45426906         26.50449915        -55.52231409
     6         -9.83819587         23.33638503        -55.97817745
     1        -10.95969171         23.32482371        -57.70770585
     1         -9.38079557         25.28707726        -55.51991063
     1        -10.99597528         22.56452586        -54.45931469
     6         -3.97454937         10.92184971        -47.53111120
     1         -2.19231534         10.22315881        -46.77071745
     1         -5.15703477          9.31653026        -48.01287842
     1         -4.91457305         12.01973572        -46.06398698
     7         -2.16408124         14.68191150        -49.75867247
     1         -1.34332160         15.43797539        -48.21762489
     6         -3.53507019         12.48688269        -49.81787969
     6         -2.11792727         15.63445490        -52.12962550
     1         -1.17625630         17.35060929        -52.64836933
     7         -3.37818877         14.17397519        -53.69306153
     6         -4.27053115         12.20649975        -52.27528086
     1         -5.37424601         10.73402707        -53.11866470

 Electric dipole moment (dipole orientation):
 (Debye = 10**-18 statcoulomb cm , SI units = C m)
                  (au)            (Debye)         (10**-30 SI)
   Tot        0.231685D+01      0.588885D+01      0.196431D+02
   x          0.000000D+00      0.000000D+00      0.000000D+00
   y          0.000000D+00      0.000000D+00      0.000000D+00
   z          0.231685D+01      0.588885D+01      0.196431D+02

 Dipole polarizability, Alpha (dipole orientation).
 (esu units = cm**3 , SI units = C**2 m**2 J**-1)
 Alpha(0;0):
               (au)            (10**-24 esu)      (10**-40 SI)
   iso        0.565157D+03      0.837476D+02      0.931818D+02
   aniso      0.390758D+03      0.579044D+02      0.644273D+02
   xx         0.660227D+03      0.978356D+02      0.108857D+03
   yx         0.366749D+01      0.543466D+00      0.604687D+00
   yy         0.713679D+03      0.105756D+03      0.117670D+03
   zx        -0.499750D+02     -0.740553D+01     -0.823976D+01
   zy         0.562980D+02      0.834250D+01      0.928229D+01
   zz         0.321566D+03      0.476511D+02      0.530190D+02

 First dipole hyperpolarizability, Beta (dipole orientation).
 ||, _|_  parallel and perpendicular components, (z) with respect to z axis,
 vector components x,y,z.  Values do not include the 1/n! factor of 1/2.
 (esu units = statvolt**-1 cm**4 , SI units = C**3 m**3 J**-2)
 Beta(0;0,0):
               (au)            (10**-30 esu)      (10**-50 SI)
   || (z)    -0.208834D+03     -0.180416D+01     -0.669596D+00
   _|_(z)    -0.696112D+02     -0.601386D+00     -0.223199D+00
   x          0.394559D+04      0.340869D+02      0.126510D+02
   y         -0.236092D+04     -0.203965D+02     -0.756997D+01
   z         -0.104417D+04     -0.902079D+01     -0.334798D+01
   ||         0.943015D+03      0.814692D+01      0.302365D+01
   xxx        0.299300D+03      0.258572D+01      0.959663D+00
   xxy        0.281260D+03      0.242987D+01      0.901821D+00
   yxy        0.925679D+03      0.799715D+01      0.296806D+01
   yyy       -0.964299D+03     -0.833079D+01     -0.309189D+01
   xxz       -0.237842D+03     -0.205477D+01     -0.762608D+00
   yxz       -0.232074D+02     -0.200494D+00     -0.744113D-01
   yyz       -0.354762D+03     -0.306486D+01     -0.113749D+01
   zxz        0.902190D+02      0.779422D+00      0.289275D+00
   zyz       -0.103935D+03     -0.897919D+00     -0.333254D+00
   zzz        0.244548D+03      0.211271D+01      0.784110D+00

 ----------------------------------------------------------------------
 Unable to Open any file for archive entry.
 1\1\GINC-BGN1039\SP\RAPFD\def2TZVP\C34H34Fe1N6\BEBJONES\13-Aug-2024\0\
 \# polar def2tzvp apfd int=(grid=ultrafine)\\1jf4_II_S\\0,1\Fe,0,-24.2
 342032297,-6.7028213645,18.8283952841\N,0,-25.5455829831,-6.148393777,
 17.437584953\N,0,-24.5154119723,-8.6061399733,18.3138866345\N,0,-23.31
 33379338,-7.3207392166,20.503389381\N,0,-24.1888901067,-4.8315087767,1
 9.5281136282\C,0,-25.9831876324,-4.8830963791,17.1785109297\C,0,-26.99
 90589096,-4.8874813722,16.1505634726\C,0,-27.1551921708,-6.1852040753,
 15.7761108395\C,0,-26.2206795201,-6.9528826807,16.5686505996\C,0,-25.2
 612257889,-9.0878304892,17.2797525969\C,0,-25.1297731139,-10.521620250
 1,17.169055594\C,0,-24.2792143897,-10.9036225546,18.1593414501\C,0,-23
 .9161611082,-9.69829905,18.8692295987\C,0,-22.8823762972,-8.5814113519
 ,20.7844897929\C,0,-22.1746608545,-8.6152144831,22.0472936799\C,0,-22.
 223318983,-7.3398057478,22.5388462996\C,0,-22.9179434606,-6.5493643301
 ,21.557359155\C,0,-23.6037689473,-4.3747822257,20.6685500367\C,0,-23.6
 588796256,-2.9279978382,20.7367731562\C,0,-24.3305395384,-2.5238975261
 ,19.6138131685\C,0,-24.6758915347,-3.7237606746,18.8961900994\C,0,-25.
 5234551794,-3.7403849506,17.8018652068\H,0,-25.9061757579,-2.793469990
 8,17.4524374584\C,0,-26.0742917202,-8.3221731022,16.4664054348\H,0,-26
 .6493393168,-8.832165556,15.7089218013\C,0,-23.1169385145,-9.691055359
 3,19.9959167174\H,0,-22.6756632863,-10.6253147204,20.3056929465\C,0,-2
 3.0486202286,-5.1759250313,21.64572735\H,0,-22.6718396653,-4.698212782
 5,22.5369693326\C,0,-27.7079963005,-3.6700519692,15.6652380873\H,0,-27
 .0033513833,-2.9662497139,15.2210110202\H,0,-28.2131238733,-3.16755201
 67,16.4901282484\H,0,-28.4508784025,-3.9289447768,14.9149516309\C,0,-2
 8.0782494237,-6.7724170157,14.7646749805\H,0,-28.7339181621,-7.5092104
 392,15.2287996212\H,0,-27.5154887409,-7.2702975529,13.9746079185\H,0,-
 28.6961207607,-6.001379505,14.3111744348\C,0,-24.6174650916,-1.1387417
 349,19.1492881361\H,0,-25.6257875667,-0.8332395906,19.4337058006\H,0,-
 24.537060943,-1.0712939911,18.0653331372\H,0,-23.9105755314,-0.4425165
 058,19.5962421489\C,0,-23.084388617,-2.1351119891,21.8009294041\H,0,-2
 2.1984224791,-2.5524018913,22.2655254926\C,0,-23.5537375365,-0.9716662
 963,22.2400868052\H,0,-24.4555878348,-0.5329265217,21.8509398076\H,0,-
 23.0623718857,-0.4292442409,23.0307518955\C,0,-21.6864397019,-6.827155
 2889,23.8301981888\H,0,-22.4803124721,-6.3678899773,24.419027472\H,0,-
 20.9173757624,-6.073395786,23.6557945852\H,0,-21.2542352444,-7.6379662
 873,24.4112323896\C,0,-21.5789560196,-9.7711538226,22.6925801124\H,0,-
 20.6106070927,-9.5929203142,23.1489023706\C,0,-22.1305402199,-10.97366
 09739,22.7969932945\H,0,-23.1136858662,-11.1866737354,22.4130400531\H,
 0,-21.6272828217,-11.7831145078,23.2996101432\C,0,-23.8036670205,-12.2
 690185677,18.5205727231\H,0,-24.1874269836,-12.560810285,19.498841268\
 H,0,-22.7148570429,-12.3006281269,18.5625372492\H,0,-24.1409218571,-13
 .0008641063,17.7902332177\C,0,-25.8314502165,-11.3547118492,16.1522657
 836\H,0,-26.9099014006,-11.3252123222,16.3133788474\H,0,-25.506274854,
 -12.3909815027,16.2102770705\H,0,-25.6289280077,-10.9855630168,15.1468
 202227\C,0,-20.3214916482,-4.9012695592,15.2801873583\H,0,-19.38926031
 47,-4.5310134112,15.7067308462\H,0,-20.9131932033,-4.0534123297,14.949
 6945041\H,0,-20.0792114208,-5.5179085978,14.4148642808\N,0,-20.6016952
 498,-6.8313104214,16.8495424097\H,0,-19.7097858005,-7.2534628008,16.64
 94973953\C,0,-21.086980737,-5.6813320508,16.2851012605\C,0,-21.5331840
 307,-7.2892889615,17.7163867106\H,0,-21.4233201136,-8.1787112456,18.30
 39766649\N,0,-22.582006876,-6.4980234905,17.7366665277\C,0,-22.3161742
 746,-5.4924621346,16.848959327\H,0,-23.0246874445,-4.7072631459,16.678
 8625554\\Version=ES64L-G16RevC.02\State=1-A\HF=-2907.6017033\RMSD=3.24
 5e-09\Dipole=1.7348356,-0.0836386,-1.5333459\Polar=419.3171067,-33.908
 4634,717.1546601,163.8641197,26.2843932,558.9995916\HyperPolar=53.9407
 481,-36.0738252,351.9521486,1045.5969045,-126.1080897,-176.4717559,886
 .3268551,217.7470927,-189.2082277,426.5300371\Quadrupole=5.8717758,-2.
 6066509,-3.2651249,-2.8333429,-1.582586,-0.8796459\PG=C01 [X(C34H34Fe1
 N6)]\\@
 The archive entry for this job was punched.


 THE MOST SERIOUS THREAT TO THE SURVIVAL OF MANKIND IS NOT NOW
 IGNORANCE IN THE TRADITIONAL SENSE,
 BUT A MORALLY NEUTRAL, AN INSENSITIVE OR INHIBITED HUMAN INTELLIGENCE.

                     -- MARGO JEFFERSON IN NEWSWEEK, SEPTEMBER 2, 1974
 Job cpu time:       2 days  2 hours 46 minutes  8.5 seconds.
 Elapsed time:       0 days  0 hours 44 minutes 15.4 seconds.
 File lengths (MBytes):  RWF=   1142 Int=      0 D2E=      0 Chk=    146 Scr=      1
 Normal termination of Gaussian 16 at Tue Aug 13 16:58:35 2024.
 Initial command:
 /sw/chem/gaussian/g16_C02/a100/g16/l1.exe "/local/bebjones_7975111/Gau-2217165.inp" -scrdir="/local/bebjones_7975111/"
 Entering Link 1 = /sw/chem/gaussian/g16_C02/a100/g16/l1.exe PID=   2218867.
  
 Copyright (c) 1988-2021, Gaussian, Inc.  All Rights Reserved.
  
 This is part of the Gaussian(R) 16 program.  It is based on
 the Gaussian(R) 09 system (copyright 2009, Gaussian, Inc.),
 the Gaussian(R) 03 system (copyright 2003, Gaussian, Inc.),
 the Gaussian(R) 98 system (copyright 1998, Gaussian, Inc.),
 the Gaussian(R) 94 system (copyright 1995, Gaussian, Inc.),
 the Gaussian 92(TM) system (copyright 1992, Gaussian, Inc.),
 the Gaussian 90(TM) system (copyright 1990, Gaussian, Inc.),
 the Gaussian 88(TM) system (copyright 1988, Gaussian, Inc.),
 the Gaussian 86(TM) system (copyright 1986, Carnegie Mellon
 University), and the Gaussian 82(TM) system (copyright 1983,
 Carnegie Mellon University). Gaussian is a federally registered
 trademark of Gaussian, Inc.
  
 This software contains proprietary and confidential information,
 including trade secrets, belonging to Gaussian, Inc.
  
 This software is provided under written license and may be
 used, copied, transmitted, or stored only in accord with that
 written license.
  
 The following legend is applicable only to US Government
 contracts under FAR:
  
                    RESTRICTED RIGHTS LEGEND
  
 Use, reproduction and disclosure by the US Government is
 subject to restrictions as set forth in subparagraphs (a)
 and (c) of the Commercial Computer Software - Restricted
 Rights clause in FAR 52.227-19.
  
 Gaussian, Inc.
 340 Quinnipiac St., Bldg. 40, Wallingford CT 06492
  
  
 ---------------------------------------------------------------
 Warning -- This program may not be used in any manner that
 competes with the business of Gaussian, Inc. or will provide
 assistance to any competitor of Gaussian, Inc.  The licensee
 of this program is prohibited from giving any competitor of
 Gaussian, Inc. access to this program.  By using this program,
 the user acknowledges that Gaussian, Inc. is engaged in the
 business of creating and licensing software in the field of
 computational chemistry and represents and warrants to the
 licensee that it is not a competitor of Gaussian, Inc. and that
 it will not use this program in any manner prohibited above.
 ---------------------------------------------------------------
  

 Cite this work as:
 Gaussian 16, Revision C.02,
 M. J. Frisch, G. W. Trucks, H. B. Schlegel, G. E. Scuseria, 
 M. A. Robb, J. R. Cheeseman, G. Scalmani, V. Barone, 
 G. A. Petersson, H. Nakatsuji, X. Li, M. Caricato, A. V. Marenich, 
 J. Bloino, B. G. Janesko, R. Gomperts, B. Mennucci, H. P. Hratchian, 
 J. V. Ortiz, A. F. Izmaylov, J. L. Sonnenberg, D. Williams-Young, 
 F. Ding, F. Lipparini, F. Egidi, J. Goings, B. Peng, A. Petrone, 
 T. Henderson, D. Ranasinghe, V. G. Zakrzewski, J. Gao, N. Rega, 
 G. Zheng, W. Liang, M. Hada, M. Ehara, K. Toyota, R. Fukuda, 
 J. Hasegawa, M. Ishida, T. Nakajima, Y. Honda, O. Kitao, H. Nakai, 
 T. Vreven, K. Throssell, J. A. Montgomery, Jr., J. E. Peralta, 
 F. Ogliaro, M. J. Bearpark, J. J. Heyd, E. N. Brothers, K. N. Kudin, 
 V. N. Staroverov, T. A. Keith, R. Kobayashi, J. Normand, 
 K. Raghavachari, A. P. Rendell, J. C. Burant, S. S. Iyengar, 
 J. Tomasi, M. Cossi, J. M. Millam, M. Klene, C. Adamo, R. Cammi, 
 J. W. Ochterski, R. L. Martin, K. Morokuma, O. Farkas, 
 J. B. Foresman, and D. J. Fox, Gaussian, Inc., Wallingford CT, 2019.
 
 ******************************************
 Gaussian 16:  ES64L-G16RevC.02  7-Dec-2021
                13-Aug-2024 
 ******************************************
 %mem=16GB
 %CPU=0-71
 SetSPE:  set environment variable "OMP_PROC_BIND" = "true"
[...]
   137. CR (   1) C  64                  1.99940   -10.06422  1483(v),1283(v),1481(v)
                                                    1291(v)
   138. CR (   1) N  68                  1.99938   -14.22744  1311(v),1285(v),1279(v)
                                                    1479(v),1286(v)
   139. CR (   1) C  70                  1.99915   -10.09533  1368(v),1483(g),1489(v)
                                                    1213(v),1256(v)
   140. CR (   1) C  71                  1.99938   -10.12937  1340(v),1480(v),1336(v)
                                                    148(r),147(r)
   141. CR (   1) N  73                  1.99932   -14.16657  147(r),148(r),151(r),1309(v)
                                                    1366(v),1368(v),1485(v)
                                                    166(r),164(r),173(r),165(r)
   142. CR (   1) C  74                  1.99900   -10.06678  1479(v),1283(v),1483(g)
                                                    1342(v),1286(v),148(r)
                                                    147(r)
   158. LP (   1) N  68                  1.57731    -0.29019  1487(v),1484(v),1312(v)
                                                    1284(v),1278(v),163(r)
   159. LP (   1) N  73                  1.61861    -0.38551  147(r),148(r),151(r),1482(v)
                                                    1483(v),1309(v),1485(v)
                                                    1489(v),1366(v),1486(g)
                                                    1343(g),1488(g),165(r)
                                                    155(r),185(r),241(r),189(r)
                                                    190(r),242(r),216(r),215(r)
                                                    268(r),267(r),179(r),1402(r)
                                                    1400(r),1405(r),1403(r)
                                                    1397(r),1407(r),1406(r)
                                                    1404(r),1399(r),1401(r)
  1211. RY*(   1) C  64                  0.00121     1.13944   
  1212. RY*(   2) C  64                  0.00077     1.99546   
  1213. RY*(   3) C  64                  0.00052     1.30263   
  1214. RY*(   4) C  64                  0.00012     1.26023   
  1215. RY*(   5) C  64                  0.00007     1.07687   
  1216. RY*(   6) C  64                  0.00008     2.37823   
  1217. RY*(   7) C  64                  0.00000    21.59876   
  1218. RY*(   8) C  64                  0.00001     1.88307   
  1219. RY*(   9) C  64                  0.00001     1.32314   
  1220. RY*(  10) C  64                  0.00001     2.30719   
  1221. RY*(  11) C  64                  0.00001     2.32284   
  1222. RY*(  12) C  64                  0.00001     3.06238   
  1223. RY*(  13) C  64                  0.00000     2.49927   
  1224. RY*(  14) C  64                  0.00000     1.34982   
  1225. RY*(  15) C  64                  0.00000     2.38302   
  1226. RY*(  16) C  64                  0.00000     2.58783   
  1227. RY*(  17) C  64                  0.00000     2.54092   
  1228. RY*(  18) C  64                  0.00000     2.80607   
  1229. RY*(  19) C  64                  0.00000     2.79153   
  1230. RY*(  20) C  64                  0.00000     3.65586   
  1231. RY*(  21) C  64                  0.00001     3.45766   
  1232. RY*(  22) C  64                  0.00000     3.35369   
  1233. RY*(  23) C  64                  0.00000     3.47823   
  1234. RY*(  24) C  64                  0.00000     3.62866   
  1235. RY*(  25) C  64                  0.00000     3.23407   
  1236. RY*(  26) C  64                  0.00000     3.40415   
  1237. RY*(   1) H  65                  0.00074     1.01042   
  1238. RY*(   2) H  65                  0.00014     1.68871   
  1239. RY*(   3) H  65                  0.00008     1.94869   
  1240. RY*(   4) H  65                  0.00006     2.00719   
  1241. RY*(   5) H  65                  0.00000     2.86957   
  1242. RY*(   1) H  66                  0.00024     1.31281   
  1243. RY*(   2) H  66                  0.00013     1.64492   
  1244. RY*(   3) H  66                  0.00008     2.05211   
  1245. RY*(   4) H  66                  0.00003     1.69721   
  1246. RY*(   5) H  66                  0.00001     2.89402   
  1247. RY*(   1) H  67                  0.00073     0.98790   
  1248. RY*(   2) H  67                  0.00014     1.69972   
  1249. RY*(   3) H  67                  0.00008     1.96083   
  1250. RY*(   4) H  67                  0.00006     2.00635   
  1251. RY*(   5) H  67                  0.00000     2.86835   
  1252. RY*(   1) N  68                  0.00282     0.65876   
  1253. RY*(   2) N  68                  0.00233     1.74184   
  1254. RY*(   3) N  68                  0.00102     2.05745   
  1255. RY*(   4) N  68                  0.00075     2.20086   
  1256. RY*(   5) N  68                  0.00052     1.09620   
  1257. RY*(   6) N  68                  0.00025     2.02992   
  1258. RY*(   7) N  68                  0.00021     1.69095   
  1259. RY*(   8) N  68                  0.00006     2.89013   
  1260. RY*(   9) N  68                  0.00006     3.85543   
  1261. RY*(  10) N  68                  0.00006     2.25449   
  1262. RY*(  11) N  68                  0.00006     2.30732   
  1263. RY*(  12) N  68                  0.00001     3.95257   
  1264. RY*(  13) N  68                  0.00001     4.14597   
  1265. RY*(  14) N  68                  0.00000     2.52034   
  1266. RY*(  15) N  68                  0.00000     3.46043   
  1267. RY*(  16) N  68                  0.00000     2.20881   
  1268. RY*(  17) N  68                  0.00000     4.20793   
  1269. RY*(  18) N  68                  0.00000     4.15965   
  1270. RY*(  19) N  68                  0.00000    30.73047   
  1271. RY*(  20) N  68                  0.00000     4.63907   
  1272. RY*(  21) N  68                  0.00000     4.63747   
  1273. RY*(  22) N  68                  0.00000     4.39459   
  1274. RY*(  23) N  68                  0.00000     4.36959   
  1275. RY*(  24) N  68                  0.00000     4.44762   
  1276. RY*(  25) N  68                  0.00000     4.36439   
  1277. RY*(  26) N  68                  0.00000     4.50570   
  1278. RY*(   1) H  69                  0.00057     2.14362   
  1279. RY*(   2) H  69                  0.00039     2.14910   
  1280. RY*(   3) H  69                  0.00029     1.08445   
  1281. RY*(   4) H  69                  0.00021     2.45748   
  1282. RY*(   5) H  69                  0.00001     3.05507   
  1283. RY*(   1) C  70                  0.00417     1.66849   
  1284. RY*(   2) C  70                  0.00258     0.98464   
  1285. RY*(   3) C  70                  0.00189     1.44708   
  1286. RY*(   4) C  70                  0.00164     2.01844   
  1287. RY*(   5) C  70                  0.00120     1.73273   
  1288. RY*(   6) C  70                  0.00109     1.67639   
  1289. RY*(   7) C  70                  0.00038     2.85808   
  1290. RY*(   8) C  70                  0.00018     2.78195   
  1291. RY*(   9) C  70                  0.00016     2.30934   
  1292. RY*(  10) C  70                  0.00008     3.52426   
  1293. RY*(  11) C  70                  0.00003     2.41641   
  1294. RY*(  12) C  70                  0.00003     2.65808   
  1295. RY*(  13) C  70                  0.00001     1.72089   
  1296. RY*(  14) C  70                  0.00001     2.28713   
  1297. RY*(  15) C  70                  0.00001     2.75385   
  1298. RY*(  16) C  70                  0.00000     1.08634   
  1299. RY*(  17) C  70                  0.00000    20.70597   
  1300. RY*(  18) C  70                  0.00001     3.32884   
  1301. RY*(  19) C  70                  0.00001     1.42711   
  1302. RY*(  20) C  70                  0.00000     4.04089   
  1303. RY*(  21) C  70                  0.00000     3.76086   
  1304. RY*(  22) C  70                  0.00000     3.59035   
  1305. RY*(  23) C  70                  0.00000     3.51834   
  1306. RY*(  24) C  70                  0.00000     3.45473   
  1307. RY*(  25) C  70                  0.00000     3.50003   
  1308. RY*(  26) C  70                  0.00000     3.46703   
  1309. RY*(   1) C  71                  0.00406     1.57954   
  1310. RY*(   2) C  71                  0.00319     0.68250   
  1311. RY*(   3) C  71                  0.00206     1.31359   
  1312. RY*(   4) C  71                  0.00129     2.50887   
  1313. RY*(   5) C  71                  0.00080     1.62166   
  1314. RY*(   6) C  71                  0.00039     1.56669   
  1315. RY*(   7) C  71                  0.00031     1.80987   
  1316. RY*(   8) C  71                  0.00012     2.90925   
  1317. RY*(   9) C  71                  0.00005     2.23135   
  1318. RY*(  10) C  71                  0.00005     3.64100   
  1319. RY*(  11) C  71                  0.00003     2.37452   
  1320. RY*(  12) C  71                  0.00003     2.04231   
  1321. RY*(  13) C  71                  0.00002     1.84930   
  1322. RY*(  14) C  71                  0.00001     3.21845   
  1323. RY*(  15) C  71                  0.00000     3.49514   
  1324. RY*(  16) C  71                  0.00000     3.47717   
  1325. RY*(  17) C  71                  0.00001     2.81000   
  1326. RY*(  18) C  71                  0.00001     2.51202   
  1327. RY*(  19) C  71                  0.00000    21.51132   
  1328. RY*(  20) C  71                  0.00001     3.43593   
  1329. RY*(  21) C  71                  0.00000     3.73284   
  1330. RY*(  22) C  71                  0.00000     3.52834   
  1331. RY*(  23) C  71                  0.00000     3.59356   
  1332. RY*(  24) C  71                  0.00000     3.62898   
  1333. RY*(  25) C  71                  0.00000     3.31076   
  1334. RY*(  26) C  71                  0.00000     3.34739   
  1335. RY*(   1) H  72                  0.00058     0.88089   
  1336. RY*(   2) H  72                  0.00029     2.34025   
  1337. RY*(   3) H  72                  0.00021     2.10317   
  1338. RY*(   4) H  72                  0.00011     2.40177   
  1339. RY*(   5) H  72                  0.00002     3.13715   
  1340. RY*(   1) N  73                  0.00593     1.45577   
  1341. RY*(   2) N  73                  0.00550     0.89476   
  1342. RY*(   3) N  73                  0.00519     1.46215   
  1343. RY*(   4) N  73                  0.00122     1.42848   
  1344. RY*(   5) N  73                  0.00069     1.67095   
  1345. RY*(   6) N  73                  0.00044     2.18258   
  1346. RY*(   7) N  73                  0.00036     3.47018   
  1347. RY*(   8) N  73                  0.00034     2.96567   
  1348. RY*(   9) N  73                  0.00010     2.74533   
  1349. RY*(  10) N  73                  0.00010     2.41366   
  1350. RY*(  11) N  73                  0.00007     3.19639   
  1351. RY*(  12) N  73                  0.00008     3.14825   
  1352. RY*(  13) N  73                  0.00006     3.13859   
  1353. RY*(  14) N  73                  0.00002     3.88895   
  1354. RY*(  15) N  73                  0.00002     4.93016   
  1355. RY*(  16) N  73                  0.00001     3.51308   
  1356. RY*(  17) N  73                  0.00001     4.68629   
  1357. RY*(  18) N  73                  0.00001     4.70598   
  1358. RY*(  19) N  73                  0.00000    31.66012   
  1359. RY*(  20) N  73                  0.00000     4.42157   
  1360. RY*(  21) N  73                  0.00001     4.08532   
  1361. RY*(  22) N  73                  0.00000     4.12402   
  1362. RY*(  23) N  73                  0.00000     4.65766   
  1363. RY*(  24) N  73                  0.00000     4.66394   
  1364. RY*(  25) N  73                  0.00000     4.49923   
  1365. RY*(  26) N  73                  0.00000     4.75770   
  1366. RY*(   1) C  74                  0.00365     1.61868   
  1367. RY*(   2) C  74                  0.00251     0.71867   
  1368. RY*(   3) C  74                  0.00170     1.76218   
  1369. RY*(   4) C  74                  0.00065     2.06184   
  1370. RY*(   5) C  74                  0.00059     1.63630   
  1371. RY*(   6) C  74                  0.00046     1.80532   
  1372. RY*(   7) C  74                  0.00044     1.94554   
  1373. RY*(   8) C  74                  0.00020     1.64105   
  1374. RY*(   9) C  74                  0.00015     1.83399   
  1375. RY*(  10) C  74                  0.00012     1.75892   
  1376. RY*(  11) C  74                  0.00006     1.97526   
  1377. RY*(  12) C  74                  0.00007     2.05155   
  1378. RY*(  13) C  74                  0.00004     2.77183   
  1379. RY*(  14) C  74                  0.00005     2.41014   
  1380. RY*(  15) C  74                  0.00002     4.29516   
  1381. RY*(  16) C  74                  0.00002     2.44460   
  1382. RY*(  17) C  74                  0.00000     3.33585   
  1383. RY*(  18) C  74                  0.00000     3.51981   
  1384. RY*(  19) C  74                  0.00000    19.12836   
  1385. RY*(  20) C  74                  0.00001     3.34414   
  1386. RY*(  21) C  74                  0.00001     3.97234   
  1387. RY*(  22) C  74                  0.00000     3.57484   
  1388. RY*(  23) C  74                  0.00000     3.45094   
  1389. RY*(  24) C  74                  0.00000     3.58329   
  1390. RY*(  25) C  74                  0.00000     3.39049   
  1391. RY*(  26) C  74                  0.00000     3.67840   
  1392. RY*(   1) H  75                  0.00061     0.99970   
  1393. RY*(   2) H  75                  0.00025     2.27119   
  1394. RY*(   3) H  75                  0.00022     2.13621   
  1395. RY*(   4) H  75                  0.00006     2.66827   
  1396. RY*(   5) H  75                  0.00001     3.08663   
  1476. BD*(   1) C  64 - H  65          0.01197     0.35486   
  1477. BD*(   1) C  64 - H  66          0.00342     0.36784   
  1478. BD*(   1) C  64 - H  67          0.01143     0.35462   
  1479. BD*(   1) C  64 - C  70          0.01353     0.38367   
  1480. BD*(   1) N  68 - H  69          0.01401     0.36106   
  1481. BD*(   1) N  68 - C  70          0.02727     0.42408   
  1482. BD*(   1) N  68 - C  71          0.02226     0.43991   
  1483. BD*(   1) C  70 - C  74          0.02100     0.55898   
  1484. BD*(   2) C  70 - C  74          0.29815     0.02819  1487(v),1476(v),1478(v)
                                                    1287(g),1443(r),1406(r)
  1485. BD*(   1) C  71 - H  72          0.01816     0.38378   
  1486. BD*(   1) C  71 - N  73          0.01536     0.52782   
  1487. BD*(   2) C  71 - N  73          0.42317    -0.01420  1484(v),1310(g),1341(g)
                                                    1367(v),150(r),1406(r)
                                                    1398(r),157(r)
  1488. BD*(   1) N  73 - C  74          0.01568     0.47236   
  1489. BD*(   1) C  74 - H  75          0.01439     0.42344   
       -------------------------------
              Total Lewis   42.70199  ( 97.7473%)
        Valence non-Lewis    0.90981  (  2.0826%)
        Rydberg non-Lewis    0.07429  (  0.1701%)
       -------------------------------
            Total unit  3   43.68608  (100.0000%)
           Charge unit  3    0.31392
 Unable to Open any file for archive entry.
 1\1\GINC-BGN1039\SP\RAPFD\def2TZVP\C34H34Fe1N6\BEBJONES\13-Aug-2024\0\
 \# apfd/def2TZVP int=(grid=ultrafine) geom=check guess=read pop=nbo sc
 f=qc\\1jf4_II_S_nbo\\0,1\Fe,0,-24.2342032297,-6.7028213645,18.82839528
 41\N,0,-25.5455829831,-6.148393777,17.437584953\N,0,-24.5154119723,-8.
 6061399733,18.3138866345\N,0,-23.3133379338,-7.3207392166,20.503389381
 \N,0,-24.1888901067,-4.8315087767,19.5281136282\C,0,-25.9831876324,-4.
 8830963791,17.1785109297\C,0,-26.9990589096,-4.8874813722,16.150563472
 6\C,0,-27.1551921708,-6.1852040753,15.7761108395\C,0,-26.2206795201,-6
 .9528826807,16.5686505996\C,0,-25.2612257889,-9.0878304892,17.27975259
 69\C,0,-25.1297731139,-10.5216202501,17.169055594\C,0,-24.2792143897,-
 10.9036225546,18.1593414501\C,0,-23.9161611082,-9.69829905,18.86922959
 87\C,0,-22.8823762972,-8.5814113519,20.7844897929\C,0,-22.1746608545,-
 8.6152144831,22.0472936799\C,0,-22.223318983,-7.3398057478,22.53884629
 96\C,0,-22.9179434606,-6.5493643301,21.557359155\C,0,-23.6037689473,-4
 .3747822257,20.6685500367\C,0,-23.6588796256,-2.9279978382,20.73677315
 62\C,0,-24.3305395384,-2.5238975261,19.6138131685\C,0,-24.6758915347,-
 3.7237606746,18.8961900994\C,0,-25.5234551794,-3.7403849506,17.8018652
 068\H,0,-25.9061757579,-2.7934699908,17.4524374584\C,0,-26.0742917202,
 -8.3221731022,16.4664054348\H,0,-26.6493393168,-8.832165556,15.7089218
 013\C,0,-23.1169385145,-9.6910553593,19.9959167174\H,0,-22.6756632863,
 -10.6253147204,20.3056929465\C,0,-23.0486202286,-5.1759250313,21.64572
 735\H,0,-22.6718396653,-4.6982127825,22.5369693326\C,0,-27.7079963005,
 -3.6700519692,15.6652380873\H,0,-27.0033513833,-2.9662497139,15.221011
 0202\H,0,-28.2131238733,-3.1675520167,16.4901282484\H,0,-28.4508784025
 ,-3.9289447768,14.9149516309\C,0,-28.0782494237,-6.7724170157,14.76467
 49805\H,0,-28.7339181621,-7.5092104392,15.2287996212\H,0,-27.515488740
 9,-7.2702975529,13.9746079185\H,0,-28.6961207607,-6.001379505,14.31117
 44348\C,0,-24.6174650916,-1.1387417349,19.1492881361\H,0,-25.625787566
 7,-0.8332395906,19.4337058006\H,0,-24.537060943,-1.0712939911,18.06533
 31372\H,0,-23.9105755314,-0.4425165058,19.5962421489\C,0,-23.084388617
 ,-2.1351119891,21.8009294041\H,0,-22.1984224791,-2.5524018913,22.26552
 54926\C,0,-23.5537375365,-0.9716662963,22.2400868052\H,0,-24.455587834
 8,-0.5329265217,21.8509398076\H,0,-23.0623718857,-0.4292442409,23.0307
 518955\C,0,-21.6864397019,-6.8271552889,23.8301981888\H,0,-22.48031247
 21,-6.3678899773,24.419027472\H,0,-20.9173757624,-6.073395786,23.65579
 45852\H,0,-21.2542352444,-7.6379662873,24.4112323896\C,0,-21.578956019
 6,-9.7711538226,22.6925801124\H,0,-20.6106070927,-9.5929203142,23.1489
 023706\C,0,-22.1305402199,-10.9736609739,22.7969932945\H,0,-23.1136858
 662,-11.1866737354,22.4130400531\H,0,-21.6272828217,-11.7831145078,23.
 2996101432\C,0,-23.8036670205,-12.2690185677,18.5205727231\H,0,-24.187
 4269836,-12.560810285,19.498841268\H,0,-22.7148570429,-12.3006281269,1
 8.5625372492\H,0,-24.1409218571,-13.0008641063,17.7902332177\C,0,-25.8
 314502165,-11.3547118492,16.1522657836\H,0,-26.9099014006,-11.32521232
 22,16.3133788474\H,0,-25.506274854,-12.3909815027,16.2102770705\H,0,-2
 5.6289280077,-10.9855630168,15.1468202227\C,0,-20.3214916482,-4.901269
 5592,15.2801873583\H,0,-19.3892603147,-4.5310134112,15.7067308462\H,0,
 -20.9131932033,-4.0534123297,14.9496945041\H,0,-20.0792114208,-5.51790
 85978,14.4148642808\N,0,-20.6016952498,-6.8313104214,16.8495424097\H,0
 ,-19.7097858005,-7.2534628008,16.6494973953\C,0,-21.086980737,-5.68133
 20508,16.2851012605\C,0,-21.5331840307,-7.2892889615,17.7163867106\H,0
 ,-21.4233201136,-8.1787112456,18.3039766649\N,0,-22.582006876,-6.49802
 34905,17.7366665277\C,0,-22.3161742746,-5.4924621346,16.848959327\H,0,
 -23.0246874445,-4.7072631459,16.6788625554\\Version=ES64L-G16RevC.02\S
 tate=1-A\HF=-2907.6017033\RMSD=1.899e-09\Dipole=1.7348356,-0.0836386,-
 1.5333459\Quadrupole=5.8717758,-2.6066509,-3.2651249,-2.8333429,-1.582
 586,-0.8796459\PG=C01 [X(C34H34Fe1N6)]\\@
 The archive entry for this job was punched.


 REFRAIN FROM ILLUSIONS, INSIST ON WORK AND NOT WORDS,
 PATIENTLY SEEK DIVINE AND SCIENTIFIC TRUTH.
 LAST WORDS OF MARIA MENDELEEVA TO HER SON DMITRI, C. 1850
 Job cpu time:       0 days  0 hours 44 minutes  6.6 seconds.
 Elapsed time:       0 days  0 hours  0 minutes 55.5 seconds.
 File lengths (MBytes):  RWF=    749 Int=      0 D2E=      0 Chk=    150 Scr=      1
 Normal termination of Gaussian 16 at Tue Aug 13 16:59:33 2024.
