 Entering Gaussian System, Link 0=g16
 Input=1lco01.com
 Output=1lco01.log
 Initial command:
 /sw/chem/gaussian/g16_C02/a100/g16/l1.exe "/local/bebjones_7999309/Gau-2985724.inp" -scrdir="/local/bebjones_7999309/"
 Entering Link 1 = /sw/chem/gaussian/g16_C02/a100/g16/l1.exe PID=   2985725.
  
 Copyright (c) 1988-2021, Gaussian, Inc.  All Rights Reserved.
  
 This is part of the Gaussian(R) 16 program.  It is based on
 the Gaussian(R) 09 system (copyright 2009, Gaussian, Inc.),
 the Gaussian(R) 03 system (copyright 2003, Gaussian, Inc.),
 the Gaussian(R) 98 system (copyright 1998, Gaussian, Inc.),
 the Gaussian(R) 94 system (copyright 1995, Gaussian, Inc.),
 the Gaussian 92(TM) system (copyright 1992, Gaussian, Inc.),
 the Gaussian 90(TM) system (copyright 1990, Gaussian, Inc.),
 the Gaussian 88(TM) system (copyright 1988, Gaussian, Inc.),
 the Gaussian 86(TM) system (copyright 1986, Carnegie Mellon
 University), and the Gaussian 82(TM) system (copyright 1983,
 Carnegie Mellon University). Gaussian is a federally registered
 trademark of Gaussian, Inc.
  
 This software contains proprietary and confidential information,
 including trade secrets, belonging to Gaussian, Inc.
  
 This software is provided under written license and may be
 used, copied, transmitted, or stored only in accord with that
 written license.
  
 The following legend is applicable only to US Government
 contracts under FAR:
  
                    RESTRICTED RIGHTS LEGEND
  
 Use, reproduction and disclosure by the US Government is
 subject to restrictions as set forth in subparagraphs (a)
 and (c) of the Commercial Computer Software - Restricted
 Rights clause in FAR 52.227-19.
  
 Gaussian, Inc.
 340 Quinnipiac St., Bldg. 40, Wallingford CT 06492
  
  
 ---------------------------------------------------------------
 Warning -- This program may not be used in any manner that
 competes with the business of Gaussian, Inc. or will provide
 assistance to any competitor of Gaussian, Inc.  The licensee
 of this program is prohibited from giving any competitor of
 Gaussian, Inc. access to this program.  By using this program,
 the user acknowledges that Gaussian, Inc. is engaged in the
 business of creating and licensing software in the field of
 computational chemistry and represents and warrants to the
 licensee that it is not a competitor of Gaussian, Inc. and that
 it will not use this program in any manner prohibited above.
 ---------------------------------------------------------------
  

 Cite this work as:
 Gaussian 16, Revision C.02,
 M. J. Frisch, G. W. Trucks, H. B. Schlegel, G. E. Scuseria, 
 M. A. Robb, J. R. Cheeseman, G. Scalmani, V. Barone, 
 G. A. Petersson, H. Nakatsuji, X. Li, M. Caricato, A. V. Marenich, 
 J. Bloino, B. G. Janesko, R. Gomperts, B. Mennucci, H. P. Hratchian, 
 J. V. Ortiz, A. F. Izmaylov, J. L. Sonnenberg, D. Williams-Young, 
 F. Ding, F. Lipparini, F. Egidi, J. Goings, B. Peng, A. Petrone, 
 T. Henderson, D. Ranasinghe, V. G. Zakrzewski, J. Gao, N. Rega, 
 G. Zheng, W. Liang, M. Hada, M. Ehara, K. Toyota, R. Fukuda, 
 J. Hasegawa, M. Ishida, T. Nakajima, Y. Honda, O. Kitao, H. Nakai, 
 T. Vreven, K. Throssell, J. A. Montgomery, Jr., J. E. Peralta, 
 F. Ogliaro, M. J. Bearpark, J. J. Heyd, E. N. Brothers, K. N. Kudin, 
 V. N. Staroverov, T. A. Keith, R. Kobayashi, J. Normand, 
 K. Raghavachari, A. P. Rendell, J. C. Burant, S. S. Iyengar, 
 J. Tomasi, M. Cossi, J. M. Millam, M. Klene, C. Adamo, R. Cammi, 
 J. W. Ochterski, R. L. Martin, K. Morokuma, O. Farkas, 
 J. B. Foresman, and D. J. Fox, Gaussian, Inc., Wallingford CT, 2019.
 
 ******************************************
 Gaussian 16:  ES64L-G16RevC.02  7-Dec-2021
                31-Aug-2024 
 ******************************************
 %mem=16GB
 %CPU=0-71
 SetSPE:  set environment variable "OMP_PROC_BIND" = "true"
 SetSPE:  set environment variable "OMP_PLACES" = "{0},{1},{2},{3},{4},{5},{6},{7},{8},{9},{10},{11},{12},{13},{14},{15},{16},{17},{18},{19},{20},{21},{22},{23},{24},{25},{26},{27},{28},{29},{30},{31},{32},{33},{34},{35},{36},{37},{38},{39},{40},{41},{42},{43},{44},{45},{46},{47},{48},{49},{50},{51},{52},{53},{54},{55},{56},{57},{58},{59},{60},{61},{62},{63},{64},{65},{66},{67},{68},{69},{70},{71}"
 Will use up to   72 processors via shared memory.
 %gpucpu=0,1,2,3=0,1,2,3
 Will use    4 GPUs:
 Thread  CPU   GPU
      0    0     0
      1    1     1
      2    2     2
      3    3     3
      4    4    -1
      5    5    -1
      6    6    -1
      7    7    -1
      8    8    -1
      9    9    -1
     10   10    -1
     11   11    -1
     12   12    -1
     13   13    -1
     14   14    -1
     15   15    -1
     16   16    -1
     17   17    -1
     18   18    -1
     19   19    -1
     20   20    -1
     21   21    -1
     22   22    -1
     23   23    -1
     24   24    -1
     25   25    -1
     26   26    -1
     27   27    -1
     28   28    -1
     29   29    -1
     30   30    -1
     31   31    -1
     32   32    -1
     33   33    -1
     34   34    -1
     35   35    -1
     36   36    -1
     37   37    -1
     38   38    -1
     39   39    -1
     40   40    -1
     41   41    -1
     42   42    -1
     43   43    -1
     44   44    -1
     45   45    -1
     46   46    -1
     47   47    -1
     48   48    -1
     49   49    -1
     50   50    -1
     51   51    -1
     52   52    -1
     53   53    -1
     54   54    -1
     55   55    -1
     56   56    -1
     57   57    -1
     58   58    -1
     59   59    -1
     60   60    -1
     61   61    -1
     62   62    -1
     63   63    -1
     64   64    -1
     65   65    -1
     66   66    -1
     67   67    -1
     68   68    -1
     69   69    -1
     70   70    -1
     71   71    -1
 SetGPE:  set environment variable "OMP_PROC_BIND" = "true"
 SetGPE:  set environment variable "OMP_PLACES" = "{0},{1},{2},{3},{4},{5},{6},{7},{8},{9},{10},{11},{12},{13},{14},{15},{16},{17},{18},{19},{20},{21},{22},{23},{24},{25},{26},{27},{28},{29},{30},{31},{32},{33},{34},{35},{36},{37},{38},{39},{40},{41},{42},{43},{44},{45},{46},{47},{48},{49},{50},{51},{52},{53},{54},{55},{56},{57},{58},{59},{60},{61},{62},{63},{64},{65},{66},{67},{68},{69},{70},{71}"
 %chk=1lco_II_O.chk
 Properties for Device   0
 Minimum vector length:                              32
 Maximum vector length:                            1024
 Number of SMPs:                                    108
 Maximum number of threads per SMP:                2048
 Number of ASync Engines:                             5
 Memory:                                           9207742464
 Properties for Device   1
 Minimum vector length:                              32
 Maximum vector length:                            1024
 Number of SMPs:                                    108
 Maximum number of threads per SMP:                2048
 Number of ASync Engines:                             5
 Memory:                                           9207742464
 Properties for Device   2
 Minimum vector length:                              32
 Maximum vector length:                            1024
 Number of SMPs:                                    108
 Maximum number of threads per SMP:                2048
 Number of ASync Engines:                             5
 Memory:                                           9207742464
 Properties for Device   3
 Minimum vector length:                              32
 Maximum vector length:                            1024
 Number of SMPs:                                    108
 Maximum number of threads per SMP:                2048
 Number of ASync Engines:                             5
 Memory:                                           9207742464
   8286968217 words of memory will be used on each GPU.
 ------------------------------------------
 # polar def2tzvp apfd int=(grid=ultrafine)
 ------------------------------------------
 1/38=1,172=1/1;
 2/12=2,17=6,18=5,40=1/2;
 3/5=44,7=101,11=2,25=1,30=1,74=-44,75=-5/1,2,3;
 4//1;
 5/5=2,38=5,98=1/2;
 8/6=4,10=90,11=11/1;
 10/6=1,13=10/2;
 6/7=2,8=2,9=2,10=2,28=1/1;
 99/5=1,9=1/99;
 ---------
 1lco_II_S
 ---------
 Symbolic Z-matrix:
 Charge =  0 Multiplicity = 1
 Fe                    71.1079   42.42072   10.39955 
 N                     71.72386   44.02033   9.34867 
 N                     73.00269   42.14951   11.03343 
 N                     70.53998   40.77781   11.38016 
 N                     69.23553   42.75071   9.81711 
 C                     70.94407   44.82231   8.57953 
 C                     71.75415   45.77305   7.84796 
 C                     73.03026   45.59887   8.2835 
 C                     72.9914   44.49083   9.21407 
 C                     74.09721   42.88273   10.69892 
 C                     75.28323   42.33877   11.30704 
 C                     74.8823   41.24634   12.02534 
 C                     73.44627   41.15165   11.84051 
 C                     71.31354   39.97533   12.15919 
 C                     70.54591   38.87489   12.68085 
 C                     69.27274   39.0271   12.19412 
 C                     69.30008   40.22514   11.37744 
 C                     68.1663   41.93851   10.02663 
 C                     66.97642   42.4958   9.42246 
 C                     67.3487   43.68525   8.87734 
 C                     68.77261   43.80897   9.10321 
 C                     69.56603   44.75867   8.4869 
 H                     69.07272   45.50082   7.87729 
 C                     74.10529   43.97965   9.85149 
 H                     75.05488   44.45963   9.66649 
 C                     72.66849   40.14765   12.3826 
 H                     73.15674   39.45507   13.05045 
 C                     68.18822   40.7532   10.74129 
 H                     67.25807   40.211    10.82787 
 C                     74.27221   46.32386   7.88985 
 H                     74.04884   47.11678   7.1801 
 H                     74.98814   45.64215   7.42911 
 H                     74.74713   46.77117   8.76351 
 C                     71.21687   46.76383   6.87244 
 H                     70.55082   47.47091   7.3686 
 H                     70.65065   46.25941   6.08954 
 H                     72.0233   47.32444   6.40547 
 C                     76.66259   42.87562   11.13244 
 H                     76.70813   43.92476   11.42686 
 H                     76.97471   42.80544   10.08961 
 H                     77.36979   42.31282   11.73684 
 C                     75.73297   40.35035   12.78578 
 H                     76.49841   40.8347   13.38397 
 C                     75.67283   39.02433   12.76939 
 H                     74.96997   38.49311   12.15 
 H                     76.34427   38.42054   13.35787 
 C                     71.08893   37.76991   13.51873 
 H                     71.12688   38.06057   14.5701 
 H                     72.09935   37.51063   13.207 
 H                     70.45878   36.88709   13.4289 
 C                     68.11029   38.19121   12.3909 
 H                     67.41808   38.14835   11.55714 
 C                     67.82849   37.49955   13.49113 
 H                     68.44981   37.54019   14.36851 
 H                     66.94607   36.88481   13.55957 
 C                     65.63165   41.85212   9.45753 
 H                     65.29127   41.7237   10.48576 
 H                     65.6651   40.86779   8.98938 
 H                     64.89974   42.45645   8.9271 
 C                     66.52308   44.68383   8.13991 
 H                     65.46541   44.4404   8.21017 
 H                     66.79894   44.70724   7.08465 
 H                     66.67489   45.68187   8.55006 
 C                     71.43528   46.09662   14.60164 
 H                     72.37137   46.52176   14.25268 
 H                     71.58612   45.69656   15.60456 
 H                     70.69087   46.891    14.65998 
 N                     69.84268   44.31229   13.85802 
 H                     69.19492   44.4304   14.61959 
 C                     70.99651   45.02783   13.66855 
 C                     69.74103   43.42441   12.84315 
 H                     68.93443   42.72913   12.73332 
 N                     70.75794   43.53396   12.02492 
 C                     71.54687   44.52748   12.52363 
 H                     72.45107   44.81315   12.02768 
 C                     73.36447   39.94412   5.90361 
 H                     74.28613   40.51428   5.96566 
 H                     72.90553   40.12669   4.93178 
 H                     73.60488   38.88317   5.97312 
 N                     71.21455   39.79274   7.18005 
 H                     70.80682   39.07204   6.60743 
 C                     72.45348   40.3521   7.00307 
 C                     70.65091   40.38135   8.25892 
 H                     69.67742   40.14017   8.6328 
 N                     71.4549   41.27753   8.7749 
 C                     72.5801   41.27104   8.00455 
 H                     73.40073   41.92292   8.22004 
 
 Stoichiometry    C38H40FeN8
 Framework group  C1[X(C38H40FeN8)]
 Deg. of freedom   255
 Full point group                 C1      NOp   1
 Largest Abelian subgroup         C1      NOp   1
 Largest concise Abelian subgroup C1      NOp   1
                         Standard orientation:                         
 ---------------------------------------------------------------------
 Center     Atomic      Atomic             Coordinates (Angstroms)
 Number     Number       Type             X           Y           Z
 ---------------------------------------------------------------------
      1         26           0       -0.103883   -0.152392    0.059279
      2          7           0       -2.102705   -0.369766    0.058638
      3          7           0       -0.354666    1.844368    0.184219
      4          7           0        1.874374    0.097035   -0.027661
      5          7           0        0.117645   -2.127776    0.007064
      6          6           0       -2.780865   -1.544028   -0.004920
      7          6           0       -4.201784   -1.306344   -0.145703
      8          6           0       -4.372987    0.039002   -0.049694
      9          6           0       -3.046863    0.607283    0.067226
     10          6           0       -1.529013    2.528485    0.203993
     11          6           0       -1.293877    3.948328    0.236972
     12          6           0        0.063455    4.114850    0.235514
     13          6           0        0.629839    2.779310    0.206290
     14          6           0        2.560304    1.269028    0.044347
     15          6           0        3.976605    1.041081   -0.075943
     16          6           0        4.138492   -0.312514   -0.226321
     17          6           0        2.803415   -0.877999   -0.197936
     18          6           0        1.281403   -2.808806   -0.162308
     19          6           0        1.039492   -4.234428   -0.183933
     20          6           0       -0.296208   -4.396092    0.016866
     21          6           0       -0.859953   -3.065853    0.097452
     22          6           0       -2.216847   -2.805120    0.051183
     23          1           0       -2.887209   -3.651504    0.047094
     24          6           0       -2.793332    1.962634    0.151552
     25          1           0       -3.640212    2.632690    0.163588
     26          6           0        1.985904    2.522957    0.159385
     27          1           0        2.648627    3.370566    0.239729
     28          6           0        2.536661   -2.235632   -0.271741
     29          1           0        3.375421   -2.903691   -0.401526
     30          6           0       -5.629898    0.839397   -0.100360
     31          1           0       -6.498218    0.190912   -0.188869
     32          1           0       -5.620895    1.519570   -0.952915
     33          1           0       -5.740080    1.436125    0.805560
     34          6           0       -5.225239   -2.379543   -0.296499
     35          1           0       -5.256742   -3.009736    0.593235
     36          1           0       -4.989432   -3.013785   -1.150958
     37          1           0       -6.214200   -1.953395   -0.448244
     38          6           0       -2.354276    4.995659    0.237943
     39          1           0       -3.037718    4.851584    1.075553
     40          1           0       -2.937804    4.954637   -0.682732
     41          1           0       -1.911744    5.985790    0.315298
     42          6           0        0.781042    5.375698    0.229175
     43          1           0        0.389256    6.135059    0.898648
     44          6           0        1.820139    5.672286   -0.541878
     45          1           0        2.212248    4.975221   -1.263140
     46          1           0        2.301023    6.635823   -0.496690
     47          6           0        5.018385    2.104964   -0.102902
     48          1           0        5.293728    2.406511    0.909306
     49          1           0        4.654846    2.987190   -0.627186
     50          1           0        5.911469    1.742176   -0.608199
     51          6           0        5.352176   -1.075764   -0.408315
     52          1           0        5.258325   -1.964855   -1.022210
     53          6           0        6.539054   -0.783662    0.115435
     54          1           0        6.684804    0.056159    0.771886
     55          1           0        7.405474   -1.394956   -0.076667
     56          6           0        2.099868   -5.267556   -0.363438
     57          1           0        2.840908   -5.203535    0.434292
     58          1           0        2.616130   -5.126439   -1.313570
     59          1           0        1.671590   -6.266927   -0.354075
     60          6           0       -1.091823   -5.654278    0.097934
     61          1           0       -0.439635   -6.523464    0.142876
     62          1           0       -1.738888   -5.757371   -0.774368
     63          1           0       -1.722389   -5.650380    0.986603
     64          6           0       -1.013885    0.536078    5.534212
     65          1           0       -1.893286    1.154798    5.383823
     66          1           0       -0.275467    1.109578    6.095001
     67          1           0       -1.295296   -0.332331    6.130252
     68          7           0        0.645583   -0.670589    4.097789
     69          1           0        1.190866   -1.038744    4.859801
     70          6           0       -0.468198    0.119608    4.217291
     71          6           0        0.874612   -0.857296    2.778205
     72          1           0        1.685005   -1.436833    2.386430
     73          7           0       -0.024095   -0.234690    2.056895
     74          6           0       -0.866842    0.376414    2.936968
     75          1           0       -1.697713    0.955464    2.591270
     76          6           0       -1.313368    1.079954   -5.275287
     77          1           0       -2.097446    1.781612   -5.008304
     78          1           0       -1.743546    0.296142   -5.898981
     79          1           0       -0.558829    1.605647   -5.860588
     80          7           0        0.302705   -0.406831   -4.070228
     81          1           0        0.743853   -0.770362   -4.898939
     82          6           0       -0.719121    0.506506   -4.041110
     83          6           0        0.606323   -0.721066   -2.790699
     84          1           0        1.371263   -1.414923   -2.509495
     85          7           0       -0.159019   -0.064496   -1.954679
     86          6           0       -0.988822    0.703077   -2.717456
     87          1           0       -1.719687    1.341683   -2.267101
 ---------------------------------------------------------------------
 Rotational constants (GHZ):           0.0774132           0.0749883           0.0592968
 Standard basis: def2TZVP (5D, 7F)
 There are  1948 symmetry adapted cartesian basis functions of A   symmetry.
 There are  1711 symmetry adapted basis functions of A   symmetry.
  1711 basis functions,  2768 primitive gaussians,  1948 cartesian basis functions
   175 alpha electrons      175 beta electrons
       nuclear repulsion energy      7165.4359554266 Hartrees.
 NAtoms=   87 NActive=   87 NUniq=   87 SFac= 1.00D+00 NAtFMM=   60 NAOKFM=T Big=T
 Integral buffers will be    131072 words long.
 Raffenetti 2 integral format.
 Two-electron integral symmetry is turned on.
 R6APFD:  NTU= -4 IXU= 1 FactS= 1.050
 Nuclear repulsion after empirical dispersion term =     7165.2669932413 Hartrees.
 One-electron integrals computed using PRISM.
   1 Symmetry operations used in ECPInt.
 ECPInt:  NShTT=  232221 NPrTT=  716997 LenC2=  183265 LenP2D=  371378.
 LDataN:  DoStor=T MaxTD1= 6 Len=  172
 Number of processors reduced to  20 by ecpmxn.
 NBasis=  1711 RedAO= T EigKep=  3.34D-06  NBF=  1711
 NBsUse=  1711 1.00D-06 EigRej= -1.00D+00 NBFU=  1711
 ExpMin= 4.20D-02 ExpMax= 3.01D+05 ExpMxC= 2.91D+03 IAcc=3 IRadAn=         5 AccDes= 0.00D+00
 Harris functional with IExCor= 3731 and IRadAn=       5 diagonalized for initial guess.
 HarFok:  IExCor= 3731 AccDes= 0.00D+00 IRadAn=         5 IDoV= 1 UseB2=F ITyADJ=14
 ICtDFT=  3500011 ScaDFX=  1.000000  1.000000  1.000000  1.000000
 FoFCou: FMM=F IPFlag=           0 FMFlag=      100000 FMFlg1=        2001
         NFxFlg=           0 DoJE=T BraDBF=F KetDBF=T FulRan=T
         wScrn=  0.000000 ICntrl=       500 IOpCl=  0 I1Cent=   200000004 NGrid=           0
         NMat0=    1 NMatS0=      1 NMatT0=    0 NMatD0=    1 NMtDS0=    0 NMtDT0=    0
 Petite list used in FoFCou.
 Requested convergence on RMS density matrix=1.00D-08 within 128 cycles.
 Requested convergence on MAX density matrix=1.00D-06.
 Requested convergence on             energy=1.00D-06.
 No special actions if energy rises.
 EnCoef did   100 forward-backward iterations
 EnCoef did   100 forward-backward iterations
 EnCoef did   100 forward-backward iterations
 EnCoef did   100 forward-backward iterations
 EnCoef did     3 forward-backward iterations
 EnCoef did     2 forward-backward iterations
 EnCoef did     2 forward-backward iterations
 Restarting incremental Fock formation.
 SCF Done:  E(RAPFD) =  -3173.07991237     A.U. after   27 cycles
            NFock= 27  Conv=0.27D-08     -V/T= 2.0035
 DoSCS=F DFT=T ScalE2(SS,OS)=  1.000000  1.000000
 Range of M.O.s used for correlation:     1  1711
 NBasis=  1711 NAE=   175 NBE=   175 NFC=     0 NFV=     0
 NROrb=   1711 NOA=   175 NOB=   175 NVA=  1536 NVB=  1536

 **** Warning!!: The largest alpha MO coefficient is  0.48158698D+02

          Differentiating once with respect to electric field.
                with respect to dipole field.
          Electric field/nuclear overlap derivatives assumed to be zero.
          There are     3 degrees of freedom in the 1st order CPHF.  IDoFFX=0 NUNeed=     3.
      3 vectors produced by pass  0 Test12= 8.96D-12 3.33D-08 XBig12= 1.92D+03 2.41D+01.
 AX will form     3 AO Fock derivatives at one time.
      3 vectors produced by pass  1 Test12= 8.96D-12 3.33D-08 XBig12= 1.36D+03 7.95D+00.
      3 vectors produced by pass  2 Test12= 8.96D-12 3.33D-08 XBig12= 4.96D+02 5.61D+00.
      3 vectors produced by pass  3 Test12= 8.96D-12 3.33D-08 XBig12= 1.17D+03 1.35D+01.
      3 vectors produced by pass  4 Test12= 8.96D-12 3.33D-08 XBig12= 1.49D+03 5.52D+00.
      3 vectors produced by pass  5 Test12= 8.96D-12 3.33D-08 XBig12= 6.46D+02 4.47D+00.
      3 vectors produced by pass  6 Test12= 8.96D-12 3.33D-08 XBig12= 3.33D+02 4.46D+00.
      3 vectors produced by pass  7 Test12= 8.96D-12 3.33D-08 XBig12= 1.31D+02 2.34D+00.
      3 vectors produced by pass  8 Test12= 8.96D-12 3.33D-08 XBig12= 6.46D+01 1.67D+00.
      3 vectors produced by pass  9 Test12= 8.96D-12 3.33D-08 XBig12= 2.52D+01 1.03D+00.
      3 vectors produced by pass 10 Test12= 8.96D-12 3.33D-08 XBig12= 1.51D+01 7.83D-01.
      3 vectors produced by pass 11 Test12= 8.96D-12 3.33D-08 XBig12= 7.14D+00 7.27D-01.
      3 vectors produced by pass 12 Test12= 8.96D-12 3.33D-08 XBig12= 3.07D+00 3.85D-01.
      3 vectors produced by pass 13 Test12= 8.96D-12 3.33D-08 XBig12= 1.09D+00 1.33D-01.
      3 vectors produced by pass 14 Test12= 8.96D-12 3.33D-08 XBig12= 3.59D-01 7.67D-02.
      3 vectors produced by pass 15 Test12= 8.96D-12 3.33D-08 XBig12= 1.22D-01 5.81D-02.
      3 vectors produced by pass 16 Test12= 8.96D-12 3.33D-08 XBig12= 5.20D-02 4.61D-02.
      3 vectors produced by pass 17 Test12= 8.96D-12 3.33D-08 XBig12= 2.39D-02 2.85D-02.
      3 vectors produced by pass 18 Test12= 8.96D-12 3.33D-08 XBig12= 5.32D-03 1.97D-02.
      3 vectors produced by pass 19 Test12= 8.96D-12 3.33D-08 XBig12= 1.04D-03 7.31D-03.
      3 vectors produced by pass 20 Test12= 8.96D-12 3.33D-08 XBig12= 4.05D-04 4.43D-03.
      3 vectors produced by pass 21 Test12= 8.96D-12 3.33D-08 XBig12= 8.77D-05 1.92D-03.
      3 vectors produced by pass 22 Test12= 8.96D-12 3.33D-08 XBig12= 3.07D-05 1.72D-03.
      3 vectors produced by pass 23 Test12= 8.96D-12 3.33D-08 XBig12= 7.49D-06 7.75D-04.
      3 vectors produced by pass 24 Test12= 8.96D-12 3.33D-08 XBig12= 1.67D-06 3.18D-04.
      3 vectors produced by pass 25 Test12= 8.96D-12 3.33D-08 XBig12= 3.41D-07 1.09D-04.
      3 vectors produced by pass 26 Test12= 8.96D-12 3.33D-08 XBig12= 7.57D-08 4.07D-05.
      3 vectors produced by pass 27 Test12= 8.96D-12 3.33D-08 XBig12= 1.74D-08 2.67D-05.
      3 vectors produced by pass 28 Test12= 8.96D-12 3.33D-08 XBig12= 3.23D-09 1.20D-05.
      3 vectors produced by pass 29 Test12= 8.96D-12 3.33D-08 XBig12= 6.52D-10 6.18D-06.
      3 vectors produced by pass 30 Test12= 8.96D-12 3.33D-08 XBig12= 1.36D-10 2.48D-06.
      2 vectors produced by pass 31 Test12= 8.96D-12 3.33D-08 XBig12= 2.49D-11 8.83D-07.
      2 vectors produced by pass 32 Test12= 8.96D-12 3.33D-08 XBig12= 5.26D-12 3.90D-07.
      2 vectors produced by pass 33 Test12= 8.96D-12 3.33D-08 XBig12= 1.03D-12 1.79D-07.
      1 vectors produced by pass 34 Test12= 8.96D-12 3.33D-08 XBig12= 1.03D-13 6.17D-08.
 InvSVY:  IOpt=1 It=  1 EMax= 1.42D-14
 Solved reduced A of dimension   100 with     3 vectors.
 Isotropic polarizability for W=    0.000000      613.35 Bohr**3.
 End of Minotr F.D. properties file   721 does not exist.
 End of Minotr F.D. properties file   722 does not exist.
 End of Minotr F.D. properties file   788 does not exist.

 **********************************************************************

            Population analysis using the SCF Density.

 **********************************************************************

 Orbital symmetries:
       Occupied  (A) (A) (A) (A) (A) (A) (A) (A) (A) (A) (A) (A)
                 (A) (A) (A) (A) (A) (A) (A) (A) (A) (A) (A) (A)
                 (A) (A) (A) (A) (A) (A) (A) (A) (A) (A) (A) (A)
                 (A) (A) (A) (A) (A) (A) (A) (A) (A) (A) (A) (A)
                 (A) (A) (A) (A) (A) (A) (A) (A) (A) (A) (A) (A)
                 (A) (A) (A) (A) (A) (A) (A) (A) (A) (A) (A) (A)
                 (A) (A) (A) (A) (A) (A) (A) (A) (A) (A) (A) (A)
                 (A) (A) (A) (A) (A) (A) (A) (A) (A) (A) (A) (A)
                 (A) (A) (A) (A) (A) (A) (A) (A) (A) (A) (A) (A)
                 (A) (A) (A) (A) (A) (A) (A) (A) (A) (A) (A) (A)
                 (A) (A) (A) (A) (A) (A) (A) (A) (A) (A) (A) (A)
                 (A) (A) (A) (A) (A) (A) (A) (A) (A) (A) (A) (A)
                 (A) (A) (A) (A) (A) (A) (A) (A) (A) (A) (A) (A)
                 (A) (A) (A) (A) (A) (A) (A) (A) (A) (A) (A) (A)
                 (A) (A) (A) (A) (A) (A) (A)
       Virtual   (A) (A) (A) (A) (A) (A) (A) (A) (A) (A) (A) (A)
                 (A) (A) (A) (A) (A) (A) (A) (A) (A) (A) (A) (A)
                 (A) (A) (A) (A) (A) (A) (A) (A) (A) (A) (A) (A)
                 (A) (A) (A) (A) (A) (A) (A) (A) (A) (A) (A) (A)
                 (A) (A) (A) (A) (A) (A) (A) (A) (A) (A) (A) (A)
                 (A) (A) (A) (A) (A) (A) (A) (A) (A) (A) (A) (A)
                 (A) (A) (A) (A) (A) (A) (A) (A) (A) (A) (A) (A)
                 (A) (A) (A) (A) (A) (A) (A) (A) (A) (A) (A) (A)
                 (A) (A) (A) (A) (A) (A) (A) (A) (A) (A) (A) (A)
                 (A) (A) (A) (A) (A) (A) (A) (A) (A) (A) (A) (A)
                 (A) (A) (A) (A) (A) (A) (A) (A) (A) (A) (A) (A)
                 (A) (A) (A) (A) (A) (A) (A) (A) (A) (A) (A) (A)
                 (A) (A) (A) (A) (A) (A) (A) (A) (A) (A) (A) (A)
                 (A) (A) (A) (A) (A) (A) (A) (A) (A) (A) (A) (A)
                 (A) (A) (A) (A) (A) (A) (A) (A) (A) (A) (A) (A)
                 (A) (A) (A) (A) (A) (A) (A) (A) (A) (A) (A) (A)
                 (A) (A) (A) (A) (A) (A) (A) (A) (A) (A) (A) (A)
                 (A) (A) (A) (A) (A) (A) (A) (A) (A) (A) (A) (A)
                 (A) (A) (A) (A) (A) (A) (A) (A) (A) (A) (A) (A)
                 (A) (A) (A) (A) (A) (A) (A) (A) (A) (A) (A) (A)
                 (A) (A) (A) (A) (A) (A) (A) (A) (A) (A) (A) (A)
                 (A) (A) (A) (A) (A) (A) (A) (A) (A) (A) (A) (A)
                 (A) (A) (A) (A) (A) (A) (A) (A) (A) (A) (A) (A)
                 (A) (A) (A) (A) (A) (A) (A) (A) (A) (A) (A) (A)
                 (A) (A) (A) (A) (A) (A) (A) (A) (A) (A) (A) (A)
                 (A) (A) (A) (A) (A) (A) (A) (A) (A) (A) (A) (A)
                 (A) (A) (A) (A) (A) (A) (A) (A) (A) (A) (A) (A)
                 (A) (A) (A) (A) (A) (A) (A) (A) (A) (A) (A) (A)
                 (A) (A) (A) (A) (A) (A) (A) (A) (A) (A) (A) (A)
                 (A) (A) (A) (A) (A) (A) (A) (A) (A) (A) (A) (A)
                 (A) (A) (A) (A) (A) (A) (A) (A) (A) (A) (A) (A)
                 (A) (A) (A) (A) (A) (A) (A) (A) (A) (A) (A) (A)
                 (A) (A) (A) (A) (A) (A) (A) (A) (A) (A) (A) (A)
                 (A) (A) (A) (A) (A) (A) (A) (A) (A) (A) (A) (A)
                 (A) (A) (A) (A) (A) (A) (A) (A) (A) (A) (A) (A)
                 (A) (A) (A) (A) (A) (A) (A) (A) (A) (A) (A) (A)
                 (A) (A) (A) (A) (A) (A) (A) (A) (A) (A) (A) (A)
                 (A) (A) (A) (A) (A) (A) (A) (A) (A) (A) (A) (A)
                 (A) (A) (A) (A) (A) (A) (A) (A) (A) (A) (A) (A)
                 (A) (A) (A) (A) (A) (A) (A) (A) (A) (A) (A) (A)
                 (A) (A) (A) (A) (A) (A) (A) (A) (A) (A) (A) (A)
                 (A) (A) (A) (A) (A) (A) (A) (A) (A) (A) (A) (A)
                 (A) (A) (A) (A) (A) (A) (A) (A) (A) (A) (A) (A)
                 (A) (A) (A) (A) (A) (A) (A) (A) (A) (A) (A) (A)
                 (A) (A) (A) (A) (A) (A) (A) (A) (A) (A) (A) (A)
                 (A) (A) (A) (A) (A) (A) (A) (A) (A) (A) (A) (A)
                 (A) (A) (A) (A) (A) (A) (A) (A) (A) (A) (A) (A)
                 (A) (A) (A) (A) (A) (A) (A) (A) (A) (A) (A) (A)
                 (A) (A) (A) (A) (A) (A) (A) (A) (A) (A) (A) (A)
                 (A) (A) (A) (A) (A) (A) (A) (A) (A) (A) (A) (A)
                 (A) (A) (A) (A) (A) (A) (A) (A) (A) (A) (A) (A)
                 (A) (A) (A) (A) (A) (A) (A) (A) (A) (A) (A) (A)
                 (A) (A) (A) (A) (A) (A) (A) (A) (A) (A) (A) (A)
                 (A) (A) (A) (A) (A) (A) (A) (A) (A) (A) (A) (A)
                 (A) (A) (A) (A) (A) (A) (A) (A) (A) (A) (A) (A)
                 (A) (A) (A) (A) (A) (A) (A) (A) (A) (A) (A) (A)
                 (A) (A) (A) (A) (A) (A) (A) (A) (A) (A) (A) (A)
                 (A) (A) (A) (A) (A) (A) (A) (A) (A) (A) (A) (A)
                 (A) (A) (A) (A) (A) (A) (A) (A) (A) (A) (A) (A)
                 (A) (A) (A) (A) (A) (A) (A) (A) (A) (A) (A) (A)
                 (A) (A) (A) (A) (A) (A) (A) (A) (A) (A) (A) (A)
                 (A) (A) (A) (A) (A) (A) (A) (A) (A) (A) (A) (A)
                 (A) (A) (A) (A) (A) (A) (A) (A) (A) (A) (A) (A)
                 (A) (A) (A) (A) (A) (A) (A) (A) (A) (A) (A) (A)
                 (A) (A) (A) (A) (A) (A) (A) (A) (A) (A) (A) (A)
                 (A) (A) (A) (A) (A) (A) (A) (A) (A) (A) (A) (A)
                 (A) (A) (A) (A) (A) (A) (A) (A) (A) (A) (A) (A)
                 (A) (A) (A) (A) (A) (A) (A) (A) (A) (A) (A) (A)
                 (A) (A) (A) (A) (A) (A) (A) (A) (A) (A) (A) (A)
                 (A) (A) (A) (A) (A) (A) (A) (A) (A) (A) (A) (A)
                 (A) (A) (A) (A) (A) (A) (A) (A) (A) (A) (A) (A)
                 (A) (A) (A) (A) (A) (A) (A) (A) (A) (A) (A) (A)
                 (A) (A) (A) (A) (A) (A) (A) (A) (A) (A) (A) (A)
                 (A) (A) (A) (A) (A) (A) (A) (A) (A) (A) (A) (A)
                 (A) (A) (A) (A) (A) (A) (A) (A) (A) (A) (A) (A)
                 (A) (A) (A) (A) (A) (A) (A) (A) (A) (A) (A) (A)
                 (A) (A) (A) (A) (A) (A) (A) (A) (A) (A) (A) (A)
                 (A) (A) (A) (A) (A) (A) (A) (A) (A) (A) (A) (A)
                 (A) (A) (A) (A) (A) (A) (A) (A) (A) (A) (A) (A)
                 (A) (A) (A) (A) (A) (A) (A) (A) (A) (A) (A) (A)
                 (A) (A) (A) (A) (A) (A) (A) (A) (A) (A) (A) (A)
                 (A) (A) (A) (A) (A) (A) (A) (A) (A) (A) (A) (A)
                 (A) (A) (A) (A) (A) (A) (A) (A) (A) (A) (A) (A)
                 (A) (A) (A) (A) (A) (A) (A) (A) (A) (A) (A) (A)
                 (A) (A) (A) (A) (A) (A) (A) (A) (A) (A) (A) (A)
                 (A) (A) (A) (A) (A) (A) (A) (A) (A) (A) (A) (A)
                 (A) (A) (A) (A) (A) (A) (A) (A) (A) (A) (A) (A)
                 (A) (A) (A) (A) (A) (A) (A) (A) (A) (A) (A) (A)
                 (A) (A) (A) (A) (A) (A) (A) (A) (A) (A) (A) (A)
                 (A) (A) (A) (A) (A) (A) (A) (A) (A) (A) (A) (A)
                 (A) (A) (A) (A) (A) (A) (A) (A) (A) (A) (A) (A)
                 (A) (A) (A) (A) (A) (A) (A) (A) (A) (A) (A) (A)
                 (A) (A) (A) (A) (A) (A) (A) (A) (A) (A) (A) (A)
                 (A) (A) (A) (A) (A) (A) (A) (A) (A) (A) (A) (A)
                 (A) (A) (A) (A) (A) (A) (A) (A) (A) (A) (A) (A)
                 (A) (A) (A) (A) (A) (A) (A) (A) (A) (A) (A) (A)
                 (A) (A) (A) (A) (A) (A) (A) (A) (A) (A) (A) (A)
                 (A) (A) (A) (A) (A) (A) (A) (A) (A) (A) (A) (A)
                 (A) (A) (A) (A) (A) (A) (A) (A) (A) (A) (A) (A)
                 (A) (A) (A) (A) (A) (A) (A) (A) (A) (A) (A) (A)
                 (A) (A) (A) (A) (A) (A) (A) (A) (A) (A) (A) (A)
                 (A) (A) (A) (A) (A) (A) (A) (A) (A) (A) (A) (A)
                 (A) (A) (A) (A) (A) (A) (A) (A) (A) (A) (A) (A)
                 (A) (A) (A) (A) (A) (A) (A) (A) (A) (A) (A) (A)
                 (A) (A) (A) (A) (A) (A) (A) (A) (A) (A) (A) (A)
                 (A) (A) (A) (A) (A) (A) (A) (A) (A) (A) (A) (A)
                 (A) (A) (A) (A) (A) (A) (A) (A) (A) (A) (A) (A)
                 (A) (A) (A) (A) (A) (A) (A) (A) (A) (A) (A) (A)
                 (A) (A) (A) (A) (A) (A) (A) (A) (A) (A) (A) (A)
                 (A) (A) (A) (A) (A) (A) (A) (A) (A) (A) (A) (A)
                 (A) (A) (A) (A) (A) (A) (A) (A) (A) (A) (A) (A)
                 (A) (A) (A) (A) (A) (A) (A) (A) (A) (A) (A) (A)
                 (A) (A) (A) (A) (A) (A) (A) (A) (A) (A) (A) (A)
                 (A) (A) (A) (A) (A) (A) (A) (A) (A) (A) (A) (A)
                 (A) (A) (A) (A) (A) (A) (A) (A) (A) (A) (A) (A)
                 (A) (A) (A) (A) (A) (A) (A) (A) (A) (A) (A) (A)
                 (A) (A) (A) (A) (A) (A) (A) (A) (A) (A) (A) (A)
                 (A) (A) (A) (A) (A) (A) (A) (A) (A) (A) (A) (A)
                 (A) (A) (A) (A) (A) (A) (A) (A) (A) (A) (A) (A)
                 (A) (A) (A) (A) (A) (A) (A) (A) (A) (A) (A) (A)
                 (A) (A) (A) (A) (A) (A) (A) (A) (A) (A) (A) (A)
                 (A) (A) (A) (A) (A) (A) (A) (A) (A) (A) (A) (A)
                 (A) (A) (A) (A) (A) (A) (A) (A) (A) (A) (A) (A)
                 (A) (A) (A) (A) (A) (A) (A) (A) (A) (A) (A) (A)
                 (A) (A) (A) (A) (A) (A) (A) (A) (A) (A) (A) (A)
                 (A) (A) (A) (A) (A) (A) (A) (A) (A) (A) (A) (A)
                 (A) (A) (A) (A) (A) (A) (A) (A) (A) (A) (A) (A)
                 (A) (A) (A) (A) (A) (A) (A) (A) (A) (A) (A) (A)
 The electronic state is 1-A.
 Alpha  occ. eigenvalues -- -256.16463 -30.01641 -25.85763 -25.85401 -25.85378
 Alpha  occ. eigenvalues --  -14.40803 -14.40762 -14.35043 -14.34983 -14.32406
 Alpha  occ. eigenvalues --  -14.32326 -14.32243 -14.32132 -10.24420 -10.24330
 Alpha  occ. eigenvalues --  -10.22815 -10.22768 -10.20462 -10.20440 -10.20318
 Alpha  occ. eigenvalues --  -10.20125 -10.20091 -10.20021 -10.19980 -10.19913
 Alpha  occ. eigenvalues --  -10.19871 -10.19854 -10.19839 -10.19788 -10.19197
 Alpha  occ. eigenvalues --  -10.19160 -10.18326 -10.18322 -10.18181 -10.18178
 Alpha  occ. eigenvalues --  -10.18162 -10.18133 -10.18063 -10.18008 -10.17933
 Alpha  occ. eigenvalues --  -10.17877 -10.17845 -10.17839 -10.17835 -10.17800
 Alpha  occ. eigenvalues --  -10.17759 -10.17711 -10.17688 -10.17667 -10.17465
 Alpha  occ. eigenvalues --  -10.17379  -3.38996  -2.15498  -2.14877  -2.14870
 Alpha  occ. eigenvalues --   -1.04362  -1.04311  -0.96118  -0.95180  -0.95118
 Alpha  occ. eigenvalues --   -0.94183  -0.89924  -0.89826  -0.81528  -0.81192
 Alpha  occ. eigenvalues --   -0.80849  -0.80020  -0.79720  -0.79433  -0.79398
 Alpha  occ. eigenvalues --   -0.78922  -0.78749  -0.76287  -0.75158  -0.73691
 Alpha  occ. eigenvalues --   -0.73168  -0.72557  -0.71013  -0.70976  -0.70168
 Alpha  occ. eigenvalues --   -0.69392  -0.67604  -0.67260  -0.67158  -0.63705
 Alpha  occ. eigenvalues --   -0.63566  -0.63509  -0.63236  -0.60391  -0.60357
 Alpha  occ. eigenvalues --   -0.59960  -0.59704  -0.56872  -0.55874  -0.55105
 Alpha  occ. eigenvalues --   -0.55013  -0.53719  -0.53427  -0.52696  -0.51440
 Alpha  occ. eigenvalues --   -0.50530  -0.50012  -0.49684  -0.47813  -0.47369
 Alpha  occ. eigenvalues --   -0.47100  -0.46819  -0.46714  -0.46654  -0.46467
 Alpha  occ. eigenvalues --   -0.45424  -0.44223  -0.43986  -0.43769  -0.43672
 Alpha  occ. eigenvalues --   -0.42982  -0.42821  -0.42729  -0.42536  -0.42457
 Alpha  occ. eigenvalues --   -0.42316  -0.42229  -0.41826  -0.41752  -0.41739
 Alpha  occ. eigenvalues --   -0.41673  -0.41391  -0.41029  -0.40983  -0.40940
 Alpha  occ. eigenvalues --   -0.40907  -0.40801  -0.39684  -0.39649  -0.39272
 Alpha  occ. eigenvalues --   -0.38975  -0.38901  -0.38459  -0.38129  -0.37988
 Alpha  occ. eigenvalues --   -0.37653  -0.37234  -0.37064  -0.36490  -0.36301
 Alpha  occ. eigenvalues --   -0.35993  -0.35802  -0.35168  -0.34636  -0.33874
 Alpha  occ. eigenvalues --   -0.33576  -0.33066  -0.32580  -0.32369  -0.31067
 Alpha  occ. eigenvalues --   -0.30893  -0.30821  -0.30145  -0.29303  -0.28930
 Alpha  occ. eigenvalues --   -0.27987  -0.27366  -0.26092  -0.25848  -0.23612
 Alpha  occ. eigenvalues --   -0.23074  -0.23000  -0.22352  -0.21772  -0.21238
 Alpha  occ. eigenvalues --   -0.18133  -0.17432  -0.17183  -0.16767  -0.16432
 Alpha virt. eigenvalues --   -0.05865  -0.05566  -0.01281   0.00991   0.02152
 Alpha virt. eigenvalues --    0.02459   0.02572   0.02763   0.03493   0.04567
 Alpha virt. eigenvalues --    0.04801   0.05311   0.05488   0.06131   0.06264
 Alpha virt. eigenvalues --    0.06436   0.06478   0.06741   0.06935   0.07342
 Alpha virt. eigenvalues --    0.07594   0.08202   0.08438   0.08604   0.08910
 Alpha virt. eigenvalues --    0.09199   0.09693   0.09868   0.10124   0.10686
 Alpha virt. eigenvalues --    0.10730   0.11167   0.11395   0.11621   0.11673
 Alpha virt. eigenvalues --    0.11933   0.12340   0.12456   0.12680   0.12964
 Alpha virt. eigenvalues --    0.12987   0.13209   0.13421   0.13484   0.13801
 Alpha virt. eigenvalues --    0.14129   0.14338   0.14720   0.14924   0.14975
 Alpha virt. eigenvalues --    0.15175   0.15344   0.15466   0.15748   0.15817
 Alpha virt. eigenvalues --    0.15956   0.16211   0.16318   0.16379   0.16760
 Alpha virt. eigenvalues --    0.16930   0.17147   0.17415   0.17575   0.17812
 Alpha virt. eigenvalues --    0.18006   0.18076   0.18582   0.18849   0.19117
 Alpha virt. eigenvalues --    0.19428   0.19647   0.20133   0.20420   0.20643
 Alpha virt. eigenvalues --    0.20690   0.20942   0.21362   0.21425   0.21547
 Alpha virt. eigenvalues --    0.21961   0.22202   0.22416   0.22545   0.22914
 Alpha virt. eigenvalues --    0.23017   0.23217   0.23660   0.23893   0.24385
 Alpha virt. eigenvalues --    0.24534   0.24549   0.25134   0.25673   0.25779
 Alpha virt. eigenvalues --    0.26051   0.26179   0.26204   0.26507   0.27119
 Alpha virt. eigenvalues --    0.27218   0.27550   0.27785   0.27868   0.28435
 Alpha virt. eigenvalues --    0.28578   0.28790   0.28826   0.29278   0.29446
 Alpha virt. eigenvalues --    0.29885   0.29972   0.30099   0.30408   0.30489
 Alpha virt. eigenvalues --    0.30811   0.30918   0.31479   0.31793   0.31992
 Alpha virt. eigenvalues --    0.32269   0.32637   0.32886   0.32966   0.33136
 Alpha virt. eigenvalues --    0.33263   0.33593   0.33687   0.34214   0.34255
 Alpha virt. eigenvalues --    0.34403   0.34706   0.35173   0.35684   0.35764
 Alpha virt. eigenvalues --    0.35990   0.36337   0.36506   0.36721   0.36853
 Alpha virt. eigenvalues --    0.37497   0.37590   0.37813   0.37909   0.38298
 Alpha virt. eigenvalues --    0.38553   0.38690   0.38874   0.39047   0.39361
 Alpha virt. eigenvalues --    0.39447   0.39994   0.40192   0.40289   0.40402
 Alpha virt. eigenvalues --    0.40807   0.40967   0.41110   0.41188   0.41468
 Alpha virt. eigenvalues --    0.41661   0.41824   0.41997   0.42243   0.42412
 Alpha virt. eigenvalues --    0.42591   0.42978   0.43172   0.43259   0.43520
 Alpha virt. eigenvalues --    0.43692   0.43780   0.44006   0.44194   0.44323
 Alpha virt. eigenvalues --    0.44512   0.44570   0.44840   0.44986   0.45074
 Alpha virt. eigenvalues --    0.45252   0.45473   0.45672   0.45791   0.46035
 Alpha virt. eigenvalues --    0.46345   0.46554   0.46775   0.46972   0.47097
 Alpha virt. eigenvalues --    0.47322   0.47433   0.47699   0.47855   0.47954
 Alpha virt. eigenvalues --    0.48081   0.48335   0.48429   0.48637   0.48718
 Alpha virt. eigenvalues --    0.49082   0.49254   0.49354   0.49592   0.49698
 Alpha virt. eigenvalues --    0.49899   0.49983   0.50267   0.50397   0.50642
 Alpha virt. eigenvalues --    0.50890   0.50997   0.51437   0.51574   0.51782
 Alpha virt. eigenvalues --    0.52072   0.52145   0.52305   0.52638   0.52777
 Alpha virt. eigenvalues --    0.52868   0.53239   0.53521   0.53695   0.54072
 Alpha virt. eigenvalues --    0.54253   0.54575   0.54744   0.54912   0.55101
 Alpha virt. eigenvalues --    0.55481   0.55802   0.56071   0.56346   0.56724
 Alpha virt. eigenvalues --    0.56834   0.57077   0.57192   0.57542   0.57569
 Alpha virt. eigenvalues --    0.57908   0.58013   0.58400   0.58603   0.58755
 Alpha virt. eigenvalues --    0.58841   0.59160   0.59452   0.59840   0.60156
 Alpha virt. eigenvalues --    0.60590   0.60804   0.60965   0.61334   0.61543
 Alpha virt. eigenvalues --    0.61705   0.62207   0.62263   0.62588   0.62937
 Alpha virt. eigenvalues --    0.63184   0.63342   0.63673   0.64168   0.64320
 Alpha virt. eigenvalues --    0.64364   0.64738   0.65251   0.65522   0.65752
 Alpha virt. eigenvalues --    0.65941   0.66152   0.66411   0.66733   0.67143
 Alpha virt. eigenvalues --    0.67477   0.67527   0.67866   0.68228   0.68498
 Alpha virt. eigenvalues --    0.68836   0.69132   0.69265   0.69879   0.70107
 Alpha virt. eigenvalues --    0.70424   0.70714   0.71025   0.71554   0.71925
 Alpha virt. eigenvalues --    0.72248   0.72569   0.72647   0.73119   0.73283
 Alpha virt. eigenvalues --    0.73937   0.74124   0.74631   0.74827   0.74952
 Alpha virt. eigenvalues --    0.75389   0.75907   0.76007   0.76533   0.76723
 Alpha virt. eigenvalues --    0.76829   0.77018   0.77355   0.77556   0.77887
 Alpha virt. eigenvalues --    0.78027   0.78420   0.78613   0.78684   0.79104
 Alpha virt. eigenvalues --    0.79410   0.80070   0.80193   0.80373   0.81090
 Alpha virt. eigenvalues --    0.81251   0.81758   0.82207   0.82561   0.82955
 Alpha virt. eigenvalues --    0.83043   0.83549   0.83722   0.83951   0.84099
 Alpha virt. eigenvalues --    0.84668   0.84971   0.85166   0.85529   0.85813
 Alpha virt. eigenvalues --    0.86319   0.86923   0.87131   0.87275   0.87586
 Alpha virt. eigenvalues --    0.88275   0.88796   0.89070   0.89154   0.89277
 Alpha virt. eigenvalues --    0.89941   0.90316   0.90485   0.90634   0.91355
 Alpha virt. eigenvalues --    0.91617   0.92065   0.92240   0.92639   0.92954
 Alpha virt. eigenvalues --    0.93211   0.93711   0.94143   0.94458   0.94684
 Alpha virt. eigenvalues --    0.94841   0.94991   0.95484   0.95642   0.95870
 Alpha virt. eigenvalues --    0.96265   0.96381   0.96753   0.97137   0.97403
 Alpha virt. eigenvalues --    0.97628   0.98200   0.98442   0.98810   0.98912
 Alpha virt. eigenvalues --    0.99361   0.99427   0.99737   1.00351   1.00588
 Alpha virt. eigenvalues --    1.00600   1.01355   1.01416   1.01493   1.02289
 Alpha virt. eigenvalues --    1.02542   1.02982   1.03262   1.03562   1.03681
 Alpha virt. eigenvalues --    1.04071   1.04164   1.04608   1.04788   1.05183
 Alpha virt. eigenvalues --    1.05435   1.05898   1.06257   1.06478   1.07257
 Alpha virt. eigenvalues --    1.07487   1.07765   1.07963   1.08225   1.08757
 Alpha virt. eigenvalues --    1.08943   1.09283   1.09379   1.09660   1.10100
 Alpha virt. eigenvalues --    1.10280   1.10921   1.11486   1.11688   1.11823
 Alpha virt. eigenvalues --    1.12231   1.12897   1.13162   1.13392   1.13710
 Alpha virt. eigenvalues --    1.14051   1.14288   1.14940   1.15115   1.15803
 Alpha virt. eigenvalues --    1.15924   1.16437   1.16671   1.17066   1.17525
 Alpha virt. eigenvalues --    1.17791   1.18156   1.18350   1.18779   1.19122
 Alpha virt. eigenvalues --    1.19961   1.20088   1.20468   1.20623   1.20880
 Alpha virt. eigenvalues --    1.21369   1.21556   1.21764   1.21915   1.22179
 Alpha virt. eigenvalues --    1.23255   1.23373   1.23920   1.24476   1.24617
 Alpha virt. eigenvalues --    1.24927   1.25343   1.25574   1.26017   1.26081
 Alpha virt. eigenvalues --    1.26674   1.26892   1.27205   1.27689   1.27886
 Alpha virt. eigenvalues --    1.28385   1.28853   1.29124   1.29319   1.29477
 Alpha virt. eigenvalues --    1.29888   1.30133   1.30687   1.31156   1.31508
 Alpha virt. eigenvalues --    1.32084   1.32419   1.32897   1.33090   1.33487
 Alpha virt. eigenvalues --    1.33798   1.34361   1.34903   1.35119   1.35418
 Alpha virt. eigenvalues --    1.35669   1.36297   1.37292   1.37760   1.38180
 Alpha virt. eigenvalues --    1.38633   1.39208   1.39428   1.39742   1.40439
 Alpha virt. eigenvalues --    1.40847   1.41194   1.41266   1.41945   1.42026
 Alpha virt. eigenvalues --    1.42700   1.42981   1.43291   1.43720   1.44405
 Alpha virt. eigenvalues --    1.44649   1.44977   1.45800   1.46220   1.46907
 Alpha virt. eigenvalues --    1.46967   1.47438   1.47740   1.48001   1.48337
 Alpha virt. eigenvalues --    1.48632   1.48828   1.49362   1.49409   1.49992
 Alpha virt. eigenvalues --    1.50176   1.50652   1.50874   1.51423   1.51579
 Alpha virt. eigenvalues --    1.51971   1.52297   1.52555   1.52682   1.52696
 Alpha virt. eigenvalues --    1.53031   1.53257   1.53575   1.53835   1.53926
 Alpha virt. eigenvalues --    1.54098   1.54270   1.54687   1.54970   1.55001
 Alpha virt. eigenvalues --    1.55299   1.55621   1.55795   1.56098   1.56171
 Alpha virt. eigenvalues --    1.56291   1.56605   1.56841   1.57234   1.57398
 Alpha virt. eigenvalues --    1.57453   1.57652   1.58114   1.58200   1.58551
 Alpha virt. eigenvalues --    1.58726   1.59398   1.59536   1.59626   1.59938
 Alpha virt. eigenvalues --    1.59984   1.60520   1.61090   1.61454   1.61552
 Alpha virt. eigenvalues --    1.61856   1.61906   1.62085   1.62659   1.62731
 Alpha virt. eigenvalues --    1.63083   1.63319   1.63944   1.64201   1.64312
 Alpha virt. eigenvalues --    1.64503   1.64853   1.65008   1.65255   1.65497
 Alpha virt. eigenvalues --    1.65929   1.66132   1.66353   1.66551   1.66936
 Alpha virt. eigenvalues --    1.67226   1.67315   1.68190   1.68512   1.69095
 Alpha virt. eigenvalues --    1.69235   1.69475   1.69794   1.70132   1.70411
 Alpha virt. eigenvalues --    1.70951   1.71184   1.71410   1.71705   1.71921
 Alpha virt. eigenvalues --    1.72091   1.72458   1.72916   1.73122   1.73248
 Alpha virt. eigenvalues --    1.73448   1.74205   1.74406   1.74676   1.75086
 Alpha virt. eigenvalues --    1.75384   1.76183   1.76186   1.76747   1.77940
 Alpha virt. eigenvalues --    1.78301   1.78534   1.78735   1.79481   1.80043
 Alpha virt. eigenvalues --    1.80618   1.81112   1.81555   1.82329   1.82443
 Alpha virt. eigenvalues --    1.83125   1.84098   1.84197   1.84990   1.85164
 Alpha virt. eigenvalues --    1.85836   1.86159   1.86496   1.86735   1.86858
 Alpha virt. eigenvalues --    1.87015   1.87381   1.88161   1.88676   1.88982
 Alpha virt. eigenvalues --    1.89121   1.89533   1.89748   1.89788   1.90323
 Alpha virt. eigenvalues --    1.90829   1.91342   1.91554   1.92280   1.93109
 Alpha virt. eigenvalues --    1.93599   1.94029   1.94459   1.95261   1.95422
 Alpha virt. eigenvalues --    1.96024   1.96243   1.96834   1.96993   1.97425
 Alpha virt. eigenvalues --    1.97865   1.98204   1.98604   1.98782   1.98991
 Alpha virt. eigenvalues --    1.99229   1.99682   2.00438   2.00627   2.01040
 Alpha virt. eigenvalues --    2.01248   2.01822   2.02275   2.02567   2.02630
 Alpha virt. eigenvalues --    2.03340   2.03663   2.03931   2.04090   2.04847
 Alpha virt. eigenvalues --    2.05007   2.05567   2.05930   2.06168   2.06983
 Alpha virt. eigenvalues --    2.07546   2.08318   2.08509   2.08776   2.09187
 Alpha virt. eigenvalues --    2.09646   2.10359   2.10547   2.11039   2.11202
 Alpha virt. eigenvalues --    2.11692   2.12233   2.12446   2.12568   2.12681
 Alpha virt. eigenvalues --    2.13363   2.14226   2.14469   2.14639   2.15003
 Alpha virt. eigenvalues --    2.15456   2.15681   2.15786   2.17014   2.17350
 Alpha virt. eigenvalues --    2.17777   2.18061   2.18517   2.18650   2.19272
 Alpha virt. eigenvalues --    2.19989   2.20483   2.20673   2.21180   2.21367
 Alpha virt. eigenvalues --    2.21719   2.21954   2.22654   2.23009   2.23470
 Alpha virt. eigenvalues --    2.23602   2.24164   2.24429   2.24506   2.25121
 Alpha virt. eigenvalues --    2.26367   2.27034   2.27251   2.27624   2.28208
 Alpha virt. eigenvalues --    2.28463   2.28823   2.29265   2.29437   2.29589
 Alpha virt. eigenvalues --    2.30346   2.30775   2.31015   2.31324   2.31815
 Alpha virt. eigenvalues --    2.32094   2.32392   2.33038   2.33267   2.33506
 Alpha virt. eigenvalues --    2.33937   2.34354   2.34429   2.34991   2.35359
 Alpha virt. eigenvalues --    2.35848   2.36015   2.36463   2.36661   2.36983
 Alpha virt. eigenvalues --    2.37055   2.37574   2.37633   2.38015   2.38504
 Alpha virt. eigenvalues --    2.38898   2.39484   2.39523   2.39740   2.40088
 Alpha virt. eigenvalues --    2.40697   2.41115   2.41872   2.41953   2.42036
 Alpha virt. eigenvalues --    2.42658   2.43127   2.43277   2.44052   2.44599
 Alpha virt. eigenvalues --    2.45323   2.45462   2.46004   2.46168   2.46868
 Alpha virt. eigenvalues --    2.46980   2.47837   2.48040   2.48201   2.48753
 Alpha virt. eigenvalues --    2.49352   2.49440   2.50011   2.50125   2.51114
 Alpha virt. eigenvalues --    2.51310   2.51641   2.51985   2.52408   2.52575
 Alpha virt. eigenvalues --    2.52831   2.53171   2.53397   2.53823   2.53984
 Alpha virt. eigenvalues --    2.54295   2.54538   2.54570   2.55338   2.55856
 Alpha virt. eigenvalues --    2.56358   2.56717   2.57009   2.57084   2.57424
 Alpha virt. eigenvalues --    2.57492   2.57724   2.58506   2.59120   2.59418
 Alpha virt. eigenvalues --    2.59485   2.59890   2.60076   2.60666   2.61018
 Alpha virt. eigenvalues --    2.61280   2.61699   2.62034   2.62232   2.62579
 Alpha virt. eigenvalues --    2.63306   2.63736   2.64135   2.64421   2.65271
 Alpha virt. eigenvalues --    2.65566   2.65793   2.66648   2.67073   2.67095
 Alpha virt. eigenvalues --    2.67611   2.67776   2.67900   2.68409   2.68702
 Alpha virt. eigenvalues --    2.69144   2.69941   2.70140   2.70435   2.70858
 Alpha virt. eigenvalues --    2.70883   2.71484   2.71582   2.72097   2.72600
 Alpha virt. eigenvalues --    2.72983   2.73092   2.73641   2.73832   2.74153
 Alpha virt. eigenvalues --    2.74780   2.75407   2.75948   2.76275   2.76634
 Alpha virt. eigenvalues --    2.77018   2.77081   2.77563   2.77729   2.78421
 Alpha virt. eigenvalues --    2.78839   2.79301   2.79771   2.80368   2.80875
 Alpha virt. eigenvalues --    2.81062   2.81324   2.81958   2.82364   2.82770
 Alpha virt. eigenvalues --    2.82815   2.83176   2.83687   2.83948   2.84735
 Alpha virt. eigenvalues --    2.84865   2.85433   2.85608   2.86041   2.86222
 Alpha virt. eigenvalues --    2.86785   2.87240   2.87693   2.87848   2.88135
 Alpha virt. eigenvalues --    2.88473   2.89047   2.89404   2.89667   2.89832
 Alpha virt. eigenvalues --    2.90131   2.90607   2.90760   2.91144   2.91418
 Alpha virt. eigenvalues --    2.91557   2.92043   2.92453   2.92902   2.93085
 Alpha virt. eigenvalues --    2.93484   2.93699   2.93885   2.94244   2.94642
 Alpha virt. eigenvalues --    2.95078   2.95524   2.95732   2.95858   2.96339
 Alpha virt. eigenvalues --    2.96599   2.96727   2.97342   2.97575   2.97930
 Alpha virt. eigenvalues --    2.98087   2.98416   2.98602   2.98946   2.99300
 Alpha virt. eigenvalues --    2.99955   3.00261   3.00426   3.00460   3.01302
 Alpha virt. eigenvalues --    3.01900   3.02202   3.02264   3.02901   3.03035
 Alpha virt. eigenvalues --    3.03144   3.03524   3.03637   3.03976   3.04499
 Alpha virt. eigenvalues --    3.04887   3.05200   3.05679   3.05800   3.06039
 Alpha virt. eigenvalues --    3.06485   3.06839   3.07106   3.07289   3.07463
 Alpha virt. eigenvalues --    3.07685   3.08172   3.08622   3.08702   3.09121
 Alpha virt. eigenvalues --    3.09171   3.09891   3.10157   3.10375   3.10791
 Alpha virt. eigenvalues --    3.11011   3.11334   3.11666   3.11824   3.12125
 Alpha virt. eigenvalues --    3.12368   3.12644   3.12857   3.13274   3.13570
 Alpha virt. eigenvalues --    3.13757   3.14093   3.14305   3.14448   3.14724
 Alpha virt. eigenvalues --    3.15002   3.15629   3.15861   3.16108   3.16391
 Alpha virt. eigenvalues --    3.16918   3.17424   3.17509   3.17666   3.18034
 Alpha virt. eigenvalues --    3.18111   3.18446   3.18520   3.18835   3.18935
 Alpha virt. eigenvalues --    3.19150   3.19718   3.20056   3.20449   3.20870
 Alpha virt. eigenvalues --    3.20954   3.21235   3.21783   3.22048   3.22221
 Alpha virt. eigenvalues --    3.22744   3.22932   3.23727   3.23839   3.24320
 Alpha virt. eigenvalues --    3.24533   3.24781   3.24987   3.25188   3.25467
 Alpha virt. eigenvalues --    3.25765   3.26155   3.26348   3.26581   3.26745
 Alpha virt. eigenvalues --    3.26888   3.27108   3.27306   3.27527   3.27773
 Alpha virt. eigenvalues --    3.28389   3.28578   3.28762   3.28830   3.29099
 Alpha virt. eigenvalues --    3.29920   3.30063   3.30186   3.30477   3.30615
 Alpha virt. eigenvalues --    3.30798   3.31063   3.31195   3.31520   3.31615
 Alpha virt. eigenvalues --    3.31959   3.32103   3.32307   3.32363   3.32755
 Alpha virt. eigenvalues --    3.33071   3.33230   3.33527   3.33722   3.34214
 Alpha virt. eigenvalues --    3.34524   3.34783   3.34959   3.35014   3.35428
 Alpha virt. eigenvalues --    3.35677   3.35954   3.36412   3.36576   3.36848
 Alpha virt. eigenvalues --    3.37357   3.37540   3.37702   3.38008   3.38091
 Alpha virt. eigenvalues --    3.38393   3.38625   3.39130   3.39402   3.39514
 Alpha virt. eigenvalues --    3.39940   3.40052   3.40275   3.40593   3.40758
 Alpha virt. eigenvalues --    3.41359   3.41611   3.42026   3.42179   3.42363
 Alpha virt. eigenvalues --    3.42590   3.43547   3.43657   3.43902   3.44169
 Alpha virt. eigenvalues --    3.44546   3.44903   3.45420   3.45691   3.46001
 Alpha virt. eigenvalues --    3.46208   3.46768   3.46851   3.47193   3.47723
 Alpha virt. eigenvalues --    3.48314   3.48464   3.48696   3.49606   3.49968
 Alpha virt. eigenvalues --    3.50345   3.50604   3.51014   3.51758   3.52033
 Alpha virt. eigenvalues --    3.52289   3.52573   3.53022   3.53249   3.54147
 Alpha virt. eigenvalues --    3.54510   3.54602   3.55076   3.55410   3.56186
 Alpha virt. eigenvalues --    3.56456   3.56730   3.57026   3.57135   3.57758
 Alpha virt. eigenvalues --    3.57966   3.58088   3.58460   3.58832   3.58920
 Alpha virt. eigenvalues --    3.59350   3.60060   3.60580   3.60870   3.61169
 Alpha virt. eigenvalues --    3.61964   3.62249   3.62674   3.62920   3.63086
 Alpha virt. eigenvalues --    3.63795   3.64217   3.64521   3.65247   3.65651
 Alpha virt. eigenvalues --    3.66382   3.66813   3.66881   3.67520   3.67669
 Alpha virt. eigenvalues --    3.67949   3.68402   3.68669   3.69717   3.70069
 Alpha virt. eigenvalues --    3.70311   3.70799   3.71125   3.71377   3.71558
 Alpha virt. eigenvalues --    3.71839   3.72005   3.72247   3.72618   3.72731
 Alpha virt. eigenvalues --    3.73064   3.73362   3.73631   3.73870   3.74747
 Alpha virt. eigenvalues --    3.74810   3.75022   3.75391   3.75743   3.76410
 Alpha virt. eigenvalues --    3.76753   3.77197   3.78070   3.78413   3.78733
 Alpha virt. eigenvalues --    3.79200   3.79911   3.81004   3.81196   3.81507
 Alpha virt. eigenvalues --    3.81791   3.82246   3.82753   3.82970   3.83475
 Alpha virt. eigenvalues --    3.84292   3.84456   3.85088   3.85354   3.85567
 Alpha virt. eigenvalues --    3.86812   3.87100   3.88187   3.88539   3.88701
 Alpha virt. eigenvalues --    3.90072   3.90235   3.90813   3.91800   3.91839
 Alpha virt. eigenvalues --    3.91996   3.92594   3.92934   3.93139   3.93845
 Alpha virt. eigenvalues --    3.93993   3.94346   3.94687   3.95573   3.96209
 Alpha virt. eigenvalues --    3.97368   3.97450   3.98185   3.98671   3.99529
 Alpha virt. eigenvalues --    4.00235   4.00526   4.01160   4.01492   4.02567
 Alpha virt. eigenvalues --    4.02863   4.03269   4.03646   4.04465   4.04700
 Alpha virt. eigenvalues --    4.04975   4.05451   4.05872   4.06051   4.06645
 Alpha virt. eigenvalues --    4.07480   4.08186   4.08446   4.08790   4.09505
 Alpha virt. eigenvalues --    4.11416   4.12336   4.13258   4.13897   4.15200
 Alpha virt. eigenvalues --    4.15401   4.15919   4.16643   4.17120   4.17572
 Alpha virt. eigenvalues --    4.18545   4.18990   4.19484   4.19996   4.20499
 Alpha virt. eigenvalues --    4.20984   4.21173   4.21298   4.21664   4.21952
 Alpha virt. eigenvalues --    4.22826   4.22970   4.23133   4.23939   4.24245
 Alpha virt. eigenvalues --    4.24888   4.25137   4.26072   4.26224   4.26769
 Alpha virt. eigenvalues --    4.27326   4.27679   4.28053   4.28930   4.29520
 Alpha virt. eigenvalues --    4.30412   4.30951   4.31513   4.31669   4.31868
 Alpha virt. eigenvalues --    4.32786   4.33334   4.33770   4.34971   4.35315
 Alpha virt. eigenvalues --    4.35657   4.35965   4.36520   4.37407   4.38280
 Alpha virt. eigenvalues --    4.38632   4.39043   4.39393   4.40044   4.40374
 Alpha virt. eigenvalues --    4.40806   4.41240   4.41543   4.42283   4.42557
 Alpha virt. eigenvalues --    4.43012   4.43257   4.43610   4.43665   4.43953
 Alpha virt. eigenvalues --    4.44387   4.44903   4.45312   4.45936   4.46295
 Alpha virt. eigenvalues --    4.46621   4.47378   4.47926   4.48171   4.48693
 Alpha virt. eigenvalues --    4.49333   4.50530   4.50825   4.51311   4.51384
 Alpha virt. eigenvalues --    4.52644   4.53676   4.54827   4.55521   4.56120
 Alpha virt. eigenvalues --    4.56370   4.57363   4.57716   4.58227   4.59161
 Alpha virt. eigenvalues --    4.60084   4.61349   4.62798   4.63966   4.64935
 Alpha virt. eigenvalues --    4.65050   4.65493   4.66161   4.66972   4.67935
 Alpha virt. eigenvalues --    4.69207   4.69980   4.71115   4.71315   4.71613
 Alpha virt. eigenvalues --    4.71933   4.72704   4.73471   4.73724   4.73945
 Alpha virt. eigenvalues --    4.74789   4.75143   4.75553   4.76323   4.76677
 Alpha virt. eigenvalues --    4.77403   4.78173   4.78712   4.78909   4.80829
 Alpha virt. eigenvalues --    4.81549   4.82085   4.83519   4.83891   4.84096
 Alpha virt. eigenvalues --    4.85050   4.85325   4.86222   4.86587   4.87318
 Alpha virt. eigenvalues --    4.87524   4.87623   4.88834   4.88958   4.89481
 Alpha virt. eigenvalues --    4.90406   4.90785   4.92467   4.92874   4.94289
 Alpha virt. eigenvalues --    4.94787   4.95705   4.96811   4.97546   4.98209
 Alpha virt. eigenvalues --    4.98306   4.98626   4.99510   4.99838   5.00547
 Alpha virt. eigenvalues --    5.00961   5.01465   5.03236   5.03374   5.03671
 Alpha virt. eigenvalues --    5.04872   5.05387   5.05581   5.05757   5.07045
 Alpha virt. eigenvalues --    5.07997   5.08367   5.09548   5.10440   5.10916
 Alpha virt. eigenvalues --    5.11262   5.12252   5.12968   5.13322   5.13829
 Alpha virt. eigenvalues --    5.14940   5.15295   5.16910   5.19786   5.20921
 Alpha virt. eigenvalues --    5.21615   5.22505   5.23245   5.23856   5.23912
 Alpha virt. eigenvalues --    5.24556   5.26378   5.27556   5.28024   5.28600
 Alpha virt. eigenvalues --    5.31105   5.31657   5.31823   5.33669   5.34044
 Alpha virt. eigenvalues --    5.35973   5.36553   5.36954   5.39029   5.39642
 Alpha virt. eigenvalues --    5.40221   5.40650   5.41432   5.42585   5.42959
 Alpha virt. eigenvalues --    5.44018   5.45163   5.45761   5.45860   5.46635
 Alpha virt. eigenvalues --    5.48315   5.49103   5.50298   5.51334   5.51955
 Alpha virt. eigenvalues --    5.53328   5.54069   5.54284   5.55549   5.56366
 Alpha virt. eigenvalues --    5.59501   5.61301   5.63721   5.63790   5.64574
 Alpha virt. eigenvalues --    5.65147   5.65622   5.66341   5.66974   5.68507
 Alpha virt. eigenvalues --    5.69119   5.69922   5.70760   5.71822   5.72707
 Alpha virt. eigenvalues --    5.74635   5.77454   5.79101   5.79939   5.85150
 Alpha virt. eigenvalues --    5.85583   5.89216   5.95348   5.95783   5.97382
 Alpha virt. eigenvalues --    6.01456   6.02566   6.03913   6.03981   6.05109
 Alpha virt. eigenvalues --    6.06406   6.09721   6.12154   6.14030   6.16918
 Alpha virt. eigenvalues --    6.17785   6.18563   6.20115   6.21966   6.22782
 Alpha virt. eigenvalues --    6.28488   6.30207   6.36424   6.37547   6.43666
 Alpha virt. eigenvalues --   22.35497  22.37667  22.44557  22.45086  22.46580
 Alpha virt. eigenvalues --   22.47450  22.53988  22.55689  22.62153  22.62772
 Alpha virt. eigenvalues --   22.78645  22.86732  22.88251  22.88670  22.95637
 Alpha virt. eigenvalues --   22.97003  22.97932  22.99900  23.02111  23.05428
 Alpha virt. eigenvalues --   23.06063  23.11600  23.12661  23.16888  23.28832
 Alpha virt. eigenvalues --   23.29516  23.31267  23.32536  23.34115  23.43236
 Alpha virt. eigenvalues --   23.49034  23.52417  23.54003  23.58743  23.74989
 Alpha virt. eigenvalues --   23.79546  23.82805  23.92492  32.41791  32.45430
 Alpha virt. eigenvalues --   32.79691  32.88952  32.94974  33.06427  33.18538
 Alpha virt. eigenvalues --   33.47664
          Condensed to atoms (all electrons):
 Mulliken charges:
               1
     1  Fe  -0.399120
     2  N   -0.003053
     3  N    0.000546
     4  N    0.006467
     5  N    0.002952
     6  C    0.256291
     7  C   -0.060393
     8  C   -0.031618
     9  C    0.248019
    10  C    0.237303
    11  C   -0.077329
    12  C    0.096638
    13  C    0.215668
    14  C    0.273919
    15  C   -0.080340
    16  C    0.077787
    17  C    0.203330
    18  C    0.199622
    19  C   -0.060253
    20  C   -0.021869
    21  C    0.193132
    22  C   -0.443845
    23  H    0.133838
    24  C   -0.648456
    25  H    0.127377
    26  C   -0.498432
    27  H    0.182807
    28  C   -0.610381
    29  H    0.105024
    30  C   -0.412855
    31  H    0.119139
    32  H    0.131397
    33  H    0.132993
    34  C   -0.416927
    35  H    0.132910
    36  H    0.136068
    37  H    0.118293
    38  C   -0.404100
    39  H    0.132169
    40  H    0.134382
    41  H    0.124660
    42  C   -0.263247
    43  H    0.113873
    44  C   -0.307187
    45  H    0.146139
    46  H    0.119609
    47  C   -0.447231
    48  H    0.138122
    49  H    0.127051
    50  H    0.153671
    51  C   -0.219285
    52  H    0.105638
    53  C   -0.290532
    54  H    0.137614
    55  H    0.119226
    56  C   -0.408533
    57  H    0.133968
    58  H    0.129437
    59  H    0.119197
    60  C   -0.420574
    61  H    0.119745
    62  H    0.134993
    63  H    0.133771
    64  C   -0.397523
    65  H    0.144341
    66  H    0.134097
    67  H    0.132931
    68  N   -0.231735
    69  H    0.232446
    70  C    0.166245
    71  C    0.001507
    72  H    0.176983
    73  N    0.128361
    74  C   -0.209740
    75  H    0.158150
    76  C   -0.397585
    77  H    0.144153
    78  H    0.132983
    79  H    0.133659
    80  N   -0.230819
    81  H    0.231609
    82  C    0.159741
    83  C    0.013588
    84  H    0.178339
    85  N    0.103724
    86  C   -0.195298
    87  H    0.160618
 Sum of Mulliken charges =  -0.00000
 Mulliken charges with hydrogens summed into heavy atoms:
               1
     1  Fe  -0.399120
     2  N   -0.003053
     3  N    0.000546
     4  N    0.006467
     5  N    0.002952
     6  C    0.256291
     7  C   -0.060393
     8  C   -0.031618
     9  C    0.248019
    10  C    0.237303
    11  C   -0.077329
    12  C    0.096638
    13  C    0.215668
    14  C    0.273919
    15  C   -0.080340
    16  C    0.077787
    17  C    0.203330
    18  C    0.199622
    19  C   -0.060253
    20  C   -0.021869
    21  C    0.193132
    22  C   -0.310007
    24  C   -0.521079
    26  C   -0.315626
    28  C   -0.505357
    30  C   -0.029325
    34  C   -0.029655
    38  C   -0.012888
    42  C   -0.149374
    44  C   -0.041439
    47  C   -0.028387
    51  C   -0.113647
    53  C   -0.033692
    56  C   -0.025932
    60  C   -0.032065
    64  C    0.013846
    68  N    0.000711
    70  C    0.166245
    71  C    0.178490
    73  N    0.128361
    74  C   -0.051590
    76  C    0.013211
    80  N    0.000790
    82  C    0.159741
    83  C    0.191927
    85  N    0.103724
    86  C   -0.034679
 Electronic spatial extent (au):  <R**2>=          22359.2547
 Charge=              0.0000 electrons
 Dipole moment (field-independent basis, Debye):
    X=             -0.3654    Y=             -1.4176    Z=             -0.0974  Tot=              1.4672
 Quadrupole moment (field-independent basis, Debye-Ang):
   XX=           -275.3514   YY=           -273.9295   ZZ=           -230.4711
   XY=             -6.3387   XZ=              1.6113   YZ=              1.0213
 Traceless Quadrupole moment (field-independent basis, Debye-Ang):
   XX=            -15.4341   YY=            -14.0122   ZZ=             29.4462
   XY=             -6.3387   XZ=              1.6113   YZ=              1.0213
 Octapole moment (field-independent basis, Debye-Ang**2):
  XXX=            -55.6445  YYY=            -31.1490  ZZZ=              6.5560  XYY=             -6.3970
  XXY=              1.7362  XXZ=              5.1090  XZZ=             21.8670  YZZ=            -33.0614
  YYZ=              5.9701  XYZ=              1.3093
 Hexadecapole moment (field-independent basis, Debye-Ang**3):
 XXXX=         -12435.4998 YYYY=         -11648.9351 ZZZZ=          -5063.8994 XXXY=            -10.0643
 XXXZ=             63.1852 YYYX=              8.7159 YYYZ=             79.9771 ZZZX=             58.8760
 ZZZY=            -44.7770 XXYY=          -3948.0042 XXZZ=          -3176.7901 YYZZ=          -3103.3524
 XXYZ=             26.7969 YYXZ=            -33.9891 ZZXY=           -106.1128
 N-N= 7.165266993241D+03 E-N=-2.178344620118D+04  KE= 3.161917697668D+03
  Exact polarizability:     741.388      -1.004     697.243      -5.346       5.908     401.410
 Approx polarizability:    1409.321     -25.592    1326.660     -28.159      30.394     608.938

 ----------------------------------------------------------------------

 Electric dipole moment (input orientation):
 (Debye = 10**-18 statcoulomb cm , SI units = C m)
                  (au)            (Debye)         (10**-30 SI)
   Tot        0.577241D+00      0.146720D+01      0.489405D+01
   x         -0.441907D+00     -0.112322D+01     -0.374664D+01
   y          0.238667D+00      0.606631D+00      0.202350D+01
   z         -0.284541D+00     -0.723231D+00     -0.241244D+01

 Dipole polarizability, Alpha (input orientation).
 (esu units = cm**3 , SI units = C**2 m**2 J**-1)
 Alpha(0;0):
               (au)            (10**-24 esu)      (10**-40 SI)
   iso        0.613347D+03      0.908887D+02      0.101127D+03
   aniso      0.320498D+03      0.474929D+02      0.528430D+02
   xx         0.699073D+03      0.103592D+03      0.115262D+03
   yx         0.392324D+02      0.581364D+01      0.646854D+01
   yy         0.627512D+03      0.929877D+02      0.103463D+03
   zx         0.261203D+02      0.387063D+01      0.430665D+01
   zy        -0.152494D+03     -0.225973D+02     -0.251429D+02
   zz         0.513457D+03      0.760865D+02      0.846576D+02

 First dipole hyperpolarizability, Beta (input orientation).
 ||, _|_  parallel and perpendicular components, (z) with respect to z axis,
 vector components x,y,z.  Values do not include the 1/n! factor of 1/2.
 (esu units = statvolt**-1 cm**4 , SI units = C**3 m**3 J**-2)
 Beta(0;0,0):
               (au)            (10**-30 esu)      (10**-50 SI)
   || (z)     0.571604D+03      0.493821D+01      0.183277D+01
   _|_(z)     0.190535D+03      0.164607D+01      0.610923D+00
   x         -0.811362D+02     -0.700953D+00     -0.260152D+00
   y         -0.441053D+04     -0.381036D+02     -0.141418D+02
   z          0.285802D+04      0.246911D+02      0.916384D+01
   ||         0.105124D+04      0.908190D+01      0.337066D+01
   xxx        0.436706D+03      0.377280D+01      0.140024D+01
   xxy       -0.536015D+03     -0.463075D+01     -0.171866D+01
   yxy       -0.387437D+03     -0.334716D+01     -0.124226D+01
   yyy       -0.728732D+03     -0.629568D+01     -0.233658D+01
   xxz        0.413684D+03      0.357391D+01      0.132642D+01
   yxz        0.212555D+03      0.183631D+01      0.681529D+00
   yyz        0.437208D+03      0.377714D+01      0.140185D+01
   zxz       -0.763137D+02     -0.659291D+00     -0.244689D+00
   zyz       -0.205431D+03     -0.177476D+01     -0.658684D+00
   zzz        0.101781D+03      0.879308D+00      0.326346D+00

 ----------------------------------------------------------------------

 Dipole orientation:
    26         83.57543868       -107.59929646        -79.41310114
     7         86.44367992       -109.70169722        -78.07546400
     7         84.72476980       -108.39988070        -82.95660985
     7         80.84666098       -105.38879350        -80.78859471
     7         82.40097399       -106.94623006        -75.90397984
     6         86.98257472       -110.13030246        -75.60427784
     6         89.35172153       -111.47417210        -75.35190411
     6         90.11668038       -112.03427726        -77.73982661
     6         88.28190199       -110.89167341        -79.41619411
     6         86.75886941       -109.80396555        -83.65555390
     6         87.02259510       -109.84405481        -86.36281622
     6         85.08554033       -108.41666314        -87.30545108
     6         83.66658686       -107.53844802        -85.12978802
     6         80.28610006       -104.96456270        -83.26035543
     6         78.20938263       -103.22319235        -83.49557751
     6         77.51303151       -102.58750765        -81.08138603
     6         79.20590702       -103.96508086        -79.42414198
     6         80.54509349       -105.32245484        -75.18691696
     6         80.27655846       -105.30621308        -72.46734051
     6         81.96906658       -107.01981117        -71.56876772
     6         83.32637666       -107.97380230        -73.74244063
     6         85.50924186       -109.39931759        -73.57413995
     1         86.12221935       -109.96723129        -71.71275274
     6         88.43358835       -110.98060433        -82.02080043
     1         89.98354903       -112.01968970        -82.84720794
     6         81.58728381       -105.97034527        -85.29400272
     1         80.90409213       -105.52884811        -87.16360154
     6         79.06147641       -103.90620629        -76.81046707
     1         77.65127369       -102.69390071        -75.96910768
     6         92.40226554       -113.43746292        -78.60338672
     1         93.49032549       -114.12024049        -76.99958658
     1         93.61749514       -112.22357901        -79.74256431
     1         91.86273063       -115.05885858        -79.75476519
     6         90.54320931       -112.15461681        -72.89180200
     1         89.34415962       -113.45861619        -71.83796031
     1         90.82374067       -110.47199733        -71.73750446
     1         92.36906313       -113.05096143        -73.18544690
     6         89.07363952       -111.15862976        -87.77621241
     1         89.12031469       -113.16247070        -87.29661942
     1         90.91243213       -110.35144480        -87.31117569
     1         88.78555831       -110.97245093        -89.80204052
     6         84.60292419       -107.85234006        -89.94451885
     1         84.81023175       -109.43687156        -91.23065108
     6         84.02632048       -105.59656148        -90.87830720
     1         83.90274418       -103.94209011        -89.69957430
     1         83.70381008       -105.31501725        -92.86959048
     6         77.17785371       -102.24641131        -85.92498787
     1         75.81687279       -103.56945285        -86.73216634
     1         78.68479631       -101.97380841        -87.29896020
     1         76.23075637       -100.44648796        -85.61946595
     6         75.55909915       -100.87679351        -80.23611013
     1         75.95353364        -99.87628453        -78.49153697
     6         73.36682423       -100.46614889        -81.39372459
     1         72.82703743       -101.46859815        -83.07810116
     1         72.00858687        -99.13739769        -80.66121108
     6         78.42428220       -103.71773370        -71.05746244
     1         76.49458990       -104.16986295        -71.62319495
     1         78.74556280       -101.71823505        -71.43886129
     1         78.59360737       -104.02130621        -69.03235265
     6         82.48824364       -107.78380476        -68.90721787
     1         81.07498951       -107.00760627        -67.63274843
     1         84.34091244       -107.10899780        -68.30501498
     1         82.46901570       -109.83515621        -68.72909669
     6         79.34491214       -117.16471064        -80.92890106
     1         81.09460932       -117.97850480        -81.62589096
     1         77.90686358       -117.33931735        -82.39391648
     1         78.72429051       -118.24131169        -79.28564501
     7         77.87766850       -112.95982086        -79.32638328
     1         76.07968307       -113.49297279        -79.00640464
     6         79.76291370       -114.47140717        -80.26003425
     6         78.87344617       -110.64043066        -78.92768084
     1         77.82788042       -109.06799794        -78.20173033
     7         81.26835462       -110.59186784        -79.55104150
     6         81.85054211       -112.96009882        -80.38067443
     1         83.72040735       -113.41289455        -81.00356152
     6         91.67767742       -100.84639846        -80.42465727
     1         92.87431674       -102.21821071        -81.37031180
     1         92.62992934       -100.20870492        -78.71280326
     1         91.42801202        -99.22168658        -81.66615903
     7         87.30253933       -100.72902078        -78.62170367
     1         87.37415875        -98.91229646        -78.06155878
     6         89.20484564       -102.02313188        -79.81212626
     6         85.33059195       -102.33111099        -78.35138482
     1         83.57561731       -101.82961282        -77.47975191
     7         85.86608393       -104.55598452        -79.29493257
     6         88.26955918       -104.39404518        -80.21020908
     1         89.16097053       -105.98201232        -81.08879102

 Electric dipole moment (dipole orientation):
 (Debye = 10**-18 statcoulomb cm , SI units = C m)
                  (au)            (Debye)         (10**-30 SI)
   Tot        0.577241D+00      0.146720D+01      0.489405D+01
   x          0.000000D+00      0.000000D+00      0.000000D+00
   y          0.000000D+00      0.000000D+00      0.000000D+00
   z          0.577241D+00      0.146720D+01      0.489405D+01

 Dipole polarizability, Alpha (dipole orientation).
 (esu units = cm**3 , SI units = C**2 m**2 J**-1)
 Alpha(0;0):
               (au)            (10**-24 esu)      (10**-40 SI)
   iso        0.613347D+03      0.908887D+02      0.101127D+03
   aniso      0.320498D+03      0.474929D+02      0.528430D+02
   xx         0.622387D+03      0.922283D+02      0.102618D+03
   yx        -0.160510D+03     -0.237852D+02     -0.264646D+02
   yy         0.518880D+03      0.768900D+02      0.855517D+02
   zx        -0.113970D+01     -0.168886D+00     -0.187911D+00
   zy        -0.179698D+02     -0.266285D+01     -0.296282D+01
   zz         0.698775D+03      0.103548D+03      0.115212D+03

 First dipole hyperpolarizability, Beta (dipole orientation).
 ||, _|_  parallel and perpendicular components, (z) with respect to z axis,
 vector components x,y,z.  Values do not include the 1/n! factor of 1/2.
 (esu units = statvolt**-1 cm**4 , SI units = C**3 m**3 J**-2)
 Beta(0;0,0):
               (au)            (10**-30 esu)      (10**-50 SI)
   || (z)    -0.634057D+03     -0.547776D+01     -0.203301D+01
   _|_(z)    -0.211352D+03     -0.182592D+01     -0.677672D+00
   x         -0.317235D+04     -0.274066D+02     -0.101717D+02
   y          0.274102D+04      0.236803D+02      0.878870D+01
   z         -0.317028D+04     -0.273888D+02     -0.101651D+02
   ||         0.105124D+04      0.908190D+01      0.337066D+01
   xxx       -0.791784D+03     -0.684040D+01     -0.253875D+01
   xxy        0.628870D+03      0.543294D+01      0.201638D+01
   yxy       -0.478653D+03     -0.413519D+01     -0.153474D+01
   yyy        0.306151D+03      0.264491D+01      0.981631D+00
   xxz       -0.158681D+03     -0.137088D+01     -0.508787D+00
   yxz        0.117604D+03      0.101601D+01      0.377080D+00
   yyz       -0.111506D+03     -0.963324D+00     -0.357528D+00
   zxz        0.212989D+03      0.184006D+01      0.682920D+00
   zyz       -0.213476D+02     -0.184426D+00     -0.684480D-01
   zzz       -0.786575D+03     -0.679539D+01     -0.252204D+01

 ----------------------------------------------------------------------
 Unable to Open any file for archive entry.
 1\1\GINC-BGN1023\SP\RAPFD\def2TZVP\C38H40Fe1N8\BEBJONES\31-Aug-2024\0\
 \# polar def2tzvp apfd int=(grid=ultrafine)\\1lco_II_S\\0,1\Fe,0,71.10
 79044777,42.4207183751,10.3995547549\N,0,71.7238648827,44.0203346288,9
 .3486694419\N,0,73.0026862441,42.149506605,11.0334306165\N,0,70.539981
 3103,40.7778114721,11.3801644065\N,0,69.2355250545,42.7507108925,9.817
 1067827\C,0,70.9440695132,44.8223142929,8.5795274596\C,0,71.7541497101
 ,45.7730507646,7.847958347\C,0,73.0302559804,45.5988661537,8.283499162
 8\C,0,72.9914020188,44.4908304251,9.2140722737\C,0,74.0972135502,42.88
 27255788,10.6989178543\C,0,75.2832275579,42.3387652363,11.3070368684\C
 ,0,74.8823024578,41.2463446017,12.0253400807\C,0,73.446272939,41.15165
 28388,11.8405070158\C,0,71.3135358082,39.9753250762,12.1591905636\C,0,
 70.545909456,38.8748880339,12.6808482015\C,0,69.2727352184,39.02710224
 28,12.194124982\C,0,69.3000847786,40.2251358589,11.3774366986\C,0,68.1
 662969414,41.9385081587,10.02662761\C,0,66.976423957,42.4957977193,9.4
 224624946\C,0,67.3487019488,43.6852526174,8.8773418849\C,0,68.77261200
 91,43.8089711439,9.1032076409\C,0,69.5660324102,44.7586709832,8.486897
[...]
   164. CR (   1) C  86                  1.99897   -10.04905  1701(v),1489(v),1705(g)
                                                    1548(v),1599(v),1492(v)
                                                    168(r),171(r),170(r)
   178. LP (   1) N  80                  1.58150    -0.27543  1709(v),1706(v),1518(v)
                                                    1490(v),1484(v),1516(v)
                                                    184(r)
   179. LP (   1) N  85                  1.62571    -0.34517  171(r),168(r),170(r),1704(v)
                                                    1705(v),1515(v),1707(v)
                                                    1711(v),1708(g),1572(v)
                                                    1710(g),1604(r),1549(g)
                                                    1603(r),185(r),193(r),174(r)
                                                    288(r),262(r),236(r),210(r)
                                                    1612(r),1611(r),1613(r)
                                                    194(r),1615(r),1606(r)
                                                    235(r),1608(r),209(r),287(r)
                                                    261(r),1605(r),285(r)
                                                    1609(r),259(r),208(r),241(r)
                                                    293(r),234(r),1607(r),215(r)
                                                    267(r)
  1417. RY*(   1) C  76                  0.00117     1.16621   
  1418. RY*(   2) C  76                  0.00080     2.02474   
  1419. RY*(   3) C  76                  0.00050     1.33652   
  1420. RY*(   4) C  76                  0.00012     1.25934   
  1421. RY*(   5) C  76                  0.00008     2.12079   
  1422. RY*(   6) C  76                  0.00007     1.38304   
  1423. RY*(   7) C  76                  0.00001     1.81551   
  1424. RY*(   8) C  76                  0.00001     1.89068   
  1425. RY*(   9) C  76                  0.00001     1.42303   
  1426. RY*(  10) C  76                  0.00000     3.22075   
  1427. RY*(  11) C  76                  0.00000     2.54687   
  1428. RY*(  12) C  76                  0.00001     1.48172   
  1429. RY*(  13) C  76                  0.00000     2.50878   
  1430. RY*(  14) C  76                  0.00000     2.93222   
  1431. RY*(  15) C  76                  0.00000     2.43137   
  1432. RY*(  16) C  76                  0.00000     2.71681   
  1433. RY*(  17) C  76                  0.00001     2.27543   
  1434. RY*(  18) C  76                  0.00000    21.60649   
  1435. RY*(  19) C  76                  0.00000     2.74336   
  1436. RY*(  20) C  76                  0.00000     3.68983   
  1437. RY*(  21) C  76                  0.00001     3.39289   
  1438. RY*(  22) C  76                  0.00001     3.40462   
  1439. RY*(  23) C  76                  0.00000     3.36005   
  1440. RY*(  24) C  76                  0.00000     3.78494   
  1441. RY*(  25) C  76                  0.00000     3.27665   
  1442. RY*(  26) C  76                  0.00000     3.41908   
  1443. RY*(   1) H  77                  0.00024     1.36319   
  1444. RY*(   2) H  77                  0.00012     1.75708   
  1445. RY*(   3) H  77                  0.00008     2.06332   
  1446. RY*(   4) H  77                  0.00002     1.61763   
  1447. RY*(   5) H  77                  0.00001     2.88082   
  1448. RY*(   1) H  78                  0.00077     0.99027   
  1449. RY*(   2) H  78                  0.00015     1.70210   
  1450. RY*(   3) H  78                  0.00008     1.97823   
  1451. RY*(   4) H  78                  0.00006     2.02088   
  1452. RY*(   5) H  78                  0.00000     2.88785   
  1453. RY*(   1) H  79                  0.00077     0.99107   
  1454. RY*(   2) H  79                  0.00015     1.70375   
  1455. RY*(   3) H  79                  0.00008     1.97845   
  1456. RY*(   4) H  79                  0.00006     2.01901   
  1457. RY*(   5) H  79                  0.00000     2.88846   
  1458. RY*(   1) N  80                  0.00284     0.67617   
  1459. RY*(   2) N  80                  0.00224     1.79910   
  1460. RY*(   3) N  80                  0.00103     2.06301   
  1461. RY*(   4) N  80                  0.00078     2.15802   
  1462. RY*(   5) N  80                  0.00052     1.21641   
  1463. RY*(   6) N  80                  0.00025     2.29965   
  1464. RY*(   7) N  80                  0.00019     1.80611   
  1465. RY*(   8) N  80                  0.00006     2.45471   
  1466. RY*(   9) N  80                  0.00007     2.25202   
  1467. RY*(  10) N  80                  0.00006     3.66148   
  1468. RY*(  11) N  80                  0.00004     3.10610   
  1469. RY*(  12) N  80                  0.00001     3.19093   
  1470. RY*(  13) N  80                  0.00001     3.91197   
  1471. RY*(  14) N  80                  0.00000     2.17913   
  1472. RY*(  15) N  80                  0.00001     3.57708   
  1473. RY*(  16) N  80                  0.00001     2.49878   
  1474. RY*(  17) N  80                  0.00000     3.96958   
  1475. RY*(  18) N  80                  0.00000     4.83793   
  1476. RY*(  19) N  80                  0.00000    30.78590   
  1477. RY*(  20) N  80                  0.00000     4.69055   
  1478. RY*(  21) N  80                  0.00000     4.67956   
  1479. RY*(  22) N  80                  0.00000     4.51656   
  1480. RY*(  23) N  80                  0.00000     4.30643   
  1481. RY*(  24) N  80                  0.00000     4.54773   
  1482. RY*(  25) N  80                  0.00000     4.45588   
  1483. RY*(  26) N  80                  0.00000     4.49079   
  1484. RY*(   1) H  81                  0.00058     2.15985   
  1485. RY*(   2) H  81                  0.00040     2.13171   
  1486. RY*(   3) H  81                  0.00031     1.03878   
  1487. RY*(   4) H  81                  0.00021     2.56310   
  1488. RY*(   5) H  81                  0.00001     3.10872   
  1489. RY*(   1) C  82                  0.00401     1.69875   
  1490. RY*(   2) C  82                  0.00265     0.98552   
  1491. RY*(   3) C  82                  0.00193     1.53718   
  1492. RY*(   4) C  82                  0.00160     2.04117   
  1493. RY*(   5) C  82                  0.00124     1.78903   
  1494. RY*(   6) C  82                  0.00114     1.73353   
  1495. RY*(   7) C  82                  0.00037     2.87025   
  1496. RY*(   8) C  82                  0.00019     2.80247   
  1497. RY*(   9) C  82                  0.00016     2.51649   
  1498. RY*(  10) C  82                  0.00007     3.59067   
  1499. RY*(  11) C  82                  0.00003     2.61916   
  1500. RY*(  12) C  82                  0.00001     1.66839   
  1501. RY*(  13) C  82                  0.00001     2.68635   
  1502. RY*(  14) C  82                  0.00001     1.82239   
  1503. RY*(  15) C  82                  0.00001     1.79681   
  1504. RY*(  16) C  82                  0.00000     1.08670   
  1505. RY*(  17) C  82                  0.00001     1.99500   
  1506. RY*(  18) C  82                  0.00000    21.22401   
  1507. RY*(  19) C  82                  0.00000     3.66354   
  1508. RY*(  20) C  82                  0.00000     4.05672   
  1509. RY*(  21) C  82                  0.00000     3.60358   
  1510. RY*(  22) C  82                  0.00000     3.59822   
  1511. RY*(  23) C  82                  0.00000     3.37346   
  1512. RY*(  24) C  82                  0.00000     3.85722   
  1513. RY*(  25) C  82                  0.00000     3.52523   
  1514. RY*(  26) C  82                  0.00000     3.55549   
  1515. RY*(   1) C  83                  0.00411     1.60579   
  1516. RY*(   2) C  83                  0.00325     0.66795   
  1517. RY*(   3) C  83                  0.00204     1.31980   
  1518. RY*(   4) C  83                  0.00127     2.60569   
  1519. RY*(   5) C  83                  0.00096     1.39726   
  1520. RY*(   6) C  83                  0.00040     1.68739   
  1521. RY*(   7) C  83                  0.00023     1.86787   
  1522. RY*(   8) C  83                  0.00011     2.42315   
  1523. RY*(   9) C  83                  0.00005     1.97440   
  1524. RY*(  10) C  83                  0.00006     3.11256   
  1525. RY*(  11) C  83                  0.00003     1.88369   
  1526. RY*(  12) C  83                  0.00002     2.45631   
  1527. RY*(  13) C  83                  0.00003     3.51249   
  1528. RY*(  14) C  83                  0.00002     2.34692   
  1529. RY*(  15) C  83                  0.00002     2.60188   
  1530. RY*(  16) C  83                  0.00001     4.23023   
  1531. RY*(  17) C  83                  0.00000     3.68061   
  1532. RY*(  18) C  83                  0.00001     3.03179   
  1533. RY*(  19) C  83                  0.00000    21.29533   
  1534. RY*(  20) C  83                  0.00000     3.19663   
  1535. RY*(  21) C  83                  0.00000     3.84976   
  1536. RY*(  22) C  83                  0.00000     3.82422   
  1537. RY*(  23) C  83                  0.00000     3.64415   
  1538. RY*(  24) C  83                  0.00000     3.85664   
  1539. RY*(  25) C  83                  0.00000     3.45530   
  1540. RY*(  26) C  83                  0.00000     3.51383   
  1541. RY*(   1) H  84                  0.00060     0.67572   
  1542. RY*(   2) H  84                  0.00033     2.53950   
  1543. RY*(   3) H  84                  0.00021     2.17703   
  1544. RY*(   4) H  84                  0.00012     2.47149   
  1545. RY*(   5) H  84                  0.00002     3.16183   
  1546. RY*(   1) N  85                  0.00772     0.89113   
  1547. RY*(   2) N  85                  0.00746     1.33321   
  1548. RY*(   3) N  85                  0.00631     1.47241   
  1549. RY*(   4) N  85                  0.00085     1.70295   
  1550. RY*(   5) N  85                  0.00070     1.75168   
  1551. RY*(   6) N  85                  0.00051     2.02695   
  1552. RY*(   7) N  85                  0.00036     3.53319   
  1553. RY*(   8) N  85                  0.00028     3.48426   
  1554. RY*(   9) N  85                  0.00013     2.80127   
  1555. RY*(  10) N  85                  0.00009     2.36090   
  1556. RY*(  11) N  85                  0.00010     3.73123   
  1557. RY*(  12) N  85                  0.00008     3.25428   
  1558. RY*(  13) N  85                  0.00006     3.21161   
  1559. RY*(  14) N  85                  0.00003     3.70834   
  1560. RY*(  15) N  85                  0.00001     4.41962   
  1561. RY*(  16) N  85                  0.00002     4.78360   
  1562. RY*(  17) N  85                  0.00001     4.26293   
  1563. RY*(  18) N  85                  0.00000     4.85483   
  1564. RY*(  19) N  85                  0.00000    31.61313   
  1565. RY*(  20) N  85                  0.00000     4.54322   
  1566. RY*(  21) N  85                  0.00001     4.45366   
  1567. RY*(  22) N  85                  0.00000     4.29863   
  1568. RY*(  23) N  85                  0.00000     4.66933   
  1569. RY*(  24) N  85                  0.00000     4.64996   
  1570. RY*(  25) N  85                  0.00000     4.59258   
  1571. RY*(  26) N  85                  0.00000     4.66991   
  1572. RY*(   1) C  86                  0.00408     1.51816   
  1573. RY*(   2) C  86                  0.00261     0.73751   
  1574. RY*(   3) C  86                  0.00168     1.83014   
  1575. RY*(   4) C  86                  0.00062     2.00426   
  1576. RY*(   5) C  86                  0.00057     1.66003   
  1577. RY*(   6) C  86                  0.00045     2.25992   
  1578. RY*(   7) C  86                  0.00044     1.81365   
  1579. RY*(   8) C  86                  0.00026     1.44267   
  1580. RY*(   9) C  86                  0.00023     1.74051   
  1581. RY*(  10) C  86                  0.00016     1.79598   
  1582. RY*(  11) C  86                  0.00010     1.12156   
  1583. RY*(  12) C  86                  0.00006     2.01673   
  1584. RY*(  13) C  86                  0.00006     2.33716   
  1585. RY*(  14) C  86                  0.00003     1.48479   
  1586. RY*(  15) C  86                  0.00003     3.41696   
  1587. RY*(  16) C  86                  0.00003     4.37942   
  1588. RY*(  17) C  86                  0.00000     3.26391   
  1589. RY*(  18) C  86                  0.00001     3.69205   
  1590. RY*(  19) C  86                  0.00000    20.61326   
  1591. RY*(  20) C  86                  0.00001     3.94409   
  1592. RY*(  21) C  86                  0.00001     3.80073   
  1593. RY*(  22) C  86                  0.00001     3.71405   
  1594. RY*(  23) C  86                  0.00000     3.36787   
  1595. RY*(  24) C  86                  0.00000     3.66183   
  1596. RY*(  25) C  86                  0.00000     3.53695   
  1597. RY*(  26) C  86                  0.00000     3.66588   
  1598. RY*(   1) H  87                  0.00053     0.70233   
  1599. RY*(   2) H  87                  0.00033     2.41959   
  1600. RY*(   3) H  87                  0.00025     2.33087   
  1601. RY*(   4) H  87                  0.00008     2.79436   
  1602. RY*(   5) H  87                  0.00001     3.14406   
  1698. BD*(   1) C  76 - H  77          0.00351     0.37832   
  1699. BD*(   1) C  76 - H  78          0.01222     0.36473   
  1700. BD*(   1) C  76 - H  79          0.01211     0.36502   
  1701. BD*(   1) C  76 - C  82          0.01399     0.39614   
  1702. BD*(   1) N  80 - H  81          0.01451     0.37460   
  1703. BD*(   1) N  80 - C  82          0.02728     0.43756   
  1704. BD*(   1) N  80 - C  83          0.02332     0.45676   
  1705. BD*(   1) C  82 - C  86          0.02141     0.57556   
  1706. BD*(   2) C  82 - C  86          0.30110     0.04366  1709(v),1699(v),1700(v)
                                                    1577(g),1493(g),1626(r)
                                                    1610(r)
  1707. BD*(   1) C  83 - H  84          0.01950     0.40318   
  1708. BD*(   1) C  83 - N  85          0.01620     0.54890   
  1709. BD*(   2) C  83 - N  85          0.41233     0.00605  1706(v),1516(g),1695(r)
                                                    1546(g),1573(v),169(r)
                                                    1607(r),1614(r),1610(r)
                                                    1642(r),182(r)
  1710. BD*(   1) N  85 - C  86          0.01633     0.49231   
  1711. BD*(   1) C  86 - H  87          0.01534     0.44320   
       -------------------------------
              Total Lewis   42.70348  ( 97.7365%)
        Valence non-Lewis    0.90915  (  2.0808%)
        Rydberg non-Lewis    0.07985  (  0.1828%)
       -------------------------------
            Total unit  3   43.69248  (100.0000%)
           Charge unit  3    0.30752
 Unable to Open any file for archive entry.
 1\1\GINC-BGN1023\SP\RAPFD\def2TZVP\C38H40Fe1N8\BEBJONES\31-Aug-2024\0\
 \# apfd/def2TZVP int=(grid=ultrafine) geom=check guess=read pop=nbo sc
 f=qc\\1lco_II_S_nbo\\0,1\Fe,0,71.1079044777,42.4207183751,10.399554754
 9\N,0,71.7238648827,44.0203346288,9.3486694419\N,0,73.0026862441,42.14
 9506605,11.0334306165\N,0,70.5399813103,40.7778114721,11.3801644065\N,
 0,69.2355250545,42.7507108925,9.8171067827\C,0,70.9440695132,44.822314
 2929,8.5795274596\C,0,71.7541497101,45.7730507646,7.847958347\C,0,73.0
 302559804,45.5988661537,8.2834991628\C,0,72.9914020188,44.4908304251,9
 .2140722737\C,0,74.0972135502,42.8827255788,10.6989178543\C,0,75.28322
 75579,42.3387652363,11.3070368684\C,0,74.8823024578,41.2463446017,12.0
 253400807\C,0,73.446272939,41.1516528388,11.8405070158\C,0,71.31353580
 82,39.9753250762,12.1591905636\C,0,70.545909456,38.8748880339,12.68084
 82015\C,0,69.2727352184,39.0271022428,12.194124982\C,0,69.3000847786,4
 0.2251358589,11.3774366986\C,0,68.1662969414,41.9385081587,10.02662761
 \C,0,66.976423957,42.4957977193,9.4224624946\C,0,67.3487019488,43.6852
 526174,8.8773418849\C,0,68.7726120091,43.8089711439,9.1032076409\C,0,6
 9.5660324102,44.7586709832,8.4868973405\H,0,69.0727166218,45.500819242
 7,7.8772888188\C,0,74.1052943682,43.9796468717,9.8514883146\H,0,75.054
 8847912,44.4596275251,9.6664946915\C,0,72.6684891319,40.1476519796,12.
 3825999153\H,0,73.1567448592,39.4550660978,13.0504542473\C,0,68.188223
 0888,40.7532015174,10.7412918991\H,0,67.2580654353,40.2110042103,10.82
 78681479\C,0,74.2722085528,46.3238618746,7.8898498373\H,0,74.048843242
 8,47.116776171,7.1801027279\H,0,74.988139195,45.6421522624,7.429108224
 \H,0,74.7471265043,46.77117253,8.7635097101\C,0,71.2168709285,46.76383
 0008,6.8724356909\H,0,70.5508221872,47.4709104642,7.3685991651\H,0,70.
 6506466073,46.2594109403,6.0895443039\H,0,72.0233022818,47.3244438169,
 6.4054731935\C,0,76.6625920522,42.8756243524,11.1324392553\H,0,76.7081
 256771,43.9247590921,11.4268586046\H,0,76.9747059536,42.8054401363,10.
 0896111473\H,0,77.3697887522,42.3128232186,11.736844191\C,0,75.7329722
 758,40.3503524282,12.7857803295\H,0,76.49841188,40.8346970351,13.38397
 03096\C,0,75.6728307679,39.024333775,12.7693949426\H,0,74.969967877,38
 .493112306,12.149996986\H,0,76.3442665144,38.4205415099,13.3578711462\
 C,0,71.0889251462,37.7699122354,13.5187270183\H,0,71.1268820767,38.060
 5669642,14.5701018577\H,0,72.0993490461,37.5106275603,13.2070020403\H,
 0,70.4587762778,36.8870866223,13.4288989367\C,0,68.1102944115,38.19121
 28751,12.3909017966\H,0,67.4180846326,38.1483474564,11.5571362336\C,0,
 67.828494233,37.4995521049,13.4911334198\H,0,68.4498128806,37.54018972
 76,14.3685052093\H,0,66.9460707147,36.8848056946,13.5595725537\C,0,65.
 6316468917,41.8521224935,9.4575257422\H,0,65.2912718438,41.7237035638,
 10.4857605323\H,0,65.6650976574,40.8677892391,8.9893794791\H,0,64.8997
 387627,42.4564514331,8.9271027176\C,0,66.5230784661,44.6838278647,8.13
 99127533\H,0,65.4654106301,44.4404026482,8.2101667396\H,0,66.798937174
 1,44.7072417499,7.0846471782\H,0,66.6748881272,45.6818709349,8.5500638
 006\C,0,71.4352815871,46.0966205545,14.6016441968\H,0,72.3713710115,46
 .5217586604,14.2526841095\H,0,71.5861155761,45.6965606565,15.604564847
 3\H,0,70.69087315,46.891002756,14.6599782301\N,0,69.8426844416,44.3122
 867497,13.8580203847\H,0,69.1949240075,44.430399062,14.6195898355\C,0,
 70.9965070643,45.0278259456,13.668554007\C,0,69.7410295426,43.42441409
 35,12.84314856\H,0,68.9344312601,42.7291265933,12.7333165818\N,0,70.75
 79382655,43.5339648803,12.0249208813\C,0,71.5468735963,44.5274765199,1
 2.5236344425\H,0,72.4510684321,44.8131523219,12.027678802\C,0,73.36447
 08551,39.9441248801,5.9036102716\H,0,74.2861269213,40.5142845694,5.965
 6554725\H,0,72.9055282039,40.1266936046,4.931783128\H,0,73.6048815529,
 38.8831678857,5.9731189198\N,0,71.2145468555,39.7927356876,7.180049784
 9\H,0,70.8068216462,39.0720414193,6.6074336524\C,0,72.4534754079,40.35
 21036507,7.0030679526\C,0,70.6509137889,40.3813515254,8.2589246893\H,0
 ,69.6774157842,40.140168824,8.6327959493\N,0,71.4549035427,41.27752541
 64,8.7749038774\C,0,72.5801043479,41.2710414758,8.0045454234\H,0,73.40
 07264155,41.9229180353,8.2200397105\\Version=ES64L-G16RevC.02\State=1-
 A\HF=-3173.0799124\RMSD=1.028e-09\Dipole=-0.4419069,0.238667,-0.284541
 \Quadrupole=-6.6930581,-3.54443,10.2374882,0.4293726,-4.3642955,16.841
 8581\PG=C01 [X(C38H40Fe1N8)]\\@
 The archive entry for this job was punched.


 THE WHOLE OF SCIENCE IS NOTHING MORE THAN A REFINEMENT OF EVERYDAY THINKING.
                                                              -- A. EINSTEIN
 Job cpu time:       0 days  1 hours  3 minutes 28.9 seconds.
 Elapsed time:       0 days  0 hours  1 minutes 14.8 seconds.
 File lengths (MBytes):  RWF=    987 Int=      0 D2E=      0 Chk=    233 Scr=      1
 Normal termination of Gaussian 16 at Sat Aug 31 13:30:50 2024.
