 Entering Gaussian System, Link 0=g16
 Input=1ls901.com
 Output=1ls901.log
 Initial command:
 /sw/chem/gaussian/g16_C02/a100/g16/l1.exe "/local/bebjones_7999329/Gau-4155825.inp" -scrdir="/local/bebjones_7999329/"
 Entering Link 1 = /sw/chem/gaussian/g16_C02/a100/g16/l1.exe PID=   4155826.
  
 Copyright (c) 1988-2021, Gaussian, Inc.  All Rights Reserved.
  
 This is part of the Gaussian(R) 16 program.  It is based on
 the Gaussian(R) 09 system (copyright 2009, Gaussian, Inc.),
 the Gaussian(R) 03 system (copyright 2003, Gaussian, Inc.),
 the Gaussian(R) 98 system (copyright 1998, Gaussian, Inc.),
 the Gaussian(R) 94 system (copyright 1995, Gaussian, Inc.),
 the Gaussian 92(TM) system (copyright 1992, Gaussian, Inc.),
 the Gaussian 90(TM) system (copyright 1990, Gaussian, Inc.),
 the Gaussian 88(TM) system (copyright 1988, Gaussian, Inc.),
 the Gaussian 86(TM) system (copyright 1986, Carnegie Mellon
 University), and the Gaussian 82(TM) system (copyright 1983,
 Carnegie Mellon University). Gaussian is a federally registered
 trademark of Gaussian, Inc.
  
 This software contains proprietary and confidential information,
 including trade secrets, belonging to Gaussian, Inc.
  
 This software is provided under written license and may be
 used, copied, transmitted, or stored only in accord with that
 written license.
  
 The following legend is applicable only to US Government
 contracts under FAR:
  
                    RESTRICTED RIGHTS LEGEND
  
 Use, reproduction and disclosure by the US Government is
 subject to restrictions as set forth in subparagraphs (a)
 and (c) of the Commercial Computer Software - Restricted
 Rights clause in FAR 52.227-19.
  
 Gaussian, Inc.
 340 Quinnipiac St., Bldg. 40, Wallingford CT 06492
  
  
 ---------------------------------------------------------------
 Warning -- This program may not be used in any manner that
 competes with the business of Gaussian, Inc. or will provide
 assistance to any competitor of Gaussian, Inc.  The licensee
 of this program is prohibited from giving any competitor of
 Gaussian, Inc. access to this program.  By using this program,
 the user acknowledges that Gaussian, Inc. is engaged in the
 business of creating and licensing software in the field of
 computational chemistry and represents and warrants to the
 licensee that it is not a competitor of Gaussian, Inc. and that
 it will not use this program in any manner prohibited above.
 ---------------------------------------------------------------
  

 Cite this work as:
 Gaussian 16, Revision C.02,
 M. J. Frisch, G. W. Trucks, H. B. Schlegel, G. E. Scuseria, 
 M. A. Robb, J. R. Cheeseman, G. Scalmani, V. Barone, 
 G. A. Petersson, H. Nakatsuji, X. Li, M. Caricato, A. V. Marenich, 
 J. Bloino, B. G. Janesko, R. Gomperts, B. Mennucci, H. P. Hratchian, 
 J. V. Ortiz, A. F. Izmaylov, J. L. Sonnenberg, D. Williams-Young, 
 F. Ding, F. Lipparini, F. Egidi, J. Goings, B. Peng, A. Petrone, 
 T. Henderson, D. Ranasinghe, V. G. Zakrzewski, J. Gao, N. Rega, 
 G. Zheng, W. Liang, M. Hada, M. Ehara, K. Toyota, R. Fukuda, 
 J. Hasegawa, M. Ishida, T. Nakajima, Y. Honda, O. Kitao, H. Nakai, 
 T. Vreven, K. Throssell, J. A. Montgomery, Jr., J. E. Peralta, 
 F. Ogliaro, M. J. Bearpark, J. J. Heyd, E. N. Brothers, K. N. Kudin, 
 V. N. Staroverov, T. A. Keith, R. Kobayashi, J. Normand, 
 K. Raghavachari, A. P. Rendell, J. C. Burant, S. S. Iyengar, 
 J. Tomasi, M. Cossi, J. M. Millam, M. Klene, C. Adamo, R. Cammi, 
 J. W. Ochterski, R. L. Martin, K. Morokuma, O. Farkas, 
 J. B. Foresman, and D. J. Fox, Gaussian, Inc., Wallingford CT, 2019.
 
 ******************************************
 Gaussian 16:  ES64L-G16RevC.02  7-Dec-2021
                31-Aug-2024 
 ******************************************
 %mem=16GB
 %CPU=0-71
 SetSPE:  set environment variable "OMP_PROC_BIND" = "true"
 SetSPE:  set environment variable "OMP_PLACES" = "{0},{1},{2},{3},{4},{5},{6},{7},{8},{9},{10},{11},{12},{13},{14},{15},{16},{17},{18},{19},{20},{21},{22},{23},{24},{25},{26},{27},{28},{29},{30},{31},{32},{33},{34},{35},{36},{37},{38},{39},{40},{41},{42},{43},{44},{45},{46},{47},{48},{49},{50},{51},{52},{53},{54},{55},{56},{57},{58},{59},{60},{61},{62},{63},{64},{65},{66},{67},{68},{69},{70},{71}"
 Will use up to   72 processors via shared memory.
 %gpucpu=0,1,2,3=0,1,2,3
 Will use    4 GPUs:
 Thread  CPU   GPU
      0    0     0
      1    1     1
      2    2     2
      3    3     3
      4    4    -1
      5    5    -1
      6    6    -1
      7    7    -1
      8    8    -1
      9    9    -1
     10   10    -1
     11   11    -1
     12   12    -1
     13   13    -1
     14   14    -1
     15   15    -1
     16   16    -1
     17   17    -1
     18   18    -1
     19   19    -1
     20   20    -1
     21   21    -1
     22   22    -1
     23   23    -1
     24   24    -1
     25   25    -1
     26   26    -1
     27   27    -1
     28   28    -1
     29   29    -1
     30   30    -1
     31   31    -1
     32   32    -1
     33   33    -1
     34   34    -1
     35   35    -1
     36   36    -1
     37   37    -1
     38   38    -1
     39   39    -1
     40   40    -1
     41   41    -1
     42   42    -1
     43   43    -1
     44   44    -1
     45   45    -1
     46   46    -1
     47   47    -1
     48   48    -1
     49   49    -1
     50   50    -1
     51   51    -1
     52   52    -1
     53   53    -1
     54   54    -1
     55   55    -1
     56   56    -1
     57   57    -1
     58   58    -1
     59   59    -1
     60   60    -1
     61   61    -1
     62   62    -1
     63   63    -1
     64   64    -1
     65   65    -1
     66   66    -1
     67   67    -1
     68   68    -1
     69   69    -1
     70   70    -1
     71   71    -1
 SetGPE:  set environment variable "OMP_PROC_BIND" = "true"
 SetGPE:  set environment variable "OMP_PLACES" = "{0},{1},{2},{3},{4},{5},{6},{7},{8},{9},{10},{11},{12},{13},{14},{15},{16},{17},{18},{19},{20},{21},{22},{23},{24},{25},{26},{27},{28},{29},{30},{31},{32},{33},{34},{35},{36},{37},{38},{39},{40},{41},{42},{43},{44},{45},{46},{47},{48},{49},{50},{51},{52},{53},{54},{55},{56},{57},{58},{59},{60},{61},{62},{63},{64},{65},{66},{67},{68},{69},{70},{71}"
 %chk=1ls9_II_O.chk
 Properties for Device   0
 Minimum vector length:                              32
 Maximum vector length:                            1024
 Number of SMPs:                                    108
 Maximum number of threads per SMP:                2048
 Number of ASync Engines:                             5
 Memory:                                           9207742464
 Properties for Device   1
 Minimum vector length:                              32
 Maximum vector length:                            1024
 Number of SMPs:                                    108
 Maximum number of threads per SMP:                2048
 Number of ASync Engines:                             5
 Memory:                                           9207742464
 Properties for Device   2
 Minimum vector length:                              32
 Maximum vector length:                            1024
 Number of SMPs:                                    108
 Maximum number of threads per SMP:                2048
 Number of ASync Engines:                             5
 Memory:                                           9207742464
 Properties for Device   3
 Minimum vector length:                              32
 Maximum vector length:                            1024
 Number of SMPs:                                    108
 Maximum number of threads per SMP:                2048
 Number of ASync Engines:                             5
 Memory:                                           9207742464
   8286968217 words of memory will be used on each GPU.
 ------------------------------------------
 # polar def2tzvp apfd int=(grid=ultrafine)
 ------------------------------------------
 1/38=1,172=1/1;
 2/12=2,17=6,18=5,40=1/2;
 3/5=44,7=101,11=2,25=1,30=1,74=-44,75=-5/1,2,3;
 4//1;
 5/5=2,38=5,98=1/2;
 8/6=4,10=90,11=11/1;
 10/6=1,13=10/2;
 6/7=2,8=2,9=2,10=2,28=1/1;
 99/5=1,9=1/99;
 ---------
 1ls9_II_S
 ---------
 Symbolic Z-matrix:
 Charge =  0 Multiplicity = 1
 Fe                    1.63601   23.56269   14.91866 
 N                     3.27158   22.41012   15.07294 
 N                     2.7861    25.23125   15.00068 
 N                    -0.02631   24.65812   14.82581 
 N                     0.52779   21.89737   14.69706 
 C                     3.3496    21.04851   15.00216 
 C                     4.72152   20.60965   15.15452 
 C                     5.46453   21.73675   15.33035 
 C                     4.54136   22.84997   15.27456 
 C                     4.12229   25.28926   15.24412 
 C                     4.55654   26.66822   15.32639 
 C                     3.44665   27.43467   15.10019 
 C                     2.34363   26.51396   14.90451 
 C                    -0.07212   26.00873   14.73754 
 C                    -1.44624   26.46296   14.60198 
 C                    -2.2271    25.33812   14.63675 
 C                    -1.31527   24.22263   14.73543 
 C                    -0.82446   21.82615   14.63088 
 C                    -1.25746   20.45284   14.4526 
 C                    -0.11465   19.70528   14.35247 
 C                     0.98334   20.62339   14.53319 
 C                     2.2997    20.21768   14.66045 
 H                     2.49835   19.15713   14.57919 
 C                     4.93985   24.1744   15.40417 
 H                     5.98986   24.34169   15.59203 
 C                     1.0097    26.87473   14.74924 
 H                     0.77788   27.9251   14.66983 
 C                    -1.69318   22.89235   14.76845 
 H                    -2.74652   22.6515   14.75922 
 C                     5.13879   19.17516   15.14061 
 H                     4.94979   18.73789   14.16119 
 H                     4.57975   18.59176   15.87505 
 H                     6.19872   19.06426   15.35537 
 C                     6.93774   21.85869   15.5258 
 H                     7.17157   22.36825   16.46335 
 H                     7.3751    22.43766   14.7111 
 H                     7.42033   20.88109   15.53526 
 C                     0.0219    18.25303   14.05659 
 H                     0.19043   17.66624   14.96203 
 H                     0.864     18.08751   13.38673 
 H                    -0.88488   17.88488   13.58005 
 C                    -2.63481   20.03325   14.32238 
 H                    -3.30188   20.72851   13.82411 
 C                    -3.11933   18.89124   14.79586 
 H                    -2.50797   18.20096   15.35094 
 H                    -4.15109   18.6164   14.66234 
 C                    -3.70681   25.21089   14.47966 
 H                    -4.1889    25.06583   15.44755 
 H                    -3.96485   24.3598   13.85032 
 H                    -4.12912   26.10195   14.02023 
 C                    -1.85783   27.84699   14.51049 
 H                    -1.16275   28.49052   13.98566 
 C                    -2.98921   28.36473   14.98036 
 H                    -3.69456   27.76786   15.53461 
 H                    -3.23026   29.41125   14.8545 
 C                     3.37582   28.92922   15.04761 
 H                     2.39078   29.28349   15.34146 
 H                     3.57418   29.30226   14.03981 
 H                     4.10726   29.39545   15.70883 
 C                     5.96163   27.14454   15.53595 
 H                     5.9853    28.06122   16.12369 
 H                     6.47203   27.35563   14.59031 
 H                     6.54483   26.39586   16.06458 
 C                     0.70852   23.32786   9.45542 
 H                     0.8725    24.22342   8.85685 
 H                    -0.36063   23.18142   9.57665 
 H                     1.12201   22.47457   8.91831 
 N                     2.70387   23.60196   10.94735 
 H                     3.38148   23.6209   10.20228 
 C                     1.34886   23.46952   10.78702 
 C                     2.94954   23.71075   12.27312 
 H                     3.92776   23.80701   12.69742 
 N                     1.83575   23.64049   12.95919 
 C                     0.83065   23.50617   12.04912 
 H                    -0.187     23.4211   12.36835 
 C                     2.65627   25.66941   18.42968 
 H                     3.55274   26.05641   18.91089 
 H                     1.7944    25.89738   19.05196 
 H                     2.53047   26.17068   17.47512 
 C                     2.7758    24.17236   18.22144 
 H                     2.83038   23.65226   19.17879 
 H                     3.64755   23.92599   17.6176 
 S                     1.28848   23.53894   17.34096 
 C                     1.45395   21.78918   17.79736 
 H                     2.41854   21.41604   17.46841 
 H                     0.6618    21.259    17.28073 
 H                     1.3386    21.68769   18.87321 
 
 Stoichiometry    C37H42FeN6S
 Framework group  C1[X(C37H42FeN6S)]
 Deg. of freedom   255
 Full point group                 C1      NOp   1
 Largest Abelian subgroup         C1      NOp   1
 Largest concise Abelian subgroup C1      NOp   1
                         Standard orientation:                         
 ---------------------------------------------------------------------
 Center     Atomic      Atomic             Coordinates (Angstroms)
 Number     Number       Type             X           Y           Z
 ---------------------------------------------------------------------
      1         26           0       -0.100022   -0.101837   -0.108398
      2          7           0       -0.394515   -2.085980   -0.047190
      3          7           0       -2.085103    0.215900    0.159948
      4          7           0        0.242011    1.857179   -0.239345
      5          7           0        1.880741   -0.436253   -0.232005
      6          6           0        0.545763   -3.076089   -0.072861
      7          6           0       -0.085222   -4.377915   -0.001522
      8          6           0       -1.425933   -4.148592    0.055507
      9          6           0       -1.598304   -2.711887    0.027539
     10          6           0       -3.066527   -0.724638    0.175395
     11          6           0       -4.364278   -0.091922    0.286731
     12          6           0       -4.130498    1.253443    0.362907
     13          6           0       -2.693575    1.427072    0.274775
     14          6           0       -0.682244    2.829296   -0.052822
     15          6           0       -0.063974    4.141957   -0.139780
     16          6           0        1.261149    3.924516   -0.409898
     17          6           0        1.434755    2.490960   -0.426223
     18          6           0        2.849346    0.492491   -0.425080
     19          6           0        4.160103   -0.129510   -0.441715
     20          6           0        3.951575   -1.459330   -0.190711
     21          6           0        2.522687   -1.629936   -0.089077
     22          6           0        1.909723   -2.866908   -0.000865
     23          1           0        2.554684   -3.735162    0.030437
     24          6           0       -2.841738   -2.094884    0.081457
     25          1           0       -3.699844   -2.749718    0.106762
     26          6           0       -2.031310    2.647920    0.207097
     27          1           0       -2.616783    3.545910    0.326116
     28          6           0        2.638277    1.842060   -0.636015
     29          1           0        3.518201    2.434182   -0.842761
     30          6           0        0.669799   -5.666880   -0.025477
     31          1           0        1.293479   -5.754088    0.863117
     32          1           0        1.326550   -5.726375   -0.895782
     33          1           0        0.000109   -6.522982   -0.047044
     34          6           0       -2.536080   -5.139704    0.148646
     35          1           0       -3.233946   -5.031495   -0.684785
     36          1           0       -3.093233   -4.989312    1.074491
     37          1           0       -2.157735   -6.162214    0.150735
     38          6           0        4.959851   -2.536011    0.007656
     39          1           0        5.100194   -3.134862   -0.894685
     40          1           0        4.640244   -3.202128    0.807268
     41          1           0        5.920411   -2.099637    0.275577
     42          6           0        5.408002    0.582005   -0.604786
     43          1           0        5.447362    1.581592   -0.185370
     44          6           0        6.465314    0.104355   -1.250603
     45          1           0        6.449055   -0.856284   -1.735639
     46          1           0        7.378428    0.667477   -1.334361
     47          6           0        2.372310    4.913579   -0.542230
     48          1           0        2.618742    5.082501   -1.591516
     49          1           0        3.274510    4.562334   -0.042579
     50          1           0        2.099784    5.869128   -0.099450
     51          6           0       -0.766850    5.400480   -0.015621
     52          1           0       -1.596994    5.386793    0.679650
     53          6           0       -0.469654    6.533787   -0.645023
     54          1           0        0.328317    6.584685   -1.367252
     55          1           0       -1.037516    7.439479   -0.482559
     56          6           0       -5.148181    2.340026    0.521392
     57          1           0       -4.798526    3.269392    0.078490
     58          1           0       -5.361245    2.535701    1.575192
     59          1           0       -6.096378    2.082623    0.047845
     60          6           0       -5.686341   -0.790619    0.381846
     61          1           0       -6.471105   -0.222206   -0.115499
     62          1           0       -6.003372   -0.936120    1.419937
     63          1           0       -5.636810   -1.769182   -0.087237
     64          6           0        1.708688    0.841750    5.049168
     65          1           0        1.066500    1.389901    5.737882
     66          1           0        2.506967    1.499926    4.719323
     67          1           0        2.145843   -0.001395    5.583563
     68          7           0       -0.102186   -0.523970    3.982436
     69          1           0       -0.430338   -0.938452    4.839855
     70          6           0        0.929854    0.372067    3.876110
     71          6           0       -0.592156   -0.732017    2.738853
     72          1           0       -1.395234   -1.403213    2.513544
     73          7           0        0.075848   -0.034504    1.853744
     74          6           0        1.014899    0.668753    2.546626
     75          1           0        1.697639    1.316344    2.037453
     76          6           0       -2.952973    0.336391   -3.186575
     77          1           0       -3.921056   -0.079935   -3.459467
     78          1           0       -2.656170    1.063643   -3.938256
     79          1           0       -3.051236    0.849430   -2.235042
     80          6           0       -1.917419   -0.766003   -3.080792
     81          1           0       -1.758472   -1.241044   -4.049853
     82          1           0       -2.211045   -1.514540   -2.346805
     83         16           0       -0.302188   -0.062729   -2.546945
     84          6           0        0.760386   -1.425920   -3.103719
     85          1           0        0.444532   -2.350782   -2.631772
     86          1           0        1.768235   -1.180589   -2.788204
     87          1           0        0.709903   -1.499359   -4.186822
 ---------------------------------------------------------------------
 Rotational constants (GHZ):           0.0833465           0.0806337           0.0574876
 Standard basis: def2TZVP (5D, 7F)
 There are  1894 symmetry adapted cartesian basis functions of A   symmetry.
 There are  1667 symmetry adapted basis functions of A   symmetry.
  1667 basis functions,  2700 primitive gaussians,  1894 cartesian basis functions
   174 alpha electrons      174 beta electrons
       nuclear repulsion energy      7136.3916428907 Hartrees.
 NAtoms=   87 NActive=   87 NUniq=   87 SFac= 1.00D+00 NAtFMM=   60 NAOKFM=T Big=T
 Integral buffers will be    131072 words long.
 Raffenetti 2 integral format.
 Two-electron integral symmetry is turned on.
 R6APFD:  NTU= -4 IXU= 1 FactS= 1.050
 Nuclear repulsion after empirical dispersion term =     7136.2083221068 Hartrees.
 One-electron integrals computed using PRISM.
   1 Symmetry operations used in ECPInt.
 ECPInt:  NShTT=  224115 NPrTT=  692067 LenC2=  177964 LenP2D=  362295.
 LDataN:  DoStor=T MaxTD1= 6 Len=  172
 Number of processors reduced to  21 by ecpmxn.
 NBasis=  1667 RedAO= T EigKep=  3.47D-06  NBF=  1667
 NBsUse=  1667 1.00D-06 EigRej= -1.00D+00 NBFU=  1667
 ExpMin= 4.20D-02 ExpMax= 3.01D+05 ExpMxC= 2.91D+03 IAcc=3 IRadAn=         5 AccDes= 0.00D+00
 Harris functional with IExCor= 3731 and IRadAn=       5 diagonalized for initial guess.
 HarFok:  IExCor= 3731 AccDes= 0.00D+00 IRadAn=         5 IDoV= 1 UseB2=F ITyADJ=14
 ICtDFT=  3500011 ScaDFX=  1.000000  1.000000  1.000000  1.000000
 FoFCou: FMM=F IPFlag=           0 FMFlag=      100000 FMFlg1=        2001
         NFxFlg=           0 DoJE=T BraDBF=F KetDBF=T FulRan=T
         wScrn=  0.000000 ICntrl=       500 IOpCl=  0 I1Cent=   200000004 NGrid=           0
         NMat0=    1 NMatS0=      1 NMatT0=    0 NMatD0=    1 NMtDS0=    0 NMtDT0=    0
 Petite list used in FoFCou.
 Requested convergence on RMS density matrix=1.00D-08 within 128 cycles.
 Requested convergence on MAX density matrix=1.00D-06.
 Requested convergence on             energy=1.00D-06.
 No special actions if energy rises.
 EnCoef did     2 forward-backward iterations
 EnCoef did   100 forward-backward iterations
 EnCoef did   100 forward-backward iterations
 EnCoef did   100 forward-backward iterations
 EnCoef did     4 forward-backward iterations
 EnCoef did     3 forward-backward iterations
 EnCoef did     2 forward-backward iterations
 EnCoef did     1 forward-backward iterations
 Restarting incremental Fock formation.
 SCF Done:  E(RAPFD) =  -3424.84752404     A.U. after   28 cycles
            NFock= 28  Conv=0.21D-08     -V/T= 2.0034
 DoSCS=F DFT=T ScalE2(SS,OS)=  1.000000  1.000000
 Range of M.O.s used for correlation:     1  1667
 NBasis=  1667 NAE=   174 NBE=   174 NFC=     0 NFV=     0
 NROrb=   1667 NOA=   174 NOB=   174 NVA=  1493 NVB=  1493

 **** Warning!!: The largest alpha MO coefficient is  0.48288032D+02

          Differentiating once with respect to electric field.
                with respect to dipole field.
          Electric field/nuclear overlap derivatives assumed to be zero.
          There are     3 degrees of freedom in the 1st order CPHF.  IDoFFX=0 NUNeed=     3.
      3 vectors produced by pass  0 Test12= 8.66D-12 3.33D-08 XBig12= 1.90D+03 2.44D+01.
 AX will form     3 AO Fock derivatives at one time.
      3 vectors produced by pass  1 Test12= 8.66D-12 3.33D-08 XBig12= 1.37D+03 6.53D+00.
      3 vectors produced by pass  2 Test12= 8.66D-12 3.33D-08 XBig12= 3.88D+02 2.78D+00.
      3 vectors produced by pass  3 Test12= 8.66D-12 3.33D-08 XBig12= 2.86D+02 5.16D+00.
      3 vectors produced by pass  4 Test12= 8.66D-12 3.33D-08 XBig12= 8.59D+02 1.08D+01.
      3 vectors produced by pass  5 Test12= 8.66D-12 3.33D-08 XBig12= 1.01D+03 5.94D+00.
      3 vectors produced by pass  6 Test12= 8.66D-12 3.33D-08 XBig12= 6.27D+02 7.79D+00.
      3 vectors produced by pass  7 Test12= 8.66D-12 3.33D-08 XBig12= 2.46D+02 5.02D+00.
      3 vectors produced by pass  8 Test12= 8.66D-12 3.33D-08 XBig12= 1.22D+02 1.79D+00.
      3 vectors produced by pass  9 Test12= 8.66D-12 3.33D-08 XBig12= 5.75D+01 1.44D+00.
      3 vectors produced by pass 10 Test12= 8.66D-12 3.33D-08 XBig12= 2.67D+01 8.54D-01.
      3 vectors produced by pass 11 Test12= 8.66D-12 3.33D-08 XBig12= 8.07D+00 3.18D-01.
      3 vectors produced by pass 12 Test12= 8.66D-12 3.33D-08 XBig12= 3.25D+00 3.49D-01.
      3 vectors produced by pass 13 Test12= 8.66D-12 3.33D-08 XBig12= 1.26D+00 4.00D-01.
      3 vectors produced by pass 14 Test12= 8.66D-12 3.33D-08 XBig12= 5.96D-01 3.03D-01.
      3 vectors produced by pass 15 Test12= 8.66D-12 3.33D-08 XBig12= 2.68D-01 1.48D-01.
      3 vectors produced by pass 16 Test12= 8.66D-12 3.33D-08 XBig12= 1.08D-01 5.57D-02.
      3 vectors produced by pass 17 Test12= 8.66D-12 3.33D-08 XBig12= 4.16D-02 2.54D-02.
      3 vectors produced by pass 18 Test12= 8.66D-12 3.33D-08 XBig12= 9.76D-03 1.96D-02.
      3 vectors produced by pass 19 Test12= 8.66D-12 3.33D-08 XBig12= 2.47D-03 1.08D-02.
      3 vectors produced by pass 20 Test12= 8.66D-12 3.33D-08 XBig12= 6.60D-04 5.64D-03.
      3 vectors produced by pass 21 Test12= 8.66D-12 3.33D-08 XBig12= 1.56D-04 2.40D-03.
      3 vectors produced by pass 22 Test12= 8.66D-12 3.33D-08 XBig12= 3.80D-05 9.93D-04.
      3 vectors produced by pass 23 Test12= 8.66D-12 3.33D-08 XBig12= 1.28D-05 7.53D-04.
      3 vectors produced by pass 24 Test12= 8.66D-12 3.33D-08 XBig12= 2.53D-06 2.75D-04.
      3 vectors produced by pass 25 Test12= 8.66D-12 3.33D-08 XBig12= 6.57D-07 1.33D-04.
      3 vectors produced by pass 26 Test12= 8.66D-12 3.33D-08 XBig12= 8.92D-08 3.92D-05.
      3 vectors produced by pass 27 Test12= 8.66D-12 3.33D-08 XBig12= 1.42D-08 1.99D-05.
      3 vectors produced by pass 28 Test12= 8.66D-12 3.33D-08 XBig12= 2.59D-09 4.55D-06.
      3 vectors produced by pass 29 Test12= 8.66D-12 3.33D-08 XBig12= 4.86D-10 2.94D-06.
      3 vectors produced by pass 30 Test12= 8.66D-12 3.33D-08 XBig12= 8.37D-11 1.27D-06.
      2 vectors produced by pass 31 Test12= 8.66D-12 3.33D-08 XBig12= 1.40D-11 3.72D-07.
      2 vectors produced by pass 32 Test12= 8.66D-12 3.33D-08 XBig12= 1.45D-12 1.79D-07.
      1 vectors produced by pass 33 Test12= 8.66D-12 3.33D-08 XBig12= 1.92D-13 7.39D-08.
 InvSVY:  IOpt=1 It=  1 EMax= 1.42D-14
 Solved reduced A of dimension    98 with     3 vectors.
 Isotropic polarizability for W=    0.000000      614.94 Bohr**3.
 End of Minotr F.D. properties file   721 does not exist.
 End of Minotr F.D. properties file   722 does not exist.
 End of Minotr F.D. properties file   788 does not exist.

 **********************************************************************

            Population analysis using the SCF Density.

 **********************************************************************

 Orbital symmetries:
       Occupied  (A) (A) (A) (A) (A) (A) (A) (A) (A) (A) (A) (A)
                 (A) (A) (A) (A) (A) (A) (A) (A) (A) (A) (A) (A)
                 (A) (A) (A) (A) (A) (A) (A) (A) (A) (A) (A) (A)
                 (A) (A) (A) (A) (A) (A) (A) (A) (A) (A) (A) (A)
                 (A) (A) (A) (A) (A) (A) (A) (A) (A) (A) (A) (A)
                 (A) (A) (A) (A) (A) (A) (A) (A) (A) (A) (A) (A)
                 (A) (A) (A) (A) (A) (A) (A) (A) (A) (A) (A) (A)
                 (A) (A) (A) (A) (A) (A) (A) (A) (A) (A) (A) (A)
                 (A) (A) (A) (A) (A) (A) (A) (A) (A) (A) (A) (A)
                 (A) (A) (A) (A) (A) (A) (A) (A) (A) (A) (A) (A)
                 (A) (A) (A) (A) (A) (A) (A) (A) (A) (A) (A) (A)
                 (A) (A) (A) (A) (A) (A) (A) (A) (A) (A) (A) (A)
                 (A) (A) (A) (A) (A) (A) (A) (A) (A) (A) (A) (A)
                 (A) (A) (A) (A) (A) (A) (A) (A) (A) (A) (A) (A)
                 (A) (A) (A) (A) (A) (A)
       Virtual   (A) (A) (A) (A) (A) (A) (A) (A) (A) (A) (A) (A)
                 (A) (A) (A) (A) (A) (A) (A) (A) (A) (A) (A) (A)
                 (A) (A) (A) (A) (A) (A) (A) (A) (A) (A) (A) (A)
                 (A) (A) (A) (A) (A) (A) (A) (A) (A) (A) (A) (A)
                 (A) (A) (A) (A) (A) (A) (A) (A) (A) (A) (A) (A)
                 (A) (A) (A) (A) (A) (A) (A) (A) (A) (A) (A) (A)
                 (A) (A) (A) (A) (A) (A) (A) (A) (A) (A) (A) (A)
                 (A) (A) (A) (A) (A) (A) (A) (A) (A) (A) (A) (A)
                 (A) (A) (A) (A) (A) (A) (A) (A) (A) (A) (A) (A)
                 (A) (A) (A) (A) (A) (A) (A) (A) (A) (A) (A) (A)
                 (A) (A) (A) (A) (A) (A) (A) (A) (A) (A) (A) (A)
                 (A) (A) (A) (A) (A) (A) (A) (A) (A) (A) (A) (A)
                 (A) (A) (A) (A) (A) (A) (A) (A) (A) (A) (A) (A)
                 (A) (A) (A) (A) (A) (A) (A) (A) (A) (A) (A) (A)
                 (A) (A) (A) (A) (A) (A) (A) (A) (A) (A) (A) (A)
                 (A) (A) (A) (A) (A) (A) (A) (A) (A) (A) (A) (A)
                 (A) (A) (A) (A) (A) (A) (A) (A) (A) (A) (A) (A)
                 (A) (A) (A) (A) (A) (A) (A) (A) (A) (A) (A) (A)
                 (A) (A) (A) (A) (A) (A) (A) (A) (A) (A) (A) (A)
                 (A) (A) (A) (A) (A) (A) (A) (A) (A) (A) (A) (A)
                 (A) (A) (A) (A) (A) (A) (A) (A) (A) (A) (A) (A)
                 (A) (A) (A) (A) (A) (A) (A) (A) (A) (A) (A) (A)
                 (A) (A) (A) (A) (A) (A) (A) (A) (A) (A) (A) (A)
                 (A) (A) (A) (A) (A) (A) (A) (A) (A) (A) (A) (A)
                 (A) (A) (A) (A) (A) (A) (A) (A) (A) (A) (A) (A)
                 (A) (A) (A) (A) (A) (A) (A) (A) (A) (A) (A) (A)
                 (A) (A) (A) (A) (A) (A) (A) (A) (A) (A) (A) (A)
                 (A) (A) (A) (A) (A) (A) (A) (A) (A) (A) (A) (A)
                 (A) (A) (A) (A) (A) (A) (A) (A) (A) (A) (A) (A)
                 (A) (A) (A) (A) (A) (A) (A) (A) (A) (A) (A) (A)
                 (A) (A) (A) (A) (A) (A) (A) (A) (A) (A) (A) (A)
                 (A) (A) (A) (A) (A) (A) (A) (A) (A) (A) (A) (A)
                 (A) (A) (A) (A) (A) (A) (A) (A) (A) (A) (A) (A)
                 (A) (A) (A) (A) (A) (A) (A) (A) (A) (A) (A) (A)
                 (A) (A) (A) (A) (A) (A) (A) (A) (A) (A) (A) (A)
                 (A) (A) (A) (A) (A) (A) (A) (A) (A) (A) (A) (A)
                 (A) (A) (A) (A) (A) (A) (A) (A) (A) (A) (A) (A)
                 (A) (A) (A) (A) (A) (A) (A) (A) (A) (A) (A) (A)
                 (A) (A) (A) (A) (A) (A) (A) (A) (A) (A) (A) (A)
                 (A) (A) (A) (A) (A) (A) (A) (A) (A) (A) (A) (A)
                 (A) (A) (A) (A) (A) (A) (A) (A) (A) (A) (A) (A)
                 (A) (A) (A) (A) (A) (A) (A) (A) (A) (A) (A) (A)
                 (A) (A) (A) (A) (A) (A) (A) (A) (A) (A) (A) (A)
                 (A) (A) (A) (A) (A) (A) (A) (A) (A) (A) (A) (A)
                 (A) (A) (A) (A) (A) (A) (A) (A) (A) (A) (A) (A)
                 (A) (A) (A) (A) (A) (A) (A) (A) (A) (A) (A) (A)
                 (A) (A) (A) (A) (A) (A) (A) (A) (A) (A) (A) (A)
                 (A) (A) (A) (A) (A) (A) (A) (A) (A) (A) (A) (A)
                 (A) (A) (A) (A) (A) (A) (A) (A) (A) (A) (A) (A)
                 (A) (A) (A) (A) (A) (A) (A) (A) (A) (A) (A) (A)
                 (A) (A) (A) (A) (A) (A) (A) (A) (A) (A) (A) (A)
                 (A) (A) (A) (A) (A) (A) (A) (A) (A) (A) (A) (A)
                 (A) (A) (A) (A) (A) (A) (A) (A) (A) (A) (A) (A)
                 (A) (A) (A) (A) (A) (A) (A) (A) (A) (A) (A) (A)
                 (A) (A) (A) (A) (A) (A) (A) (A) (A) (A) (A) (A)
                 (A) (A) (A) (A) (A) (A) (A) (A) (A) (A) (A) (A)
                 (A) (A) (A) (A) (A) (A) (A) (A) (A) (A) (A) (A)
                 (A) (A) (A) (A) (A) (A) (A) (A) (A) (A) (A) (A)
                 (A) (A) (A) (A) (A) (A) (A) (A) (A) (A) (A) (A)
                 (A) (A) (A) (A) (A) (A) (A) (A) (A) (A) (A) (A)
                 (A) (A) (A) (A) (A) (A) (A) (A) (A) (A) (A) (A)
                 (A) (A) (A) (A) (A) (A) (A) (A) (A) (A) (A) (A)
                 (A) (A) (A) (A) (A) (A) (A) (A) (A) (A) (A) (A)
                 (A) (A) (A) (A) (A) (A) (A) (A) (A) (A) (A) (A)
                 (A) (A) (A) (A) (A) (A) (A) (A) (A) (A) (A) (A)
                 (A) (A) (A) (A) (A) (A) (A) (A) (A) (A) (A) (A)
                 (A) (A) (A) (A) (A) (A) (A) (A) (A) (A) (A) (A)
                 (A) (A) (A) (A) (A) (A) (A) (A) (A) (A) (A) (A)
                 (A) (A) (A) (A) (A) (A) (A) (A) (A) (A) (A) (A)
                 (A) (A) (A) (A) (A) (A) (A) (A) (A) (A) (A) (A)
                 (A) (A) (A) (A) (A) (A) (A) (A) (A) (A) (A) (A)
                 (A) (A) (A) (A) (A) (A) (A) (A) (A) (A) (A) (A)
                 (A) (A) (A) (A) (A) (A) (A) (A) (A) (A) (A) (A)
                 (A) (A) (A) (A) (A) (A) (A) (A) (A) (A) (A) (A)
                 (A) (A) (A) (A) (A) (A) (A) (A) (A) (A) (A) (A)
                 (A) (A) (A) (A) (A) (A) (A) (A) (A) (A) (A) (A)
                 (A) (A) (A) (A) (A) (A) (A) (A) (A) (A) (A) (A)
                 (A) (A) (A) (A) (A) (A) (A) (A) (A) (A) (A) (A)
                 (A) (A) (A) (A) (A) (A) (A) (A) (A) (A) (A) (A)
                 (A) (A) (A) (A) (A) (A) (A) (A) (A) (A) (A) (A)
                 (A) (A) (A) (A) (A) (A) (A) (A) (A) (A) (A) (A)
                 (A) (A) (A) (A) (A) (A) (A) (A) (A) (A) (A) (A)
                 (A) (A) (A) (A) (A) (A) (A) (A) (A) (A) (A) (A)
                 (A) (A) (A) (A) (A) (A) (A) (A) (A) (A) (A) (A)
                 (A) (A) (A) (A) (A) (A) (A) (A) (A) (A) (A) (A)
                 (A) (A) (A) (A) (A) (A) (A) (A) (A) (A) (A) (A)
                 (A) (A) (A) (A) (A) (A) (A) (A) (A) (A) (A) (A)
                 (A) (A) (A) (A) (A) (A) (A) (A) (A) (A) (A) (A)
                 (A) (A) (A) (A) (A) (A) (A) (A) (A) (A) (A) (A)
                 (A) (A) (A) (A) (A) (A) (A) (A) (A) (A) (A) (A)
                 (A) (A) (A) (A) (A) (A) (A) (A) (A) (A) (A) (A)
                 (A) (A) (A) (A) (A) (A) (A) (A) (A) (A) (A) (A)
                 (A) (A) (A) (A) (A) (A) (A) (A) (A) (A) (A) (A)
                 (A) (A) (A) (A) (A) (A) (A) (A) (A) (A) (A) (A)
                 (A) (A) (A) (A) (A) (A) (A) (A) (A) (A) (A) (A)
                 (A) (A) (A) (A) (A) (A) (A) (A) (A) (A) (A) (A)
                 (A) (A) (A) (A) (A) (A) (A) (A) (A) (A) (A) (A)
                 (A) (A) (A) (A) (A) (A) (A) (A) (A) (A) (A) (A)
                 (A) (A) (A) (A) (A) (A) (A) (A) (A) (A) (A) (A)
                 (A) (A) (A) (A) (A) (A) (A) (A) (A) (A) (A) (A)
                 (A) (A) (A) (A) (A) (A) (A) (A) (A) (A) (A) (A)
                 (A) (A) (A) (A) (A) (A) (A) (A) (A) (A) (A) (A)
                 (A) (A) (A) (A) (A) (A) (A) (A) (A) (A) (A) (A)
                 (A) (A) (A) (A) (A) (A) (A) (A) (A) (A) (A) (A)
                 (A) (A) (A) (A) (A) (A) (A) (A) (A) (A) (A) (A)
                 (A) (A) (A) (A) (A) (A) (A) (A) (A) (A) (A) (A)
                 (A) (A) (A) (A) (A) (A) (A) (A) (A) (A) (A) (A)
                 (A) (A) (A) (A) (A) (A) (A) (A) (A) (A) (A) (A)
                 (A) (A) (A) (A) (A) (A) (A) (A) (A) (A) (A) (A)
                 (A) (A) (A) (A) (A) (A) (A) (A) (A) (A) (A) (A)
                 (A) (A) (A) (A) (A) (A) (A) (A) (A) (A) (A) (A)
                 (A) (A) (A) (A) (A) (A) (A) (A) (A) (A) (A) (A)
                 (A) (A) (A) (A) (A) (A) (A) (A) (A) (A) (A) (A)
                 (A) (A) (A) (A) (A) (A) (A) (A) (A) (A) (A) (A)
                 (A) (A) (A) (A) (A) (A) (A) (A) (A) (A) (A) (A)
                 (A) (A) (A) (A) (A) (A) (A) (A) (A) (A) (A) (A)
                 (A) (A) (A) (A) (A) (A) (A) (A) (A) (A) (A) (A)
                 (A) (A) (A) (A) (A) (A) (A) (A) (A) (A) (A) (A)
                 (A) (A) (A) (A) (A) (A) (A) (A) (A) (A) (A) (A)
                 (A) (A) (A) (A) (A) (A) (A) (A) (A) (A) (A) (A)
                 (A) (A) (A) (A) (A) (A) (A) (A) (A) (A) (A) (A)
                 (A) (A) (A) (A) (A) (A) (A) (A) (A) (A) (A) (A)
                 (A) (A) (A) (A) (A) (A) (A) (A) (A) (A) (A) (A)
                 (A) (A) (A) (A) (A) (A) (A) (A) (A) (A) (A) (A)
                 (A) (A) (A) (A) (A)
 The electronic state is 1-A.
 Alpha  occ. eigenvalues -- -256.17588 -88.93905 -30.02653 -25.86777 -25.86440
 Alpha  occ. eigenvalues --  -25.86397 -14.41569 -14.36039 -14.33310 -14.33279
 Alpha  occ. eigenvalues --  -14.33181 -14.32998 -10.25255 -10.23496 -10.21064
 Alpha  occ. eigenvalues --  -10.20998 -10.20954 -10.20953 -10.20896 -10.20892
 Alpha  occ. eigenvalues --  -10.20892 -10.20848 -10.20842 -10.20839 -10.20541
 Alpha  occ. eigenvalues --  -10.19995 -10.19577 -10.19346 -10.19051 -10.18942
 Alpha  occ. eigenvalues --  -10.18927 -10.18864 -10.18841 -10.18792 -10.18779
 Alpha  occ. eigenvalues --  -10.18740 -10.18698 -10.18669 -10.18579 -10.18518
 Alpha  occ. eigenvalues --  -10.18446 -10.18434 -10.18432 -10.18399 -10.18367
 Alpha  occ. eigenvalues --  -10.18248 -10.18151 -10.18019 -10.17275  -7.96565
 Alpha  occ. eigenvalues --   -5.91157  -5.90865  -5.90334  -3.40075  -2.16629
 Alpha  occ. eigenvalues --   -2.15968  -2.15907  -1.05154  -0.96834  -0.95877
 Alpha  occ. eigenvalues --   -0.95832  -0.94900  -0.90759  -0.82161  -0.81867
 Alpha  occ. eigenvalues --   -0.81403  -0.81359  -0.80605  -0.80236  -0.80078
 Alpha  occ. eigenvalues --   -0.79459  -0.79377  -0.76601  -0.75587  -0.74566
 Alpha  occ. eigenvalues --   -0.74161  -0.73870  -0.73057  -0.71671  -0.70882
 Alpha  occ. eigenvalues --   -0.70007  -0.68218  -0.67866  -0.67787  -0.64754
 Alpha  occ. eigenvalues --   -0.64455  -0.64137  -0.64040  -0.61124  -0.60512
 Alpha  occ. eigenvalues --   -0.59910  -0.58634  -0.57707  -0.56609  -0.55799
 Alpha  occ. eigenvalues --   -0.54501  -0.53603  -0.53199  -0.52514  -0.51034
 Alpha  occ. eigenvalues --   -0.50984  -0.50555  -0.48695  -0.47937  -0.47783
 Alpha  occ. eigenvalues --   -0.47433  -0.47266  -0.46832  -0.44884  -0.44809
 Alpha  occ. eigenvalues --   -0.44474  -0.44344  -0.44324  -0.43805  -0.43589
 Alpha  occ. eigenvalues --   -0.43379  -0.43161  -0.43064  -0.42905  -0.42865
 Alpha  occ. eigenvalues --   -0.42529  -0.42359  -0.42311  -0.42270  -0.41975
 Alpha  occ. eigenvalues --   -0.41761  -0.41612  -0.41479  -0.40884  -0.40231
 Alpha  occ. eigenvalues --   -0.40095  -0.39990  -0.39554  -0.39491  -0.38954
 Alpha  occ. eigenvalues --   -0.38898  -0.38493  -0.38149  -0.37897  -0.37728
 Alpha  occ. eigenvalues --   -0.37566  -0.36976  -0.36784  -0.36446  -0.36013
 Alpha  occ. eigenvalues --   -0.35892  -0.35368  -0.35181  -0.34746  -0.34162
 Alpha  occ. eigenvalues --   -0.33971  -0.33718  -0.33297  -0.32104  -0.31719
 Alpha  occ. eigenvalues --   -0.31423  -0.30638  -0.30360  -0.29178  -0.28765
 Alpha  occ. eigenvalues --   -0.28567  -0.26782  -0.26614  -0.25090  -0.24258
 Alpha  occ. eigenvalues --   -0.23432  -0.22929  -0.22342  -0.21974  -0.19195
 Alpha  occ. eigenvalues --   -0.18007  -0.17980  -0.17804  -0.17615
 Alpha virt. eigenvalues --   -0.06669  -0.06455  -0.02040   0.00585   0.01529
 Alpha virt. eigenvalues --    0.01966   0.02257   0.03111   0.03511   0.03843
 Alpha virt. eigenvalues --    0.04863   0.05180   0.05212   0.05488   0.05714
 Alpha virt. eigenvalues --    0.05987   0.06568   0.06627   0.07047   0.07473
 Alpha virt. eigenvalues --    0.07811   0.07995   0.08540   0.08645   0.08944
 Alpha virt. eigenvalues --    0.09454   0.09758   0.09924   0.09958   0.10212
 Alpha virt. eigenvalues --    0.10401   0.10942   0.11019   0.11339   0.11561
 Alpha virt. eigenvalues --    0.11628   0.12267   0.12349   0.12518   0.12739
 Alpha virt. eigenvalues --    0.12949   0.13159   0.13405   0.13504   0.13707
 Alpha virt. eigenvalues --    0.13775   0.13973   0.14199   0.14389   0.14535
 Alpha virt. eigenvalues --    0.14760   0.15026   0.15227   0.15430   0.15493
 Alpha virt. eigenvalues --    0.15742   0.15899   0.16004   0.16411   0.16579
 Alpha virt. eigenvalues --    0.16722   0.16832   0.17122   0.17348   0.17782
 Alpha virt. eigenvalues --    0.18018   0.18076   0.18479   0.18788   0.18827
 Alpha virt. eigenvalues --    0.19101   0.19469   0.19919   0.20066   0.20318
 Alpha virt. eigenvalues --    0.20557   0.20752   0.20933   0.21136   0.21466
 Alpha virt. eigenvalues --    0.21828   0.21880   0.22282   0.22309   0.22501
 Alpha virt. eigenvalues --    0.22631   0.23281   0.23570   0.23637   0.24069
 Alpha virt. eigenvalues --    0.24306   0.24499   0.24633   0.25081   0.25239
 Alpha virt. eigenvalues --    0.25329   0.25743   0.25890   0.26292   0.26682
 Alpha virt. eigenvalues --    0.26745   0.26971   0.27036   0.27295   0.28039
 Alpha virt. eigenvalues --    0.28112   0.28323   0.28550   0.28961   0.29039
 Alpha virt. eigenvalues --    0.29060   0.29565   0.29775   0.30261   0.30448
 Alpha virt. eigenvalues --    0.30641   0.30851   0.31037   0.31142   0.31575
 Alpha virt. eigenvalues --    0.31790   0.32100   0.32316   0.32573   0.32672
 Alpha virt. eigenvalues --    0.32985   0.33197   0.33382   0.33923   0.34154
 Alpha virt. eigenvalues --    0.34312   0.34426   0.34855   0.35098   0.35523
 Alpha virt. eigenvalues --    0.35957   0.36279   0.36399   0.36633   0.36770
 Alpha virt. eigenvalues --    0.37197   0.37307   0.37668   0.37975   0.38155
 Alpha virt. eigenvalues --    0.38258   0.38610   0.38849   0.39222   0.39283
 Alpha virt. eigenvalues --    0.39361   0.39554   0.39951   0.40085   0.40255
 Alpha virt. eigenvalues --    0.40446   0.40646   0.40750   0.41113   0.41228
 Alpha virt. eigenvalues --    0.41285   0.41840   0.42015   0.42097   0.42192
 Alpha virt. eigenvalues --    0.42625   0.42702   0.42949   0.43175   0.43287
 Alpha virt. eigenvalues --    0.43309   0.43617   0.43995   0.44128   0.44323
 Alpha virt. eigenvalues --    0.44458   0.44680   0.44828   0.45104   0.45314
 Alpha virt. eigenvalues --    0.45409   0.45459   0.45699   0.45775   0.46041
 Alpha virt. eigenvalues --    0.46138   0.46263   0.46363   0.46851   0.47176
 Alpha virt. eigenvalues --    0.47305   0.47372   0.47550   0.47601   0.47834
 Alpha virt. eigenvalues --    0.47975   0.48122   0.48406   0.48604   0.48771
 Alpha virt. eigenvalues --    0.49000   0.49319   0.49518   0.49650   0.49900
 Alpha virt. eigenvalues --    0.50099   0.50172   0.50348   0.50550   0.50761
 Alpha virt. eigenvalues --    0.51030   0.51391   0.51512   0.51751   0.51845
 Alpha virt. eigenvalues --    0.52306   0.52369   0.52608   0.52937   0.53254
 Alpha virt. eigenvalues --    0.53356   0.53501   0.53655   0.54053   0.54291
 Alpha virt. eigenvalues --    0.54431   0.54759   0.55048   0.55142   0.55467
 Alpha virt. eigenvalues --    0.55632   0.55943   0.56435   0.56682   0.56798
 Alpha virt. eigenvalues --    0.57157   0.57205   0.57388   0.57765   0.57848
 Alpha virt. eigenvalues --    0.58055   0.58447   0.58685   0.58878   0.59110
 Alpha virt. eigenvalues --    0.59349   0.59730   0.59912   0.60303   0.60582
 Alpha virt. eigenvalues --    0.61012   0.61053   0.61291   0.61567   0.62048
 Alpha virt. eigenvalues --    0.62110   0.62547   0.62669   0.62970   0.63174
 Alpha virt. eigenvalues --    0.63838   0.63991   0.64259   0.64453   0.64603
 Alpha virt. eigenvalues --    0.65120   0.65266   0.65372   0.66040   0.66136
 Alpha virt. eigenvalues --    0.66482   0.66812   0.66932   0.67422   0.67697
 Alpha virt. eigenvalues --    0.67906   0.68110   0.68571   0.68951   0.69256
 Alpha virt. eigenvalues --    0.69444   0.69881   0.70279   0.70847   0.71104
 Alpha virt. eigenvalues --    0.71396   0.71602   0.72032   0.72232   0.72324
 Alpha virt. eigenvalues --    0.72910   0.72957   0.73417   0.73593   0.73936
 Alpha virt. eigenvalues --    0.74316   0.74652   0.74769   0.75002   0.75214
 Alpha virt. eigenvalues --    0.75723   0.75857   0.76481   0.76564   0.76800
 Alpha virt. eigenvalues --    0.77017   0.77498   0.77819   0.77924   0.78509
 Alpha virt. eigenvalues --    0.78876   0.79265   0.79582   0.79847   0.80098
 Alpha virt. eigenvalues --    0.80283   0.80931   0.81029   0.81419   0.81687
 Alpha virt. eigenvalues --    0.81914   0.82275   0.82934   0.83405   0.83605
 Alpha virt. eigenvalues --    0.83980   0.84122   0.84611   0.84752   0.85266
 Alpha virt. eigenvalues --    0.85481   0.85835   0.86075   0.86719   0.87227
 Alpha virt. eigenvalues --    0.87384   0.87641   0.88017   0.88047   0.88601
 Alpha virt. eigenvalues --    0.88829   0.89296   0.89911   0.90025   0.90327
 Alpha virt. eigenvalues --    0.90625   0.90764   0.90961   0.91128   0.91639
 Alpha virt. eigenvalues --    0.92048   0.92149   0.92488   0.92980   0.93344
 Alpha virt. eigenvalues --    0.93434   0.93499   0.94263   0.94478   0.94847
 Alpha virt. eigenvalues --    0.95099   0.95193   0.95640   0.95862   0.96223
 Alpha virt. eigenvalues --    0.96763   0.96946   0.97506   0.97668   0.98081
 Alpha virt. eigenvalues --    0.98444   0.98577   0.98722   0.99124   0.99333
 Alpha virt. eigenvalues --    0.99704   0.99753   1.00093   1.00475   1.00576
 Alpha virt. eigenvalues --    1.01197   1.01519   1.01730   1.02179   1.02464
 Alpha virt. eigenvalues --    1.03092   1.03172   1.03284   1.03334   1.04051
 Alpha virt. eigenvalues --    1.04118   1.04945   1.05380   1.05569   1.05845
 Alpha virt. eigenvalues --    1.06313   1.06604   1.06863   1.07064   1.07508
 Alpha virt. eigenvalues --    1.07937   1.08096   1.08417   1.09225   1.09537
 Alpha virt. eigenvalues --    1.09738   1.10094   1.10366   1.10688   1.11032
 Alpha virt. eigenvalues --    1.11200   1.11734   1.12127   1.12476   1.12809
 Alpha virt. eigenvalues --    1.13142   1.13643   1.13788   1.14063   1.14508
 Alpha virt. eigenvalues --    1.14807   1.15256   1.15625   1.16095   1.16820
 Alpha virt. eigenvalues --    1.17028   1.17349   1.17917   1.18531   1.18728
 Alpha virt. eigenvalues --    1.19228   1.19717   1.19910   1.19948   1.20403
 Alpha virt. eigenvalues --    1.20479   1.21007   1.21099   1.21270   1.21610
 Alpha virt. eigenvalues --    1.21976   1.22426   1.23112   1.23397   1.23592
 Alpha virt. eigenvalues --    1.24197   1.24775   1.24921   1.25422   1.25718
 Alpha virt. eigenvalues --    1.25839   1.26226   1.26478   1.26792   1.27018
 Alpha virt. eigenvalues --    1.27535   1.28149   1.28291   1.28780   1.29047
 Alpha virt. eigenvalues --    1.29487   1.29927   1.30651   1.30949   1.31029
 Alpha virt. eigenvalues --    1.31584   1.31852   1.32328   1.32487   1.33041
 Alpha virt. eigenvalues --    1.33206   1.34100   1.34371   1.35020   1.35656
 Alpha virt. eigenvalues --    1.36946   1.36985   1.37490   1.37879   1.38087
 Alpha virt. eigenvalues --    1.38545   1.39179   1.39815   1.40199   1.40492
 Alpha virt. eigenvalues --    1.41324   1.41897   1.42228   1.42626   1.42911
 Alpha virt. eigenvalues --    1.43342   1.44224   1.44382   1.45126   1.45520
 Alpha virt. eigenvalues --    1.45895   1.46230   1.46572   1.46958   1.47507
 Alpha virt. eigenvalues --    1.47859   1.48037   1.48822   1.48904   1.49227
 Alpha virt. eigenvalues --    1.49379   1.49680   1.50385   1.50657   1.50886
 Alpha virt. eigenvalues --    1.51191   1.51501   1.51675   1.51745   1.52124
 Alpha virt. eigenvalues --    1.52299   1.52469   1.52654   1.53157   1.53476
 Alpha virt. eigenvalues --    1.53661   1.53896   1.54019   1.54507   1.54547
 Alpha virt. eigenvalues --    1.54943   1.55342   1.55529   1.55720   1.55957
 Alpha virt. eigenvalues --    1.56336   1.56657   1.56724   1.56930   1.57449
 Alpha virt. eigenvalues --    1.57658   1.57879   1.58313   1.58694   1.58896
 Alpha virt. eigenvalues --    1.59306   1.59568   1.59731   1.59932   1.60234
 Alpha virt. eigenvalues --    1.60393   1.60762   1.61321   1.61383   1.61721
 Alpha virt. eigenvalues --    1.61869   1.62239   1.62641   1.62909   1.63241
 Alpha virt. eigenvalues --    1.63402   1.63829   1.63882   1.64273   1.64514
 Alpha virt. eigenvalues --    1.64667   1.64989   1.65093   1.65630   1.66056
 Alpha virt. eigenvalues --    1.66200   1.66565   1.66606   1.66841   1.67359
 Alpha virt. eigenvalues --    1.67886   1.67951   1.68108   1.68842   1.69207
 Alpha virt. eigenvalues --    1.69360   1.69583   1.69788   1.69872   1.70314
 Alpha virt. eigenvalues --    1.70708   1.70810   1.71542   1.71607   1.71812
 Alpha virt. eigenvalues --    1.72334   1.72488   1.72827   1.73475   1.73654
 Alpha virt. eigenvalues --    1.73726   1.74219   1.74401   1.74536   1.74880
 Alpha virt. eigenvalues --    1.75266   1.76062   1.76427   1.76643   1.77062
 Alpha virt. eigenvalues --    1.77292   1.78031   1.78401   1.78917   1.79111
 Alpha virt. eigenvalues --    1.79563   1.79957   1.80357   1.80954   1.81654
 Alpha virt. eigenvalues --    1.82110   1.82700   1.83093   1.83259   1.84075
 Alpha virt. eigenvalues --    1.84280   1.84596   1.85125   1.85261   1.85497
 Alpha virt. eigenvalues --    1.85756   1.85885   1.86321   1.86625   1.87537
 Alpha virt. eigenvalues --    1.87686   1.87815   1.88281   1.88625   1.88939
 Alpha virt. eigenvalues --    1.89370   1.89701   1.90092   1.90557   1.91281
 Alpha virt. eigenvalues --    1.91702   1.92081   1.92374   1.92839   1.93433
 Alpha virt. eigenvalues --    1.94298   1.94726   1.94788   1.95199   1.95395
 Alpha virt. eigenvalues --    1.95963   1.96434   1.96619   1.97064   1.97560
 Alpha virt. eigenvalues --    1.98001   1.98292   1.98450   1.98775   1.99242
 Alpha virt. eigenvalues --    1.99949   2.00407   2.00658   2.00907   2.01134
 Alpha virt. eigenvalues --    2.01504   2.02056   2.02404   2.02974   2.03744
 Alpha virt. eigenvalues --    2.03990   2.04321   2.04476   2.04961   2.05000
 Alpha virt. eigenvalues --    2.05218   2.05954   2.06655   2.06858   2.07435
 Alpha virt. eigenvalues --    2.08132   2.08921   2.09271   2.10257   2.10489
 Alpha virt. eigenvalues --    2.10950   2.11305   2.11616   2.11847   2.11997
 Alpha virt. eigenvalues --    2.12207   2.12809   2.13087   2.13172   2.13415
 Alpha virt. eigenvalues --    2.13886   2.14462   2.14949   2.15556   2.15781
 Alpha virt. eigenvalues --    2.15967   2.16062   2.16707   2.17278   2.17476
 Alpha virt. eigenvalues --    2.17547   2.18406   2.18853   2.19145   2.19761
 Alpha virt. eigenvalues --    2.19985   2.20405   2.21034   2.21070   2.21379
 Alpha virt. eigenvalues --    2.21501   2.21672   2.22124   2.22307   2.22595
 Alpha virt. eigenvalues --    2.23219   2.23792   2.24775   2.25000   2.25070
 Alpha virt. eigenvalues --    2.25954   2.26472   2.27135   2.27353   2.27638
 Alpha virt. eigenvalues --    2.28106   2.28307   2.29079   2.29271   2.29634
 Alpha virt. eigenvalues --    2.29806   2.30095   2.30784   2.31300   2.31698
 Alpha virt. eigenvalues --    2.31787   2.32537   2.32675   2.33017   2.33394
 Alpha virt. eigenvalues --    2.33778   2.34542   2.35293   2.35555   2.35934
 Alpha virt. eigenvalues --    2.36127   2.36399   2.36991   2.37377   2.37467
 Alpha virt. eigenvalues --    2.38031   2.38456   2.39017   2.39092   2.39443
 Alpha virt. eigenvalues --    2.39847   2.40283   2.40372   2.41382   2.41774
 Alpha virt. eigenvalues --    2.41968   2.42695   2.42993   2.43394   2.43706
 Alpha virt. eigenvalues --    2.43862   2.44185   2.44566   2.44994   2.45890
 Alpha virt. eigenvalues --    2.46105   2.46228   2.46803   2.46881   2.47333
 Alpha virt. eigenvalues --    2.47804   2.48213   2.48312   2.48975   2.49303
 Alpha virt. eigenvalues --    2.49808   2.49970   2.50113   2.50717   2.51212
 Alpha virt. eigenvalues --    2.51862   2.51993   2.52496   2.52752   2.52885
 Alpha virt. eigenvalues --    2.53425   2.53663   2.54035   2.54244   2.54868
 Alpha virt. eigenvalues --    2.55182   2.55557   2.56099   2.56314   2.56646
 Alpha virt. eigenvalues --    2.56918   2.57194   2.57546   2.57781   2.57822
 Alpha virt. eigenvalues --    2.58227   2.58367   2.58743   2.59064   2.59505
 Alpha virt. eigenvalues --    2.59544   2.59961   2.60697   2.61273   2.61302
 Alpha virt. eigenvalues --    2.61737   2.62189   2.62564   2.62727   2.63225
 Alpha virt. eigenvalues --    2.63459   2.63863   2.64063   2.64355   2.64516
 Alpha virt. eigenvalues --    2.65057   2.65641   2.65699   2.66031   2.66756
 Alpha virt. eigenvalues --    2.66803   2.67261   2.67750   2.68094   2.68383
 Alpha virt. eigenvalues --    2.69032   2.69311   2.69543   2.69969   2.70148
 Alpha virt. eigenvalues --    2.70431   2.70940   2.71129   2.71430   2.71588
 Alpha virt. eigenvalues --    2.71894   2.72381   2.72981   2.73057   2.73555
 Alpha virt. eigenvalues --    2.73895   2.74402   2.74600   2.75008   2.75413
 Alpha virt. eigenvalues --    2.75929   2.76463   2.76906   2.77287   2.77603
 Alpha virt. eigenvalues --    2.77918   2.78343   2.78604   2.79195   2.79351
 Alpha virt. eigenvalues --    2.80248   2.80513   2.80861   2.81367   2.81504
 Alpha virt. eigenvalues --    2.81857   2.82140   2.82851   2.82996   2.83297
 Alpha virt. eigenvalues --    2.83875   2.83884   2.84606   2.84909   2.85275
 Alpha virt. eigenvalues --    2.85790   2.86602   2.86951   2.87041   2.87373
 Alpha virt. eigenvalues --    2.88073   2.88238   2.88975   2.89393   2.89723
 Alpha virt. eigenvalues --    2.89865   2.90287   2.90513   2.90636   2.91487
 Alpha virt. eigenvalues --    2.91790   2.91886   2.92571   2.93053   2.93266
 Alpha virt. eigenvalues --    2.93676   2.93748   2.94158   2.94658   2.95126
 Alpha virt. eigenvalues --    2.95422   2.95605   2.95857   2.96039   2.96193
 Alpha virt. eigenvalues --    2.96822   2.97166   2.97241   2.97513   2.97682
 Alpha virt. eigenvalues --    2.98806   2.99165   2.99475   2.99589   2.99956
 Alpha virt. eigenvalues --    3.00468   3.00689   3.00957   3.01238   3.01384
 Alpha virt. eigenvalues --    3.01847   3.02272   3.02727   3.02930   3.03000
 Alpha virt. eigenvalues --    3.03518   3.04330   3.04624   3.04902   3.05286
 Alpha virt. eigenvalues --    3.05426   3.06004   3.06256   3.06764   3.07296
 Alpha virt. eigenvalues --    3.07578   3.07732   3.07988   3.08419   3.08766
 Alpha virt. eigenvalues --    3.08869   3.09133   3.09622   3.09836   3.10197
 Alpha virt. eigenvalues --    3.10496   3.10643   3.10834   3.11186   3.11929
 Alpha virt. eigenvalues --    3.12315   3.12565   3.13054   3.13381   3.13564
 Alpha virt. eigenvalues --    3.13850   3.13991   3.14186   3.14399   3.14878
 Alpha virt. eigenvalues --    3.15169   3.15331   3.16125   3.16178   3.16672
 Alpha virt. eigenvalues --    3.16906   3.16988   3.17340   3.17676   3.18038
 Alpha virt. eigenvalues --    3.18335   3.18525   3.18984   3.19397   3.19521
 Alpha virt. eigenvalues --    3.19863   3.19955   3.20234   3.20429   3.21044
 Alpha virt. eigenvalues --    3.21481   3.21676   3.22067   3.22257   3.22519
 Alpha virt. eigenvalues --    3.22759   3.23047   3.23553   3.23775   3.23952
 Alpha virt. eigenvalues --    3.24148   3.24506   3.24674   3.24873   3.25304
 Alpha virt. eigenvalues --    3.25456   3.25890   3.26050   3.26399   3.26472
 Alpha virt. eigenvalues --    3.26790   3.27235   3.27338   3.27597   3.27842
 Alpha virt. eigenvalues --    3.28012   3.28067   3.28605   3.28939   3.29403
 Alpha virt. eigenvalues --    3.29792   3.29962   3.30298   3.30587   3.30859
 Alpha virt. eigenvalues --    3.31284   3.31402   3.31659   3.31886   3.32359
 Alpha virt. eigenvalues --    3.32456   3.32653   3.33012   3.33157   3.33321
 Alpha virt. eigenvalues --    3.33481   3.33789   3.33883   3.34135   3.35019
 Alpha virt. eigenvalues --    3.35307   3.35399   3.35754   3.36067   3.36413
 Alpha virt. eigenvalues --    3.36627   3.36799   3.37234   3.37332   3.37580
 Alpha virt. eigenvalues --    3.37874   3.37927   3.38265   3.38447   3.38817
 Alpha virt. eigenvalues --    3.39174   3.39551   3.39734   3.39971   3.40044
 Alpha virt. eigenvalues --    3.40902   3.41149   3.41532   3.41564   3.42214
 Alpha virt. eigenvalues --    3.42406   3.42968   3.43194   3.43408   3.43684
 Alpha virt. eigenvalues --    3.44082   3.44711   3.44908   3.45172   3.45246
 Alpha virt. eigenvalues --    3.45326   3.46118   3.46317   3.46663   3.47196
 Alpha virt. eigenvalues --    3.47238   3.47725   3.48198   3.48499   3.48857
 Alpha virt. eigenvalues --    3.49557   3.50026   3.50359   3.50498   3.50799
 Alpha virt. eigenvalues --    3.51101   3.51423   3.51862   3.52659   3.52728
 Alpha virt. eigenvalues --    3.53381   3.53480   3.54063   3.54662   3.54770
 Alpha virt. eigenvalues --    3.55183   3.56062   3.56091   3.56528   3.57178
 Alpha virt. eigenvalues --    3.57244   3.57408   3.57500   3.57986   3.58265
 Alpha virt. eigenvalues --    3.58894   3.59457   3.59571   3.59908   3.60183
 Alpha virt. eigenvalues --    3.60621   3.60940   3.61289   3.62142   3.62406
 Alpha virt. eigenvalues --    3.63164   3.63431   3.64006   3.64281   3.64598
 Alpha virt. eigenvalues --    3.64751   3.65254   3.66090   3.66438   3.66665
 Alpha virt. eigenvalues --    3.67199   3.67384   3.67603   3.68058   3.68936
 Alpha virt. eigenvalues --    3.69222   3.69431   3.70152   3.70557   3.70932
 Alpha virt. eigenvalues --    3.71128   3.71255   3.71505   3.71744   3.72159
 Alpha virt. eigenvalues --    3.72290   3.73257   3.73597   3.73826   3.74389
 Alpha virt. eigenvalues --    3.74523   3.74811   3.75188   3.75519   3.75648
 Alpha virt. eigenvalues --    3.76032   3.76836   3.76959   3.77289   3.77746
 Alpha virt. eigenvalues --    3.78581   3.79636   3.79764   3.79867   3.81004
 Alpha virt. eigenvalues --    3.81219   3.81959   3.82307   3.82666   3.82920
 Alpha virt. eigenvalues --    3.83522   3.83706   3.84591   3.84636   3.85591
 Alpha virt. eigenvalues --    3.85983   3.86813   3.87103   3.88082   3.88521
 Alpha virt. eigenvalues --    3.89374   3.89818   3.90327   3.90501   3.91356
 Alpha virt. eigenvalues --    3.91711   3.91929   3.92578   3.92651   3.93455
 Alpha virt. eigenvalues --    3.94082   3.95298   3.95459   3.96896   3.97019
 Alpha virt. eigenvalues --    3.97765   3.97959   3.98695   3.99046   3.99626
 Alpha virt. eigenvalues --    3.99904   4.00193   4.00697   4.01360   4.02200
 Alpha virt. eigenvalues --    4.02766   4.03151   4.03631   4.03886   4.04298
 Alpha virt. eigenvalues --    4.04545   4.05392   4.06202   4.06537   4.06696
 Alpha virt. eigenvalues --    4.07291   4.08651   4.09503   4.10742   4.11104
 Alpha virt. eigenvalues --    4.12037   4.12518   4.13456   4.14024   4.14731
 Alpha virt. eigenvalues --    4.15476   4.15752   4.16288   4.17064   4.17230
 Alpha virt. eigenvalues --    4.17933   4.18388   4.19376   4.19444   4.19603
 Alpha virt. eigenvalues --    4.20249   4.20871   4.21386   4.22276   4.22435
 Alpha virt. eigenvalues --    4.22804   4.22992   4.23397   4.24197   4.24522
 Alpha virt. eigenvalues --    4.25075   4.26164   4.26261   4.26604   4.27371
 Alpha virt. eigenvalues --    4.28008   4.28355   4.28968   4.29422   4.29624
 Alpha virt. eigenvalues --    4.30416   4.30968   4.32047   4.32399   4.32677
 Alpha virt. eigenvalues --    4.33466   4.34128   4.34701   4.35184   4.35754
 Alpha virt. eigenvalues --    4.35985   4.36396   4.36705   4.37086   4.37436
 Alpha virt. eigenvalues --    4.38091   4.38402   4.38820   4.39896   4.40359
 Alpha virt. eigenvalues --    4.40734   4.41561   4.41774   4.42176   4.42588
 Alpha virt. eigenvalues --    4.43238   4.43952   4.44128   4.44344   4.44771
 Alpha virt. eigenvalues --    4.45171   4.45467   4.46196   4.46655   4.47149
 Alpha virt. eigenvalues --    4.47600   4.48676   4.49113   4.49870   4.50842
 Alpha virt. eigenvalues --    4.51615   4.52325   4.52915   4.53492   4.54470
 Alpha virt. eigenvalues --    4.54645   4.55372   4.55860   4.56689   4.56996
 Alpha virt. eigenvalues --    4.57398   4.57565   4.58586   4.60064   4.60622
 Alpha virt. eigenvalues --    4.61546   4.62256   4.63660   4.65727   4.65937
 Alpha virt. eigenvalues --    4.66037   4.67870   4.68024   4.68540   4.68858
 Alpha virt. eigenvalues --    4.69636   4.70722   4.70991   4.71798   4.72216
 Alpha virt. eigenvalues --    4.73096   4.73492   4.74382   4.74623   4.75883
 Alpha virt. eigenvalues --    4.76268   4.76718   4.77320   4.78995   4.80990
 Alpha virt. eigenvalues --    4.81856   4.82446   4.83165   4.83261   4.84133
 Alpha virt. eigenvalues --    4.84896   4.85933   4.86603   4.87138   4.87649
 Alpha virt. eigenvalues --    4.87857   4.88354   4.89070   4.89363   4.90566
 Alpha virt. eigenvalues --    4.91849   4.93046   4.94131   4.94995   4.96019
 Alpha virt. eigenvalues --    4.96471   4.97075   4.97855   4.98674   4.99180
 Alpha virt. eigenvalues --    4.99872   5.00402   5.01731   5.02472   5.03006
 Alpha virt. eigenvalues --    5.04152   5.04542   5.05561   5.05982   5.06939
 Alpha virt. eigenvalues --    5.07748   5.08824   5.09102   5.10861   5.12101
 Alpha virt. eigenvalues --    5.12825   5.13758   5.15088   5.16694   5.17105
 Alpha virt. eigenvalues --    5.19231   5.20890   5.21712   5.21938   5.23027
 Alpha virt. eigenvalues --    5.23794   5.24807   5.26519   5.27497   5.28569
 Alpha virt. eigenvalues --    5.29020   5.30460   5.30929   5.33401   5.35341
 Alpha virt. eigenvalues --    5.36716   5.38393   5.38720   5.39522   5.39635
 Alpha virt. eigenvalues --    5.40326   5.41248   5.42377   5.43181   5.44740
 Alpha virt. eigenvalues --    5.46847   5.47298   5.48767   5.49986   5.51738
 Alpha virt. eigenvalues --    5.51901   5.53746   5.54644   5.58034   5.60315
 Alpha virt. eigenvalues --    5.61712   5.62049   5.62830   5.63406   5.64623
 Alpha virt. eigenvalues --    5.65862   5.67563   5.68007   5.69196   5.69978
 Alpha virt. eigenvalues --    5.73539   5.75409   5.77971   5.78745   5.84139
 Alpha virt. eigenvalues --    5.85978   5.88045   5.93845   5.95779   5.97872
 Alpha virt. eigenvalues --    5.99899   6.00849   6.02321   6.02946   6.03308
 Alpha virt. eigenvalues --    6.10282   6.13950   6.14738   6.15493   6.16936
 Alpha virt. eigenvalues --    6.19126   6.22636   6.27630   6.33915   6.35190
 Alpha virt. eigenvalues --    6.40868   9.28801   9.44435   9.57177  19.98986
 Alpha virt. eigenvalues --   22.35243  22.37008  22.41235  22.41873  22.44399
 Alpha virt. eigenvalues --   22.45768  22.49396  22.52868  22.53739  22.54746
 Alpha virt. eigenvalues --   22.59150  22.62051  22.83250  22.86746  22.87423
 Alpha virt. eigenvalues --   22.92071  22.94034  22.95809  22.97121  22.98173
 Alpha virt. eigenvalues --   23.03238  23.03932  23.11781  23.13227  23.25520
 Alpha virt. eigenvalues --   23.29482  23.30344  23.31583  23.41177  23.42420
 Alpha virt. eigenvalues --   23.50520  23.51106  23.55287  23.71804  23.77898
 Alpha virt. eigenvalues --   23.78777  23.89153  32.41935  32.84562  32.95820
 Alpha virt. eigenvalues --   33.02058  33.07074  33.14453
          Condensed to atoms (all electrons):
 Mulliken charges:
               1
     1  Fe  -0.441888
     2  N    0.029088
     3  N   -0.005720
     4  N    0.034609
     5  N    0.004090
     6  C    0.089585
     7  C   -0.012598
     8  C   -0.025929
     9  C    0.206201
    10  C    0.354261
    11  C   -0.062480
    12  C   -0.030956
    13  C    0.195205
    14  C    0.219951
    15  C    0.047308
    16  C   -0.041305
    17  C    0.179567
    18  C    0.136616
    19  C    0.072745
    20  C    0.004549
    21  C    0.182198
    22  C   -0.348761
    23  H    0.137771
    24  C   -0.630577
    25  H    0.107369
    26  C   -0.439220
    27  H    0.093694
    28  C   -0.385367
    29  H    0.105539
    30  C   -0.422228
    31  H    0.136520
    32  H    0.136143
    33  H    0.121311
    34  C   -0.418638
    35  H    0.134813
    36  H    0.133477
    37  H    0.121237
    38  C   -0.452487
    39  H    0.141730
    40  H    0.130727
    41  H    0.158161
    42  C   -0.229557
    43  H    0.112230
    44  C   -0.282819
    45  H    0.136587
    46  H    0.121511
    47  C   -0.458798
    48  H    0.145671
    49  H    0.125959
    50  H    0.155536
    51  C   -0.186769
    52  H    0.108582
    53  C   -0.290520
    54  H    0.140809
    55  H    0.121740
    56  C   -0.407358
    57  H    0.130584
    58  H    0.134669
    59  H    0.124711
    60  C   -0.422222
    61  H    0.128027
    62  H    0.134017
    63  H    0.127297
    64  C   -0.393769
    65  H    0.135421
    66  H    0.146630
    67  H    0.133262
    68  N   -0.229906
    69  H    0.233991
    70  C    0.165463
    71  C    0.006661
    72  H    0.174452
    73  N    0.084637
    74  C   -0.203102
    75  H    0.159604
    76  C   -0.348204
    77  H    0.108050
    78  H    0.118759
    79  H    0.151633
    80  C   -0.167584
    81  H    0.116253
    82  H    0.143502
    83  S    0.013683
    84  C   -0.361114
    85  H    0.141287
    86  H    0.158757
    87  H    0.145436
 Sum of Mulliken charges =  -0.00000
 Mulliken charges with hydrogens summed into heavy atoms:
               1
     1  Fe  -0.441888
     2  N    0.029088
     3  N   -0.005720
     4  N    0.034609
     5  N    0.004090
     6  C    0.089585
     7  C   -0.012598
     8  C   -0.025929
     9  C    0.206201
    10  C    0.354261
    11  C   -0.062480
    12  C   -0.030956
    13  C    0.195205
    14  C    0.219951
    15  C    0.047308
    16  C   -0.041305
    17  C    0.179567
    18  C    0.136616
    19  C    0.072745
    20  C    0.004549
    21  C    0.182198
    22  C   -0.210991
    24  C   -0.523208
    26  C   -0.345526
    28  C   -0.279828
    30  C   -0.028253
    34  C   -0.029112
    38  C   -0.021869
    42  C   -0.117328
    44  C   -0.024721
    47  C   -0.031631
    51  C   -0.078188
    53  C   -0.027971
    56  C   -0.017394
    60  C   -0.032880
    64  C    0.021544
    68  N    0.004085
    70  C    0.165463
    71  C    0.181113
    73  N    0.084637
    74  C   -0.043498
    76  C    0.030238
    80  C    0.092171
    83  S    0.013683
    84  C    0.084366
 Electronic spatial extent (au):  <R**2>=          21765.2851
 Charge=             -0.0000 electrons
 Dipole moment (field-independent basis, Debye):
    X=             -0.9204    Y=             -2.5595    Z=              4.2028  Tot=              5.0062
 Quadrupole moment (field-independent basis, Debye-Ang):
   XX=           -267.1627   YY=           -269.2110   ZZ=           -252.3719
   XY=              3.2692   XZ=             -0.7392   YZ=              0.8527
 Traceless Quadrupole moment (field-independent basis, Debye-Ang):
   XX=             -4.2475   YY=             -6.2958   ZZ=             10.5433
   XY=              3.2692   XZ=             -0.7392   YZ=              0.8527
 Octapole moment (field-independent basis, Debye-Ang**2):
  XXX=            -41.3005  YYY=            -42.7940  ZZZ=            137.9551  XYY=              3.6520
  XXY=              1.0163  XXZ=              0.4794  XZZ=             -9.1545  YZZ=            -40.0891
  YYZ=              0.1535  XYZ=              2.9345
 Hexadecapole moment (field-independent basis, Debye-Ang**3):
 XXXX=         -12597.7220 YYYY=         -11992.7570 ZZZZ=          -4269.5266 XXXY=             34.2428
 XXXZ=            -60.7526 YYYX=            -17.5296 YYYZ=            -57.0456 ZZZX=             52.2378
 ZZZY=            -32.3492 XXYY=          -4041.6252 XXZZ=          -3007.0664 YYZZ=          -2930.1960
 XXYZ=             49.6767 YYXZ=            -61.1177 ZZXY=             40.0875
 N-N= 7.136208322107D+03 E-N=-2.232834924416D+04  KE= 3.413369703041D+03
  Exact polarizability:     739.468      -3.754     723.617     -28.778      -9.990     381.736
 Approx polarizability:    1395.513       5.143    1375.786     -88.323     -30.427     599.787

 ----------------------------------------------------------------------

 Electric dipole moment (input orientation):
 (Debye = 10**-18 statcoulomb cm , SI units = C m)
                  (au)            (Debye)         (10**-30 SI)
   Tot        0.196959D+01      0.500619D+01      0.166989D+02
   x          0.127493D+01      0.324055D+01      0.108093D+02
   y         -0.301497D+00     -0.766328D+00     -0.255620D+01
   z         -0.147069D+01     -0.373812D+01     -0.124690D+02

 Dipole polarizability, Alpha (input orientation).
 (esu units = cm**3 , SI units = C**2 m**2 J**-1)
 Alpha(0;0):
               (au)            (10**-24 esu)      (10**-40 SI)
   iso        0.614940D+03      0.911247D+02      0.101390D+03
   aniso      0.354089D+03      0.524705D+02      0.583813D+02
   xx         0.725078D+03      0.107445D+03      0.119549D+03
   yx         0.699561D+01      0.103664D+01      0.115342D+01
   yy         0.735552D+03      0.108997D+03      0.121276D+03
   zx         0.389500D+02      0.577179D+01      0.642198D+01
   zy         0.162990D+02      0.241526D+01      0.268734D+01
   zz         0.384191D+03      0.569313D+02      0.633446D+02

 First dipole hyperpolarizability, Beta (input orientation).
 ||, _|_  parallel and perpendicular components, (z) with respect to z axis,
 vector components x,y,z.  Values do not include the 1/n! factor of 1/2.
 (esu units = statvolt**-1 cm**4 , SI units = C**3 m**3 J**-2)
 Beta(0;0,0):
               (au)            (10**-30 esu)      (10**-50 SI)
   || (z)    -0.268465D+03     -0.231932D+01     -0.860794D+00
   _|_(z)    -0.894882D+02     -0.773108D+00     -0.286931D+00
   x         -0.509734D+04     -0.440370D+02     -0.163439D+02
   y         -0.284777D+03     -0.246026D+01     -0.913100D+00
   z         -0.134232D+04     -0.115966D+02     -0.430397D+01
   ||         0.105576D+04      0.912095D+01      0.338515D+01
   xxx       -0.718802D+03     -0.620989D+01     -0.230474D+01
   xxy        0.123966D+03      0.107097D+01      0.397479D+00
   yxy       -0.104033D+04     -0.898767D+01     -0.333569D+01
   yyy       -0.211573D+03     -0.182783D+01     -0.678380D+00
   xxz       -0.907424D+01     -0.783943D-01     -0.290953D-01
   yxz       -0.537933D+02     -0.464732D+00     -0.172481D+00
   yyz       -0.688727D+02     -0.595006D+00     -0.220831D+00
   zxz        0.600235D+02      0.518557D+00      0.192457D+00
   zyz       -0.731837D+01     -0.632250D-01     -0.234653D-01
   zzz       -0.369494D+03     -0.319214D+01     -0.118473D+01

 ----------------------------------------------------------------------

 Dipole orientation:
    26         23.12495055        -39.78952870        -25.86587030
     7         25.53946071        -37.77141850        -23.74947837
     7         25.05614990        -42.99990940        -25.05744546
     7         20.74104351        -41.68046696        -28.08514379
     7         21.08351124        -36.63004946        -26.42705662
     6         25.41898776        -35.26169104        -23.16029883
     6         27.52894566        -34.54648795        -21.57014271
     6         28.93212783        -36.67661916        -21.23542057
     6         27.65716261        -38.66925024        -22.60797062
     6         27.27947986        -43.18088865        -23.78326459
     6         28.15169861        -45.77454827        -23.76704786
     6         26.36291653        -47.14995032        -25.02723815
     6         24.44047208        -45.37174363        -25.83404011
     6         20.71205395        -44.21914063        -28.40732005
     6         18.62113585        -44.95789876        -30.02830523
     6         17.42144870        -42.76702272        -30.70715150
     6         18.73232784        -40.75652476        -29.40834416
     6         19.05253451        -36.37144800        -27.96719289
     6         18.06526731        -33.81624175        -27.84803780
     6         19.50420029        -32.57397069        -26.09257548
     6         21.40083323        -34.35110606        -25.27006352
     6         23.40384776        -33.69901312        -23.72206036
     1         23.47610672        -31.76656198        -23.05761951
     6         28.53009201        -41.14372041        -22.68653682
     1         30.28605870        -41.51382099        -21.71559230
     6         22.37314206        -45.94628084        -27.35101843
     1         22.05560503        -47.90268878        -27.82637614
     6         18.08728097        -38.22632020        -29.53238408
     1         16.53714448        -37.66703738        -30.73817246
     6         27.95753368        -31.92082228        -20.62513605
     1         26.44111914        -31.36864187        -19.34783032
     1         27.99037487        -30.56075682        -22.17655308
     1         29.73083489        -31.76557259        -19.59956075
     6         31.30039949        -37.00535500        -19.74439806
     1         32.83775536        -37.70921871        -20.92870453
     1         30.99412930        -38.36732473        -18.22729209
     1         31.90037589        -35.23174760        -18.88463955
     6         19.18273247        -29.96666480        -25.08794775
     1         20.46946273        -28.62881343        -25.98967543
     1         19.55519027        -29.94212216        -23.06477126
     1         17.25783322        -29.32094047        -25.41822426
     6         15.88256668        -32.92398015        -29.22773289
     1         14.38942130        -34.29282608        -29.54175973
     6         15.64335046        -30.60593330        -30.15817373
     1         17.12650753        -29.22397490        -29.99390599
     1         13.96853064        -30.02154450        -31.15235664
     6         15.09016809        -42.41662262        -32.25872485
     1         15.56611339        -41.81451600        -34.17221937
     1         13.85846953        -40.98426525        -31.44013804
     1         14.01710733        -44.16552112        -32.38477980
     6         18.06636903        -47.52059887        -30.80304459
     1         18.49178820        -48.94671112        -29.39836963
     6         17.07151474        -48.22866036        -32.99977348
     1         16.67233857        -46.87991681        -34.47199035
     1         16.68350211        -50.19032563        -33.41976437
     6         26.35706924        -49.94396597        -25.47202688
     1         25.33958057        -50.41386210        -27.19406535
     1         25.44920203        -50.95224108        -23.91521922
     1         28.26651862        -50.70033279        -25.64517588
     6         30.47739207        -46.75258160        -22.48178117
     1         31.32859976        -48.29414112        -23.54732622
     1         30.07641907        -47.47440745        -20.58414825
     1         31.88147156        -45.26636849        -22.29774574
     6         15.08471349        -40.83265687        -19.22354164
     1         14.68405666        -42.69303620        -18.43738761
     1         13.68156081        -40.40994647        -20.66007479
     1         14.93014682        -39.44149662        -17.71301494
     7         19.80520236        -41.12600837        -18.96725108
     1         19.86916777        -41.44947817        -17.09251317
     6         17.64853992        -40.78021389        -20.36019992
     6         21.79148369        -40.97166620        -20.56893453
     1         23.72593525        -41.13325644        -19.99889577
     7         21.02330527        -40.52280724        -22.87912798
     6         18.45195740        -40.42789758        -22.78558920
     1         17.37155464        -40.06784915        -24.45625588
     6         29.11112511        -42.81098469        -30.18152289
     1         31.02893722        -43.48939066        -29.87588624
     1         28.65875535        -42.96359629        -32.17980091
     1         27.81650835        -44.00816880        -29.13346632
     6         28.86758925        -40.09296029        -29.30841086
     1         30.06131414        -38.85222331        -30.44207128
     1         29.35474218        -39.90177349        -27.31874479
    16         25.58626725        -39.00729143        -29.70212158
     6         26.19465600        -35.63079172        -29.63756312
     1         27.13780996        -35.13368394        -27.88553869
     1         24.36800552        -34.70687624        -29.72418976
     1         27.33409436        -35.11799605        -31.26739202

 Electric dipole moment (dipole orientation):
 (Debye = 10**-18 statcoulomb cm , SI units = C m)
                  (au)            (Debye)         (10**-30 SI)
   Tot        0.196959D+01      0.500619D+01      0.166989D+02
   x          0.000000D+00      0.000000D+00      0.000000D+00
   y          0.000000D+00      0.000000D+00      0.000000D+00
   z          0.196959D+01      0.500619D+01      0.166989D+02

 Dipole polarizability, Alpha (dipole orientation).
 (esu units = cm**3 , SI units = C**2 m**2 J**-1)
 Alpha(0;0):
               (au)            (10**-24 esu)      (10**-40 SI)
   iso        0.614940D+03      0.911247D+02      0.101390D+03
   aniso      0.354089D+03      0.524705D+02      0.583813D+02
   xx         0.622407D+03      0.922312D+02      0.102621D+03
   yx        -0.467980D+02     -0.693475D+01     -0.771595D+01
   yy         0.722468D+03      0.107059D+03      0.119119D+03
   zx         0.156026D+03      0.231206D+02      0.257251D+02
   zy         0.532735D+02      0.789431D+01      0.878361D+01
   zz         0.499946D+03      0.740843D+02      0.824299D+02

 First dipole hyperpolarizability, Beta (dipole orientation).
 ||, _|_  parallel and perpendicular components, (z) with respect to z axis,
 vector components x,y,z.  Values do not include the 1/n! factor of 1/2.
 (esu units = statvolt**-1 cm**4 , SI units = C**3 m**3 J**-2)
 Beta(0;0,0):
               (au)            (10**-30 esu)      (10**-50 SI)
   || (z)    -0.450729D+03     -0.389395D+01     -0.144520D+01
   _|_(z)    -0.150243D+03     -0.129798D+01     -0.481733D+00
   x         -0.475961D+04     -0.411193D+02     -0.152610D+02
   y          0.364643D+03      0.315023D+01      0.116918D+01
   z         -0.225365D+04     -0.194697D+02     -0.722600D+01
   ||         0.105576D+04      0.912095D+01      0.338515D+01
   xxx       -0.374171D+03     -0.323255D+01     -0.119973D+01
   xxy        0.849248D+02      0.733684D+00      0.272300D+00
   yxy       -0.816571D+03     -0.705453D+01     -0.261822D+01
   yyy        0.339832D+03      0.293589D+01      0.108963D+01
   xxz       -0.164469D+03     -0.142088D+01     -0.527346D+00
   yxz       -0.117266D+03     -0.101309D+01     -0.375997D+00
   yyz       -0.530301D+03     -0.458138D+01     -0.170034D+01
   zxz       -0.395795D+03     -0.341936D+01     -0.126906D+01
   zyz       -0.303209D+03     -0.261949D+01     -0.972199D+00
   zzz       -0.564459D+02     -0.487649D+00     -0.180986D+00

 ----------------------------------------------------------------------
 Unable to Open any file for archive entry.
 1\1\GINC-BGN1009\SP\RAPFD\def2TZVP\C37H42Fe1N6S1\BEBJONES\01-Sep-2024\
 0\\# polar def2tzvp apfd int=(grid=ultrafine)\\1ls9_II_S\\0,1\Fe,0,1.6
 360079043,23.5626900081,14.9186559328\N,0,3.271577096,22.4101237607,15
 .0729369592\N,0,2.7860963047,25.2312472543,15.000677877\N,0,-0.0263103
 941,24.6581151032,14.8258114262\N,0,0.5277944282,21.8973705828,14.6970
 561722\C,0,3.3495962751,21.0485071214,15.0021627449\C,0,4.7215190252,2
 0.609645203,15.154515851\C,0,5.4645294253,21.7367489707,15.3303523317\
 C,0,4.5413566418,22.8499671095,15.2745570663\C,0,4.1222896775,25.28926
 13289,15.2441241239\C,0,4.5565416349,26.6682243145,15.3263891423\C,0,3
 .4466526209,27.4346745483,15.1001914493\C,0,2.3436345978,26.5139555015
 ,14.9045148324\C,0,-0.072120178,26.0087287317,14.7375412066\C,0,-1.446
 2375508,26.4629570746,14.6019836233\C,0,-2.2270951895,25.3381240974,14
 .6367489855\C,0,-1.3152728076,24.2226296394,14.7354319425\C,0,-0.82445
 84647,21.8261495083,14.6308750969\C,0,-1.2574622303,20.4528427973,14.4
 525960956\C,0,-0.1146474284,19.7052759165,14.3524721048\C,0,0.98333745
 35,20.6233882302,14.5331864148\C,0,2.299699231,20.2176789449,14.660451
 0137\H,0,2.4983515041,19.1571348898,14.5791949935\C,0,4.9398494303,24.
 1744030443,15.4041725311\H,0,5.9898593263,24.341686763,15.5920277739\C
 ,0,1.0097019684,26.874730775,14.7492428673\H,0,0.7778780956,27.9251025
 052,14.669826943\C,0,-1.6931772075,22.8923488581,14.7684472802\H,0,-2.
 7465176989,22.6514994822,14.75921717\C,0,5.1387947666,19.1751586653,15
 .1406087753\H,0,4.9497927653,18.7378881923,14.1611941934\H,0,4.5797526
 657,18.5917555294,15.8750504242\H,0,6.1987198078,19.0642634961,15.3553
 708604\C,0,6.9377361229,21.8586894792,15.5257961267\H,0,7.1715709394,2
 2.368245798,16.4633495951\H,0,7.3750996867,22.4376579811,14.711097166\
 H,0,7.4203275728,20.88109444,15.5352607701\C,0,0.021903274,18.25302885
 97,14.0565946127\H,0,0.1904314417,17.6662364998,14.9620292692\H,0,0.86
 40027125,18.0875105362,13.3867344681\H,0,-0.8848763379,17.8848798464,1
 3.5800486874\C,0,-2.6348082277,20.0332504878,14.3223764994\H,0,-3.3018
 78955,20.7285093844,13.8241141234\C,0,-3.1193296734,18.8912373798,14.7
 958578841\H,0,-2.5079688337,18.2009640421,15.3509362604\H,0,-4.1510923
[...]
   156. CR (   1) N  73                  1.99931   -14.14582  171(r),170(r),169(r),1328(v)
                                                    1385(v),1652(v),1562(r)
                                                    1563(r),172(r),182(r),186(r)
                                                    188(r),185(r),181(r)
   157. CR (   1) C  74                  1.99897   -10.05633  1302(v),1646(v),1650(g)
                                                    1360(v),1305(v),171(r)
                                                    170(r),1563(r),169(r)
   176. LP (   1) N  68                  1.58031    -0.28286  1654(v),1651(v),1331(v)
                                                    1303(v),1297(v),1329(v)
                                                    183(r)
   177. LP (   1) N  73                  1.60603    -0.35640  171(r),170(r),169(r),1649(v)
                                                    1650(v),1652(v),1328(v)
                                                    1656(v),1653(g),1362(g)
                                                    1562(r),1563(r),1385(v)
                                                    1655(g),172(r),184(r)
                                                    1571(r),1566(r),198(r)
                                                    191(r),209(r),1569(r),287(r)
                                                    1572(r),1568(r),1564(r)
                                                    284(r),232(r),1574(r)
                                                    1565(r),261(r),235(r),258(r)
                                                    206(r),1573(r),190(r),234(r)
  1230. RY*(   1) C  64                  0.00116     1.16108   
  1231. RY*(   2) C  64                  0.00080     1.99785   
  1232. RY*(   3) C  64                  0.00051     1.33358   
  1233. RY*(   4) C  64                  0.00012     1.28917   
  1234. RY*(   5) C  64                  0.00008     2.10044   
  1235. RY*(   6) C  64                  0.00007     1.46486   
  1236. RY*(   7) C  64                  0.00003     2.01504   
  1237. RY*(   8) C  64                  0.00001     1.84079   
  1238. RY*(   9) C  64                  0.00001     1.53135   
  1239. RY*(  10) C  64                  0.00000     3.19082   
  1240. RY*(  11) C  64                  0.00000     2.54587   
  1241. RY*(  12) C  64                  0.00000     1.82355   
  1242. RY*(  13) C  64                  0.00000     2.42083   
  1243. RY*(  14) C  64                  0.00000    21.56831   
  1244. RY*(  15) C  64                  0.00000     2.46412   
  1245. RY*(  16) C  64                  0.00000     2.83288   
  1246. RY*(  17) C  64                  0.00000     2.86072   
  1247. RY*(  18) C  64                  0.00001     1.95283   
  1248. RY*(  19) C  64                  0.00000     2.76791   
  1249. RY*(  20) C  64                  0.00000     3.39997   
  1250. RY*(  21) C  64                  0.00000     3.33932   
  1251. RY*(  22) C  64                  0.00000     3.32436   
  1252. RY*(  23) C  64                  0.00000     3.35602   
  1253. RY*(  24) C  64                  0.00000     3.80340   
  1254. RY*(  25) C  64                  0.00000     3.31623   
  1255. RY*(  26) C  64                  0.00000     3.38501   
  1256. RY*(   1) H  65                  0.00077     1.02041   
  1257. RY*(   2) H  65                  0.00014     1.68643   
  1258. RY*(   3) H  65                  0.00008     1.94626   
  1259. RY*(   4) H  65                  0.00006     2.02155   
  1260. RY*(   5) H  65                  0.00000     2.88617   
  1261. RY*(   1) H  66                  0.00024     1.39091   
  1262. RY*(   2) H  66                  0.00012     1.73970   
  1263. RY*(   3) H  66                  0.00008     2.05505   
  1264. RY*(   4) H  66                  0.00002     1.59945   
  1265. RY*(   5) H  66                  0.00001     2.86878   
  1266. RY*(   1) H  67                  0.00072     1.01120   
  1267. RY*(   2) H  67                  0.00015     1.68102   
  1268. RY*(   3) H  67                  0.00008     1.97637   
  1269. RY*(   4) H  67                  0.00006     2.00678   
  1270. RY*(   5) H  67                  0.00000     2.88197   
  1271. RY*(   1) N  68                  0.00278     0.67839   
  1272. RY*(   2) N  68                  0.00216     1.79503   
  1273. RY*(   3) N  68                  0.00098     2.07915   
  1274. RY*(   4) N  68                  0.00079     2.13651   
  1275. RY*(   5) N  68                  0.00051     1.23702   
  1276. RY*(   6) N  68                  0.00026     2.24625   
  1277. RY*(   7) N  68                  0.00020     1.78277   
  1278. RY*(   8) N  68                  0.00007     2.19160   
  1279. RY*(   9) N  68                  0.00007     2.39431   
  1280. RY*(  10) N  68                  0.00006     3.73098   
  1281. RY*(  11) N  68                  0.00004     3.04562   
  1282. RY*(  12) N  68                  0.00000     2.17252   
  1283. RY*(  13) N  68                  0.00001     4.09667   
  1284. RY*(  14) N  68                  0.00001     3.62790   
  1285. RY*(  15) N  68                  0.00001     3.73671   
  1286. RY*(  16) N  68                  0.00001     2.39297   
  1287. RY*(  17) N  68                  0.00001     3.93128   
  1288. RY*(  18) N  68                  0.00000    30.74411   
  1289. RY*(  19) N  68                  0.00000     4.49077   
  1290. RY*(  20) N  68                  0.00000     4.66440   
  1291. RY*(  21) N  68                  0.00000     4.55573   
  1292. RY*(  22) N  68                  0.00000     4.57531   
  1293. RY*(  23) N  68                  0.00000     4.31259   
  1294. RY*(  24) N  68                  0.00000     4.49361   
  1295. RY*(  25) N  68                  0.00000     4.44521   
  1296. RY*(  26) N  68                  0.00000     4.43386   
  1297. RY*(   1) H  69                  0.00058     2.15211   
  1298. RY*(   2) H  69                  0.00040     2.13267   
  1299. RY*(   3) H  69                  0.00031     0.99905   
  1300. RY*(   4) H  69                  0.00021     2.57796   
  1301. RY*(   5) H  69                  0.00001     3.08966   
  1302. RY*(   1) C  70                  0.00400     1.69069   
  1303. RY*(   2) C  70                  0.00260     0.99517   
  1304. RY*(   3) C  70                  0.00190     1.54358   
  1305. RY*(   4) C  70                  0.00162     2.04796   
  1306. RY*(   5) C  70                  0.00125     1.76254   
  1307. RY*(   6) C  70                  0.00111     1.76271   
  1308. RY*(   7) C  70                  0.00038     2.85810   
  1309. RY*(   8) C  70                  0.00020     2.69381   
  1310. RY*(   9) C  70                  0.00017     2.60192   
  1311. RY*(  10) C  70                  0.00007     3.58066   
  1312. RY*(  11) C  70                  0.00003     2.53647   
  1313. RY*(  12) C  70                  0.00001     1.79818   
  1314. RY*(  13) C  70                  0.00001     1.69861   
  1315. RY*(  14) C  70                  0.00001     1.61578   
  1316. RY*(  15) C  70                  0.00001     2.87192   
  1317. RY*(  16) C  70                  0.00001     1.09500   
  1318. RY*(  17) C  70                  0.00001     2.00945   
  1319. RY*(  18) C  70                  0.00000    21.21678   
  1320. RY*(  19) C  70                  0.00001     3.49335   
  1321. RY*(  20) C  70                  0.00000     4.03284   
  1322. RY*(  21) C  70                  0.00000     3.68885   
  1323. RY*(  22) C  70                  0.00000     3.54157   
  1324. RY*(  23) C  70                  0.00000     3.39454   
  1325. RY*(  24) C  70                  0.00000     3.83942   
  1326. RY*(  25) C  70                  0.00000     3.54522   
  1327. RY*(  26) C  70                  0.00000     3.54511   
  1328. RY*(   1) C  71                  0.00410     1.55703   
  1329. RY*(   2) C  71                  0.00353     0.65316   
  1330. RY*(   3) C  71                  0.00203     1.32307   
  1331. RY*(   4) C  71                  0.00127     2.58479   
  1332. RY*(   5) C  71                  0.00104     1.28866   
  1333. RY*(   6) C  71                  0.00045     1.73235   
  1334. RY*(   7) C  71                  0.00024     1.71893   
  1335. RY*(   8) C  71                  0.00012     2.48867   
  1336. RY*(   9) C  71                  0.00008     3.13356   
  1337. RY*(  10) C  71                  0.00006     2.15012   
  1338. RY*(  11) C  71                  0.00003     3.25250   
  1339. RY*(  12) C  71                  0.00004     2.33469   
  1340. RY*(  13) C  71                  0.00002     2.52041   
  1341. RY*(  14) C  71                  0.00002     2.28214   
  1342. RY*(  15) C  71                  0.00002     2.80147   
  1343. RY*(  16) C  71                  0.00000     3.16299   
  1344. RY*(  17) C  71                  0.00000     3.58396   
  1345. RY*(  18) C  71                  0.00001     2.92043   
  1346. RY*(  19) C  71                  0.00000    21.35774   
  1347. RY*(  20) C  71                  0.00001     3.97706   
  1348. RY*(  21) C  71                  0.00001     3.70865   
  1349. RY*(  22) C  71                  0.00000     3.77687   
  1350. RY*(  23) C  71                  0.00000     3.65263   
  1351. RY*(  24) C  71                  0.00000     3.76040   
  1352. RY*(  25) C  71                  0.00000     3.38377   
  1353. RY*(  26) C  71                  0.00000     3.53389   
  1354. RY*(   1) H  72                  0.00065     0.62012   
  1355. RY*(   2) H  72                  0.00034     2.48433   
  1356. RY*(   3) H  72                  0.00021     2.13421   
  1357. RY*(   4) H  72                  0.00012     2.45651   
  1358. RY*(   5) H  72                  0.00001     3.17834   
  1359. RY*(   1) N  73                  0.01178     0.84736   
  1360. RY*(   2) N  73                  0.00982     1.28839   
  1361. RY*(   3) N  73                  0.00643     1.28780   
  1362. RY*(   4) N  73                  0.00110     1.69216   
  1363. RY*(   5) N  73                  0.00076     1.72347   
  1364. RY*(   6) N  73                  0.00061     2.01996   
  1365. RY*(   7) N  73                  0.00038     3.31177   
  1366. RY*(   8) N  73                  0.00037     3.14669   
  1367. RY*(   9) N  73                  0.00014     2.96517   
  1368. RY*(  10) N  73                  0.00009     3.15647   
  1369. RY*(  11) N  73                  0.00009     2.61407   
  1370. RY*(  12) N  73                  0.00008     3.66179   
  1371. RY*(  13) N  73                  0.00005     3.32370   
  1372. RY*(  14) N  73                  0.00004     3.62081   
  1373. RY*(  15) N  73                  0.00003     4.94139   
  1374. RY*(  16) N  73                  0.00000    31.77451   
  1375. RY*(  17) N  73                  0.00001     3.97213   
  1376. RY*(  18) N  73                  0.00000     4.84141   
  1377. RY*(  19) N  73                  0.00001     4.27518   
  1378. RY*(  20) N  73                  0.00000     4.41269   
  1379. RY*(  21) N  73                  0.00001     4.58463   
  1380. RY*(  22) N  73                  0.00001     4.35760   
  1381. RY*(  23) N  73                  0.00000     4.65569   
  1382. RY*(  24) N  73                  0.00000     4.78597   
  1383. RY*(  25) N  73                  0.00000     4.58283   
  1384. RY*(  26) N  73                  0.00000     4.63372   
  1385. RY*(   1) C  74                  0.00403     1.47988   
  1386. RY*(   2) C  74                  0.00274     0.71017   
  1387. RY*(   3) C  74                  0.00177     1.77246   
  1388. RY*(   4) C  74                  0.00073     1.55239   
  1389. RY*(   5) C  74                  0.00065     1.90172   
  1390. RY*(   6) C  74                  0.00050     1.89502   
  1391. RY*(   7) C  74                  0.00046     2.39174   
  1392. RY*(   8) C  74                  0.00027     1.38187   
  1393. RY*(   9) C  74                  0.00026     1.62372   
  1394. RY*(  10) C  74                  0.00018     2.06365   
  1395. RY*(  11) C  74                  0.00011     1.13356   
  1396. RY*(  12) C  74                  0.00007     2.50563   
  1397. RY*(  13) C  74                  0.00006     2.52280   
  1398. RY*(  14) C  74                  0.00006     2.47855   
  1399. RY*(  15) C  74                  0.00002     2.68631   
  1400. RY*(  16) C  74                  0.00003     1.86665   
  1401. RY*(  17) C  74                  0.00000     3.27519   
  1402. RY*(  18) C  74                  0.00000     3.66075   
  1403. RY*(  19) C  74                  0.00000    21.84606   
  1404. RY*(  20) C  74                  0.00001     4.00723   
  1405. RY*(  21) C  74                  0.00001     3.77998   
  1406. RY*(  22) C  74                  0.00001     3.73337   
  1407. RY*(  23) C  74                  0.00001     3.35548   
  1408. RY*(  24) C  74                  0.00000     3.82539   
  1409. RY*(  25) C  74                  0.00000     3.56255   
  1410. RY*(  26) C  74                  0.00000     3.61636   
  1411. RY*(   1) H  75                  0.00060     0.82214   
  1412. RY*(   2) H  75                  0.00036     2.26618   
  1413. RY*(   3) H  75                  0.00025     2.32308   
  1414. RY*(   4) H  75                  0.00008     2.75022   
  1415. RY*(   5) H  75                  0.00001     3.17223   
  1643. BD*(   1) C  64 - H  65          0.01230     0.36043   
  1644. BD*(   1) C  64 - H  66          0.00348     0.37325   
  1645. BD*(   1) C  64 - H  67          0.01136     0.35989   
  1646. BD*(   1) C  64 - C  70          0.01384     0.39085   
  1647. BD*(   1) N  68 - H  69          0.01436     0.36674   
  1648. BD*(   1) N  68 - C  70          0.02716     0.43029   
  1649. BD*(   1) N  68 - C  71          0.02235     0.44770   
  1650. BD*(   1) C  70 - C  74          0.02128     0.56934   
  1651. BD*(   2) C  70 - C  74          0.29995     0.03686  1654(v),1643(v),1645(v)
                                                    1391(g),1306(g)
  1652. BD*(   1) C  71 - H  72          0.01795     0.39306   
  1653. BD*(   1) C  71 - N  73          0.01747     0.53570   
  1654. BD*(   2) C  71 - N  73          0.41864    -0.00382  1651(v),1329(g),1359(g)
                                                    1386(v),1573(r),172(r)
                                                    1567(r),1562(r),169(r)
  1655. BD*(   1) N  73 - C  74          0.01752     0.48113   
  1656. BD*(   1) C  74 - H  75          0.01472     0.43546   
       -------------------------------
              Total Lewis   42.67558  ( 97.7101%)
        Valence non-Lewis    0.91238  (  2.0890%)
        Rydberg non-Lewis    0.08774  (  0.2009%)
       -------------------------------
            Total unit  2   43.67571  (100.0000%)
           Charge unit  2    0.32429
 Unable to Open any file for archive entry.
 1\1\GINC-BGN1009\SP\RAPFD\def2TZVP\C37H42Fe1N6S1\BEBJONES\01-Sep-2024\
 0\\# apfd/def2TZVP int=(grid=ultrafine) geom=check guess=read pop=nbo 
 scf=qc\\1ls9_II_S_nbo\\0,1\Fe,0,1.6360079043,23.5626900081,14.91865593
 28\N,0,3.271577096,22.4101237607,15.0729369592\N,0,2.7860963047,25.231
 2472543,15.000677877\N,0,-0.0263103941,24.6581151032,14.8258114262\N,0
 ,0.5277944282,21.8973705828,14.6970561722\C,0,3.3495962751,21.04850712
 14,15.0021627449\C,0,4.7215190252,20.609645203,15.154515851\C,0,5.4645
 294253,21.7367489707,15.3303523317\C,0,4.5413566418,22.8499671095,15.2
 745570663\C,0,4.1222896775,25.2892613289,15.2441241239\C,0,4.556541634
 9,26.6682243145,15.3263891423\C,0,3.4466526209,27.4346745483,15.100191
 4493\C,0,2.3436345978,26.5139555015,14.9045148324\C,0,-0.072120178,26.
 0087287317,14.7375412066\C,0,-1.4462375508,26.4629570746,14.6019836233
 \C,0,-2.2270951895,25.3381240974,14.6367489855\C,0,-1.3152728076,24.22
 26296394,14.7354319425\C,0,-0.8244584647,21.8261495083,14.6308750969\C
 ,0,-1.2574622303,20.4528427973,14.4525960956\C,0,-0.1146474284,19.7052
 759165,14.3524721048\C,0,0.9833374535,20.6233882302,14.5331864148\C,0,
 2.299699231,20.2176789449,14.6604510137\H,0,2.4983515041,19.1571348898
 ,14.5791949935\C,0,4.9398494303,24.1744030443,15.4041725311\H,0,5.9898
 593263,24.341686763,15.5920277739\C,0,1.0097019684,26.874730775,14.749
 2428673\H,0,0.7778780956,27.9251025052,14.669826943\C,0,-1.6931772075,
 22.8923488581,14.7684472802\H,0,-2.7465176989,22.6514994822,14.7592171
 7\C,0,5.1387947666,19.1751586653,15.1406087753\H,0,4.9497927653,18.737
 8881923,14.1611941934\H,0,4.5797526657,18.5917555294,15.8750504242\H,0
 ,6.1987198078,19.0642634961,15.3553708604\C,0,6.9377361229,21.85868947
 92,15.5257961267\H,0,7.1715709394,22.368245798,16.4633495951\H,0,7.375
 0996867,22.4376579811,14.711097166\H,0,7.4203275728,20.88109444,15.535
 2607701\C,0,0.021903274,18.2530288597,14.0565946127\H,0,0.1904314417,1
 7.6662364998,14.9620292692\H,0,0.8640027125,18.0875105362,13.386734468
 1\H,0,-0.8848763379,17.8848798464,13.5800486874\C,0,-2.6348082277,20.0
 332504878,14.3223764994\H,0,-3.301878955,20.7285093844,13.8241141234\C
 ,0,-3.1193296734,18.8912373798,14.7958578841\H,0,-2.5079688337,18.2009
 640421,15.3509362604\H,0,-4.1510923402,18.6163968377,14.6623393622\C,0
 ,-3.7068142708,25.2108884754,14.4796568587\H,0,-4.188897195,25.0658306
 797,15.4475517101\H,0,-3.9648457951,24.3598020136,13.8503237238\H,0,-4
 .1291152002,26.1019486664,14.0202302172\C,0,-1.8578335256,27.846990463
 1,14.5104910229\H,0,-1.1627454614,28.49051862,13.9856552865\C,0,-2.989
 2127144,28.3647336369,14.9803637833\H,0,-3.6945582245,27.7678569807,15
 .5346098724\H,0,-3.2302611337,29.4112495206,14.8545037869\C,0,3.375816
 8997,28.9292235198,15.0476132124\H,0,2.3907846514,29.2834942943,15.341
 4578447\H,0,3.5741787472,29.3022601998,14.0398059352\H,0,4.1072596471,
 29.3954524277,15.7088260306\C,0,5.9616336103,27.1445378428,15.53595381
 28\H,0,5.985303222,28.0612189703,16.1236895702\H,0,6.4720336839,27.355
 6339193,14.5903097512\H,0,6.5448282491,26.3958602668,16.0645790417\C,0
 ,0.7085246078,23.3278642065,9.4554241908\H,0,0.872503594,24.2234183549
 ,8.8568461594\H,0,-0.3606335142,23.1814200073,9.5766546863\H,0,1.12200
 77909,22.4745705371,8.9183050944\N,0,2.7038674708,23.6019620464,10.947
 351976\H,0,3.3814812541,23.6208968544,10.2022835262\C,0,1.3488595944,2
 3.4695235674,10.7870223467\C,0,2.9495444443,23.7107535817,12.273119891
 5\H,0,3.9277612957,23.807011706,12.6974161032\N,0,1.8357460114,23.6404
 895909,12.9591879298\C,0,0.8306511787,23.5061720576,12.049123824\H,0,-
 0.1870047921,23.4210968839,12.3683480821\C,0,2.6562728025,25.669414100
 1,18.4296845218\H,0,3.5527426343,26.0564086671,18.9108915587\H,0,1.794
 4032538,25.8973786464,19.0519591253\H,0,2.5304732783,26.170677123,17.4
 751232368\C,0,2.7757972802,24.1723561332,18.221437199\H,0,2.8303842991
 ,23.6522606768,19.1787920456\H,0,3.6475498955,23.925994085,17.61760490
 22\S,0,1.2884810716,23.5389411719,17.3409636658\C,0,1.4539499698,21.78
 91781835,17.7973634323\H,0,2.4185367197,21.4160403242,17.4684118445\H,
 0,0.6617983849,21.2590042994,17.2807315392\H,0,1.3385954071,21.6876871
 773,18.8732106275\\Version=ES64L-G16RevC.02\State=1-A\HF=-3424.847524\
 RMSD=9.846e-10\Dipole=1.2749309,-0.3014967,-1.4706898\Quadrupole=-1.25
 62175,-6.0908432,7.3470608,1.2036448,-1.5430762,-1.7655091\PG=C01 [X(C
 37H42Fe1N6S1)]\\@
 The archive entry for this job was punched.


 NO SCIENCE HAS EVER MADE MORE RAPID PROGRESS IN A
 SHORTER TIME THAN CHEMISTRY.
   -- MARTIN HEINRICH KLOPROTH, 1791
 (FIRST PROFESSOR OF CHEMISTRY AT THE UNIVERSITY OF BERLIN)
 Job cpu time:       0 days  1 hours  4 minutes  7.4 seconds.
 Elapsed time:       0 days  0 hours  1 minutes 17.1 seconds.
 File lengths (MBytes):  RWF=    938 Int=      0 D2E=      0 Chk=    161 Scr=      1
 Normal termination of Gaussian 16 at Sun Sep  1 00:29:14 2024.
