 Entering Gaussian System, Link 0=g16
 Input=1ls905.com
 Output=1ls905.log
 Initial command:
 /sw/chem/gaussian/g16_C02/a100/g16/l1.exe "/local/bebjones_8001868/Gau-3801138.inp" -scrdir="/local/bebjones_8001868/"
 Entering Link 1 = /sw/chem/gaussian/g16_C02/a100/g16/l1.exe PID=   3801139.
  
 Copyright (c) 1988-2021, Gaussian, Inc.  All Rights Reserved.
  
 This is part of the Gaussian(R) 16 program.  It is based on
 the Gaussian(R) 09 system (copyright 2009, Gaussian, Inc.),
 the Gaussian(R) 03 system (copyright 2003, Gaussian, Inc.),
 the Gaussian(R) 98 system (copyright 1998, Gaussian, Inc.),
 the Gaussian(R) 94 system (copyright 1995, Gaussian, Inc.),
 the Gaussian 92(TM) system (copyright 1992, Gaussian, Inc.),
 the Gaussian 90(TM) system (copyright 1990, Gaussian, Inc.),
 the Gaussian 88(TM) system (copyright 1988, Gaussian, Inc.),
 the Gaussian 86(TM) system (copyright 1986, Carnegie Mellon
 University), and the Gaussian 82(TM) system (copyright 1983,
 Carnegie Mellon University). Gaussian is a federally registered
 trademark of Gaussian, Inc.
  
 This software contains proprietary and confidential information,
 including trade secrets, belonging to Gaussian, Inc.
  
 This software is provided under written license and may be
 used, copied, transmitted, or stored only in accord with that
 written license.
  
 The following legend is applicable only to US Government
 contracts under FAR:
  
                    RESTRICTED RIGHTS LEGEND
  
 Use, reproduction and disclosure by the US Government is
 subject to restrictions as set forth in subparagraphs (a)
 and (c) of the Commercial Computer Software - Restricted
 Rights clause in FAR 52.227-19.
  
 Gaussian, Inc.
 340 Quinnipiac St., Bldg. 40, Wallingford CT 06492
  
  
 ---------------------------------------------------------------
 Warning -- This program may not be used in any manner that
 competes with the business of Gaussian, Inc. or will provide
 assistance to any competitor of Gaussian, Inc.  The licensee
 of this program is prohibited from giving any competitor of
 Gaussian, Inc. access to this program.  By using this program,
 the user acknowledges that Gaussian, Inc. is engaged in the
 business of creating and licensing software in the field of
 computational chemistry and represents and warrants to the
 licensee that it is not a competitor of Gaussian, Inc. and that
 it will not use this program in any manner prohibited above.
 ---------------------------------------------------------------
  

 Cite this work as:
 Gaussian 16, Revision C.02,
 M. J. Frisch, G. W. Trucks, H. B. Schlegel, G. E. Scuseria, 
 M. A. Robb, J. R. Cheeseman, G. Scalmani, V. Barone, 
 G. A. Petersson, H. Nakatsuji, X. Li, M. Caricato, A. V. Marenich, 
 J. Bloino, B. G. Janesko, R. Gomperts, B. Mennucci, H. P. Hratchian, 
 J. V. Ortiz, A. F. Izmaylov, J. L. Sonnenberg, D. Williams-Young, 
 F. Ding, F. Lipparini, F. Egidi, J. Goings, B. Peng, A. Petrone, 
 T. Henderson, D. Ranasinghe, V. G. Zakrzewski, J. Gao, N. Rega, 
 G. Zheng, W. Liang, M. Hada, M. Ehara, K. Toyota, R. Fukuda, 
 J. Hasegawa, M. Ishida, T. Nakajima, Y. Honda, O. Kitao, H. Nakai, 
 T. Vreven, K. Throssell, J. A. Montgomery, Jr., J. E. Peralta, 
 F. Ogliaro, M. J. Bearpark, J. J. Heyd, E. N. Brothers, K. N. Kudin, 
 V. N. Staroverov, T. A. Keith, R. Kobayashi, J. Normand, 
 K. Raghavachari, A. P. Rendell, J. C. Burant, S. S. Iyengar, 
 J. Tomasi, M. Cossi, J. M. Millam, M. Klene, C. Adamo, R. Cammi, 
 J. W. Ochterski, R. L. Martin, K. Morokuma, O. Farkas, 
 J. B. Foresman, and D. J. Fox, Gaussian, Inc., Wallingford CT, 2019.
 
 ******************************************
 Gaussian 16:  ES64L-G16RevC.02  7-Dec-2021
                 2-Sep-2024 
 ******************************************
 %mem=16GB
 %CPU=0-71
 SetSPE:  set environment variable "OMP_PROC_BIND" = "true"
 SetSPE:  set environment variable "OMP_PLACES" = "{0},{1},{2},{3},{4},{5},{6},{7},{8},{9},{10},{11},{12},{13},{14},{15},{16},{17},{18},{19},{20},{21},{22},{23},{24},{25},{26},{27},{28},{29},{30},{31},{32},{33},{34},{35},{36},{37},{38},{39},{40},{41},{42},{43},{44},{45},{46},{47},{48},{49},{50},{51},{52},{53},{54},{55},{56},{57},{58},{59},{60},{61},{62},{63},{64},{65},{66},{67},{68},{69},{70},{71}"
 Will use up to   72 processors via shared memory.
 %gpucpu=0,1,2,3=0,1,2,3
 Will use    4 GPUs:
 Thread  CPU   GPU
      0    0     0
      1    1     1
      2    2     2
      3    3     3
      4    4    -1
      5    5    -1
      6    6    -1
      7    7    -1
      8    8    -1
      9    9    -1
     10   10    -1
     11   11    -1
     12   12    -1
     13   13    -1
     14   14    -1
     15   15    -1
     16   16    -1
     17   17    -1
     18   18    -1
     19   19    -1
     20   20    -1
     21   21    -1
     22   22    -1
     23   23    -1
     24   24    -1
     25   25    -1
     26   26    -1
     27   27    -1
     28   28    -1
     29   29    -1
     30   30    -1
     31   31    -1
     32   32    -1
     33   33    -1
     34   34    -1
     35   35    -1
     36   36    -1
     37   37    -1
     38   38    -1
     39   39    -1
     40   40    -1
     41   41    -1
     42   42    -1
     43   43    -1
     44   44    -1
     45   45    -1
     46   46    -1
     47   47    -1
     48   48    -1
     49   49    -1
     50   50    -1
     51   51    -1
     52   52    -1
     53   53    -1
     54   54    -1
     55   55    -1
     56   56    -1
     57   57    -1
     58   58    -1
     59   59    -1
     60   60    -1
     61   61    -1
     62   62    -1
     63   63    -1
     64   64    -1
     65   65    -1
     66   66    -1
     67   67    -1
     68   68    -1
     69   69    -1
     70   70    -1
     71   71    -1
 SetGPE:  set environment variable "OMP_PROC_BIND" = "true"
 SetGPE:  set environment variable "OMP_PLACES" = "{0},{1},{2},{3},{4},{5},{6},{7},{8},{9},{10},{11},{12},{13},{14},{15},{16},{17},{18},{19},{20},{21},{22},{23},{24},{25},{26},{27},{28},{29},{30},{31},{32},{33},{34},{35},{36},{37},{38},{39},{40},{41},{42},{43},{44},{45},{46},{47},{48},{49},{50},{51},{52},{53},{54},{55},{56},{57},{58},{59},{60},{61},{62},{63},{64},{65},{66},{67},{68},{69},{70},{71}"
 %oldchk=1ls9_II_Sre.chk
 %chk=1ls9_II_Qn.chk
 Properties for Device   0
 Minimum vector length:                              32
 Maximum vector length:                            1024
 Number of SMPs:                                    108
 Maximum number of threads per SMP:                2048
 Number of ASync Engines:                             5
 Memory:                                           9207742464
 Properties for Device   1
 Minimum vector length:                              32
 Maximum vector length:                            1024
 Number of SMPs:                                    108
 Maximum number of threads per SMP:                2048
 Number of ASync Engines:                             5
 Memory:                                           9207742464
 Properties for Device   2
 Minimum vector length:                              32
 Maximum vector length:                            1024
 Number of SMPs:                                    108
 Maximum number of threads per SMP:                2048
 Number of ASync Engines:                             5
 Memory:                                           9207742464
 Properties for Device   3
 Minimum vector length:                              32
 Maximum vector length:                            1024
 Number of SMPs:                                    108
 Maximum number of threads per SMP:                2048
 Number of ASync Engines:                             5
 Memory:                                           9207742464
   8286968217 words of memory will be used on each GPU.
 Copying data from "1ls9_II_Sre.chk" to current chk file "1ls9_II_Qn.chk"
 IOpt=  2 FromEx=T IUOpen= 4 IOptOp= 5 NList=   0 IFRang= 0 IUIn= 4 IUOut= 2.
 --------------------------------------------------------------
 # apfd/def2TZVP guess=read scf=maxcycle=999 geom=check pop=nbo
 --------------------------------------------------------------
 1/29=2,38=1,172=1/1;
 2/12=2,40=1/2;
 3/5=44,7=101,11=2,14=-4,25=1,30=1,74=-44,116=-2/1,2,3;
 4/5=1/1;
 5/5=2,7=999,38=6/2;
 6/7=2,8=2,9=2,10=2,28=1,40=1/1,7;
 99/5=1,9=1/99;
 ---------
 1ls9_II_Q
 ---------
 Structure from the checkpoint file:  "1ls9_II_Qn.chk"
 Charge =  0 Multiplicity = 5
 Z-Matrix found in chk file.
 Fe,0,1.6360079043,23.5626900081,14.9186559328
 N,0,3.271577096,22.4101237607,15.0729369592
 N,0,2.7860963047,25.2312472543,15.000677877
 N,0,-0.0263103941,24.6581151032,14.8258114262
 N,0,0.5277944282,21.8973705828,14.6970561722
 C,0,3.3495962751,21.0485071214,15.0021627449
 C,0,4.7215190252,20.609645203,15.154515851
 C,0,5.4645294253,21.7367489707,15.3303523317
 C,0,4.5413566418,22.8499671095,15.2745570663
 C,0,4.1222896775,25.2892613289,15.2441241239
 C,0,4.5565416349,26.6682243145,15.3263891423
 C,0,3.4466526209,27.4346745483,15.1001914493
 C,0,2.3436345978,26.5139555015,14.9045148324
 C,0,-0.072120178,26.0087287317,14.7375412066
 C,0,-1.4462375508,26.4629570746,14.6019836233
 C,0,-2.2270951895,25.3381240974,14.6367489855
 C,0,-1.3152728076,24.2226296394,14.7354319425
 C,0,-0.8244584647,21.8261495083,14.6308750969
 C,0,-1.2574622303,20.4528427973,14.4525960956
 C,0,-0.1146474284,19.7052759165,14.3524721048
 C,0,0.9833374535,20.6233882302,14.5331864148
 C,0,2.299699231,20.2176789449,14.6604510137
 H,0,2.4983515041,19.1571348898,14.5791949935
 C,0,4.9398494303,24.1744030443,15.4041725311
 H,0,5.9898593263,24.341686763,15.5920277739
 C,0,1.0097019684,26.874730775,14.7492428673
 H,0,0.7778780956,27.9251025052,14.669826943
 C,0,-1.6931772075,22.8923488581,14.7684472802
 H,0,-2.7465176989,22.6514994822,14.75921717
 C,0,5.1387947666,19.1751586653,15.1406087753
 H,0,4.9497927653,18.7378881923,14.1611941934
 H,0,4.5797526657,18.5917555294,15.8750504242
 H,0,6.1987198078,19.0642634961,15.3553708604
 C,0,6.9377361229,21.8586894792,15.5257961267
 H,0,7.1715709394,22.368245798,16.4633495951
 H,0,7.3750996867,22.4376579811,14.711097166
 H,0,7.4203275728,20.88109444,15.5352607701
 C,0,0.021903274,18.2530288597,14.0565946127
 H,0,0.1904314417,17.6662364998,14.9620292692
 H,0,0.8640027125,18.0875105362,13.3867344681
 H,0,-0.8848763379,17.8848798464,13.5800486874
 C,0,-2.6348082277,20.0332504878,14.3223764994
 H,0,-3.301878955,20.7285093844,13.8241141234
 C,0,-3.1193296734,18.8912373798,14.7958578841
 H,0,-2.5079688337,18.2009640421,15.3509362604
 H,0,-4.1510923402,18.6163968377,14.6623393622
 C,0,-3.7068142708,25.2108884754,14.4796568587
 H,0,-4.188897195,25.0658306797,15.4475517101
 H,0,-3.9648457951,24.3598020136,13.8503237238
 H,0,-4.1291152002,26.1019486664,14.0202302172
 C,0,-1.8578335256,27.8469904631,14.5104910229
 H,0,-1.1627454614,28.49051862,13.9856552865
 C,0,-2.9892127144,28.3647336369,14.9803637833
 H,0,-3.6945582245,27.7678569807,15.5346098724
 H,0,-3.2302611337,29.4112495206,14.8545037869
 C,0,3.3758168997,28.9292235198,15.0476132124
 H,0,2.3907846514,29.2834942943,15.3414578447
 H,0,3.5741787472,29.3022601998,14.0398059352
 H,0,4.1072596471,29.3954524277,15.7088260306
 C,0,5.9616336103,27.1445378428,15.5359538128
 H,0,5.985303222,28.0612189703,16.1236895702
 H,0,6.4720336839,27.3556339193,14.5903097512
 H,0,6.5448282491,26.3958602668,16.0645790417
 C,0,0.7085246078,23.3278642065,9.4554241908
 H,0,0.872503594,24.2234183549,8.8568461594
 H,0,-0.3606335142,23.1814200073,9.5766546863
 H,0,1.1220077909,22.4745705371,8.9183050944
 N,0,2.7038674708,23.6019620464,10.947351976
 H,0,3.3814812541,23.6208968544,10.2022835262
 C,0,1.3488595944,23.4695235674,10.7870223467
 C,0,2.9495444443,23.7107535817,12.2731198915
 H,0,3.9277612957,23.807011706,12.6974161032
 N,0,1.8357460114,23.6404895909,12.9591879298
 C,0,0.8306511787,23.5061720576,12.049123824
 H,0,-0.1870047921,23.4210968839,12.3683480821
 C,0,2.6562728025,25.6694141001,18.4296845218
 H,0,3.5527426343,26.0564086671,18.9108915587
 H,0,1.7944032538,25.8973786464,19.0519591253
 H,0,2.5304732783,26.170677123,17.4751232368
 C,0,2.7757972802,24.1723561332,18.221437199
 H,0,2.8303842991,23.6522606768,19.1787920456
 H,0,3.6475498955,23.925994085,17.6176049022
 S,0,1.2884810716,23.5389411719,17.3409636658
 C,0,1.4539499698,21.7891781835,17.7973634323
 H,0,2.4185367197,21.4160403242,17.4684118445
 H,0,0.6617983849,21.2590042994,17.2807315392
 H,0,1.3385954071,21.6876871773,18.8732106275
 Recover connectivity data from disk.
 Stoichiometry    C37H42FeN6S(5)
 Framework group  C1[X(C37H42FeN6S)]
 Deg. of freedom   255
 Full point group                 C1      NOp   1
 Largest Abelian subgroup         C1      NOp   1
 Largest concise Abelian subgroup C1      NOp   1
                         Standard orientation:                         
 ---------------------------------------------------------------------
 Center     Atomic      Atomic             Coordinates (Angstroms)
 Number     Number       Type             X           Y           Z
 ---------------------------------------------------------------------
      1         26           0       -0.100022   -0.101837   -0.108398
      2          7           0       -0.394515   -2.085980   -0.047190
      3          7           0       -2.085103    0.215900    0.159948
      4          7           0        0.242011    1.857179   -0.239345
      5          7           0        1.880741   -0.436253   -0.232005
      6          6           0        0.545763   -3.076089   -0.072861
      7          6           0       -0.085222   -4.377915   -0.001522
      8          6           0       -1.425933   -4.148592    0.055507
      9          6           0       -1.598304   -2.711887    0.027539
     10          6           0       -3.066527   -0.724638    0.175395
     11          6           0       -4.364278   -0.091922    0.286731
     12          6           0       -4.130498    1.253443    0.362907
     13          6           0       -2.693575    1.427072    0.274775
     14          6           0       -0.682244    2.829296   -0.052822
     15          6           0       -0.063974    4.141957   -0.139780
     16          6           0        1.261149    3.924516   -0.409898
     17          6           0        1.434755    2.490960   -0.426223
     18          6           0        2.849346    0.492491   -0.425080
     19          6           0        4.160103   -0.129510   -0.441715
     20          6           0        3.951575   -1.459330   -0.190711
     21          6           0        2.522687   -1.629936   -0.089077
     22          6           0        1.909723   -2.866908   -0.000865
     23          1           0        2.554684   -3.735162    0.030437
     24          6           0       -2.841738   -2.094884    0.081457
     25          1           0       -3.699844   -2.749718    0.106762
     26          6           0       -2.031310    2.647920    0.207097
     27          1           0       -2.616783    3.545910    0.326116
     28          6           0        2.638277    1.842060   -0.636015
     29          1           0        3.518201    2.434182   -0.842761
     30          6           0        0.669799   -5.666880   -0.025477
     31          1           0        1.293479   -5.754088    0.863117
     32          1           0        1.326550   -5.726375   -0.895782
     33          1           0        0.000109   -6.522982   -0.047044
     34          6           0       -2.536080   -5.139704    0.148646
     35          1           0       -3.233946   -5.031495   -0.684785
     36          1           0       -3.093233   -4.989312    1.074491
     37          1           0       -2.157735   -6.162214    0.150735
     38          6           0        4.959851   -2.536011    0.007656
     39          1           0        5.100194   -3.134862   -0.894685
     40          1           0        4.640244   -3.202128    0.807268
     41          1           0        5.920411   -2.099637    0.275577
     42          6           0        5.408002    0.582005   -0.604786
     43          1           0        5.447362    1.581592   -0.185370
     44          6           0        6.465314    0.104355   -1.250603
     45          1           0        6.449055   -0.856284   -1.735639
     46          1           0        7.378428    0.667477   -1.334361
     47          6           0        2.372310    4.913579   -0.542230
     48          1           0        2.618742    5.082501   -1.591516
     49          1           0        3.274510    4.562334   -0.042579
     50          1           0        2.099784    5.869128   -0.099450
     51          6           0       -0.766850    5.400480   -0.015621
     52          1           0       -1.596994    5.386793    0.679650
     53          6           0       -0.469654    6.533787   -0.645023
     54          1           0        0.328317    6.584685   -1.367252
     55          1           0       -1.037516    7.439479   -0.482559
     56          6           0       -5.148181    2.340026    0.521392
     57          1           0       -4.798526    3.269392    0.078490
     58          1           0       -5.361245    2.535701    1.575192
     59          1           0       -6.096378    2.082623    0.047845
     60          6           0       -5.686341   -0.790619    0.381846
     61          1           0       -6.471105   -0.222206   -0.115499
     62          1           0       -6.003372   -0.936120    1.419937
     63          1           0       -5.636810   -1.769182   -0.087237
     64          6           0        1.708688    0.841750    5.049168
     65          1           0        1.066500    1.389901    5.737882
     66          1           0        2.506967    1.499926    4.719323
     67          1           0        2.145843   -0.001395    5.583563
     68          7           0       -0.102186   -0.523970    3.982436
     69          1           0       -0.430338   -0.938452    4.839855
     70          6           0        0.929854    0.372067    3.876110
     71          6           0       -0.592156   -0.732017    2.738853
     72          1           0       -1.395234   -1.403213    2.513544
     73          7           0        0.075848   -0.034504    1.853744
     74          6           0        1.014899    0.668753    2.546626
     75          1           0        1.697639    1.316344    2.037453
     76          6           0       -2.952973    0.336391   -3.186575
     77          1           0       -3.921056   -0.079935   -3.459467
     78          1           0       -2.656170    1.063643   -3.938256
     79          1           0       -3.051236    0.849430   -2.235042
     80          6           0       -1.917419   -0.766003   -3.080792
     81          1           0       -1.758472   -1.241044   -4.049853
     82          1           0       -2.211045   -1.514540   -2.346805
     83         16           0       -0.302188   -0.062729   -2.546945
     84          6           0        0.760386   -1.425920   -3.103719
     85          1           0        0.444532   -2.350782   -2.631772
     86          1           0        1.768235   -1.180589   -2.788204
     87          1           0        0.709903   -1.499359   -4.186822
 ---------------------------------------------------------------------
 Rotational constants (GHZ):           0.0833465           0.0806337           0.0574876
 Standard basis: def2TZVP (5D, 7F)
 There are  1894 symmetry adapted cartesian basis functions of A   symmetry.
 There are  1667 symmetry adapted basis functions of A   symmetry.
  1667 basis functions,  2700 primitive gaussians,  1894 cartesian basis functions
   176 alpha electrons      172 beta electrons
       nuclear repulsion energy      7136.3916428907 Hartrees.
 NAtoms=   87 NActive=   87 NUniq=   87 SFac= 1.00D+00 NAtFMM=   60 NAOKFM=T Big=T
 Integral buffers will be    131072 words long.
 Raffenetti 2 integral format.
 Two-electron integral symmetry is turned on.
 R6APFD:  NTU= -4 IXU= 1 FactS= 1.050
 Nuclear repulsion after empirical dispersion term =     7136.2083221068 Hartrees.
 One-electron integrals computed using PRISM.
   1 Symmetry operations used in ECPInt.
 ECPInt:  NShTT=  224115 NPrTT=  692067 LenC2=  177964 LenP2D=  362295.
 LDataN:  DoStor=T MaxTD1= 6 Len=  172
 Number of processors reduced to  21 by ecpmxn.
 NBasis=  1667 RedAO= T EigKep=  3.47D-06  NBF=  1667
 NBsUse=  1667 1.00D-06 EigRej= -1.00D+00 NBFU=  1667
 Initial guess from the checkpoint file:  "1ls9_II_Qn.chk"
 B after Tr=     0.000000    0.000000    0.000000
         Rot=    1.000000   -0.000000   -0.000000    0.000000 Ang=   0.00 deg.
 Initial guess <Sx>= 0.0000 <Sy>= 0.0000 <Sz>= 2.0000 <S**2>= 6.1434 S= 2.0285
 Requested convergence on RMS density matrix=1.00D-08 within 999 cycles.
 Requested convergence on MAX density matrix=1.00D-06.
 Requested convergence on             energy=1.00D-06.
 No special actions if energy rises.
 Restarting incremental Fock formation.
 Restarting incremental Fock formation.
 SCF Done:  E(UAPFD) =  -3424.81986973     A.U. after   45 cycles
            NFock= 45  Conv=0.16D-08     -V/T= 2.0030
 <Sx>= 0.0000 <Sy>= 0.0000 <Sz>= 2.0000 <S**2>= 6.1492 S= 2.0297
 <L.S>=  0.00000000000    
 Annihilation of the first spin contaminant:
 S**2 before annihilation     6.1492,   after     6.0007

 **********************************************************************

            Population analysis using the SCF Density.

 **********************************************************************

 Orbital symmetries:
 Alpha Orbitals:
       Occupied  (A) (A) (A) (A) (A) (A) (A) (A) (A) (A) (A) (A)
                 (A) (A) (A) (A) (A) (A) (A) (A) (A) (A) (A) (A)
                 (A) (A) (A) (A) (A) (A) (A) (A) (A) (A) (A) (A)
                 (A) (A) (A) (A) (A) (A) (A) (A) (A) (A) (A) (A)
                 (A) (A) (A) (A) (A) (A) (A) (A) (A) (A) (A) (A)
                 (A) (A) (A) (A) (A) (A) (A) (A) (A) (A) (A) (A)
                 (A) (A) (A) (A) (A) (A) (A) (A) (A) (A) (A) (A)
                 (A) (A) (A) (A) (A) (A) (A) (A) (A) (A) (A) (A)
                 (A) (A) (A) (A) (A) (A) (A) (A) (A) (A) (A) (A)
                 (A) (A) (A) (A) (A) (A) (A) (A) (A) (A) (A) (A)
                 (A) (A) (A) (A) (A) (A) (A) (A) (A) (A) (A) (A)
                 (A) (A) (A) (A) (A) (A) (A) (A) (A) (A) (A) (A)
                 (A) (A) (A) (A) (A) (A) (A) (A) (A) (A) (A) (A)
                 (A) (A) (A) (A) (A) (A) (A) (A) (A) (A) (A) (A)
                 (A) (A) (A) (A) (A) (A) (A) (A)
       Virtual   (A) (A) (A) (A) (A) (A) (A) (A) (A) (A) (A) (A)
                 (A) (A) (A) (A) (A) (A) (A) (A) (A) (A) (A) (A)
                 (A) (A) (A) (A) (A) (A) (A) (A) (A) (A) (A) (A)
                 (A) (A) (A) (A) (A) (A) (A) (A) (A) (A) (A) (A)
                 (A) (A) (A) (A) (A) (A) (A) (A) (A) (A) (A) (A)
                 (A) (A) (A) (A) (A) (A) (A) (A) (A) (A) (A) (A)
                 (A) (A) (A) (A) (A) (A) (A) (A) (A) (A) (A) (A)
                 (A) (A) (A) (A) (A) (A) (A) (A) (A) (A) (A) (A)
                 (A) (A) (A) (A) (A) (A) (A) (A) (A) (A) (A) (A)
                 (A) (A) (A) (A) (A) (A) (A) (A) (A) (A) (A) (A)
                 (A) (A) (A) (A) (A) (A) (A) (A) (A) (A) (A) (A)
                 (A) (A) (A) (A) (A) (A) (A) (A) (A) (A) (A) (A)
                 (A) (A) (A) (A) (A) (A) (A) (A) (A) (A) (A) (A)
                 (A) (A) (A) (A) (A) (A) (A) (A) (A) (A) (A) (A)
                 (A) (A) (A) (A) (A) (A) (A) (A) (A) (A) (A) (A)
                 (A) (A) (A) (A) (A) (A) (A) (A) (A) (A) (A) (A)
                 (A) (A) (A) (A) (A) (A) (A) (A) (A) (A) (A) (A)
                 (A) (A) (A) (A) (A) (A) (A) (A) (A) (A) (A) (A)
                 (A) (A) (A) (A) (A) (A) (A) (A) (A) (A) (A) (A)
                 (A) (A) (A) (A) (A) (A) (A) (A) (A) (A) (A) (A)
                 (A) (A) (A) (A) (A) (A) (A) (A) (A) (A) (A) (A)
                 (A) (A) (A) (A) (A) (A) (A) (A) (A) (A) (A) (A)
                 (A) (A) (A) (A) (A) (A) (A) (A) (A) (A) (A) (A)
                 (A) (A) (A) (A) (A) (A) (A) (A) (A) (A) (A) (A)
                 (A) (A) (A) (A) (A) (A) (A) (A) (A) (A) (A) (A)
                 (A) (A) (A) (A) (A) (A) (A) (A) (A) (A) (A) (A)
                 (A) (A) (A) (A) (A) (A) (A) (A) (A) (A) (A) (A)
                 (A) (A) (A) (A) (A) (A) (A) (A) (A) (A) (A) (A)
                 (A) (A) (A) (A) (A) (A) (A) (A) (A) (A) (A) (A)
                 (A) (A) (A) (A) (A) (A) (A) (A) (A) (A) (A) (A)
                 (A) (A) (A) (A) (A) (A) (A) (A) (A) (A) (A) (A)
                 (A) (A) (A) (A) (A) (A) (A) (A) (A) (A) (A) (A)
                 (A) (A) (A) (A) (A) (A) (A) (A) (A) (A) (A) (A)
                 (A) (A) (A) (A) (A) (A) (A) (A) (A) (A) (A) (A)
                 (A) (A) (A) (A) (A) (A) (A) (A) (A) (A) (A) (A)
                 (A) (A) (A) (A) (A) (A) (A) (A) (A) (A) (A) (A)
                 (A) (A) (A) (A) (A) (A) (A) (A) (A) (A) (A) (A)
                 (A) (A) (A) (A) (A) (A) (A) (A) (A) (A) (A) (A)
                 (A) (A) (A) (A) (A) (A) (A) (A) (A) (A) (A) (A)
                 (A) (A) (A) (A) (A) (A) (A) (A) (A) (A) (A) (A)
                 (A) (A) (A) (A) (A) (A) (A) (A) (A) (A) (A) (A)
                 (A) (A) (A) (A) (A) (A) (A) (A) (A) (A) (A) (A)
                 (A) (A) (A) (A) (A) (A) (A) (A) (A) (A) (A) (A)
                 (A) (A) (A) (A) (A) (A) (A) (A) (A) (A) (A) (A)
                 (A) (A) (A) (A) (A) (A) (A) (A) (A) (A) (A) (A)
                 (A) (A) (A) (A) (A) (A) (A) (A) (A) (A) (A) (A)
                 (A) (A) (A) (A) (A) (A) (A) (A) (A) (A) (A) (A)
                 (A) (A) (A) (A) (A) (A) (A) (A) (A) (A) (A) (A)
                 (A) (A) (A) (A) (A) (A) (A) (A) (A) (A) (A) (A)
                 (A) (A) (A) (A) (A) (A) (A) (A) (A) (A) (A) (A)
                 (A) (A) (A) (A) (A) (A) (A) (A) (A) (A) (A) (A)
                 (A) (A) (A) (A) (A) (A) (A) (A) (A) (A) (A) (A)
                 (A) (A) (A) (A) (A) (A) (A) (A) (A) (A) (A) (A)
                 (A) (A) (A) (A) (A) (A) (A) (A) (A) (A) (A) (A)
                 (A) (A) (A) (A) (A) (A) (A) (A) (A) (A) (A) (A)
                 (A) (A) (A) (A) (A) (A) (A) (A) (A) (A) (A) (A)
                 (A) (A) (A) (A) (A) (A) (A) (A) (A) (A) (A) (A)
                 (A) (A) (A) (A) (A) (A) (A) (A) (A) (A) (A) (A)
                 (A) (A) (A) (A) (A) (A) (A) (A) (A) (A) (A) (A)
                 (A) (A) (A) (A) (A) (A) (A) (A) (A) (A) (A) (A)
                 (A) (A) (A) (A) (A) (A) (A) (A) (A) (A) (A) (A)
                 (A) (A) (A) (A) (A) (A) (A) (A) (A) (A) (A) (A)
                 (A) (A) (A) (A) (A) (A) (A) (A) (A) (A) (A) (A)
                 (A) (A) (A) (A) (A) (A) (A) (A) (A) (A) (A) (A)
                 (A) (A) (A) (A) (A) (A) (A) (A) (A) (A) (A) (A)
                 (A) (A) (A) (A) (A) (A) (A) (A) (A) (A) (A) (A)
                 (A) (A) (A) (A) (A) (A) (A) (A) (A) (A) (A) (A)
                 (A) (A) (A) (A) (A) (A) (A) (A) (A) (A) (A) (A)
                 (A) (A) (A) (A) (A) (A) (A) (A) (A) (A) (A) (A)
                 (A) (A) (A) (A) (A) (A) (A) (A) (A) (A) (A) (A)
                 (A) (A) (A) (A) (A) (A) (A) (A) (A) (A) (A) (A)
                 (A) (A) (A) (A) (A) (A) (A) (A) (A) (A) (A) (A)
                 (A) (A) (A) (A) (A) (A) (A) (A) (A) (A) (A) (A)
                 (A) (A) (A) (A) (A) (A) (A) (A) (A) (A) (A) (A)
                 (A) (A) (A) (A) (A) (A) (A) (A) (A) (A) (A) (A)
                 (A) (A) (A) (A) (A) (A) (A) (A) (A) (A) (A) (A)
                 (A) (A) (A) (A) (A) (A) (A) (A) (A) (A) (A) (A)
                 (A) (A) (A) (A) (A) (A) (A) (A) (A) (A) (A) (A)
                 (A) (A) (A) (A) (A) (A) (A) (A) (A) (A) (A) (A)
                 (A) (A) (A) (A) (A) (A) (A) (A) (A) (A) (A) (A)
                 (A) (A) (A) (A) (A) (A) (A) (A) (A) (A) (A) (A)
                 (A) (A) (A) (A) (A) (A) (A) (A) (A) (A) (A) (A)
                 (A) (A) (A) (A) (A) (A) (A) (A) (A) (A) (A) (A)
                 (A) (A) (A) (A) (A) (A) (A) (A) (A) (A) (A) (A)
                 (A) (A) (A) (A) (A) (A) (A) (A) (A) (A) (A) (A)
                 (A) (A) (A) (A) (A) (A) (A) (A) (A) (A) (A) (A)
                 (A) (A) (A) (A) (A) (A) (A) (A) (A) (A) (A) (A)
                 (A) (A) (A) (A) (A) (A) (A) (A) (A) (A) (A) (A)
                 (A) (A) (A) (A) (A) (A) (A) (A) (A) (A) (A) (A)
                 (A) (A) (A) (A) (A) (A) (A) (A) (A) (A) (A) (A)
                 (A) (A) (A) (A) (A) (A) (A) (A) (A) (A) (A) (A)
                 (A) (A) (A) (A) (A) (A) (A) (A) (A) (A) (A) (A)
                 (A) (A) (A) (A) (A) (A) (A) (A) (A) (A) (A) (A)
                 (A) (A) (A) (A) (A) (A) (A) (A) (A) (A) (A) (A)
                 (A) (A) (A) (A) (A) (A) (A) (A) (A) (A) (A) (A)
                 (A) (A) (A) (A) (A) (A) (A) (A) (A) (A) (A) (A)
                 (A) (A) (A) (A) (A) (A) (A) (A) (A) (A) (A) (A)
                 (A) (A) (A) (A) (A) (A) (A) (A) (A) (A) (A) (A)
                 (A) (A) (A) (A) (A) (A) (A) (A) (A) (A) (A) (A)
                 (A) (A) (A) (A) (A) (A) (A) (A) (A) (A) (A) (A)
                 (A) (A) (A) (A) (A) (A) (A) (A) (A) (A) (A) (A)
                 (A) (A) (A) (A) (A) (A) (A) (A) (A) (A) (A) (A)
                 (A) (A) (A) (A) (A) (A) (A) (A) (A) (A) (A) (A)
                 (A) (A) (A) (A) (A) (A) (A) (A) (A) (A) (A) (A)
                 (A) (A) (A) (A) (A) (A) (A) (A) (A) (A) (A) (A)
                 (A) (A) (A) (A) (A) (A) (A) (A) (A) (A) (A) (A)
                 (A) (A) (A) (A) (A) (A) (A) (A) (A) (A) (A) (A)
                 (A) (A) (A) (A) (A) (A) (A) (A) (A) (A) (A) (A)
                 (A) (A) (A) (A) (A) (A) (A) (A) (A) (A) (A) (A)
                 (A) (A) (A) (A) (A) (A) (A) (A) (A) (A) (A) (A)
                 (A) (A) (A) (A) (A) (A) (A) (A) (A) (A) (A) (A)
                 (A) (A) (A) (A) (A) (A) (A) (A) (A) (A) (A) (A)
                 (A) (A) (A) (A) (A) (A) (A) (A) (A) (A) (A) (A)
                 (A) (A) (A) (A) (A) (A) (A) (A) (A) (A) (A) (A)
                 (A) (A) (A) (A) (A) (A) (A) (A) (A) (A) (A) (A)
                 (A) (A) (A) (A) (A) (A) (A) (A) (A) (A) (A) (A)
                 (A) (A) (A) (A) (A) (A) (A) (A) (A) (A) (A) (A)
                 (A) (A) (A) (A) (A) (A) (A) (A) (A) (A) (A) (A)
                 (A) (A) (A) (A) (A) (A) (A) (A) (A) (A) (A) (A)
                 (A) (A) (A) (A) (A) (A) (A) (A) (A) (A) (A) (A)
                 (A) (A) (A) (A) (A) (A) (A) (A) (A) (A) (A) (A)
                 (A) (A) (A) (A) (A) (A) (A) (A) (A) (A) (A) (A)
                 (A) (A) (A) (A) (A) (A) (A) (A) (A) (A) (A) (A)
                 (A) (A) (A) (A) (A) (A) (A) (A) (A) (A) (A) (A)
                 (A) (A) (A)
 Beta  Orbitals:
       Occupied  (A) (A) (A) (A) (A) (A) (A) (A) (A) (A) (A) (A)
                 (A) (A) (A) (A) (A) (A) (A) (A) (A) (A) (A) (A)
                 (A) (A) (A) (A) (A) (A) (A) (A) (A) (A) (A) (A)
                 (A) (A) (A) (A) (A) (A) (A) (A) (A) (A) (A) (A)
                 (A) (A) (A) (A) (A) (A) (A) (A) (A) (A) (A) (A)
                 (A) (A) (A) (A) (A) (A) (A) (A) (A) (A) (A) (A)
                 (A) (A) (A) (A) (A) (A) (A) (A) (A) (A) (A) (A)
                 (A) (A) (A) (A) (A) (A) (A) (A) (A) (A) (A) (A)
                 (A) (A) (A) (A) (A) (A) (A) (A) (A) (A) (A) (A)
                 (A) (A) (A) (A) (A) (A) (A) (A) (A) (A) (A) (A)
                 (A) (A) (A) (A) (A) (A) (A) (A) (A) (A) (A) (A)
                 (A) (A) (A) (A) (A) (A) (A) (A) (A) (A) (A) (A)
                 (A) (A) (A) (A) (A) (A) (A) (A) (A) (A) (A) (A)
                 (A) (A) (A) (A) (A) (A) (A) (A) (A) (A) (A) (A)
                 (A) (A) (A) (A)
       Virtual   (A) (A) (A) (A) (A) (A) (A) (A) (A) (A) (A) (A)
                 (A) (A) (A) (A) (A) (A) (A) (A) (A) (A) (A) (A)
                 (A) (A) (A) (A) (A) (A) (A) (A) (A) (A) (A) (A)
                 (A) (A) (A) (A) (A) (A) (A) (A) (A) (A) (A) (A)
                 (A) (A) (A) (A) (A) (A) (A) (A) (A) (A) (A) (A)
                 (A) (A) (A) (A) (A) (A) (A) (A) (A) (A) (A) (A)
                 (A) (A) (A) (A) (A) (A) (A) (A) (A) (A) (A) (A)
                 (A) (A) (A) (A) (A) (A) (A) (A) (A) (A) (A) (A)
                 (A) (A) (A) (A) (A) (A) (A) (A) (A) (A) (A) (A)
                 (A) (A) (A) (A) (A) (A) (A) (A) (A) (A) (A) (A)
                 (A) (A) (A) (A) (A) (A) (A) (A) (A) (A) (A) (A)
                 (A) (A) (A) (A) (A) (A) (A) (A) (A) (A) (A) (A)
                 (A) (A) (A) (A) (A) (A) (A) (A) (A) (A) (A) (A)
                 (A) (A) (A) (A) (A) (A) (A) (A) (A) (A) (A) (A)
                 (A) (A) (A) (A) (A) (A) (A) (A) (A) (A) (A) (A)
                 (A) (A) (A) (A) (A) (A) (A) (A) (A) (A) (A) (A)
                 (A) (A) (A) (A) (A) (A) (A) (A) (A) (A) (A) (A)
                 (A) (A) (A) (A) (A) (A) (A) (A) (A) (A) (A) (A)
                 (A) (A) (A) (A) (A) (A) (A) (A) (A) (A) (A) (A)
                 (A) (A) (A) (A) (A) (A) (A) (A) (A) (A) (A) (A)
                 (A) (A) (A) (A) (A) (A) (A) (A) (A) (A) (A) (A)
                 (A) (A) (A) (A) (A) (A) (A) (A) (A) (A) (A) (A)
                 (A) (A) (A) (A) (A) (A) (A) (A) (A) (A) (A) (A)
                 (A) (A) (A) (A) (A) (A) (A) (A) (A) (A) (A) (A)
                 (A) (A) (A) (A) (A) (A) (A) (A) (A) (A) (A) (A)
                 (A) (A) (A) (A) (A) (A) (A) (A) (A) (A) (A) (A)
                 (A) (A) (A) (A) (A) (A) (A) (A) (A) (A) (A) (A)
                 (A) (A) (A) (A) (A) (A) (A) (A) (A) (A) (A) (A)
                 (A) (A) (A) (A) (A) (A) (A) (A) (A) (A) (A) (A)
                 (A) (A) (A) (A) (A) (A) (A) (A) (A) (A) (A) (A)
                 (A) (A) (A) (A) (A) (A) (A) (A) (A) (A) (A) (A)
                 (A) (A) (A) (A) (A) (A) (A) (A) (A) (A) (A) (A)
                 (A) (A) (A) (A) (A) (A) (A) (A) (A) (A) (A) (A)
                 (A) (A) (A) (A) (A) (A) (A) (A) (A) (A) (A) (A)
                 (A) (A) (A) (A) (A) (A) (A) (A) (A) (A) (A) (A)
                 (A) (A) (A) (A) (A) (A) (A) (A) (A) (A) (A) (A)
                 (A) (A) (A) (A) (A) (A) (A) (A) (A) (A) (A) (A)
                 (A) (A) (A) (A) (A) (A) (A) (A) (A) (A) (A) (A)
                 (A) (A) (A) (A) (A) (A) (A) (A) (A) (A) (A) (A)
                 (A) (A) (A) (A) (A) (A) (A) (A) (A) (A) (A) (A)
                 (A) (A) (A) (A) (A) (A) (A) (A) (A) (A) (A) (A)
                 (A) (A) (A) (A) (A) (A) (A) (A) (A) (A) (A) (A)
                 (A) (A) (A) (A) (A) (A) (A) (A) (A) (A) (A) (A)
                 (A) (A) (A) (A) (A) (A) (A) (A) (A) (A) (A) (A)
                 (A) (A) (A) (A) (A) (A) (A) (A) (A) (A) (A) (A)
                 (A) (A) (A) (A) (A) (A) (A) (A) (A) (A) (A) (A)
                 (A) (A) (A) (A) (A) (A) (A) (A) (A) (A) (A) (A)
                 (A) (A) (A) (A) (A) (A) (A) (A) (A) (A) (A) (A)
                 (A) (A) (A) (A) (A) (A) (A) (A) (A) (A) (A) (A)
                 (A) (A) (A) (A) (A) (A) (A) (A) (A) (A) (A) (A)
                 (A) (A) (A) (A) (A) (A) (A) (A) (A) (A) (A) (A)
                 (A) (A) (A) (A) (A) (A) (A) (A) (A) (A) (A) (A)
                 (A) (A) (A) (A) (A) (A) (A) (A) (A) (A) (A) (A)
                 (A) (A) (A) (A) (A) (A) (A) (A) (A) (A) (A) (A)
                 (A) (A) (A) (A) (A) (A) (A) (A) (A) (A) (A) (A)
                 (A) (A) (A) (A) (A) (A) (A) (A) (A) (A) (A) (A)
                 (A) (A) (A) (A) (A) (A) (A) (A) (A) (A) (A) (A)
                 (A) (A) (A) (A) (A) (A) (A) (A) (A) (A) (A) (A)
                 (A) (A) (A) (A) (A) (A) (A) (A) (A) (A) (A) (A)
                 (A) (A) (A) (A) (A) (A) (A) (A) (A) (A) (A) (A)
                 (A) (A) (A) (A) (A) (A) (A) (A) (A) (A) (A) (A)
                 (A) (A) (A) (A) (A) (A) (A) (A) (A) (A) (A) (A)
                 (A) (A) (A) (A) (A) (A) (A) (A) (A) (A) (A) (A)
                 (A) (A) (A) (A) (A) (A) (A) (A) (A) (A) (A) (A)
                 (A) (A) (A) (A) (A) (A) (A) (A) (A) (A) (A) (A)
                 (A) (A) (A) (A) (A) (A) (A) (A) (A) (A) (A) (A)
                 (A) (A) (A) (A) (A) (A) (A) (A) (A) (A) (A) (A)
                 (A) (A) (A) (A) (A) (A) (A) (A) (A) (A) (A) (A)
                 (A) (A) (A) (A) (A) (A) (A) (A) (A) (A) (A) (A)
                 (A) (A) (A) (A) (A) (A) (A) (A) (A) (A) (A) (A)
                 (A) (A) (A) (A) (A) (A) (A) (A) (A) (A) (A) (A)
                 (A) (A) (A) (A) (A) (A) (A) (A) (A) (A) (A) (A)
                 (A) (A) (A) (A) (A) (A) (A) (A) (A) (A) (A) (A)
                 (A) (A) (A) (A) (A) (A) (A) (A) (A) (A) (A) (A)
                 (A) (A) (A) (A) (A) (A) (A) (A) (A) (A) (A) (A)
                 (A) (A) (A) (A) (A) (A) (A) (A) (A) (A) (A) (A)
                 (A) (A) (A) (A) (A) (A) (A) (A) (A) (A) (A) (A)
                 (A) (A) (A) (A) (A) (A) (A) (A) (A) (A) (A) (A)
                 (A) (A) (A) (A) (A) (A) (A) (A) (A) (A) (A) (A)
                 (A) (A) (A) (A) (A) (A) (A) (A) (A) (A) (A) (A)
                 (A) (A) (A) (A) (A) (A) (A) (A) (A) (A) (A) (A)
                 (A) (A) (A) (A) (A) (A) (A) (A) (A) (A) (A) (A)
                 (A) (A) (A) (A) (A) (A) (A) (A) (A) (A) (A) (A)
                 (A) (A) (A) (A) (A) (A) (A) (A) (A) (A) (A) (A)
                 (A) (A) (A) (A) (A) (A) (A) (A) (A) (A) (A) (A)
                 (A) (A) (A) (A) (A) (A) (A) (A) (A) (A) (A) (A)
                 (A) (A) (A) (A) (A) (A) (A) (A) (A) (A) (A) (A)
                 (A) (A) (A) (A) (A) (A) (A) (A) (A) (A) (A) (A)
                 (A) (A) (A) (A) (A) (A) (A) (A) (A) (A) (A) (A)
                 (A) (A) (A) (A) (A) (A) (A) (A) (A) (A) (A) (A)
                 (A) (A) (A) (A) (A) (A) (A) (A) (A) (A) (A) (A)
                 (A) (A) (A) (A) (A) (A) (A) (A) (A) (A) (A) (A)
                 (A) (A) (A) (A) (A) (A) (A) (A) (A) (A) (A) (A)
                 (A) (A) (A) (A) (A) (A) (A) (A) (A) (A) (A) (A)
                 (A) (A) (A) (A) (A) (A) (A) (A) (A) (A) (A) (A)
                 (A) (A) (A) (A) (A) (A) (A) (A) (A) (A) (A) (A)
                 (A) (A) (A) (A) (A) (A) (A) (A) (A) (A) (A) (A)
                 (A) (A) (A) (A) (A) (A) (A) (A) (A) (A) (A) (A)
                 (A) (A) (A) (A) (A) (A) (A) (A) (A) (A) (A) (A)
                 (A) (A) (A) (A) (A) (A) (A) (A) (A) (A) (A) (A)
                 (A) (A) (A) (A) (A) (A) (A) (A) (A) (A) (A) (A)
                 (A) (A) (A) (A) (A) (A) (A) (A) (A) (A) (A) (A)
                 (A) (A) (A) (A) (A) (A) (A) (A) (A) (A) (A) (A)
                 (A) (A) (A) (A) (A) (A) (A) (A) (A) (A) (A) (A)
                 (A) (A) (A) (A) (A) (A) (A) (A) (A) (A) (A) (A)
                 (A) (A) (A) (A) (A) (A) (A) (A) (A) (A) (A) (A)
                 (A) (A) (A) (A) (A) (A) (A) (A) (A) (A) (A) (A)
                 (A) (A) (A) (A) (A) (A) (A) (A) (A) (A) (A) (A)
                 (A) (A) (A) (A) (A) (A) (A) (A) (A) (A) (A) (A)
                 (A) (A) (A) (A) (A) (A) (A) (A) (A) (A) (A) (A)
                 (A) (A) (A) (A) (A) (A) (A) (A) (A) (A) (A) (A)
                 (A) (A) (A) (A) (A) (A) (A) (A) (A) (A) (A) (A)
                 (A) (A) (A) (A) (A) (A) (A) (A) (A) (A) (A) (A)
                 (A) (A) (A) (A) (A) (A) (A) (A) (A) (A) (A) (A)
                 (A) (A) (A) (A) (A) (A) (A) (A) (A) (A) (A) (A)
                 (A) (A) (A) (A) (A) (A) (A) (A) (A) (A) (A) (A)
                 (A) (A) (A) (A) (A) (A) (A) (A) (A) (A) (A) (A)
                 (A) (A) (A) (A) (A) (A) (A) (A) (A) (A) (A) (A)
                 (A) (A) (A) (A) (A) (A) (A) (A) (A) (A) (A) (A)
                 (A) (A) (A) (A) (A) (A) (A) (A) (A) (A) (A) (A)
                 (A) (A) (A) (A) (A) (A) (A) (A) (A) (A) (A) (A)
                 (A) (A) (A) (A) (A) (A) (A) (A) (A) (A) (A) (A)
                 (A) (A) (A) (A) (A) (A) (A) (A) (A) (A) (A) (A)
                 (A) (A) (A) (A) (A) (A) (A) (A) (A) (A) (A) (A)
                 (A) (A) (A) (A) (A) (A) (A)
 The electronic state is 5-A.
 Alpha  occ. eigenvalues -- -256.18616 -88.92707 -30.07929 -25.92424 -25.90454
 Alpha  occ. eigenvalues --  -25.90329 -14.41487 -14.34818 -14.32481 -14.32461
 Alpha  occ. eigenvalues --  -14.32334 -14.32155 -10.25201 -10.23430 -10.21221
 Alpha  occ. eigenvalues --  -10.21214 -10.21136 -10.21091 -10.21063 -10.20998
 Alpha  occ. eigenvalues --  -10.20988 -10.20966 -10.20894 -10.20617 -10.20464
 Alpha  occ. eigenvalues --  -10.19743 -10.19586 -10.19453 -10.19092 -10.19070
 Alpha  occ. eigenvalues --  -10.19069 -10.19046 -10.18985 -10.18950 -10.18806
 Alpha  occ. eigenvalues --  -10.18761 -10.18737 -10.18691 -10.18589 -10.18575
 Alpha  occ. eigenvalues --  -10.18542 -10.18489 -10.18477 -10.18447 -10.18376
 Alpha  occ. eigenvalues --  -10.18338 -10.18174 -10.18130 -10.17092  -7.95523
 Alpha  occ. eigenvalues --   -5.90107  -5.89820  -5.89289  -3.53555  -2.33238
 Alpha  occ. eigenvalues --   -2.28966  -2.28775  -1.05046  -0.97031  -0.96076
 Alpha  occ. eigenvalues --   -0.95976  -0.95058  -0.90707  -0.82276  -0.81947
 Alpha  occ. eigenvalues --   -0.81527  -0.81146  -0.80775  -0.80327  -0.80028
 Alpha  occ. eigenvalues --   -0.79554  -0.79485  -0.76684  -0.75687  -0.74369
 Alpha  occ. eigenvalues --   -0.74205  -0.73966  -0.73135  -0.71630  -0.70998
 Alpha  occ. eigenvalues --   -0.70146  -0.68454  -0.67981  -0.67905  -0.64585
 Alpha  occ. eigenvalues --   -0.64454  -0.64245  -0.64109  -0.61107  -0.60629
 Alpha  occ. eigenvalues --   -0.60044  -0.58442  -0.57845  -0.56805  -0.55827
 Alpha  occ. eigenvalues --   -0.54640  -0.53760  -0.53348  -0.52884  -0.51216
 Alpha  occ. eigenvalues --   -0.51151  -0.50700  -0.49157  -0.48076  -0.47914
 Alpha  occ. eigenvalues --   -0.47730  -0.47326  -0.46774  -0.45234  -0.44992
 Alpha  occ. eigenvalues --   -0.44658  -0.44572  -0.44369  -0.43892  -0.43577
 Alpha  occ. eigenvalues --   -0.43555  -0.43323  -0.43180  -0.42986  -0.42909
 Alpha  occ. eigenvalues --   -0.42542  -0.42400  -0.42320  -0.42250  -0.41925
 Alpha  occ. eigenvalues --   -0.41833  -0.41726  -0.41575  -0.40913  -0.40729
 Alpha  occ. eigenvalues --   -0.40392  -0.40213  -0.39828  -0.39642  -0.39357
 Alpha  occ. eigenvalues --   -0.39091  -0.38897  -0.38627  -0.38400  -0.38213
 Alpha  occ. eigenvalues --   -0.37978  -0.37825  -0.37527  -0.37044  -0.36728
 Alpha  occ. eigenvalues --   -0.36672  -0.36209  -0.35988  -0.35290  -0.34935
 Alpha  occ. eigenvalues --   -0.34507  -0.34016  -0.33780  -0.33497  -0.33161
 Alpha  occ. eigenvalues --   -0.32367  -0.31520  -0.31192  -0.31069  -0.30752
 Alpha  occ. eigenvalues --   -0.29467  -0.29290  -0.29088  -0.27531  -0.26604
 Alpha  occ. eigenvalues --   -0.26383  -0.25753  -0.23724  -0.22835  -0.22269
 Alpha  occ. eigenvalues --   -0.21695  -0.21391  -0.18169  -0.17971  -0.17043
 Alpha  occ. eigenvalues --   -0.16237
 Alpha virt. eigenvalues --   -0.06995  -0.06730  -0.02076   0.00513   0.01646
 Alpha virt. eigenvalues --    0.02211   0.02520   0.03517   0.03782   0.04843
 Alpha virt. eigenvalues --    0.05157   0.05340   0.05648   0.05763   0.06531
 Alpha virt. eigenvalues --    0.06630   0.07021   0.07389   0.07734   0.07915
 Alpha virt. eigenvalues --    0.08547   0.08612   0.08941   0.09405   0.09748
 Alpha virt. eigenvalues --    0.09890   0.09999   0.10160   0.10428   0.10922
 Alpha virt. eigenvalues --    0.10994   0.11262   0.11479   0.11601   0.12241
 Alpha virt. eigenvalues --    0.12339   0.12466   0.12707   0.12929   0.13103
 Alpha virt. eigenvalues --    0.13360   0.13455   0.13668   0.13718   0.13913
 Alpha virt. eigenvalues --    0.14115   0.14367   0.14531   0.14735   0.15015
 Alpha virt. eigenvalues --    0.15156   0.15330   0.15463   0.15648   0.15835
 Alpha virt. eigenvalues --    0.15947   0.16332   0.16529   0.16671   0.16790
 Alpha virt. eigenvalues --    0.17071   0.17301   0.17722   0.17953   0.18029
 Alpha virt. eigenvalues --    0.18430   0.18711   0.18781   0.19053   0.19397
 Alpha virt. eigenvalues --    0.19892   0.19988   0.20249   0.20517   0.20673
 Alpha virt. eigenvalues --    0.20887   0.21067   0.21405   0.21740   0.21807
 Alpha virt. eigenvalues --    0.22230   0.22287   0.22430   0.22544   0.23187
 Alpha virt. eigenvalues --    0.23495   0.23557   0.24004   0.24273   0.24372
 Alpha virt. eigenvalues --    0.24530   0.24971   0.25079   0.25237   0.25609
 Alpha virt. eigenvalues --    0.25799   0.26236   0.26602   0.26645   0.26873
 Alpha virt. eigenvalues --    0.26922   0.27138   0.27826   0.27951   0.28120
 Alpha virt. eigenvalues --    0.28481   0.28762   0.28967   0.28974   0.29422
 Alpha virt. eigenvalues --    0.29625   0.30082   0.30323   0.30356   0.30768
 Alpha virt. eigenvalues --    0.30802   0.30936   0.31465   0.31642   0.31998
 Alpha virt. eigenvalues --    0.32224   0.32366   0.32596   0.32926   0.33094
 Alpha virt. eigenvalues --    0.33265   0.33822   0.34074   0.34215   0.34309
 Alpha virt. eigenvalues --    0.34651   0.34959   0.35383   0.35814   0.36195
 Alpha virt. eigenvalues --    0.36203   0.36507   0.36643   0.37062   0.37190
 Alpha virt. eigenvalues --    0.37540   0.37654   0.37998   0.38114   0.38527
 Alpha virt. eigenvalues --    0.38761   0.39154   0.39204   0.39241   0.39411
 Alpha virt. eigenvalues --    0.39835   0.40005   0.40141   0.40276   0.40549
 Alpha virt. eigenvalues --    0.40623   0.40940   0.41106   0.41141   0.41730
 Alpha virt. eigenvalues --    0.41905   0.42013   0.42092   0.42499   0.42574
 Alpha virt. eigenvalues --    0.42767   0.43116   0.43176   0.43225   0.43452
 Alpha virt. eigenvalues --    0.43795   0.43943   0.44211   0.44327   0.44586
 Alpha virt. eigenvalues --    0.44771   0.44931   0.45142   0.45303   0.45361
 Alpha virt. eigenvalues --    0.45491   0.45689   0.45848   0.45989   0.46159
 Alpha virt. eigenvalues --    0.46300   0.46721   0.46987   0.47142   0.47254
 Alpha virt. eigenvalues --    0.47484   0.47486   0.47759   0.47859   0.47935
 Alpha virt. eigenvalues --    0.48318   0.48522   0.48707   0.48962   0.49234
 Alpha virt. eigenvalues --    0.49480   0.49586   0.49759   0.50077   0.50125
 Alpha virt. eigenvalues --    0.50286   0.50478   0.50673   0.50944   0.51322
 Alpha virt. eigenvalues --    0.51458   0.51668   0.51747   0.52221   0.52259
 Alpha virt. eigenvalues --    0.52494   0.52875   0.53128   0.53243   0.53389
 Alpha virt. eigenvalues --    0.53566   0.53918   0.54149   0.54299   0.54667
 Alpha virt. eigenvalues --    0.54913   0.55037   0.55309   0.55467   0.55830
 Alpha virt. eigenvalues --    0.56301   0.56573   0.56728   0.57050   0.57108
 Alpha virt. eigenvalues --    0.57268   0.57631   0.57718   0.57911   0.58315
 Alpha virt. eigenvalues --    0.58609   0.58714   0.58904   0.59249   0.59618
 Alpha virt. eigenvalues --    0.59857   0.60253   0.60456   0.60818   0.60967
 Alpha virt. eigenvalues --    0.61188   0.61431   0.61934   0.62003   0.62471
 Alpha virt. eigenvalues --    0.62555   0.62890   0.63127   0.63725   0.63912
 Alpha virt. eigenvalues --    0.64172   0.64281   0.64480   0.64992   0.65144
 Alpha virt. eigenvalues --    0.65225   0.65872   0.65958   0.66277   0.66661
 Alpha virt. eigenvalues --    0.66764   0.67296   0.67506   0.67735   0.67905
 Alpha virt. eigenvalues --    0.68415   0.68838   0.69102   0.69334   0.69734
 Alpha virt. eigenvalues --    0.70116   0.70715   0.71005   0.71261   0.71404
 Alpha virt. eigenvalues --    0.71847   0.72116   0.72198   0.72685   0.72762
 Alpha virt. eigenvalues --    0.73230   0.73307   0.73763   0.74218   0.74486
 Alpha virt. eigenvalues --    0.74627   0.74861   0.75060   0.75540   0.75706
 Alpha virt. eigenvalues --    0.76163   0.76383   0.76545   0.76906   0.77214
 Alpha virt. eigenvalues --    0.77723   0.77827   0.78383   0.78743   0.79065
 Alpha virt. eigenvalues --    0.79321   0.79689   0.79979   0.80156   0.80633
 Alpha virt. eigenvalues --    0.80898   0.81332   0.81562   0.81727   0.82149
 Alpha virt. eigenvalues --    0.82718   0.83245   0.83426   0.83848   0.84032
 Alpha virt. eigenvalues --    0.84503   0.84662   0.85138   0.85387   0.85604
 Alpha virt. eigenvalues --    0.85931   0.86534   0.87094   0.87225   0.87510
 Alpha virt. eigenvalues --    0.87901   0.87951   0.88432   0.88713   0.89199
 Alpha virt. eigenvalues --    0.89730   0.89891   0.90242   0.90446   0.90666
 Alpha virt. eigenvalues --    0.90887   0.91032   0.91505   0.91922   0.92033
 Alpha virt. eigenvalues --    0.92410   0.92857   0.93175   0.93330   0.93388
 Alpha virt. eigenvalues --    0.94128   0.94323   0.94709   0.94908   0.95110
 Alpha virt. eigenvalues --    0.95433   0.95741   0.96126   0.96553   0.96784
 Alpha virt. eigenvalues --    0.97366   0.97518   0.97865   0.98295   0.98413
 Alpha virt. eigenvalues --    0.98550   0.99087   0.99198   0.99597   0.99618
 Alpha virt. eigenvalues --    0.99977   1.00289   1.00446   1.01099   1.01335
 Alpha virt. eigenvalues --    1.01668   1.02002   1.02305   1.02864   1.03028
 Alpha virt. eigenvalues --    1.03093   1.03193   1.03809   1.03955   1.04896
 Alpha virt. eigenvalues --    1.05243   1.05439   1.05671   1.06120   1.06411
 Alpha virt. eigenvalues --    1.06519   1.06813   1.07324   1.07814   1.07939
 Alpha virt. eigenvalues --    1.08199   1.08811   1.09062   1.09607   1.09872
 Alpha virt. eigenvalues --    1.10231   1.10483   1.10865   1.10988   1.11508
 Alpha virt. eigenvalues --    1.11910   1.12293   1.12619   1.12961   1.13424
 Alpha virt. eigenvalues --    1.13661   1.13880   1.14361   1.14553   1.15165
 Alpha virt. eigenvalues --    1.15425   1.15917   1.16656   1.16771   1.17171
 Alpha virt. eigenvalues --    1.17749   1.18329   1.18543   1.19115   1.19540
 Alpha virt. eigenvalues --    1.19709   1.19830   1.20056   1.20317   1.20816
 Alpha virt. eigenvalues --    1.20956   1.21051   1.21436   1.21825   1.22300
 Alpha virt. eigenvalues --    1.23001   1.23239   1.23273   1.23982   1.24458
 Alpha virt. eigenvalues --    1.24676   1.25263   1.25427   1.25638   1.26145
 Alpha virt. eigenvalues --    1.26288   1.26590   1.26762   1.27400   1.27979
 Alpha virt. eigenvalues --    1.28085   1.28467   1.28783   1.29224   1.29633
 Alpha virt. eigenvalues --    1.30324   1.30629   1.30731   1.31264   1.31528
 Alpha virt. eigenvalues --    1.32104   1.32188   1.32684   1.32941   1.33562
 Alpha virt. eigenvalues --    1.33890   1.34747   1.35436   1.36617   1.36734
 Alpha virt. eigenvalues --    1.37164   1.37633   1.37848   1.38257   1.38724
 Alpha virt. eigenvalues --    1.39484   1.40044   1.40189   1.41001   1.41614
 Alpha virt. eigenvalues --    1.41769   1.42090   1.42727   1.43098   1.43959
 Alpha virt. eigenvalues --    1.44143   1.44839   1.45076   1.45711   1.45989
 Alpha virt. eigenvalues --    1.46328   1.46802   1.47294   1.47727   1.47880
 Alpha virt. eigenvalues --    1.48612   1.48737   1.49077   1.49169   1.49441
 Alpha virt. eigenvalues --    1.50156   1.50446   1.50587   1.51087   1.51111
 Alpha virt. eigenvalues --    1.51371   1.51630   1.51930   1.52095   1.52139
 Alpha virt. eigenvalues --    1.52470   1.52747   1.53297   1.53390   1.53695
 Alpha virt. eigenvalues --    1.53708   1.54347   1.54465   1.54730   1.55232
 Alpha virt. eigenvalues --    1.55363   1.55485   1.55730   1.56147   1.56470
 Alpha virt. eigenvalues --    1.56611   1.56769   1.57310   1.57479   1.57712
 Alpha virt. eigenvalues --    1.58176   1.58556   1.58769   1.59171   1.59495
 Alpha virt. eigenvalues --    1.59627   1.59781   1.60179   1.60309   1.60569
 Alpha virt. eigenvalues --    1.61177   1.61207   1.61615   1.61707   1.62162
 Alpha virt. eigenvalues --    1.62493   1.62812   1.63099   1.63231   1.63704
 Alpha virt. eigenvalues --    1.63809   1.64181   1.64332   1.64568   1.64890
 Alpha virt. eigenvalues --    1.64938   1.65501   1.65895   1.66094   1.66438
 Alpha virt. eigenvalues --    1.66467   1.66749   1.67254   1.67706   1.67841
 Alpha virt. eigenvalues --    1.67921   1.68714   1.69124   1.69230   1.69454
 Alpha virt. eigenvalues --    1.69647   1.69761   1.70152   1.70591   1.70686
 Alpha virt. eigenvalues --    1.71430   1.71554   1.71715   1.72237   1.72338
 Alpha virt. eigenvalues --    1.72728   1.73394   1.73558   1.73659   1.74114
 Alpha virt. eigenvalues --    1.74273   1.74366   1.74712   1.75135   1.75996
 Alpha virt. eigenvalues --    1.76323   1.76566   1.76937   1.77236   1.77913
 Alpha virt. eigenvalues --    1.78342   1.78759   1.78976   1.79528   1.79899
 Alpha virt. eigenvalues --    1.80242   1.80832   1.81558   1.82116   1.82588
 Alpha virt. eigenvalues --    1.83020   1.83201   1.83968   1.84212   1.84502
 Alpha virt. eigenvalues --    1.85024   1.85152   1.85434   1.85649   1.85780
 Alpha virt. eigenvalues --    1.86159   1.86520   1.87428   1.87608   1.87717
 Alpha virt. eigenvalues --    1.88161   1.88561   1.88795   1.89244   1.89573
 Alpha virt. eigenvalues --    1.89986   1.90461   1.91145   1.91620   1.92014
 Alpha virt. eigenvalues --    1.92343   1.92765   1.93371   1.94117   1.94586
 Alpha virt. eigenvalues --    1.94675   1.95020   1.95289   1.95853   1.96287
 Alpha virt. eigenvalues --    1.96525   1.96823   1.97410   1.97830   1.98146
 Alpha virt. eigenvalues --    1.98322   1.98693   1.99110   1.99821   2.00290
 Alpha virt. eigenvalues --    2.00560   2.00777   2.00989   2.01426   2.01923
 Alpha virt. eigenvalues --    2.02194   2.02710   2.03562   2.03889   2.04213
 Alpha virt. eigenvalues --    2.04322   2.04692   2.04887   2.05134   2.05857
 Alpha virt. eigenvalues --    2.06496   2.06766   2.07325   2.07957   2.08782
 Alpha virt. eigenvalues --    2.09037   2.10150   2.10390   2.10843   2.11216
 Alpha virt. eigenvalues --    2.11488   2.11624   2.11824   2.12083   2.12617
 Alpha virt. eigenvalues --    2.13013   2.13073   2.13271   2.13736   2.14317
 Alpha virt. eigenvalues --    2.14830   2.15427   2.15647   2.15884   2.15929
 Alpha virt. eigenvalues --    2.16606   2.17094   2.17370   2.17402   2.18211
 Alpha virt. eigenvalues --    2.18623   2.19020   2.19664   2.19817   2.20288
 Alpha virt. eigenvalues --    2.20831   2.20956   2.21171   2.21268   2.21608
 Alpha virt. eigenvalues --    2.21992   2.22208   2.22450   2.23036   2.23777
 Alpha virt. eigenvalues --    2.24579   2.24768   2.24902   2.25777   2.26329
 Alpha virt. eigenvalues --    2.26949   2.27240   2.27471   2.27989   2.28171
 Alpha virt. eigenvalues --    2.28932   2.29118   2.29476   2.29666   2.29852
 Alpha virt. eigenvalues --    2.30624   2.30937   2.31524   2.31641   2.32290
 Alpha virt. eigenvalues --    2.32587   2.32906   2.33233   2.33680   2.34282
 Alpha virt. eigenvalues --    2.35179   2.35377   2.35822   2.36000   2.36296
 Alpha virt. eigenvalues --    2.36891   2.37105   2.37300   2.37882   2.38330
 Alpha virt. eigenvalues --    2.38904   2.38980   2.39235   2.39789   2.40111
 Alpha virt. eigenvalues --    2.40316   2.41326   2.41663   2.41850   2.42568
 Alpha virt. eigenvalues --    2.42826   2.43311   2.43628   2.43694   2.44023
 Alpha virt. eigenvalues --    2.44436   2.44809   2.45621   2.45824   2.46116
 Alpha virt. eigenvalues --    2.46692   2.46780   2.47154   2.47688   2.48159
 Alpha virt. eigenvalues --    2.48276   2.48854   2.49147   2.49597   2.49798
 Alpha virt. eigenvalues --    2.49964   2.50565   2.51009   2.51752   2.51901
 Alpha virt. eigenvalues --    2.52290   2.52586   2.52793   2.53314   2.53540
 Alpha virt. eigenvalues --    2.53845   2.54141   2.54740   2.54980   2.55302
 Alpha virt. eigenvalues --    2.56033   2.56112   2.56384   2.56774   2.57077
 Alpha virt. eigenvalues --    2.57459   2.57592   2.57698   2.58135   2.58255
 Alpha virt. eigenvalues --    2.58546   2.58973   2.59395   2.59457   2.59841
 Alpha virt. eigenvalues --    2.60596   2.61137   2.61224   2.61549   2.62087
 Alpha virt. eigenvalues --    2.62428   2.62616   2.63106   2.63302   2.63705
 Alpha virt. eigenvalues --    2.63923   2.64248   2.64400   2.64843   2.65522
 Alpha virt. eigenvalues --    2.65595   2.65984   2.66554   2.66699   2.67087
 Alpha virt. eigenvalues --    2.67655   2.67930   2.68265   2.68904   2.69188
 Alpha virt. eigenvalues --    2.69448   2.69890   2.70058   2.70301   2.70719
 Alpha virt. eigenvalues --    2.70923   2.71350   2.71459   2.71781   2.72257
 Alpha virt. eigenvalues --    2.72862   2.72956   2.73401   2.73796   2.74168
 Alpha virt. eigenvalues --    2.74455   2.74925   2.75297   2.75816   2.76281
 Alpha virt. eigenvalues --    2.76702   2.77052   2.77207   2.77826   2.78127
 Alpha virt. eigenvalues --    2.78522   2.78904   2.79253   2.80036   2.80326
 Alpha virt. eigenvalues --    2.80629   2.81248   2.81406   2.81743   2.82001
 Alpha virt. eigenvalues --    2.82782   2.82891   2.83183   2.83636   2.83837
 Alpha virt. eigenvalues --    2.84455   2.84839   2.85220   2.85518   2.86269
 Alpha virt. eigenvalues --    2.86789   2.86889   2.87226   2.87967   2.88099
 Alpha virt. eigenvalues --    2.88790   2.89242   2.89601   2.89683   2.90102
 Alpha virt. eigenvalues --    2.90399   2.90517   2.91390   2.91650   2.91765
 Alpha virt. eigenvalues --    2.92438   2.92833   2.93121   2.93506   2.93649
 Alpha virt. eigenvalues --    2.93916   2.94538   2.95021   2.95250   2.95441
 Alpha virt. eigenvalues --    2.95746   2.95828   2.96018   2.96682   2.96818
 Alpha virt. eigenvalues --    2.97050   2.97273   2.97526   2.98454   2.99068
 Alpha virt. eigenvalues --    2.99338   2.99435   2.99789   3.00178   3.00438
 Alpha virt. eigenvalues --    3.00870   3.01085   3.01220   3.01539   3.02144
 Alpha virt. eigenvalues --    3.02215   3.02793   3.02937   3.03293   3.03818
 Alpha virt. eigenvalues --    3.04293   3.04808   3.04916   3.05284   3.05873
 Alpha virt. eigenvalues --    3.06184   3.06620   3.07215   3.07485   3.07633
 Alpha virt. eigenvalues --    3.07853   3.08211   3.08657   3.08721   3.08993
 Alpha virt. eigenvalues --    3.09433   3.09736   3.10067   3.10354   3.10557
 Alpha virt. eigenvalues --    3.10779   3.11071   3.11877   3.12220   3.12413
 Alpha virt. eigenvalues --    3.12870   3.13289   3.13484   3.13775   3.13862
 Alpha virt. eigenvalues --    3.14022   3.14276   3.14761   3.15082   3.15243
 Alpha virt. eigenvalues --    3.16029   3.16111   3.16573   3.16769   3.16915
 Alpha virt. eigenvalues --    3.17216   3.17585   3.17970   3.18225   3.18396
 Alpha virt. eigenvalues --    3.18903   3.19264   3.19407   3.19714   3.19848
 Alpha virt. eigenvalues --    3.20145   3.20317   3.20903   3.21450   3.21573
 Alpha virt. eigenvalues --    3.21985   3.22167   3.22410   3.22701   3.22943
 Alpha virt. eigenvalues --    3.23442   3.23645   3.23863   3.24024   3.24392
 Alpha virt. eigenvalues --    3.24607   3.24743   3.25180   3.25349   3.25823
 Alpha virt. eigenvalues --    3.25931   3.26279   3.26392   3.26666   3.27102
 Alpha virt. eigenvalues --    3.27239   3.27480   3.27728   3.27872   3.27947
 Alpha virt. eigenvalues --    3.28468   3.28843   3.29256   3.29682   3.29894
 Alpha virt. eigenvalues --    3.30219   3.30450   3.30756   3.31190   3.31309
 Alpha virt. eigenvalues --    3.31532   3.31756   3.32268   3.32346   3.32546
 Alpha virt. eigenvalues --    3.32915   3.33045   3.33281   3.33362   3.33680
 Alpha virt. eigenvalues --    3.33757   3.33997   3.34851   3.35206   3.35277
 Alpha virt. eigenvalues --    3.35659   3.35966   3.36316   3.36527   3.36719
 Alpha virt. eigenvalues --    3.37122   3.37158   3.37460   3.37771   3.37815
 Alpha virt. eigenvalues --    3.38212   3.38363   3.38684   3.39060   3.39409
 Alpha virt. eigenvalues --    3.39695   3.39868   3.39994   3.40827   3.41010
 Alpha virt. eigenvalues --    3.41384   3.41446   3.42126   3.42334   3.42888
 Alpha virt. eigenvalues --    3.43097   3.43289   3.43574   3.43955   3.44617
 Alpha virt. eigenvalues --    3.44748   3.45091   3.45157   3.45199   3.46060
 Alpha virt. eigenvalues --    3.46153   3.46551   3.47075   3.47098   3.47653
 Alpha virt. eigenvalues --    3.48046   3.48401   3.48709   3.49411   3.49844
 Alpha virt. eigenvalues --    3.50214   3.50370   3.50733   3.50892   3.51282
 Alpha virt. eigenvalues --    3.51734   3.52547   3.52582   3.53258   3.53390
 Alpha virt. eigenvalues --    3.53950   3.54504   3.54644   3.55030   3.55837
 Alpha virt. eigenvalues --    3.55951   3.56424   3.57030   3.57170   3.57346
 Alpha virt. eigenvalues --    3.57358   3.57822   3.58158   3.58807   3.59295
 Alpha virt. eigenvalues --    3.59405   3.59905   3.60029   3.60485   3.60820
 Alpha virt. eigenvalues --    3.61086   3.61954   3.62309   3.63085   3.63311
 Alpha virt. eigenvalues --    3.63820   3.64139   3.64468   3.64642   3.65072
 Alpha virt. eigenvalues --    3.65894   3.66266   3.66550   3.67115   3.67285
 Alpha virt. eigenvalues --    3.67489   3.67896   3.68811   3.69102   3.69242
 Alpha virt. eigenvalues --    3.70012   3.70505   3.70833   3.70960   3.71152
 Alpha virt. eigenvalues --    3.71363   3.71596   3.72009   3.72166   3.73093
 Alpha virt. eigenvalues --    3.73443   3.73627   3.74259   3.74348   3.74653
 Alpha virt. eigenvalues --    3.75033   3.75369   3.75473   3.75803   3.76582
 Alpha virt. eigenvalues --    3.76748   3.77121   3.77620   3.78233   3.79497
 Alpha virt. eigenvalues --    3.79526   3.79682   3.80777   3.81036   3.81770
 Alpha virt. eigenvalues --    3.82185   3.82508   3.82953   3.83256   3.83539
 Alpha virt. eigenvalues --    3.84242   3.84459   3.85105   3.85814   3.86413
 Alpha virt. eigenvalues --    3.86681   3.87646   3.88135   3.89104   3.89497
 Alpha virt. eigenvalues --    3.89715   3.90202   3.90695   3.91278   3.91507
 Alpha virt. eigenvalues --    3.92146   3.92162   3.93069   3.93752   3.94733
 Alpha virt. eigenvalues --    3.95325   3.96145   3.96461   3.96863   3.97395
 Alpha virt. eigenvalues --    3.98138   3.98558   3.99339   3.99394   3.99768
 Alpha virt. eigenvalues --    4.00401   4.00860   4.01509   4.01836   4.02529
 Alpha virt. eigenvalues --    4.02816   4.03078   4.03320   4.03907   4.04256
 Alpha virt. eigenvalues --    4.05545   4.05789   4.06270   4.06922   4.07766
 Alpha virt. eigenvalues --    4.08149   4.09605   4.10050   4.10358   4.11415
 Alpha virt. eigenvalues --    4.11739   4.12426   4.13079   4.13740   4.14391
 Alpha virt. eigenvalues --    4.15101   4.15423   4.15818   4.16325   4.17024
 Alpha virt. eigenvalues --    4.17408   4.18341   4.18847   4.18947   4.19753
 Alpha virt. eigenvalues --    4.20318   4.21741   4.21836   4.21958   4.22350
 Alpha virt. eigenvalues --    4.22814   4.23834   4.24057   4.24329   4.24834
 Alpha virt. eigenvalues --    4.25507   4.25756   4.26582   4.27211   4.27334
 Alpha virt. eigenvalues --    4.27738   4.28346   4.28519   4.29355   4.29639
 Alpha virt. eigenvalues --    4.30155   4.31074   4.31687   4.32172   4.32790
 Alpha virt. eigenvalues --    4.33408   4.33786   4.34037   4.34761   4.35655
 Alpha virt. eigenvalues --    4.36055   4.36359   4.36738   4.37227   4.37509
 Alpha virt. eigenvalues --    4.38376   4.38525   4.39763   4.40072   4.41198
 Alpha virt. eigenvalues --    4.41323   4.41491   4.42153   4.42728   4.43113
 Alpha virt. eigenvalues --    4.43614   4.43819   4.44098   4.44517   4.44857
 Alpha virt. eigenvalues --    4.45336   4.46165   4.46687   4.46753   4.47489
 Alpha virt. eigenvalues --    4.48215   4.48872   4.49556   4.50220   4.50609
 Alpha virt. eigenvalues --    4.51316   4.53180   4.54073   4.54292   4.55135
 Alpha virt. eigenvalues --    4.55606   4.56455   4.56780   4.57143   4.57266
 Alpha virt. eigenvalues --    4.58407   4.59885   4.60337   4.61268   4.62159
 Alpha virt. eigenvalues --    4.63402   4.65200   4.65338   4.65722   4.67574
 Alpha virt. eigenvalues --    4.67801   4.68194   4.68617   4.69405   4.70601
 Alpha virt. eigenvalues --    4.70736   4.71485   4.72223   4.72941   4.73383
 Alpha virt. eigenvalues --    4.74233   4.74499   4.75727   4.76048   4.76562
 Alpha virt. eigenvalues --    4.77128   4.78769   4.80856   4.81708   4.82038
 Alpha virt. eigenvalues --    4.82968   4.83044   4.83800   4.84700   4.85637
 Alpha virt. eigenvalues --    4.86370   4.86481   4.87475   4.87781   4.88125
 Alpha virt. eigenvalues --    4.88894   4.89136   4.90017   4.91507   4.92721
 Alpha virt. eigenvalues --    4.93855   4.94542   4.95663   4.96369   4.96800
 Alpha virt. eigenvalues --    4.97714   4.98298   4.98939   4.99585   5.00183
 Alpha virt. eigenvalues --    5.01485   5.02340   5.02847   5.03971   5.04272
 Alpha virt. eigenvalues --    5.05306   5.05849   5.06781   5.07579   5.08618
 Alpha virt. eigenvalues --    5.08904   5.10732   5.11958   5.12620   5.13587
 Alpha virt. eigenvalues --    5.14944   5.16473   5.16968   5.19076   5.20729
 Alpha virt. eigenvalues --    5.21482   5.21766   5.22696   5.23608   5.24581
 Alpha virt. eigenvalues --    5.26299   5.27125   5.27690   5.28717   5.30073
 Alpha virt. eigenvalues --    5.30702   5.33209   5.35193   5.36548   5.38152
 Alpha virt. eigenvalues --    5.38504   5.39282   5.39380   5.40078   5.41031
 Alpha virt. eigenvalues --    5.42198   5.42951   5.44644   5.46638   5.47241
 Alpha virt. eigenvalues --    5.48523   5.49663   5.51562   5.51856   5.53539
 Alpha virt. eigenvalues --    5.54514   5.57958   5.60078   5.61142   5.61856
 Alpha virt. eigenvalues --    5.62718   5.63200   5.64335   5.65596   5.67505
 Alpha virt. eigenvalues --    5.67752   5.69036   5.69776   5.73240   5.75281
 Alpha virt. eigenvalues --    5.77816   5.78597   5.83933   5.85824   5.87815
 Alpha virt. eigenvalues --    5.93631   5.95479   5.97543   5.99620   6.00589
 Alpha virt. eigenvalues --    6.02086   6.02698   6.03014   6.10248   6.13384
 Alpha virt. eigenvalues --    6.14192   6.14874   6.16111   6.18924   6.22368
 Alpha virt. eigenvalues --    6.27250   6.33626   6.34938   6.40633   9.29609
 Alpha virt. eigenvalues --    9.45235   9.58022  19.99868  22.35223  22.36903
 Alpha virt. eigenvalues --   22.41260  22.42073  22.44457  22.45668  22.49580
 Alpha virt. eigenvalues --   22.52804  22.53698  22.55009  22.59136  22.61944
 Alpha virt. eigenvalues --   22.83307  22.86673  22.87370  22.91971  22.93903
 Alpha virt. eigenvalues --   22.95719  22.97058  22.98014  23.03193  23.03883
 Alpha virt. eigenvalues --   23.11812  23.13188  23.25410  23.29538  23.30257
 Alpha virt. eigenvalues --   23.31417  23.41035  23.42273  23.50350  23.51033
 Alpha virt. eigenvalues --   23.55179  23.71675  23.77758  23.78629  23.88997
 Alpha virt. eigenvalues --   32.42021  32.85611  32.96529  33.02745  33.07787
 Alpha virt. eigenvalues --   33.15182
  Beta  occ. eigenvalues -- -256.18487 -88.92648 -29.99583 -25.84635 -25.83916
  Beta  occ. eigenvalues --  -25.83749 -14.41483 -14.34597 -14.32292 -14.32228
  Beta  occ. eigenvalues --  -14.32145 -14.31927 -10.25215 -10.23417 -10.21232
  Beta  occ. eigenvalues --  -10.21212 -10.21150 -10.21097 -10.21071 -10.21023
  Beta  occ. eigenvalues --  -10.21004 -10.20977 -10.20893 -10.20626 -10.20470
  Beta  occ. eigenvalues --  -10.19758 -10.19584 -10.19449 -10.19081 -10.19069
  Beta  occ. eigenvalues --  -10.19065 -10.19043 -10.18980 -10.18948 -10.18803
  Beta  occ. eigenvalues --  -10.18761 -10.18746 -10.18692 -10.18587 -10.18576
  Beta  occ. eigenvalues --  -10.18542 -10.18507 -10.18484 -10.18444 -10.18382
  Beta  occ. eigenvalues --  -10.18336 -10.18177 -10.18135 -10.17092  -7.95459
  Beta  occ. eigenvalues --   -5.90062  -5.89753  -5.89162  -3.33666  -2.09273
  Beta  occ. eigenvalues --   -2.09216  -2.08839  -1.04951  -0.96831  -0.95900
  Beta  occ. eigenvalues --   -0.95764  -0.94848  -0.90503  -0.82292  -0.81891
  Beta  occ. eigenvalues --   -0.81471  -0.81046  -0.80683  -0.80273  -0.80006
  Beta  occ. eigenvalues --   -0.79545  -0.79481  -0.76671  -0.75661  -0.74353
  Beta  occ. eigenvalues --   -0.74189  -0.73968  -0.73128  -0.71590  -0.70958
  Beta  occ. eigenvalues --   -0.70084  -0.68358  -0.67955  -0.67806  -0.64463
  Beta  occ. eigenvalues --   -0.64351  -0.64193  -0.64129  -0.61053  -0.60576
  Beta  occ. eigenvalues --   -0.59991  -0.58315  -0.57819  -0.56628  -0.55740
  Beta  occ. eigenvalues --   -0.54595  -0.53687  -0.53291  -0.52642  -0.51108
  Beta  occ. eigenvalues --   -0.51040  -0.50605  -0.48786  -0.48012  -0.47753
  Beta  occ. eigenvalues --   -0.47457  -0.47244  -0.46654  -0.44937  -0.44890
  Beta  occ. eigenvalues --   -0.44538  -0.44402  -0.44280  -0.43823  -0.43506
  Beta  occ. eigenvalues --   -0.43449  -0.43158  -0.42987  -0.42963  -0.42867
  Beta  occ. eigenvalues --   -0.42390  -0.42359  -0.42264  -0.42222  -0.41872
  Beta  occ. eigenvalues --   -0.41773  -0.41592  -0.41525  -0.40905  -0.40302
  Beta  occ. eigenvalues --   -0.40169  -0.39996  -0.39614  -0.39546  -0.38955
  Beta  occ. eigenvalues --   -0.38899  -0.38552  -0.38185  -0.37979  -0.37674
  Beta  occ. eigenvalues --   -0.37635  -0.37032  -0.36663  -0.36541  -0.36054
  Beta  occ. eigenvalues --   -0.35856  -0.35271  -0.35144  -0.34829  -0.34025
  Beta  occ. eigenvalues --   -0.33883  -0.33744  -0.33034  -0.31989  -0.31668
  Beta  occ. eigenvalues --   -0.31235  -0.30591  -0.30516  -0.29188  -0.28774
  Beta  occ. eigenvalues --   -0.28697  -0.26862  -0.26708  -0.24596  -0.24076
  Beta  occ. eigenvalues --   -0.22901  -0.22668  -0.22228  -0.21885  -0.18222
  Beta  occ. eigenvalues --   -0.18029  -0.14085
  Beta virt. eigenvalues --   -0.07589  -0.06109  -0.02288  -0.00494   0.00016
  Beta virt. eigenvalues --    0.00618   0.01989   0.02346   0.02513   0.03650
  Beta virt. eigenvalues --    0.03826   0.04923   0.05139   0.05530   0.05686
  Beta virt. eigenvalues --    0.05814   0.06304   0.06730   0.07019   0.07207
  Beta virt. eigenvalues --    0.07555   0.07799   0.08019   0.08605   0.08787
  Beta virt. eigenvalues --    0.08921   0.09370   0.09488   0.09810   0.10061
  Beta virt. eigenvalues --    0.10151   0.10216   0.10443   0.10940   0.11027
  Beta virt. eigenvalues --    0.11320   0.11527   0.11622   0.12284   0.12381
  Beta virt. eigenvalues --    0.12535   0.12711   0.12941   0.13190   0.13389
  Beta virt. eigenvalues --    0.13488   0.13692   0.13743   0.14008   0.14215
  Beta virt. eigenvalues --    0.14401   0.14650   0.14772   0.15073   0.15194
  Beta virt. eigenvalues --    0.15395   0.15498   0.15714   0.15864   0.16037
  Beta virt. eigenvalues --    0.16389   0.16563   0.16719   0.16832   0.17157
  Beta virt. eigenvalues --    0.17315   0.17764   0.17999   0.18044   0.18552
  Beta virt. eigenvalues --    0.18775   0.18840   0.19098   0.19457   0.19913
  Beta virt. eigenvalues --    0.20065   0.20343   0.20565   0.20711   0.20917
  Beta virt. eigenvalues --    0.21103   0.21452   0.21787   0.21856   0.22268
  Beta virt. eigenvalues --    0.22378   0.22537   0.22567   0.23252   0.23553
  Beta virt. eigenvalues --    0.23693   0.24078   0.24326   0.24495   0.24603
  Beta virt. eigenvalues --    0.25059   0.25205   0.25297   0.25747   0.25911
  Beta virt. eigenvalues --    0.26263   0.26666   0.26741   0.26960   0.27051
  Beta virt. eigenvalues --    0.27275   0.28053   0.28086   0.28412   0.28572
  Beta virt. eigenvalues --    0.28930   0.28995   0.29087   0.29609   0.29914
  Beta virt. eigenvalues --    0.30250   0.30451   0.30691   0.30838   0.31155
  Beta virt. eigenvalues --    0.31212   0.31565   0.31789   0.32073   0.32311
  Beta virt. eigenvalues --    0.32584   0.32645   0.32975   0.33199   0.33349
  Beta virt. eigenvalues --    0.33886   0.34163   0.34270   0.34405   0.34852
  Beta virt. eigenvalues --    0.35068   0.35527   0.35905   0.36259   0.36361
  Beta virt. eigenvalues --    0.36579   0.36761   0.37184   0.37303   0.37607
  Beta virt. eigenvalues --    0.37968   0.38103   0.38210   0.38554   0.38825
  Beta virt. eigenvalues --    0.39191   0.39269   0.39322   0.39521   0.39891
  Beta virt. eigenvalues --    0.40058   0.40216   0.40442   0.40593   0.40729
  Beta virt. eigenvalues --    0.41053   0.41183   0.41236   0.41789   0.41966
  Beta virt. eigenvalues --    0.42044   0.42154   0.42577   0.42673   0.42892
  Beta virt. eigenvalues --    0.43183   0.43260   0.43325   0.43580   0.43974
  Beta virt. eigenvalues --    0.44125   0.44313   0.44440   0.44625   0.44807
  Beta virt. eigenvalues --    0.45052   0.45273   0.45406   0.45452   0.45676
  Beta virt. eigenvalues --    0.45735   0.46031   0.46160   0.46234   0.46350
  Beta virt. eigenvalues --    0.46803   0.47177   0.47279   0.47351   0.47516
  Beta virt. eigenvalues --    0.47573   0.47815   0.47959   0.48097   0.48465
  Beta virt. eigenvalues --    0.48584   0.48750   0.49028   0.49270   0.49510
  Beta virt. eigenvalues --    0.49616   0.49885   0.50105   0.50147   0.50339
  Beta virt. eigenvalues --    0.50528   0.50724   0.51071   0.51382   0.51477
  Beta virt. eigenvalues --    0.51730   0.51816   0.52290   0.52325   0.52560
  Beta virt. eigenvalues --    0.52908   0.53216   0.53304   0.53463   0.53639
  Beta virt. eigenvalues --    0.54012   0.54258   0.54403   0.54719   0.54997
  Beta virt. eigenvalues --    0.55104   0.55432   0.55590   0.55888   0.56414
  Beta virt. eigenvalues --    0.56639   0.56782   0.57132   0.57190   0.57394
  Beta virt. eigenvalues --    0.57736   0.57822   0.58028   0.58395   0.58678
  Beta virt. eigenvalues --    0.58829   0.59032   0.59327   0.59725   0.59888
  Beta virt. eigenvalues --    0.60280   0.60556   0.60956   0.61013   0.61268
  Beta virt. eigenvalues --    0.61548   0.62027   0.62100   0.62521   0.62649
  Beta virt. eigenvalues --    0.62936   0.63161   0.63781   0.63970   0.64254
  Beta virt. eigenvalues --    0.64422   0.64546   0.65099   0.65231   0.65345
  Beta virt. eigenvalues --    0.66014   0.66106   0.66425   0.66780   0.66887
  Beta virt. eigenvalues --    0.67371   0.67643   0.67861   0.68082   0.68519
  Beta virt. eigenvalues --    0.68905   0.69212   0.69402   0.69824   0.70224
  Beta virt. eigenvalues --    0.70809   0.71035   0.71342   0.71569   0.71981
  Beta virt. eigenvalues --    0.72173   0.72261   0.72859   0.72953   0.73362
  Beta virt. eigenvalues --    0.73576   0.73905   0.74268   0.74627   0.74752
  Beta virt. eigenvalues --    0.74926   0.75178   0.75653   0.75823   0.76459
  Beta virt. eigenvalues --    0.76518   0.76776   0.76962   0.77443   0.77747
  Beta virt. eigenvalues --    0.77873   0.78436   0.78821   0.79241   0.79574
  Beta virt. eigenvalues --    0.79755   0.80046   0.80237   0.80897   0.81004
  Beta virt. eigenvalues --    0.81403   0.81651   0.81865   0.82212   0.82839
  Beta virt. eigenvalues --    0.83347   0.83518   0.83937   0.84089   0.84569
  Beta virt. eigenvalues --    0.84691   0.85193   0.85461   0.85695   0.86008
  Beta virt. eigenvalues --    0.86631   0.87205   0.87338   0.87571   0.87968
  Beta virt. eigenvalues --    0.88000   0.88566   0.88763   0.89262   0.89832
  Beta virt. eigenvalues --    0.89975   0.90278   0.90594   0.90750   0.90947
  Beta virt. eigenvalues --    0.91092   0.91593   0.91973   0.92147   0.92492
  Beta virt. eigenvalues --    0.92923   0.93336   0.93375   0.93436   0.94205
  Beta virt. eigenvalues --    0.94420   0.94802   0.95025   0.95138   0.95563
  Beta virt. eigenvalues --    0.95816   0.96168   0.96694   0.96912   0.97436
  Beta virt. eigenvalues --    0.97622   0.98018   0.98370   0.98533   0.98675
  Beta virt. eigenvalues --    0.99115   0.99287   0.99653   0.99675   1.00027
  Beta virt. eigenvalues --    1.00393   1.00509   1.01133   1.01433   1.01703
  Beta virt. eigenvalues --    1.02111   1.02405   1.03021   1.03106   1.03211
  Beta virt. eigenvalues --    1.03253   1.03968   1.04045   1.04922   1.05325
  Beta virt. eigenvalues --    1.05521   1.05803   1.06250   1.06586   1.06756
  Beta virt. eigenvalues --    1.07033   1.07464   1.07884   1.08080   1.08369
  Beta virt. eigenvalues --    1.09157   1.09480   1.09690   1.10034   1.10348
  Beta virt. eigenvalues --    1.10660   1.10986   1.11142   1.11694   1.12108
  Beta virt. eigenvalues --    1.12438   1.12764   1.13128   1.13632   1.13710
  Beta virt. eigenvalues --    1.14037   1.14491   1.14737   1.15225   1.15562
  Beta virt. eigenvalues --    1.16032   1.16785   1.16954   1.17330   1.17868
  Beta virt. eigenvalues --    1.18410   1.18675   1.19158   1.19623   1.19821
  Beta virt. eigenvalues --    1.19896   1.20339   1.20394   1.20940   1.21075
  Beta virt. eigenvalues --    1.21171   1.21592   1.21893   1.22381   1.23069
  Beta virt. eigenvalues --    1.23334   1.23568   1.24125   1.24719   1.24854
  Beta virt. eigenvalues --    1.25408   1.25661   1.25791   1.26239   1.26461
  Beta virt. eigenvalues --    1.26690   1.26918   1.27495   1.28065   1.28227
  Beta virt. eigenvalues --    1.28647   1.28964   1.29362   1.29804   1.30546
  Beta virt. eigenvalues --    1.30868   1.30950   1.31471   1.31824   1.32239
  Beta virt. eigenvalues --    1.32442   1.32995   1.33135   1.34063   1.34276
  Beta virt. eigenvalues --    1.34943   1.35570   1.36842   1.36932   1.37353
  Beta virt. eigenvalues --    1.37752   1.37990   1.38448   1.39124   1.39851
  Beta virt. eigenvalues --    1.40059   1.40404   1.41260   1.41837   1.42142
  Beta virt. eigenvalues --    1.42602   1.42831   1.43272   1.44140   1.44318
  Beta virt. eigenvalues --    1.45045   1.45398   1.45804   1.46132   1.46501
  Beta virt. eigenvalues --    1.46928   1.47421   1.47769   1.47940   1.48733
  Beta virt. eigenvalues --    1.48812   1.49160   1.49254   1.49596   1.50294
  Beta virt. eigenvalues --    1.50565   1.50789   1.51118   1.51420   1.51566
  Beta virt. eigenvalues --    1.51678   1.52099   1.52283   1.52402   1.52572
  Beta virt. eigenvalues --    1.53150   1.53434   1.53599   1.53839   1.53927
  Beta virt. eigenvalues --    1.54449   1.54510   1.54896   1.55295   1.55465
  Beta virt. eigenvalues --    1.55686   1.55957   1.56298   1.56613   1.56661
  Beta virt. eigenvalues --    1.56865   1.57371   1.57601   1.57796   1.58253
  Beta virt. eigenvalues --    1.58666   1.58806   1.59267   1.59535   1.59680
  Beta virt. eigenvalues --    1.59860   1.60213   1.60359   1.60683   1.61261
  Beta virt. eigenvalues --    1.61302   1.61669   1.61818   1.62192   1.62579
  Beta virt. eigenvalues --    1.62860   1.63183   1.63352   1.63784   1.63840
  Beta virt. eigenvalues --    1.64235   1.64439   1.64619   1.64951   1.65025
  Beta virt. eigenvalues --    1.65579   1.65991   1.66131   1.66516   1.66544
  Beta virt. eigenvalues --    1.66784   1.67294   1.67784   1.67881   1.68075
  Beta virt. eigenvalues --    1.68755   1.69185   1.69276   1.69497   1.69723
  Beta virt. eigenvalues --    1.69802   1.70226   1.70646   1.70764   1.71495
  Beta virt. eigenvalues --    1.71603   1.71745   1.72296   1.72450   1.72806
  Beta virt. eigenvalues --    1.73445   1.73642   1.73729   1.74188   1.74355
  Beta virt. eigenvalues --    1.74480   1.74847   1.75210   1.76073   1.76428
  Beta virt. eigenvalues --    1.76611   1.77068   1.77265   1.77986   1.78397
  Beta virt. eigenvalues --    1.78861   1.79092   1.79637   1.79960   1.80331
  Beta virt. eigenvalues --    1.80934   1.81611   1.82161   1.82636   1.83045
  Beta virt. eigenvalues --    1.83345   1.84034   1.84250   1.84583   1.85093
  Beta virt. eigenvalues --    1.85189   1.85468   1.85697   1.85847   1.86288
  Beta virt. eigenvalues --    1.86574   1.87463   1.87678   1.87805   1.88232
  Beta virt. eigenvalues --    1.88632   1.88879   1.89306   1.89664   1.90054
  Beta virt. eigenvalues --    1.90533   1.91238   1.91710   1.92099   1.92392
  Beta virt. eigenvalues --    1.92839   1.93400   1.94277   1.94698   1.94792
  Beta virt. eigenvalues --    1.95207   1.95385   1.95941   1.96404   1.96589
  Beta virt. eigenvalues --    1.97033   1.97559   1.97948   1.98276   1.98416
  Beta virt. eigenvalues --    1.98731   1.99181   1.99876   2.00369   2.00600
  Beta virt. eigenvalues --    2.00847   2.01096   2.01489   2.02019   2.02352
  Beta virt. eigenvalues --    2.02813   2.03645   2.03977   2.04351   2.04496
  Beta virt. eigenvalues --    2.04878   2.04992   2.05156   2.05927   2.06573
  Beta virt. eigenvalues --    2.06814   2.07380   2.08107   2.08862   2.09231
  Beta virt. eigenvalues --    2.10204   2.10449   2.10940   2.11257   2.11609
  Beta virt. eigenvalues --    2.11811   2.11928   2.12177   2.12759   2.13109
  Beta virt. eigenvalues --    2.13168   2.13400   2.13835   2.14406   2.14911
  Beta virt. eigenvalues --    2.15487   2.15814   2.15961   2.16006   2.16694
  Beta virt. eigenvalues --    2.17251   2.17477   2.17484   2.18361   2.18833
[...]
                                                    1563(r),1652(v),168(r)
                                                    181(r),180(r),165(r),182(r)
   156. CR (   1) C  74                  0.99947   -10.05546  1303(v),1646(v),1650(g)
                                                    1362(v),166(r),167(r)
                                                    1563(r),170(r),168(r),180(r)
   177. LP (   1) N  68                  0.78981    -0.28209  1654(v),1651(v),1304(v)
                                                    1298(v),1332(v),1329(v)
                                                    1333(v),184(r)
   178. LP (   1) N  73                  0.82459    -0.35199  167(r),166(r),1649(v)
                                                    1650(v),168(r),1653(g)
                                                    1330(v),1652(v),1655(g)
                                                    1656(v),1363(g),1386(v)
                                                    1563(r),1387(v),185(r)
                                                    165(r),1338(v),208(r),285(r)
                                                    233(r),169(r),288(r),180(r)
                                                    236(r),262(r),1567(r),181(r)
                                                    186(r),1571(r),1568(r)
                                                    1572(r),1564(r),1566(r)
                                                    1574(r),194(r),260(r)
                                                    1569(r),171(r),182(r),261(r)
                                                    192(r),209(r),210(r),1573(r)
                                                    727(r)
  1231. RY*(   1) C  64                  0.00060     1.20040   
  1232. RY*(   2) C  64                  0.00057     1.61345   
  1233. RY*(   3) C  64                  0.00026     1.19906   
  1234. RY*(   4) C  64                  0.00006     1.14709   
  1235. RY*(   5) C  64                  0.00004     1.56973   
  1236. RY*(   6) C  64                  0.00000     1.50169   
  1237. RY*(   7) C  64                  0.00001     1.25685   
  1238. RY*(   8) C  64                  0.00000    21.67887   
  1239. RY*(   9) C  64                  0.00001     1.60811   
  1240. RY*(  10) C  64                  0.00000     2.90354   
  1241. RY*(  11) C  64                  0.00000     2.50076   
  1242. RY*(  12) C  64                  0.00000     3.23641   
  1243. RY*(  13) C  64                  0.00000     2.37668   
  1244. RY*(  14) C  64                  0.00000     2.95699   
  1245. RY*(  15) C  64                  0.00000     2.36850   
  1246. RY*(  16) C  64                  0.00000     2.32319   
  1247. RY*(  17) C  64                  0.00000     2.38576   
  1248. RY*(  18) C  64                  0.00000     2.53161   
  1249. RY*(  19) C  64                  0.00000     2.53773   
  1250. RY*(  20) C  64                  0.00000     3.51166   
  1251. RY*(  21) C  64                  0.00000     3.50403   
  1252. RY*(  22) C  64                  0.00000     3.40809   
  1253. RY*(  23) C  64                  0.00000     3.32484   
  1254. RY*(  24) C  64                  0.00000     3.84964   
  1255. RY*(  25) C  64                  0.00000     3.33902   
  1256. RY*(  26) C  64                  0.00000     3.45231   
  1257. RY*(   1) H  65                  0.00047     0.81165   
  1258. RY*(   2) H  65                  0.00008     1.83304   
  1259. RY*(   3) H  65                  0.00003     2.05127   
  1260. RY*(   4) H  65                  0.00003     2.04047   
  1261. RY*(   5) H  65                  0.00000     2.89694   
  1262. RY*(   1) H  66                  0.00013     1.26399   
  1263. RY*(   2) H  66                  0.00007     1.69191   
  1264. RY*(   3) H  66                  0.00004     2.05867   
  1265. RY*(   4) H  66                  0.00002     1.75571   
  1266. RY*(   5) H  66                  0.00000     2.95673   
  1267. RY*(   1) H  67                  0.00044     0.80581   
  1268. RY*(   2) H  67                  0.00008     1.83683   
  1269. RY*(   3) H  67                  0.00003     2.00023   
  1270. RY*(   4) H  67                  0.00003     2.09109   
  1271. RY*(   5) H  67                  0.00000     2.89378   
  1272. RY*(   1) N  68                  0.00134     0.69189   
  1273. RY*(   2) N  68                  0.00104     1.81689   
  1274. RY*(   3) N  68                  0.00045     2.13154   
  1275. RY*(   4) N  68                  0.00035     2.16908   
  1276. RY*(   5) N  68                  0.00026     1.29294   
  1277. RY*(   6) N  68                  0.00014     1.85438   
  1278. RY*(   7) N  68                  0.00006     2.38741   
  1279. RY*(   8) N  68                  0.00003     2.41543   
  1280. RY*(   9) N  68                  0.00002     2.18890   
  1281. RY*(  10) N  68                  0.00003     4.12735   
  1282. RY*(  11) N  68                  0.00000     4.72629   
  1283. RY*(  12) N  68                  0.00001     3.17505   
  1284. RY*(  13) N  68                  0.00000     4.06353   
  1285. RY*(  14) N  68                  0.00001     2.68720   
  1286. RY*(  15) N  68                  0.00000     4.08817   
  1287. RY*(  16) N  68                  0.00000     2.66547   
  1288. RY*(  17) N  68                  0.00000     3.98059   
  1289. RY*(  18) N  68                  0.00000     2.50722   
  1290. RY*(  19) N  68                  0.00000    30.53696   
  1291. RY*(  20) N  68                  0.00000     4.76009   
  1292. RY*(  21) N  68                  0.00000     4.54634   
  1293. RY*(  22) N  68                  0.00000     4.65271   
  1294. RY*(  23) N  68                  0.00000     4.19511   
  1295. RY*(  24) N  68                  0.00000     4.58862   
  1296. RY*(  25) N  68                  0.00000     4.39718   
  1297. RY*(  26) N  68                  0.00000     4.37156   
  1298. RY*(   1) H  69                  0.00032     2.18691   
  1299. RY*(   2) H  69                  0.00020     2.08994   
  1300. RY*(   3) H  69                  0.00011     2.70515   
  1301. RY*(   4) H  69                  0.00010     1.15011   
  1302. RY*(   5) H  69                  0.00000     3.11222   
  1303. RY*(   1) C  70                  0.00187     1.77592   
  1304. RY*(   2) C  70                  0.00122     1.17394   
  1305. RY*(   3) C  70                  0.00093     1.41226   
  1306. RY*(   4) C  70                  0.00075     2.27560   
  1307. RY*(   5) C  70                  0.00058     1.61748   
  1308. RY*(   6) C  70                  0.00043     1.74116   
  1309. RY*(   7) C  70                  0.00023     2.67984   
  1310. RY*(   8) C  70                  0.00019     1.96365   
  1311. RY*(   9) C  70                  0.00009     3.12918   
  1312. RY*(  10) C  70                  0.00004     1.53772   
  1313. RY*(  11) C  70                  0.00002     2.00826   
  1314. RY*(  12) C  70                  0.00003     2.46231   
  1315. RY*(  13) C  70                  0.00003     3.30213   
  1316. RY*(  14) C  70                  0.00000    20.08246   
  1317. RY*(  15) C  70                  0.00001     2.35512   
  1318. RY*(  16) C  70                  0.00000     1.19880   
  1319. RY*(  17) C  70                  0.00000     4.12310   
  1320. RY*(  18) C  70                  0.00001     2.15437   
  1321. RY*(  19) C  70                  0.00001     1.63233   
  1322. RY*(  20) C  70                  0.00000     3.97204   
  1323. RY*(  21) C  70                  0.00000     3.77962   
  1324. RY*(  22) C  70                  0.00000     3.63817   
  1325. RY*(  23) C  70                  0.00000     3.42654   
  1326. RY*(  24) C  70                  0.00000     3.90978   
  1327. RY*(  25) C  70                  0.00000     3.55049   
  1328. RY*(  26) C  70                  0.00000     3.55081   
  1329. RY*(   1) C  71                  0.00290     0.58947   
  1330. RY*(   2) C  71                  0.00225     1.52940   
  1331. RY*(   3) C  71                  0.00102     1.98154   
  1332. RY*(   4) C  71                  0.00070     2.01819   
  1333. RY*(   5) C  71                  0.00060     1.85077   
  1334. RY*(   6) C  71                  0.00037     1.93904   
  1335. RY*(   7) C  71                  0.00018     1.91854   
  1336. RY*(   8) C  71                  0.00012     2.10217   
  1337. RY*(   9) C  71                  0.00010     1.20356   
  1338. RY*(  10) C  71                  0.00007     2.27033   
  1339. RY*(  11) C  71                  0.00004     2.06720   
  1340. RY*(  12) C  71                  0.00004     2.81054   
  1341. RY*(  13) C  71                  0.00004     2.36978   
  1342. RY*(  14) C  71                  0.00003     2.61919   
  1343. RY*(  15) C  71                  0.00001     1.94293   
  1344. RY*(  16) C  71                  0.00001     2.31813   
  1345. RY*(  17) C  71                  0.00000     3.26126   
  1346. RY*(  18) C  71                  0.00000     3.86882   
  1347. RY*(  19) C  71                  0.00000    21.18262   
  1348. RY*(  20) C  71                  0.00001     4.06511   
  1349. RY*(  21) C  71                  0.00000     3.75433   
  1350. RY*(  22) C  71                  0.00000     3.75152   
  1351. RY*(  23) C  71                  0.00000     3.58235   
  1352. RY*(  24) C  71                  0.00000     3.62268   
  1353. RY*(  25) C  71                  0.00000     3.39680   
  1354. RY*(  26) C  71                  0.00000     3.57117   
  1355. RY*(   1) H  72                  0.00028     0.71962   
  1356. RY*(   2) H  72                  0.00017     2.41108   
  1357. RY*(   3) H  72                  0.00009     2.26792   
  1358. RY*(   4) H  72                  0.00002     2.62944   
  1359. RY*(   5) H  72                  0.00001     3.12121   
  1360. RY*(   1) N  73                  0.00749     0.80816   
  1361. RY*(   2) N  73                  0.00433     1.10378   
  1362. RY*(   3) N  73                  0.00157     1.13859   
  1363. RY*(   4) N  73                  0.00064     1.86378   
  1364. RY*(   5) N  73                  0.00046     1.74800   
  1365. RY*(   6) N  73                  0.00035     2.03606   
  1366. RY*(   7) N  73                  0.00025     3.02354   
  1367. RY*(   8) N  73                  0.00022     3.07557   
  1368. RY*(   9) N  73                  0.00012     2.44594   
  1369. RY*(  10) N  73                  0.00006     3.52534   
  1370. RY*(  11) N  73                  0.00005     2.34161   
  1371. RY*(  12) N  73                  0.00003     3.16032   
  1372. RY*(  13) N  73                  0.00001     4.68566   
  1373. RY*(  14) N  73                  0.00002     2.60436   
  1374. RY*(  15) N  73                  0.00001     4.64401   
  1375. RY*(  16) N  73                  0.00000     4.68990   
  1376. RY*(  17) N  73                  0.00001     4.50410   
  1377. RY*(  18) N  73                  0.00000    31.63857   
  1378. RY*(  19) N  73                  0.00001     3.84606   
  1379. RY*(  20) N  73                  0.00000     4.47851   
  1380. RY*(  21) N  73                  0.00000     4.63209   
  1381. RY*(  22) N  73                  0.00000     4.40758   
  1382. RY*(  23) N  73                  0.00000     4.74278   
  1383. RY*(  24) N  73                  0.00000     4.78735   
  1384. RY*(  25) N  73                  0.00000     4.55507   
  1385. RY*(  26) N  73                  0.00000     4.63174   
  1386. RY*(   1) C  74                  0.00207     1.11744   
  1387. RY*(   2) C  74                  0.00194     1.05647   
  1388. RY*(   3) C  74                  0.00078     1.76726   
  1389. RY*(   4) C  74                  0.00046     1.40010   
  1390. RY*(   5) C  74                  0.00042     1.98798   
  1391. RY*(   6) C  74                  0.00028     2.24657   
  1392. RY*(   7) C  74                  0.00017     2.01884   
  1393. RY*(   8) C  74                  0.00015     1.29465   
  1394. RY*(   9) C  74                  0.00011     2.52486   
  1395. RY*(  10) C  74                  0.00008     2.40297   
  1396. RY*(  11) C  74                  0.00007     1.74619   
  1397. RY*(  12) C  74                  0.00006     1.87597   
  1398. RY*(  13) C  74                  0.00003     4.61457   
  1399. RY*(  14) C  74                  0.00004     2.12922   
  1400. RY*(  15) C  74                  0.00004     2.43070   
  1401. RY*(  16) C  74                  0.00002     2.26667   
  1402. RY*(  17) C  74                  0.00000     3.32281   
  1403. RY*(  18) C  74                  0.00000     3.88240   
  1404. RY*(  19) C  74                  0.00000    20.51392   
  1405. RY*(  20) C  74                  0.00000     3.98725   
  1406. RY*(  21) C  74                  0.00000     3.80323   
  1407. RY*(  22) C  74                  0.00000     3.71883   
  1408. RY*(  23) C  74                  0.00000     3.39042   
  1409. RY*(  24) C  74                  0.00000     3.71809   
  1410. RY*(  25) C  74                  0.00000     3.50143   
  1411. RY*(  26) C  74                  0.00000     3.40470   
  1412. RY*(   1) H  75                  0.00026     1.11647   
  1413. RY*(   2) H  75                  0.00016     2.04332   
  1414. RY*(   3) H  75                  0.00013     2.32746   
  1415. RY*(   4) H  75                  0.00004     2.75977   
  1416. RY*(   5) H  75                  0.00000     3.18992   
  1643. BD*(   1) C  64 - H  65          0.00611     0.36196   
  1644. BD*(   1) C  64 - H  66          0.00174     0.37477   
  1645. BD*(   1) C  64 - H  67          0.00562     0.36138   
  1646. BD*(   1) C  64 - C  70          0.00692     0.39302   
  1647. BD*(   1) N  68 - H  69          0.00720     0.36880   
  1648. BD*(   1) N  68 - C  70          0.01343     0.43095   
  1649. BD*(   1) N  68 - C  71          0.01139     0.45209   
  1650. BD*(   1) C  70 - C  74          0.01077     0.57133   
  1651. BD*(   2) C  70 - C  74          0.14947     0.03771  1654(v),1643(v),1645(v)
                                                    1307(g),184(r)
  1652. BD*(   1) C  71 - H  72          0.00885     0.39087   
  1653. BD*(   1) C  71 - N  73          0.01046     0.53360   
  1654. BD*(   2) C  71 - N  73          0.21133     0.00254  1651(v),170(r),1329(g)
                                                    1653(g),2(r),1573(r),169(r)
                                                    165(r),1570(r),171(r)
  1655. BD*(   1) N  73 - C  74          0.00911     0.48408   
  1656. BD*(   1) C  74 - H  75          0.00720     0.43301   
       -------------------------------
              Total Lewis   21.33823  ( 97.6855%)
        Valence non-Lewis    0.45960  (  2.1040%)
        Rydberg non-Lewis    0.04597  (  0.2105%)
       -------------------------------
            Total unit  2   21.84380  (100.0000%)
           Charge unit  2    0.15620
 Unable to Open any file for archive entry.
 1\1\GINC-BGN1015\SP\UAPFD\def2TZVP\C37H42Fe1N6S1(5)\BEBJONES\02-Sep-20
 24\0\\# apfd/def2TZVP guess=read scf=maxcycle=999 geom=check pop=nbo\\
 1ls9_II_Q\\0,5\Fe,0,1.6360079043,23.5626900081,14.9186559328\N,0,3.271
 577096,22.4101237607,15.0729369592\N,0,2.7860963047,25.2312472543,15.0
 00677877\N,0,-0.0263103941,24.6581151032,14.8258114262\N,0,0.527794428
 2,21.8973705828,14.6970561722\C,0,3.3495962751,21.0485071214,15.002162
 7449\C,0,4.7215190252,20.609645203,15.154515851\C,0,5.4645294253,21.73
 67489707,15.3303523317\C,0,4.5413566418,22.8499671095,15.2745570663\C,
 0,4.1222896775,25.2892613289,15.2441241239\C,0,4.5565416349,26.6682243
 145,15.3263891423\C,0,3.4466526209,27.4346745483,15.1001914493\C,0,2.3
 436345978,26.5139555015,14.9045148324\C,0,-0.072120178,26.0087287317,1
 4.7375412066\C,0,-1.4462375508,26.4629570746,14.6019836233\C,0,-2.2270
 951895,25.3381240974,14.6367489855\C,0,-1.3152728076,24.2226296394,14.
 7354319425\C,0,-0.8244584647,21.8261495083,14.6308750969\C,0,-1.257462
 2303,20.4528427973,14.4525960956\C,0,-0.1146474284,19.7052759165,14.35
 24721048\C,0,0.9833374535,20.6233882302,14.5331864148\C,0,2.299699231,
 20.2176789449,14.6604510137\H,0,2.4983515041,19.1571348898,14.57919499
 35\C,0,4.9398494303,24.1744030443,15.4041725311\H,0,5.9898593263,24.34
 1686763,15.5920277739\C,0,1.0097019684,26.874730775,14.7492428673\H,0,
 0.7778780956,27.9251025052,14.669826943\C,0,-1.6931772075,22.892348858
 1,14.7684472802\H,0,-2.7465176989,22.6514994822,14.75921717\C,0,5.1387
 947666,19.1751586653,15.1406087753\H,0,4.9497927653,18.7378881923,14.1
 611941934\H,0,4.5797526657,18.5917555294,15.8750504242\H,0,6.198719807
 8,19.0642634961,15.3553708604\C,0,6.9377361229,21.8586894792,15.525796
 1267\H,0,7.1715709394,22.368245798,16.4633495951\H,0,7.3750996867,22.4
 376579811,14.711097166\H,0,7.4203275728,20.88109444,15.5352607701\C,0,
 0.021903274,18.2530288597,14.0565946127\H,0,0.1904314417,17.6662364998
 ,14.9620292692\H,0,0.8640027125,18.0875105362,13.3867344681\H,0,-0.884
 8763379,17.8848798464,13.5800486874\C,0,-2.6348082277,20.0332504878,14
 .3223764994\H,0,-3.301878955,20.7285093844,13.8241141234\C,0,-3.119329
 6734,18.8912373798,14.7958578841\H,0,-2.5079688337,18.2009640421,15.35
 09362604\H,0,-4.1510923402,18.6163968377,14.6623393622\C,0,-3.70681427
 08,25.2108884754,14.4796568587\H,0,-4.188897195,25.0658306797,15.44755
 17101\H,0,-3.9648457951,24.3598020136,13.8503237238\H,0,-4.1291152002,
 26.1019486664,14.0202302172\C,0,-1.8578335256,27.8469904631,14.5104910
 229\H,0,-1.1627454614,28.49051862,13.9856552865\C,0,-2.9892127144,28.3
 647336369,14.9803637833\H,0,-3.6945582245,27.7678569807,15.5346098724\
 H,0,-3.2302611337,29.4112495206,14.8545037869\C,0,3.3758168997,28.9292
 235198,15.0476132124\H,0,2.3907846514,29.2834942943,15.3414578447\H,0,
 3.5741787472,29.3022601998,14.0398059352\H,0,4.1072596471,29.395452427
 7,15.7088260306\C,0,5.9616336103,27.1445378428,15.5359538128\H,0,5.985
 303222,28.0612189703,16.1236895702\H,0,6.4720336839,27.3556339193,14.5
 903097512\H,0,6.5448282491,26.3958602668,16.0645790417\C,0,0.708524607
 8,23.3278642065,9.4554241908\H,0,0.872503594,24.2234183549,8.856846159
 4\H,0,-0.3606335142,23.1814200073,9.5766546863\H,0,1.1220077909,22.474
 5705371,8.9183050944\N,0,2.7038674708,23.6019620464,10.947351976\H,0,3
 .3814812541,23.6208968544,10.2022835262\C,0,1.3488595944,23.4695235674
 ,10.7870223467\C,0,2.9495444443,23.7107535817,12.2731198915\H,0,3.9277
 612957,23.807011706,12.6974161032\N,0,1.8357460114,23.6404895909,12.95
 91879298\C,0,0.8306511787,23.5061720576,12.049123824\H,0,-0.1870047921
 ,23.4210968839,12.3683480821\C,0,2.6562728025,25.6694141001,18.4296845
 218\H,0,3.5527426343,26.0564086671,18.9108915587\H,0,1.7944032538,25.8
 973786464,19.0519591253\H,0,2.5304732783,26.170677123,17.4751232368\C,
 0,2.7757972802,24.1723561332,18.221437199\H,0,2.8303842991,23.65226067
 68,19.1787920456\H,0,3.6475498955,23.925994085,17.6176049022\S,0,1.288
 4810716,23.5389411719,17.3409636658\C,0,1.4539499698,21.7891781835,17.
 7973634323\H,0,2.4185367197,21.4160403242,17.4684118445\H,0,0.66179838
 49,21.2590042994,17.2807315392\H,0,1.3385954071,21.6876871773,18.87321
 06275\\Version=ES64L-G16RevC.02\State=5-A\HF=-3424.8198697\S2=6.149218
 \S2-1=0.\S2A=6.000726\RMSD=1.626e-09\Dipole=1.2772758,-0.2959418,-1.56
 46661\Quadrupole=-0.2720788,-5.5321489,5.8042277,0.5689937,-1.4671763,
 -1.7685566\PG=C01 [X(C37H42Fe1N6S1)]\\@
 The archive entry for this job was punched.


 "PERFECTION IS NOT AN ACCIDENT"
         --  EAGLE ELECTRIC MANUFACTURING CO.,INC. NY
 Job cpu time:       1 days 20 hours 49 minutes 58.0 seconds.
 Elapsed time:       0 days  0 hours 41 minutes 32.5 seconds.
 File lengths (MBytes):  RWF=   2563 Int=      0 D2E=      0 Chk=    233 Scr=      1
 Normal termination of Gaussian 16 at Mon Sep  2 18:42:16 2024.
