 Entering Gaussian System, Link 0=g16
 Input=1mbs05re.com
 Output=1mbs05re.log
 Initial command:
 /sw/chem/gaussian/g16_C02/a100/g16/l1.exe "/local/bebjones_8024053/Gau-1433869.inp" -scrdir="/local/bebjones_8024053/"
 Entering Link 1 = /sw/chem/gaussian/g16_C02/a100/g16/l1.exe PID=   1433870.
  
 Copyright (c) 1988-2021, Gaussian, Inc.  All Rights Reserved.
  
 This is part of the Gaussian(R) 16 program.  It is based on
 the Gaussian(R) 09 system (copyright 2009, Gaussian, Inc.),
 the Gaussian(R) 03 system (copyright 2003, Gaussian, Inc.),
 the Gaussian(R) 98 system (copyright 1998, Gaussian, Inc.),
 the Gaussian(R) 94 system (copyright 1995, Gaussian, Inc.),
 the Gaussian 92(TM) system (copyright 1992, Gaussian, Inc.),
 the Gaussian 90(TM) system (copyright 1990, Gaussian, Inc.),
 the Gaussian 88(TM) system (copyright 1988, Gaussian, Inc.),
 the Gaussian 86(TM) system (copyright 1986, Carnegie Mellon
 University), and the Gaussian 82(TM) system (copyright 1983,
 Carnegie Mellon University). Gaussian is a federally registered
 trademark of Gaussian, Inc.
  
 This software contains proprietary and confidential information,
 including trade secrets, belonging to Gaussian, Inc.
  
 This software is provided under written license and may be
 used, copied, transmitted, or stored only in accord with that
 written license.
  
 The following legend is applicable only to US Government
 contracts under FAR:
  
                    RESTRICTED RIGHTS LEGEND
  
 Use, reproduction and disclosure by the US Government is
 subject to restrictions as set forth in subparagraphs (a)
 and (c) of the Commercial Computer Software - Restricted
 Rights clause in FAR 52.227-19.
  
 Gaussian, Inc.
 340 Quinnipiac St., Bldg. 40, Wallingford CT 06492
  
  
 ---------------------------------------------------------------
 Warning -- This program may not be used in any manner that
 competes with the business of Gaussian, Inc. or will provide
 assistance to any competitor of Gaussian, Inc.  The licensee
 of this program is prohibited from giving any competitor of
 Gaussian, Inc. access to this program.  By using this program,
 the user acknowledges that Gaussian, Inc. is engaged in the
 business of creating and licensing software in the field of
 computational chemistry and represents and warrants to the
 licensee that it is not a competitor of Gaussian, Inc. and that
 it will not use this program in any manner prohibited above.
 ---------------------------------------------------------------
  

 Cite this work as:
 Gaussian 16, Revision C.02,
 M. J. Frisch, G. W. Trucks, H. B. Schlegel, G. E. Scuseria, 
 M. A. Robb, J. R. Cheeseman, G. Scalmani, V. Barone, 
 G. A. Petersson, H. Nakatsuji, X. Li, M. Caricato, A. V. Marenich, 
 J. Bloino, B. G. Janesko, R. Gomperts, B. Mennucci, H. P. Hratchian, 
 J. V. Ortiz, A. F. Izmaylov, J. L. Sonnenberg, D. Williams-Young, 
 F. Ding, F. Lipparini, F. Egidi, J. Goings, B. Peng, A. Petrone, 
 T. Henderson, D. Ranasinghe, V. G. Zakrzewski, J. Gao, N. Rega, 
 G. Zheng, W. Liang, M. Hada, M. Ehara, K. Toyota, R. Fukuda, 
 J. Hasegawa, M. Ishida, T. Nakajima, Y. Honda, O. Kitao, H. Nakai, 
 T. Vreven, K. Throssell, J. A. Montgomery, Jr., J. E. Peralta, 
 F. Ogliaro, M. J. Bearpark, J. J. Heyd, E. N. Brothers, K. N. Kudin, 
 V. N. Staroverov, T. A. Keith, R. Kobayashi, J. Normand, 
 K. Raghavachari, A. P. Rendell, J. C. Burant, S. S. Iyengar, 
 J. Tomasi, M. Cossi, J. M. Millam, M. Klene, C. Adamo, R. Cammi, 
 J. W. Ochterski, R. L. Martin, K. Morokuma, O. Farkas, 
 J. B. Foresman, and D. J. Fox, Gaussian, Inc., Wallingford CT, 2019.
 
 ******************************************
 Gaussian 16:  ES64L-G16RevC.02  7-Dec-2021
                21-Sep-2024 
 ******************************************
 %mem=16GB
 %CPU=0-71
 SetSPE:  set environment variable "OMP_PROC_BIND" = "true"
 SetSPE:  set environment variable "OMP_PLACES" = "{0},{1},{2},{3},{4},{5},{6},{7},{8},{9},{10},{11},{12},{13},{14},{15},{16},{17},{18},{19},{20},{21},{22},{23},{24},{25},{26},{27},{28},{29},{30},{31},{32},{33},{34},{35},{36},{37},{38},{39},{40},{41},{42},{43},{44},{45},{46},{47},{48},{49},{50},{51},{52},{53},{54},{55},{56},{57},{58},{59},{60},{61},{62},{63},{64},{65},{66},{67},{68},{69},{70},{71}"
 Will use up to   72 processors via shared memory.
 %gpucpu=0,1,2,3=0,1,2,3
 Will use    4 GPUs:
 Thread  CPU   GPU
      0    0     0
      1    1     1
      2    2     2
      3    3     3
      4    4    -1
      5    5    -1
      6    6    -1
      7    7    -1
      8    8    -1
      9    9    -1
     10   10    -1
     11   11    -1
     12   12    -1
     13   13    -1
     14   14    -1
     15   15    -1
     16   16    -1
     17   17    -1
     18   18    -1
     19   19    -1
     20   20    -1
     21   21    -1
     22   22    -1
     23   23    -1
     24   24    -1
     25   25    -1
     26   26    -1
     27   27    -1
     28   28    -1
     29   29    -1
     30   30    -1
     31   31    -1
     32   32    -1
     33   33    -1
     34   34    -1
     35   35    -1
     36   36    -1
     37   37    -1
     38   38    -1
     39   39    -1
     40   40    -1
     41   41    -1
     42   42    -1
     43   43    -1
     44   44    -1
     45   45    -1
     46   46    -1
     47   47    -1
     48   48    -1
     49   49    -1
     50   50    -1
     51   51    -1
     52   52    -1
     53   53    -1
     54   54    -1
     55   55    -1
     56   56    -1
     57   57    -1
     58   58    -1
     59   59    -1
     60   60    -1
     61   61    -1
     62   62    -1
     63   63    -1
     64   64    -1
     65   65    -1
     66   66    -1
     67   67    -1
     68   68    -1
     69   69    -1
     70   70    -1
     71   71    -1
 SetGPE:  set environment variable "OMP_PROC_BIND" = "true"
 SetGPE:  set environment variable "OMP_PLACES" = "{0},{1},{2},{3},{4},{5},{6},{7},{8},{9},{10},{11},{12},{13},{14},{15},{16},{17},{18},{19},{20},{21},{22},{23},{24},{25},{26},{27},{28},{29},{30},{31},{32},{33},{34},{35},{36},{37},{38},{39},{40},{41},{42},{43},{44},{45},{46},{47},{48},{49},{50},{51},{52},{53},{54},{55},{56},{57},{58},{59},{60},{61},{62},{63},{64},{65},{66},{67},{68},{69},{70},{71}"
 %oldchk=1mbs_II_S.chk
 %chk=1mbs_II_Sre.chk
 Properties for Device   0
 Minimum vector length:                              32
 Maximum vector length:                            1024
 Number of SMPs:                                    108
 Maximum number of threads per SMP:                2048
 Number of ASync Engines:                             5
 Memory:                                           9207742464
 Properties for Device   1
 Minimum vector length:                              32
 Maximum vector length:                            1024
 Number of SMPs:                                    108
 Maximum number of threads per SMP:                2048
 Number of ASync Engines:                             5
 Memory:                                           9207742464
 Properties for Device   2
 Minimum vector length:                              32
 Maximum vector length:                            1024
 Number of SMPs:                                    108
 Maximum number of threads per SMP:                2048
 Number of ASync Engines:                             5
 Memory:                                           9207742464
 Properties for Device   3
 Minimum vector length:                              32
 Maximum vector length:                            1024
 Number of SMPs:                                    108
 Maximum number of threads per SMP:                2048
 Number of ASync Engines:                             5
 Memory:                                           9207742464
   8286968217 words of memory will be used on each GPU.
 Copying data from "1mbs_II_S.chk" to current chk file "1mbs_II_Sre.chk"
 IOpt=  2 FromEx=T IUOpen= 4 IOptOp= 5 NList=   0 IFRang= 0 IUIn= 4 IUOut= 2.
 --------------------------------------
 # apfd/gen scf=maxcycle=999 geom=check
 --------------------------------------
 1/29=2,38=1,172=1/1;
 2/12=2,40=1/2;
 3/5=7,11=2,14=-4,25=1,30=1,74=-44/1,2,3;
 4//1;
 5/5=2,7=999,38=5/2;
 6/7=2,8=2,9=2,10=2,28=1/1;
 99/5=1,9=1/99;
 ---------
 1mbs_II_Q
 ---------
 Structure from the checkpoint file:  "1mbs_II_Sre.chk"
 Charge =  0 Multiplicity = 5
 Z-Matrix found in chk file.
 Fe,0,9.8351334938,-10.0610338643,10.0420331112
 N,0,10.56842736,-11.6617785964,9.177833371
 N,0,10.9308831543,-8.8728030875,8.9126358077
 N,0,9.040720889,-8.4523425781,11.001484028
 N,0,8.7604119664,-11.2084090573,11.3202610839
 C,0,10.3505394296,-12.9635298611,9.501437958
 C,0,10.9715065412,-13.8375762092,8.5304872015
 C,0,11.7132139614,-13.0366037599,7.7187921091
 C,0,11.4549974489,-11.6759281608,8.1395331672
 C,0,11.6206476805,-9.2461065618,7.7962493421
 C,0,12.209904087,-8.1038877055,7.1497590248
 C,0,11.6986028882,-7.0036188855,7.7844165187
 C,0,10.9369112985,-7.5106988655,8.910750193
 C,0,9.3130281021,-7.1456233542,10.7148500221
 C,0,8.6279279078,-6.2618305464,11.6228363878
 C,0,7.8917624892,-7.063244128,12.4533425717
 C,0,8.1404290146,-8.422846233,12.0175400345
 C,0,7.7895634077,-10.8301214576,12.1954205382
 C,0,7.1717367981,-11.9823422194,12.8119054009
 C,0,7.7591872441,-13.0740895126,12.2541676498
 C,0,8.7098379656,-12.5717062809,11.2874039523
 C,0,9.4508142342,-13.3950234122,10.4596972561
 H,0,9.3126803176,-14.4600718743,10.5682138946
 C,0,11.8995482353,-10.5613128118,7.4551877619
 H,0,12.5182851519,-10.7282282548,6.5865066078
 C,0,10.1542708822,-6.7021826775,9.7104799183
 H,0,10.2215200388,-5.6363257833,9.5545435552
 C,0,7.5204102942,-9.5274330938,12.5650909232
 H,0,6.7596612676,-9.3622420812,13.3120204147
 C,0,12.5863040704,-13.4090948435,6.570033656
 H,0,12.1683532431,-13.0415070214,5.632374734
 H,0,12.6904072739,-14.4889353616,6.4977527491
 H,0,13.5786825125,-12.9752527097,6.69088916
 C,0,10.8468098288,-15.3224574057,8.5361520162
 H,0,9.8013478332,-15.616756508,8.446709338
 H,0,11.2368976988,-15.7396589696,9.4653048793
 H,0,11.3962588135,-15.7594926,7.7061285672
 C,0,13.1321797798,-8.1552065914,5.9824947396
 H,0,12.5820908617,-8.3243659851,5.0553709357
 H,0,13.8529184106,-8.9634033628,6.0988649592
 H,0,13.6725362272,-7.2148736549,5.8953577394
 C,0,11.9342930453,-5.6015611118,7.516245999
 H,0,11.9862197341,-4.9556476162,8.3854671127
 C,0,12.0674945606,-5.0678421893,6.3065618525
 H,0,11.9762580538,-5.6555277756,5.4097963429
 H,0,12.2469283256,-4.0142492798,6.1708310402
 C,0,8.7888522422,-4.7822713331,11.66411037
 H,0,8.1459144154,-4.3009997608,10.9254315654
 H,0,9.8183014496,-4.4987219384,11.4506023685
 H,0,8.5212738894,-4.405957597,12.6493464463
 C,0,7.0388815888,-6.7001908955,13.5638237858
 H,0,7.0096072901,-7.4123356886,14.3805568095
 C,0,6.3084000145,-5.5929875211,13.6460476975
 H,0,6.262647478,-4.8762925645,12.8449106905
 H,0,5.7051990311,-5.3790348891,14.5127389006
 C,0,6.1054851022,-11.908477545,13.8498842985
 H,0,5.2270688219,-11.3955506579,13.4583348338
 H,0,6.4563084442,-11.3583705374,14.7231832564
 H,0,5.8070225442,-12.9037893558,14.169233331
 C,0,7.5000147348,-14.5194614146,12.5093163649
 H,0,6.7671905396,-14.6458839996,13.3022359573
 H,0,8.4171112893,-15.0296363106,12.8048532892
 H,0,7.1179882623,-15.0040864876,11.6105375226
 C,0,13.9863434986,-8.730452927,13.6004060951
 H,0,14.9881165322,-9.1022670752,13.3857788525
 H,0,13.7977245798,-8.8551143788,14.6665123182
 H,0,13.9493280275,-7.6723300363,13.3620366116
 N,0,12.7933597261,-10.813301928,12.8906045773
 H,0,13.310880506,-11.4342802537,13.4911026719
 C,0,12.971540152,-9.4580712164,12.7973097285
 C,0,11.8052492469,-11.1578501496,12.0368405173
 H,0,11.4518824836,-12.1602440416,11.9033449443
 N,0,11.3436834186,-10.1036270213,11.4053761112
 C,0,12.0617314505,-9.0380966359,11.8697336459
 H,0,11.8773494139,-8.046542028,11.5105908333
 Recover connectivity data from disk.
 Stoichiometry    C34H34FeN6(5)
 Framework group  C1[X(C34H34FeN6)]
 Deg. of freedom   219
 Full point group                 C1      NOp   1
 Largest Abelian subgroup         C1      NOp   1
 Largest concise Abelian subgroup C1      NOp   1
                         Standard orientation:                         
 ---------------------------------------------------------------------
 Center     Atomic      Atomic             Coordinates (Angstroms)
 Number     Number       Type             X           Y           Z
 ---------------------------------------------------------------------
      1         26           0       -0.243809   -0.068434   -0.459797
      2          7           0       -1.840191   -1.207146   -0.416846
      3          7           0        0.951887   -1.633587   -0.366507
      4          7           0        1.360434    1.182600   -0.488843
      5          7           0       -1.396675    1.597689   -0.442486
      6          6           0       -3.142123   -0.823445   -0.349779
      7          6           0       -4.015158   -1.969759   -0.476575
      8          6           0       -3.209640   -3.065472   -0.443591
      9          6           0       -1.849424   -2.572404   -0.400766
     10          6           0        0.579167   -2.933975   -0.544051
     11          6           0        1.724867   -3.804029   -0.529433
     12          6           0        2.822443   -2.985460   -0.538507
     13          6           0        2.313777   -1.634323   -0.391472
     14          6           0        2.668719    0.792455   -0.490557
     15          6           0        3.549655    1.931521   -0.453525
     16          6           0        2.743999    3.038130   -0.470198
     17          6           0        1.384521    2.539615   -0.530023
     18          6           0       -1.026672    2.892857   -0.635333
     19          6           0       -2.183213    3.758132   -0.690892
     20          6           0       -3.270059    2.949894   -0.574272
     21          6           0       -2.760940    1.600268   -0.473947
     22          6           0       -3.579535    0.487273   -0.417929
     23          1           0       -4.645686    0.655505   -0.432299
     24          6           0       -0.734356   -3.378945   -0.520917
     25          1           0       -0.899356   -4.442915   -0.598670
     26          6           0        3.116517   -0.516179   -0.497086
     27          1           0        4.181678   -0.675427   -0.567523
     28          6           0        0.274821    3.353514   -0.632401
     29          1           0        0.434208    4.414927   -0.741613
     30          6           0       -3.578568   -4.508131   -0.501128
     31          1           0       -3.228747   -4.959324   -1.430137
     32          1           0       -4.657056   -4.633941   -0.444984
     33          1           0       -3.125505   -5.049437    0.329150
     34          6           0       -5.501911   -1.890531   -0.537743
     35          1           0       -5.816087   -1.290634   -1.391569
     36          1           0       -5.901932   -1.428191    0.365461
     37          1           0       -5.937812   -2.881343   -0.638309
     38          6           0        1.677732   -5.291323   -0.567750
     39          1           0        1.488640   -5.651598   -1.580280
     40          1           0        0.884053   -5.666269    0.076980
     41          1           0        2.626727   -5.701161   -0.228273
     42          6           0        4.225579   -3.337653   -0.558498
     43          1           0        4.881652   -2.701193    0.024539
     44          6           0        4.748570   -4.350191   -1.242005
     45          1           0        4.149702   -4.982433   -1.874076
     46          1           0        5.803724   -4.565812   -1.213115
     47          6           0        5.032250    1.865121   -0.334373
     48          1           0        5.493788    1.711218   -1.311069
     49          1           0        5.332126    1.042782    0.313381
     50          1           0        5.414232    2.794404    0.083267
     51          6           0        3.103446    4.438417   -0.421460
     52          1           0        2.399724    5.082014    0.093921
     53          6           0        4.198027    4.973125   -0.952727
     54          1           0        4.905104    4.389573   -1.515820
     55          1           0        4.410315    6.025775   -0.865300
     56          6           0       -2.117545    5.238423   -0.846378
     57          1           0       -1.624895    5.502030   -1.782235
     58          1           0       -1.551787    5.686262   -0.029247
     59          1           0       -3.114614    5.671489   -0.850286
     60          6           0       -4.717066    3.306981   -0.579747
     61          1           0       -4.848226    4.384851   -0.631991
     62          1           0       -5.207296    2.944873    0.324266
     63          1           0       -5.218198    2.859778   -1.438517
     64          6           0        1.200157    0.010131    4.978382
     65          1           0        0.844301   -0.797542    5.617827
     66          1           0        1.083580    0.949269    5.518873
     67          1           0        2.254805   -0.145674    4.775266
     68          7           0       -0.911529    0.222078    3.651300
     69          1           0       -1.516508    0.349716    4.446127
     70          6           0        0.445629    0.040862    3.700117
     71          6           0       -1.283133    0.198087    2.353100
     72          1           0       -2.293157    0.318516    2.017194
     73          7           0       -0.244325    0.012286    1.572375
     74          6           0        0.839005   -0.087397    2.398836
     75          1           0        1.823123   -0.241795    2.006621
 ---------------------------------------------------------------------
 Rotational constants (GHZ):           0.0949155           0.0939087           0.0594350
 General basis read from cards:  (5D, 7F)
 There are   704 symmetry adapted cartesian basis functions of A   symmetry.
 There are   661 symmetry adapted basis functions of A   symmetry.
   661 basis functions,  1342 primitive gaussians,   704 cartesian basis functions
   155 alpha electrons      151 beta electrons
       nuclear repulsion energy      5584.9627425714 Hartrees.
 NAtoms=   75 NActive=   75 NUniq=   75 SFac= 1.00D+00 NAtFMM=   60 NAOKFM=T Big=T
 Integral buffers will be    131072 words long.
 Raffenetti 2 integral format.
 Two-electron integral symmetry is turned on.
 R6APFD:  NTU= -4 IXU= 1 FactS= 1.050
 Nuclear repulsion after empirical dispersion term =     5584.8273710413 Hartrees.
 One-electron integrals computed using PRISM.
 NBasis=   661 RedAO= T EigKep=  2.82D-04  NBF=   661
 NBsUse=   661 1.00D-06 EigRej= -1.00D+00 NBFU=   661
 ExpMin= 4.20D-02 ExpMax= 3.01D+05 ExpMxC= 2.91D+03 IAcc=3 IRadAn=         5 AccDes= 0.00D+00
 Harris functional with IExCor= 3731 and IRadAn=       5 diagonalized for initial guess.
 HarFok:  IExCor= 3731 AccDes= 0.00D+00 IRadAn=         5 IDoV= 1 UseB2=F ITyADJ=14
 ICtDFT=  3500011 ScaDFX=  1.000000  1.000000  1.000000  1.000000
 FoFCou: FMM=F IPFlag=           0 FMFlag=      100000 FMFlg1=        2001
         NFxFlg=           0 DoJE=T BraDBF=F KetDBF=T FulRan=T
         wScrn=  0.000000 ICntrl=       500 IOpCl=  0 I1Cent=   200000004 NGrid=           0
         NMat0=    1 NMatS0=      1 NMatT0=    0 NMatD0=    1 NMtDS0=    0 NMtDT0=    0
 Petite list used in FoFCou.
 Initial guess <Sx>= 0.0000 <Sy>= 0.0000 <Sz>= 2.0000 <S**2>= 6.0000 S= 2.0000
 Requested convergence on RMS density matrix=1.00D-08 within 999 cycles.
 Requested convergence on MAX density matrix=1.00D-06.
 Requested convergence on             energy=1.00D-06.
 No special actions if energy rises.
 EnCoef did   100 forward-backward iterations
 EnCoef did   100 forward-backward iterations
 EnCoef did   100 forward-backward iterations
 EnCoef did     5 forward-backward iterations
 EnCoef did     2 forward-backward iterations
 EnCoef did     2 forward-backward iterations
 Restarting incremental Fock formation.
 Restarting incremental Fock formation.
 Restarting incremental Fock formation.
 SCF Done:  E(UAPFD) =  -2907.01025963     A.U. after   69 cycles
            NFock= 69  Conv=0.11D-08     -V/T= 2.0034
 <Sx>= 0.0000 <Sy>= 0.0000 <Sz>= 2.0000 <S**2>= 6.0848 S= 2.0169
 <L.S>=  0.00000000000    
 Annihilation of the first spin contaminant:
 S**2 before annihilation     6.0848,   after     6.0005

 **********************************************************************

            Population analysis using the SCF Density.

 **********************************************************************

 Orbital symmetries:
 Alpha Orbitals:
       Occupied  (A) (A) (A) (A) (A) (A) (A) (A) (A) (A) (A) (A)
                 (A) (A) (A) (A) (A) (A) (A) (A) (A) (A) (A) (A)
                 (A) (A) (A) (A) (A) (A) (A) (A) (A) (A) (A) (A)
                 (A) (A) (A) (A) (A) (A) (A) (A) (A) (A) (A) (A)
                 (A) (A) (A) (A) (A) (A) (A) (A) (A) (A) (A) (A)
                 (A) (A) (A) (A) (A) (A) (A) (A) (A) (A) (A) (A)
                 (A) (A) (A) (A) (A) (A) (A) (A) (A) (A) (A) (A)
                 (A) (A) (A) (A) (A) (A) (A) (A) (A) (A) (A) (A)
                 (A) (A) (A) (A) (A) (A) (A) (A) (A) (A) (A) (A)
                 (A) (A) (A) (A) (A) (A) (A) (A) (A) (A) (A) (A)
                 (A) (A) (A) (A) (A) (A) (A) (A) (A) (A) (A) (A)
                 (A) (A) (A) (A) (A) (A) (A) (A) (A) (A) (A) (A)
                 (A) (A) (A) (A) (A) (A) (A) (A) (A) (A) (A)
       Virtual   (A) (A) (A) (A) (A) (A) (A) (A) (A) (A) (A) (A)
                 (A) (A) (A) (A) (A) (A) (A) (A) (A) (A) (A) (A)
                 (A) (A) (A) (A) (A) (A) (A) (A) (A) (A) (A) (A)
                 (A) (A) (A) (A) (A) (A) (A) (A) (A) (A) (A) (A)
                 (A) (A) (A) (A) (A) (A) (A) (A) (A) (A) (A) (A)
                 (A) (A) (A) (A) (A) (A) (A) (A) (A) (A) (A) (A)
                 (A) (A) (A) (A) (A) (A) (A) (A) (A) (A) (A) (A)
                 (A) (A) (A) (A) (A) (A) (A) (A) (A) (A) (A) (A)
                 (A) (A) (A) (A) (A) (A) (A) (A) (A) (A) (A) (A)
                 (A) (A) (A) (A) (A) (A) (A) (A) (A) (A) (A) (A)
                 (A) (A) (A) (A) (A) (A) (A) (A) (A) (A) (A) (A)
                 (A) (A) (A) (A) (A) (A) (A) (A) (A) (A) (A) (A)
                 (A) (A) (A) (A) (A) (A) (A) (A) (A) (A) (A) (A)
                 (A) (A) (A) (A) (A) (A) (A) (A) (A) (A) (A) (A)
                 (A) (A) (A) (A) (A) (A) (A) (A) (A) (A) (A) (A)
                 (A) (A) (A) (A) (A) (A) (A) (A) (A) (A) (A) (A)
                 (A) (A) (A) (A) (A) (A) (A) (A) (A) (A) (A) (A)
                 (A) (A) (A) (A) (A) (A) (A) (A) (A) (A) (A) (A)
                 (A) (A) (A) (A) (A) (A) (A) (A) (A) (A) (A) (A)
                 (A) (A) (A) (A) (A) (A) (A) (A) (A) (A) (A) (A)
                 (A) (A) (A) (A) (A) (A) (A) (A) (A) (A) (A) (A)
                 (A) (A) (A) (A) (A) (A) (A) (A) (A) (A) (A) (A)
                 (A) (A) (A) (A) (A) (A) (A) (A) (A) (A) (A) (A)
                 (A) (A) (A) (A) (A) (A) (A) (A) (A) (A) (A) (A)
                 (A) (A) (A) (A) (A) (A) (A) (A) (A) (A) (A) (A)
                 (A) (A) (A) (A) (A) (A) (A) (A) (A) (A) (A) (A)
                 (A) (A) (A) (A) (A) (A) (A) (A) (A) (A) (A) (A)
                 (A) (A) (A) (A) (A) (A) (A) (A) (A) (A) (A) (A)
                 (A) (A) (A) (A) (A) (A) (A) (A) (A) (A) (A) (A)
                 (A) (A) (A) (A) (A) (A) (A) (A) (A) (A) (A) (A)
                 (A) (A) (A) (A) (A) (A) (A) (A) (A) (A) (A) (A)
                 (A) (A) (A) (A) (A) (A) (A) (A) (A) (A) (A) (A)
                 (A) (A) (A) (A) (A) (A) (A) (A) (A) (A) (A) (A)
                 (A) (A) (A) (A) (A) (A) (A) (A) (A) (A) (A) (A)
                 (A) (A) (A) (A) (A) (A) (A) (A) (A) (A) (A) (A)
                 (A) (A) (A) (A) (A) (A) (A) (A) (A) (A) (A) (A)
                 (A) (A) (A) (A) (A) (A) (A) (A) (A) (A) (A) (A)
                 (A) (A) (A) (A) (A) (A) (A) (A) (A) (A) (A) (A)
                 (A) (A) (A) (A) (A) (A) (A) (A) (A) (A) (A) (A)
                 (A) (A) (A) (A) (A) (A) (A) (A) (A) (A) (A) (A)
                 (A) (A) (A) (A) (A) (A) (A) (A) (A) (A) (A) (A)
                 (A) (A) (A) (A) (A) (A) (A) (A) (A) (A) (A) (A)
                 (A) (A)
 Beta  Orbitals:
       Occupied  (A) (A) (A) (A) (A) (A) (A) (A) (A) (A) (A) (A)
                 (A) (A) (A) (A) (A) (A) (A) (A) (A) (A) (A) (A)
                 (A) (A) (A) (A) (A) (A) (A) (A) (A) (A) (A) (A)
                 (A) (A) (A) (A) (A) (A) (A) (A) (A) (A) (A) (A)
                 (A) (A) (A) (A) (A) (A) (A) (A) (A) (A) (A) (A)
                 (A) (A) (A) (A) (A) (A) (A) (A) (A) (A) (A) (A)
                 (A) (A) (A) (A) (A) (A) (A) (A) (A) (A) (A) (A)
                 (A) (A) (A) (A) (A) (A) (A) (A) (A) (A) (A) (A)
                 (A) (A) (A) (A) (A) (A) (A) (A) (A) (A) (A) (A)
                 (A) (A) (A) (A) (A) (A) (A) (A) (A) (A) (A) (A)
                 (A) (A) (A) (A) (A) (A) (A) (A) (A) (A) (A) (A)
                 (A) (A) (A) (A) (A) (A) (A) (A) (A) (A) (A) (A)
                 (A) (A) (A) (A) (A) (A) (A)
       Virtual   (A) (A) (A) (A) (A) (A) (A) (A) (A) (A) (A) (A)
                 (A) (A) (A) (A) (A) (A) (A) (A) (A) (A) (A) (A)
                 (A) (A) (A) (A) (A) (A) (A) (A) (A) (A) (A) (A)
                 (A) (A) (A) (A) (A) (A) (A) (A) (A) (A) (A) (A)
                 (A) (A) (A) (A) (A) (A) (A) (A) (A) (A) (A) (A)
                 (A) (A) (A) (A) (A) (A) (A) (A) (A) (A) (A) (A)
                 (A) (A) (A) (A) (A) (A) (A) (A) (A) (A) (A) (A)
                 (A) (A) (A) (A) (A) (A) (A) (A) (A) (A) (A) (A)
                 (A) (A) (A) (A) (A) (A) (A) (A) (A) (A) (A) (A)
                 (A) (A) (A) (A) (A) (A) (A) (A) (A) (A) (A) (A)
                 (A) (A) (A) (A) (A) (A) (A) (A) (A) (A) (A) (A)
                 (A) (A) (A) (A) (A) (A) (A) (A) (A) (A) (A) (A)
                 (A) (A) (A) (A) (A) (A) (A) (A) (A) (A) (A) (A)
                 (A) (A) (A) (A) (A) (A) (A) (A) (A) (A) (A) (A)
                 (A) (A) (A) (A) (A) (A) (A) (A) (A) (A) (A) (A)
                 (A) (A) (A) (A) (A) (A) (A) (A) (A) (A) (A) (A)
                 (A) (A) (A) (A) (A) (A) (A) (A) (A) (A) (A) (A)
                 (A) (A) (A) (A) (A) (A) (A) (A) (A) (A) (A) (A)
                 (A) (A) (A) (A) (A) (A) (A) (A) (A) (A) (A) (A)
                 (A) (A) (A) (A) (A) (A) (A) (A) (A) (A) (A) (A)
                 (A) (A) (A) (A) (A) (A) (A) (A) (A) (A) (A) (A)
                 (A) (A) (A) (A) (A) (A) (A) (A) (A) (A) (A) (A)
                 (A) (A) (A) (A) (A) (A) (A) (A) (A) (A) (A) (A)
                 (A) (A) (A) (A) (A) (A) (A) (A) (A) (A) (A) (A)
                 (A) (A) (A) (A) (A) (A) (A) (A) (A) (A) (A) (A)
                 (A) (A) (A) (A) (A) (A) (A) (A) (A) (A) (A) (A)
                 (A) (A) (A) (A) (A) (A) (A) (A) (A) (A) (A) (A)
                 (A) (A) (A) (A) (A) (A) (A) (A) (A) (A) (A) (A)
                 (A) (A) (A) (A) (A) (A) (A) (A) (A) (A) (A) (A)
                 (A) (A) (A) (A) (A) (A) (A) (A) (A) (A) (A) (A)
                 (A) (A) (A) (A) (A) (A) (A) (A) (A) (A) (A) (A)
                 (A) (A) (A) (A) (A) (A) (A) (A) (A) (A) (A) (A)
                 (A) (A) (A) (A) (A) (A) (A) (A) (A) (A) (A) (A)
                 (A) (A) (A) (A) (A) (A) (A) (A) (A) (A) (A) (A)
                 (A) (A) (A) (A) (A) (A) (A) (A) (A) (A) (A) (A)
                 (A) (A) (A) (A) (A) (A) (A) (A) (A) (A) (A) (A)
                 (A) (A) (A) (A) (A) (A) (A) (A) (A) (A) (A) (A)
                 (A) (A) (A) (A) (A) (A) (A) (A) (A) (A) (A) (A)
                 (A) (A) (A) (A) (A) (A) (A) (A) (A) (A) (A) (A)
                 (A) (A) (A) (A) (A) (A) (A) (A) (A) (A) (A) (A)
                 (A) (A) (A) (A) (A) (A) (A) (A) (A) (A) (A) (A)
                 (A) (A) (A) (A) (A) (A) (A) (A) (A) (A) (A) (A)
                 (A) (A) (A) (A) (A) (A)
 The electronic state is 5-A.
 Alpha  occ. eigenvalues -- -256.17939 -30.07157 -25.91854 -25.89785 -25.89307
 Alpha  occ. eigenvalues --  -14.42689 -14.36054 -14.33824 -14.33779 -14.33685
 Alpha  occ. eigenvalues --  -14.33492 -10.25882 -10.23992 -10.21835 -10.21644
 Alpha  occ. eigenvalues --  -10.21630 -10.21499 -10.21284 -10.21263 -10.21176
 Alpha  occ. eigenvalues --  -10.21163 -10.21039 -10.20997 -10.19980 -10.19920
 Alpha  occ. eigenvalues --  -10.19524 -10.19231 -10.19179 -10.19176 -10.19044
 Alpha  occ. eigenvalues --  -10.19040 -10.19015 -10.18992 -10.18958 -10.18906
 Alpha  occ. eigenvalues --  -10.18892 -10.18883 -10.18878 -10.18868 -10.18849
 Alpha  occ. eigenvalues --  -10.18651 -10.18639 -10.18624 -10.18602 -10.18531
 Alpha  occ. eigenvalues --   -3.52850  -2.32962  -2.28232  -2.27659  -1.04893
 Alpha  occ. eigenvalues --   -0.96736  -0.95749  -0.95713  -0.94739  -0.90346
 Alpha  occ. eigenvalues --   -0.81969  -0.81544  -0.81228  -0.80548  -0.80224
 Alpha  occ. eigenvalues --   -0.79883  -0.79342  -0.79217  -0.76457  -0.75391
 Alpha  occ. eigenvalues --   -0.74068  -0.73631  -0.73020  -0.71420  -0.70735
 Alpha  occ. eigenvalues --   -0.69890  -0.68132  -0.67830  -0.67591  -0.64227
 Alpha  occ. eigenvalues --   -0.63835  -0.63736  -0.60862  -0.60336  -0.59743
 Alpha  occ. eigenvalues --   -0.57429  -0.56439  -0.55516  -0.54153  -0.53346
 Alpha  occ. eigenvalues --   -0.52999  -0.52417  -0.50812  -0.50736  -0.50144
 Alpha  occ. eigenvalues --   -0.48733  -0.47581  -0.47374  -0.47201  -0.46823
 Alpha  occ. eigenvalues --   -0.44955  -0.44551  -0.44365  -0.44167  -0.43724
 Alpha  occ. eigenvalues --   -0.43422  -0.43198  -0.43100  -0.42840  -0.42700
 Alpha  occ. eigenvalues --   -0.42439  -0.42098  -0.42058  -0.41983  -0.41493
 Alpha  occ. eigenvalues --   -0.41368  -0.41257  -0.41202  -0.40496  -0.40153
 Alpha  occ. eigenvalues --   -0.39959  -0.39367  -0.39267  -0.39121  -0.38759
 Alpha  occ. eigenvalues --   -0.38442  -0.38337  -0.38068  -0.37763  -0.37441
 Alpha  occ. eigenvalues --   -0.37011  -0.36703  -0.36518  -0.36336  -0.35909
 Alpha  occ. eigenvalues --   -0.35330  -0.34260  -0.34048  -0.33358  -0.33270
 Alpha  occ. eigenvalues --   -0.32834  -0.31081  -0.30666  -0.30360  -0.29995
 Alpha  occ. eigenvalues --   -0.29133  -0.28797  -0.28365  -0.27477  -0.25809
 Alpha  occ. eigenvalues --   -0.25681  -0.23482  -0.23245  -0.21778  -0.21161
 Alpha  occ. eigenvalues --   -0.21036  -0.20565  -0.17556  -0.17119  -0.15455
 Alpha virt. eigenvalues --   -0.06002  -0.05771  -0.01023   0.01899   0.02872
 Alpha virt. eigenvalues --    0.03755   0.06487   0.07050   0.07556   0.08054
 Alpha virt. eigenvalues --    0.09028   0.09879   0.10247   0.11028   0.11265
 Alpha virt. eigenvalues --    0.11805   0.12393   0.12537   0.13170   0.14079
 Alpha virt. eigenvalues --    0.14331   0.14823   0.15130   0.15248   0.15672
 Alpha virt. eigenvalues --    0.15739   0.16164   0.16526   0.16707   0.17076
 Alpha virt. eigenvalues --    0.17416   0.17747   0.17927   0.18044   0.18178
 Alpha virt. eigenvalues --    0.18281   0.18892   0.19032   0.19194   0.19561
 Alpha virt. eigenvalues --    0.19824   0.20282   0.20762   0.21342   0.21571
 Alpha virt. eigenvalues --    0.21800   0.22048   0.22520   0.22843   0.23073
 Alpha virt. eigenvalues --    0.23684   0.23791   0.24649   0.24930   0.25332
 Alpha virt. eigenvalues --    0.25703   0.26461   0.26703   0.27085   0.27339
 Alpha virt. eigenvalues --    0.27670   0.27802   0.27918   0.29947   0.30616
 Alpha virt. eigenvalues --    0.31080   0.32077   0.32335   0.33387   0.33626
 Alpha virt. eigenvalues --    0.34203   0.35010   0.36191   0.36414   0.37137
 Alpha virt. eigenvalues --    0.37379   0.37424   0.38622   0.39176   0.40368
 Alpha virt. eigenvalues --    0.41713   0.43014   0.43413   0.44316   0.44484
 Alpha virt. eigenvalues --    0.45046   0.45327   0.47594   0.48039   0.48282
 Alpha virt. eigenvalues --    0.48693   0.49000   0.49759   0.50499   0.50848
 Alpha virt. eigenvalues --    0.51621   0.52004   0.52105   0.52319   0.52637
 Alpha virt. eigenvalues --    0.53114   0.53479   0.53754   0.54006   0.54137
 Alpha virt. eigenvalues --    0.54614   0.54756   0.55598   0.55958   0.56146
 Alpha virt. eigenvalues --    0.56306   0.58072   0.58523   0.58648   0.58845
 Alpha virt. eigenvalues --    0.59222   0.59737   0.60207   0.60264   0.60782
 Alpha virt. eigenvalues --    0.60974   0.61337   0.61656   0.62150   0.62553
 Alpha virt. eigenvalues --    0.63166   0.63498   0.64154   0.64426   0.64968
 Alpha virt. eigenvalues --    0.65341   0.65736   0.66067   0.66366   0.66916
 Alpha virt. eigenvalues --    0.67077   0.67398   0.67596   0.67918   0.68205
 Alpha virt. eigenvalues --    0.68277   0.68866   0.69094   0.69740   0.70260
 Alpha virt. eigenvalues --    0.70776   0.71169   0.71587   0.71919   0.72652
 Alpha virt. eigenvalues --    0.73491   0.74373   0.74497   0.74646   0.75156
 Alpha virt. eigenvalues --    0.75798   0.76154   0.76964   0.77346   0.77495
 Alpha virt. eigenvalues --    0.78078   0.78596   0.78669   0.79005   0.79319
 Alpha virt. eigenvalues --    0.79693   0.80124   0.80355   0.80613   0.81475
 Alpha virt. eigenvalues --    0.81778   0.82237   0.82346   0.83670   0.84077
 Alpha virt. eigenvalues --    0.84844   0.85822   0.86030   0.86974   0.87091
 Alpha virt. eigenvalues --    0.87360   0.87619   0.87893   0.88003   0.88356
 Alpha virt. eigenvalues --    0.88474   0.88838   0.89385   0.89722   0.90091
 Alpha virt. eigenvalues --    0.90944   0.91295   0.91413   0.91778   0.92298
 Alpha virt. eigenvalues --    0.92767   0.93356   0.93601   0.93753   0.94139
 Alpha virt. eigenvalues --    0.94161   0.94695   0.95115   0.95292   0.95724
 Alpha virt. eigenvalues --    0.96207   0.96613   0.97008   0.98093   0.98504
 Alpha virt. eigenvalues --    0.98972   0.99394   0.99570   0.99882   1.00078
 Alpha virt. eigenvalues --    1.00423   1.00877   1.01246   1.01776   1.02055
 Alpha virt. eigenvalues --    1.02655   1.03289   1.03499   1.04574   1.04744
 Alpha virt. eigenvalues --    1.05895   1.06114   1.06564   1.07272   1.07338
 Alpha virt. eigenvalues --    1.08118   1.08809   1.09869   1.10699   1.11071
 Alpha virt. eigenvalues --    1.11857   1.13895   1.14352   1.14860   1.16145
 Alpha virt. eigenvalues --    1.16430   1.16869   1.17330   1.17722   1.18077
 Alpha virt. eigenvalues --    1.18914   1.19055   1.19759   1.20534   1.21424
 Alpha virt. eigenvalues --    1.21747   1.22055   1.22468   1.23580   1.23699
 Alpha virt. eigenvalues --    1.25118   1.25617   1.26157   1.26190   1.27498
 Alpha virt. eigenvalues --    1.28597   1.29369   1.29773   1.30676   1.31212
 Alpha virt. eigenvalues --    1.32240   1.32901   1.33978   1.34475   1.34999
 Alpha virt. eigenvalues --    1.36185   1.36493   1.37136   1.37301   1.37823
 Alpha virt. eigenvalues --    1.39043   1.39190   1.40179   1.40668   1.41788
 Alpha virt. eigenvalues --    1.42370   1.42778   1.44194   1.44794   1.44882
 Alpha virt. eigenvalues --    1.45608   1.46130   1.47240   1.47836   1.48232
 Alpha virt. eigenvalues --    1.48974   1.49925   1.50534   1.52622   1.53553
 Alpha virt. eigenvalues --    1.54335   1.55328   1.55338   1.55641   1.55925
 Alpha virt. eigenvalues --    1.56754   1.57357   1.58184   1.59392   1.60619
 Alpha virt. eigenvalues --    1.60877   1.61595   1.62845   1.63075   1.64221
 Alpha virt. eigenvalues --    1.64866   1.66374   1.67589   1.69098   1.69449
 Alpha virt. eigenvalues --    1.70256   1.70691   1.72039   1.72264   1.74280
 Alpha virt. eigenvalues --    1.76340   1.77576   1.78851   1.78964   1.79274
 Alpha virt. eigenvalues --    1.79894   1.80873   1.81464   1.81808   1.81918
 Alpha virt. eigenvalues --    1.83252   1.83382   1.83952   1.84077   1.84470
 Alpha virt. eigenvalues --    1.84906   1.85128   1.86742   1.87488   1.87907
 Alpha virt. eigenvalues --    1.88573   1.88619   1.90073   1.90304   1.90493
 Alpha virt. eigenvalues --    1.91303   1.91987   1.92754   1.93503   1.94168
 Alpha virt. eigenvalues --    1.94667   1.95131   1.95977   1.96581   1.96956
 Alpha virt. eigenvalues --    1.97375   1.98369   2.00299   2.00488   2.00658
 Alpha virt. eigenvalues --    2.01285   2.01541   2.02183   2.02620   2.03151
 Alpha virt. eigenvalues --    2.03989   2.05587   2.06261   2.06922   2.07456
 Alpha virt. eigenvalues --    2.07684   2.08585   2.09014   2.10135   2.11139
 Alpha virt. eigenvalues --    2.12071   2.13051   2.13522   2.13796   2.14281
 Alpha virt. eigenvalues --    2.15698   2.15946   2.16229   2.16508   2.17127
 Alpha virt. eigenvalues --    2.17698   2.19223   2.19990   2.21691   2.22293
 Alpha virt. eigenvalues --    2.23063   2.23550   2.23999   2.24589   2.25242
 Alpha virt. eigenvalues --    2.25757   2.26182   2.26825   2.27234   2.27590
 Alpha virt. eigenvalues --    2.27675   2.28454   2.28976   2.29137   2.29211
 Alpha virt. eigenvalues --    2.30638   2.30787   2.31188   2.31290   2.32119
 Alpha virt. eigenvalues --    2.32634   2.33061   2.34608   2.35357   2.35526
 Alpha virt. eigenvalues --    2.36470   2.36779   2.37372   2.37549   2.38757
 Alpha virt. eigenvalues --    2.38918   2.39899   2.40416   2.41475   2.41644
 Alpha virt. eigenvalues --    2.42076   2.43270   2.43569   2.43725   2.44309
 Alpha virt. eigenvalues --    2.44681   2.46082   2.46120   2.46395   2.48910
 Alpha virt. eigenvalues --    2.49380   2.50852   2.52668   2.53129   2.53409
 Alpha virt. eigenvalues --    2.54006   2.54653   2.55004   2.55949   2.57440
 Alpha virt. eigenvalues --    2.57874   2.57916   2.59739   2.60792   2.61479
 Alpha virt. eigenvalues --    2.62037   2.63296   2.64259   2.65600   2.66498
 Alpha virt. eigenvalues --    2.68882   2.69370   2.70204   2.71980   2.72498
 Alpha virt. eigenvalues --    2.72823   2.75657   2.76573   2.77011   2.78481
 Alpha virt. eigenvalues --    2.79861   2.80882   2.81488   2.82253   2.87409
 Alpha virt. eigenvalues --    2.88691   2.89446   2.89518   2.91959   2.92997
 Alpha virt. eigenvalues --    2.93463   2.95885   2.97088   2.97841   2.98964
 Alpha virt. eigenvalues --    3.00223   3.01116   3.01274   3.03736   3.06158
 Alpha virt. eigenvalues --    3.06491   3.07976   3.13577   3.14772   3.16710
 Alpha virt. eigenvalues --    3.20674   3.23926   3.26523   3.30588   3.31058
 Alpha virt. eigenvalues --    3.39131   3.39685   3.41464   3.47153   3.47379
 Alpha virt. eigenvalues --    3.60160   3.65246   3.70033   3.87202   4.05065
 Alpha virt. eigenvalues --    4.23769
  Beta  occ. eigenvalues -- -256.17799 -29.99082 -25.84132 -25.83544 -25.83031
  Beta  occ. eigenvalues --  -14.42677 -14.35842 -14.33667 -14.33600 -14.33511
  Beta  occ. eigenvalues --  -14.33319 -10.25875 -10.23985 -10.21792 -10.21620
  Beta  occ. eigenvalues --  -10.21605 -10.21467 -10.21321 -10.21261 -10.21218
  Beta  occ. eigenvalues --  -10.21206 -10.21076 -10.20999 -10.19967 -10.19928
  Beta  occ. eigenvalues --  -10.19477 -10.19213 -10.19199 -10.19143 -10.19054
  Beta  occ. eigenvalues --  -10.19043 -10.19024 -10.19012 -10.18958 -10.18912
  Beta  occ. eigenvalues --  -10.18907 -10.18907 -10.18881 -10.18861 -10.18830
  Beta  occ. eigenvalues --  -10.18632 -10.18626 -10.18625 -10.18619 -10.18527
  Beta  occ. eigenvalues --   -3.33486  -2.09350  -2.09047  -2.08449  -1.04798
  Beta  occ. eigenvalues --   -0.96544  -0.95563  -0.95533  -0.94548  -0.90153
  Beta  occ. eigenvalues --   -0.81971  -0.81482  -0.81178  -0.80473  -0.80149
  Beta  occ. eigenvalues --   -0.79860  -0.79335  -0.79197  -0.76441  -0.75367
  Beta  occ. eigenvalues --   -0.74050  -0.73622  -0.73015  -0.71376  -0.70691
  Beta  occ. eigenvalues --   -0.69829  -0.68042  -0.67728  -0.67564  -0.64072
  Beta  occ. eigenvalues --   -0.63787  -0.63750  -0.60809  -0.60285  -0.59686
  Beta  occ. eigenvalues --   -0.57395  -0.56251  -0.55438  -0.54103  -0.53286
  Beta  occ. eigenvalues --   -0.52931  -0.52194  -0.50692  -0.50644  -0.50050
  Beta  occ. eigenvalues --   -0.48378  -0.47486  -0.47250  -0.46935  -0.46723
  Beta  occ. eigenvalues --   -0.44625  -0.44416  -0.44178  -0.44132  -0.43666
  Beta  occ. eigenvalues --   -0.43263  -0.43142  -0.42996  -0.42669  -0.42644
  Beta  occ. eigenvalues --   -0.42365  -0.42030  -0.41983  -0.41916  -0.41355
  Beta  occ. eigenvalues --   -0.41320  -0.41239  -0.41201  -0.40061  -0.39926
  Beta  occ. eigenvalues --   -0.39809  -0.39314  -0.39173  -0.38677  -0.38479
  Beta  occ. eigenvalues --   -0.38254  -0.37940  -0.37482  -0.37317  -0.36752
  Beta  occ. eigenvalues --   -0.36353  -0.36111  -0.35495  -0.35398  -0.34820
  Beta  occ. eigenvalues --   -0.34012  -0.33773  -0.33350  -0.32127  -0.31588
  Beta  occ. eigenvalues --   -0.30790  -0.30346  -0.29836  -0.28842  -0.28462
  Beta  occ. eigenvalues --   -0.28224  -0.26130  -0.25903  -0.23433  -0.23115
  Beta  occ. eigenvalues --   -0.21994  -0.21970  -0.21232  -0.17820  -0.17302
  Beta  occ. eigenvalues --   -0.14400
  Beta virt. eigenvalues --   -0.06590  -0.05322  -0.01085   0.00006   0.00229
  Beta virt. eigenvalues --    0.02172   0.03320   0.03594   0.03753   0.06753
  Beta virt. eigenvalues --    0.07803   0.08133   0.09108   0.09326   0.10026
  Beta virt. eigenvalues --    0.10109   0.11052   0.11141   0.11584   0.12006
  Beta virt. eigenvalues --    0.12450   0.12728   0.13181   0.14096   0.14369
  Beta virt. eigenvalues --    0.14886   0.15184   0.15358   0.15718   0.15853
  Beta virt. eigenvalues --    0.16209   0.16638   0.16762   0.17122   0.17478
  Beta virt. eigenvalues --    0.17777   0.17992   0.18080   0.18226   0.18290
  Beta virt. eigenvalues --    0.18971   0.19097   0.19219   0.19623   0.19867
  Beta virt. eigenvalues --    0.20346   0.20771   0.21357   0.21614   0.21820
  Beta virt. eigenvalues --    0.22082   0.22645   0.23047   0.23237   0.23929
  Beta virt. eigenvalues --    0.24196   0.24745   0.25073   0.25858   0.26079
  Beta virt. eigenvalues --    0.26764   0.27314   0.27395   0.27552   0.27840
  Beta virt. eigenvalues --    0.28027   0.28300   0.29972   0.31120   0.31188
  Beta virt. eigenvalues --    0.32645   0.32868   0.33530   0.34002   0.34735
  Beta virt. eigenvalues --    0.35511   0.36419   0.36654   0.37318   0.37496
  Beta virt. eigenvalues --    0.37570   0.39068   0.39508   0.40530   0.42084
  Beta virt. eigenvalues --    0.43161   0.43771   0.44344   0.44554   0.45102
  Beta virt. eigenvalues --    0.45540   0.48231   0.48511   0.48894   0.49250
  Beta virt. eigenvalues --    0.49584   0.50015   0.50729   0.51192   0.51778
  Beta virt. eigenvalues --    0.52098   0.52435   0.52444   0.52794   0.53199
  Beta virt. eigenvalues --    0.53521   0.53862   0.54153   0.54226   0.54752
  Beta virt. eigenvalues --    0.54831   0.55630   0.56032   0.56286   0.56483
  Beta virt. eigenvalues --    0.58128   0.58648   0.58755   0.58987   0.59251
  Beta virt. eigenvalues --    0.59764   0.60330   0.60370   0.60813   0.61017
  Beta virt. eigenvalues --    0.61459   0.61739   0.62210   0.62564   0.63231
  Beta virt. eigenvalues --    0.63570   0.64183   0.64428   0.64972   0.65380
  Beta virt. eigenvalues --    0.65826   0.66158   0.66799   0.67094   0.67393
  Beta virt. eigenvalues --    0.67456   0.67814   0.68130   0.68282   0.68359
  Beta virt. eigenvalues --    0.69129   0.69418   0.69957   0.70324   0.70814
  Beta virt. eigenvalues --    0.71337   0.71631   0.72087   0.72671   0.74164
  Beta virt. eigenvalues --    0.74468   0.74811   0.75014   0.75406   0.75917
  Beta virt. eigenvalues --    0.76263   0.77073   0.77396   0.77634   0.78270
  Beta virt. eigenvalues --    0.78694   0.78777   0.79106   0.79502   0.79808
  Beta virt. eigenvalues --    0.80296   0.80420   0.81282   0.81570   0.81909
  Beta virt. eigenvalues --    0.82598   0.82703   0.83690   0.84084   0.84849
  Beta virt. eigenvalues --    0.86004   0.86173   0.87104   0.87158   0.87379
  Beta virt. eigenvalues --    0.87638   0.88013   0.88101   0.88501   0.88523
  Beta virt. eigenvalues --    0.88882   0.89517   0.89777   0.90283   0.90985
  Beta virt. eigenvalues --    0.91444   0.91586   0.91800   0.92335   0.92863
  Beta virt. eigenvalues --    0.93440   0.93643   0.93895   0.94253   0.94291
  Beta virt. eigenvalues --    0.94975   0.95230   0.95719   0.95827   0.96328
  Beta virt. eigenvalues --    0.96730   0.97195   0.98326   0.98602   0.99374
  Beta virt. eigenvalues --    0.99467   0.99675   1.00187   1.00330   1.00529
  Beta virt. eigenvalues --    1.01024   1.01352   1.02011   1.02308   1.02775
  Beta virt. eigenvalues --    1.03422   1.03722   1.04827   1.04932   1.06127
  Beta virt. eigenvalues --    1.06513   1.06715   1.07378   1.07832   1.08164
  Beta virt. eigenvalues --    1.09080   1.10249   1.10764   1.11408   1.12057
  Beta virt. eigenvalues --    1.14322   1.14982   1.15264   1.16746   1.16932
  Beta virt. eigenvalues --    1.17379   1.17869   1.17913   1.18806   1.19237
  Beta virt. eigenvalues --    1.19454   1.20010   1.20794   1.21815   1.22032
  Beta virt. eigenvalues --    1.22448   1.23095   1.23812   1.24056   1.25306
  Beta virt. eigenvalues --    1.25719   1.26367   1.26715   1.28447   1.29338
  Beta virt. eigenvalues --    1.29877   1.30292   1.31011   1.31334   1.32331
  Beta virt. eigenvalues --    1.32977   1.34155   1.34688   1.35109   1.36303
  Beta virt. eigenvalues --    1.36627   1.37352   1.37521   1.37915   1.39119
  Beta virt. eigenvalues --    1.39281   1.40297   1.40752   1.41954   1.42679
  Beta virt. eigenvalues --    1.42945   1.44355   1.45020   1.45127   1.45938
  Beta virt. eigenvalues --    1.46600   1.47315   1.48104   1.48409   1.49192
  Beta virt. eigenvalues --    1.50180   1.50750   1.53086   1.53737   1.54483
  Beta virt. eigenvalues --    1.55403   1.55607   1.55777   1.56041   1.56877
  Beta virt. eigenvalues --    1.57599   1.58640   1.59599   1.60771   1.61203
  Beta virt. eigenvalues --    1.61826   1.63155   1.63230   1.64345   1.65023
  Beta virt. eigenvalues --    1.66604   1.67748   1.69525   1.69817   1.70293
  Beta virt. eigenvalues --    1.70863   1.72183   1.72376   1.74601   1.76467
  Beta virt. eigenvalues --    1.77780   1.79020   1.79111   1.79387   1.80013
  Beta virt. eigenvalues --    1.80935   1.81572   1.82059   1.82277   1.83433
  Beta virt. eigenvalues --    1.83610   1.84052   1.84366   1.84577   1.85112
  Beta virt. eigenvalues --    1.85271   1.86916   1.87606   1.88027   1.88633
  Beta virt. eigenvalues --    1.88694   1.90259   1.90376   1.90990   1.91375
  Beta virt. eigenvalues --    1.92164   1.93106   1.93674   1.94368   1.94983
  Beta virt. eigenvalues --    1.95276   1.96173   1.96674   1.97438   1.97996
  Beta virt. eigenvalues --    1.98925   2.00344   2.00550   2.00806   2.01454
  Beta virt. eigenvalues --    2.02239   2.02430   2.02776   2.03384   2.04221
  Beta virt. eigenvalues --    2.05951   2.06782   2.07107   2.07780   2.08105
  Beta virt. eigenvalues --    2.08937   2.09093   2.10716   2.11373   2.12179
  Beta virt. eigenvalues --    2.13182   2.13877   2.13922   2.14468   2.15771
  Beta virt. eigenvalues --    2.16027   2.16389   2.16946   2.17453   2.18888
  Beta virt. eigenvalues --    2.19754   2.20336   2.21790   2.22596   2.23149
  Beta virt. eigenvalues --    2.24061   2.24169   2.24716   2.25478   2.26527
  Beta virt. eigenvalues --    2.26749   2.27235   2.27442   2.27872   2.28405
  Beta virt. eigenvalues --    2.28827   2.29222   2.29322   2.30304   2.30762
  Beta virt. eigenvalues --    2.31252   2.31429   2.32241   2.32339   2.32933
  Beta virt. eigenvalues --    2.33312   2.35092   2.35556   2.36163   2.36739
  Beta virt. eigenvalues --    2.36917   2.37504   2.37695   2.38953   2.39155
  Beta virt. eigenvalues --    2.40000   2.40647   2.41595   2.41787   2.42224
  Beta virt. eigenvalues --    2.43469   2.43664   2.43980   2.44577   2.44752
  Beta virt. eigenvalues --    2.46206   2.46503   2.46734   2.49071   2.49570
  Beta virt. eigenvalues --    2.51664   2.52960   2.53457   2.53698   2.54245
  Beta virt. eigenvalues --    2.55050   2.55082   2.56026   2.57603   2.57981
  Beta virt. eigenvalues --    2.58167   2.60009   2.60855   2.61640   2.62175
  Beta virt. eigenvalues --    2.63539   2.64562   2.65725   2.66590   2.69072
  Beta virt. eigenvalues --    2.69579   2.70380   2.72084   2.72705   2.72947
  Beta virt. eigenvalues --    2.75852   2.76717   2.77146   2.78566   2.80026
  Beta virt. eigenvalues --    2.81167   2.81541   2.82388   2.87502   2.88850
  Beta virt. eigenvalues --    2.89555   2.89674   2.92054   2.93081   2.93631
  Beta virt. eigenvalues --    2.96018   2.97194   2.97962   2.99017   3.00328
  Beta virt. eigenvalues --    3.01266   3.01585   3.03957   3.06273   3.06606
  Beta virt. eigenvalues --    3.08218   3.13750   3.14920   3.16748   3.20739
  Beta virt. eigenvalues --    3.24070   3.27106   3.30622   3.31103   3.39212
  Beta virt. eigenvalues --    3.39798   3.42188   3.47323   3.47537   3.72379
  Beta virt. eigenvalues --    3.74635   3.77325   3.98600   4.15721   4.34191
          Condensed to atoms (all electrons):
          Atomic-Atomic Spin Densities.
 Mulliken charges and spin densities:
               1          2
     1  Fe   0.933202   3.844393
     2  N   -0.701258   0.046558
     3  N   -0.716494   0.033472
     4  N   -0.689309   0.038979
     5  N   -0.697613   0.037090
     6  C    0.296901   0.010538
     7  C    0.029644  -0.022126
     8  C    0.027538   0.023537
     9  C    0.328678  -0.035248
    10  C    0.311946  -0.032684
    11  C    0.043554   0.030866
    12  C   -0.017126  -0.023211
    13  C    0.302493   0.022125
    14  C    0.306427   0.018094
    15  C    0.032087  -0.025429
    16  C   -0.004332   0.026587
    17  C    0.323591  -0.035237
    18  C    0.317065  -0.032304
    19  C    0.032685   0.024499
    20  C    0.028514  -0.019698
    21  C    0.313754   0.011545
    22  C   -0.324678  -0.010397
    23  H    0.161413   0.000655
    24  C   -0.311621   0.013679
    25  H    0.162150  -0.000263
    26  C   -0.296376  -0.022496
    27  H    0.166449   0.001221
    28  C   -0.307421   0.014627
    29  H    0.166067  -0.000294
    30  C   -0.608785  -0.001087
    31  H    0.191905   0.000625
    32  H    0.182026   0.000398
    33  H    0.187748   0.000408
    34  C   -0.607208   0.002625
    35  H    0.189893  -0.001216
    36  H    0.183248  -0.001403
    37  H    0.183031   0.000276
    38  C   -0.609166  -0.001870
    39  H    0.190706   0.001284
    40  H    0.182361   0.000717
    41  H    0.193615   0.000514
    42  C   -0.147199   0.008807
    43  H    0.163463  -0.000766
    44  C   -0.403608  -0.012995
    45  H    0.174646   0.000644
    46  H    0.165478   0.000791
    47  C   -0.610645   0.002735
    48  H    0.190325  -0.001378
    49  H    0.178504  -0.000960
    50  H    0.193259  -0.000046
    51  C   -0.146879  -0.007179
    52  H    0.163870   0.000528
    53  C   -0.401917   0.010606
    54  H    0.175493  -0.000530
    55  H    0.165160  -0.000452
    56  C   -0.609545  -0.001332
    57  H    0.194721   0.000780
    58  H    0.187109   0.000816
    59  H    0.182048   0.000404
    60  C   -0.607915   0.002191
    61  H    0.183421   0.000236
    62  H    0.182072  -0.000848
    63  H    0.191381  -0.001030
    64  C   -0.601212   0.000727
    65  H    0.192111   0.000070
    66  H    0.192532   0.000113
    67  H    0.209348   0.000037
    68  N   -0.635785   0.002727
    69  H    0.361105   0.001911
    70  C    0.268526   0.002796
    71  C    0.249884   0.003490
    72  H    0.212845   0.000456
    73  N   -0.448201   0.047065
    74  C   -0.034211  -0.001788
    75  H    0.192510   0.001026
 Sum of Mulliken charges =  -0.00000   4.00000
 Mulliken charges and spin densities with hydrogens summed into heavy atoms:
               1          2
     1  Fe   0.933202   3.844393
     2  N   -0.701258   0.046558
     3  N   -0.716494   0.033472
     4  N   -0.689309   0.038979
     5  N   -0.697613   0.037090
     6  C    0.296901   0.010538
     7  C    0.029644  -0.022126
     8  C    0.027538   0.023537
     9  C    0.328678  -0.035248
    10  C    0.311946  -0.032684
    11  C    0.043554   0.030866
    12  C   -0.017126  -0.023211
    13  C    0.302493   0.022125
    14  C    0.306427   0.018094
    15  C    0.032087  -0.025429
    16  C   -0.004332   0.026587
    17  C    0.323591  -0.035237
    18  C    0.317065  -0.032304
    19  C    0.032685   0.024499
    20  C    0.028514  -0.019698
    21  C    0.313754   0.011545
    22  C   -0.163265  -0.009742
    24  C   -0.149471   0.013416
    26  C   -0.129927  -0.021276
    28  C   -0.141354   0.014333
    30  C   -0.047106   0.000344
    34  C   -0.051035   0.000282
    38  C   -0.042484   0.000645
    42  C    0.016263   0.008040
    44  C   -0.063484  -0.011560
    47  C   -0.048556   0.000351
    51  C    0.016992  -0.006651
    53  C   -0.061263   0.009624
    56  C   -0.045666   0.000668
    60  C   -0.051041   0.000549
    64  C   -0.007221   0.000948
    68  N   -0.274680   0.004638
    70  C    0.268526   0.002796
    71  C    0.462729   0.003946
    73  N   -0.448201   0.047065
    74  C    0.158299  -0.000761
 Electronic spatial extent (au):  <R**2>=          19697.5773
 Charge=             -0.0000 electrons
 Dipole moment (field-independent basis, Debye):
    X=             -1.9600    Y=              0.1320    Z=              5.2521  Tot=              5.6075
 Quadrupole moment (field-independent basis, Debye-Ang):
   XX=           -223.4014   YY=           -229.8828   ZZ=           -224.4393
   XY=             -1.2387   XZ=             -4.4376   YZ=              3.2822
 Traceless Quadrupole moment (field-independent basis, Debye-Ang):
   XX=              2.5064   YY=             -3.9749   ZZ=              1.4685
   XY=             -1.2387   XZ=             -4.4376   YZ=              3.2822
 Octapole moment (field-independent basis, Debye-Ang**2):
  XXX=            -25.8709  YYY=              4.2235  ZZZ=            141.5437  XYY=            -21.9636
  XXY=              0.1757  XXZ=              8.9323  XZZ=            -30.4234  YZZ=              2.3879
  YYZ=            -23.3545  XYZ=             -2.3108
 Hexadecapole moment (field-independent basis, Debye-Ang**3):
 XXXX=         -11430.1331 YYYY=         -11250.8698 ZZZZ=          -2588.7281 XXXY=            -26.1036
 XXXZ=            -38.4429 YYYX=             39.6651 YYYZ=             78.8099 ZZZX=            -93.1428
 ZZZY=             52.2970 XXYY=          -3815.4648 XXZZ=          -2502.6558 YYZZ=          -2555.0732
 XXYZ=            -13.0809 YYXZ=            -29.1755 ZZXY=            -26.0659
 N-N= 5.584827371041D+03 E-N=-1.800074475930D+04  KE= 2.897185624272D+03
                          Isotropic Fermi Contact Couplings
        Atom                 a.u.       MegaHertz       Gauss      10(-4) cm-1
     1  Fe(57)             0.49652      18.00367       6.42416       6.00538
     2  N(14)              0.08520       6.88204       2.45568       2.29560
     3  N(14)              0.08577       6.92802       2.47209       2.31094
     4  N(14)              0.09194       7.42677       2.65005       2.47730
     5  N(14)              0.09533       7.70005       2.74757       2.56846
     6  C(13)              0.00793       2.22925       0.79545       0.74360
     7  C(13)             -0.00008      -0.02172      -0.00775      -0.00724
     8  C(13)              0.00702       1.97338       0.70415       0.65825
     9  C(13)              0.00036       0.10096       0.03602       0.03368
    10  C(13)              0.00040       0.11204       0.03998       0.03737
    11  C(13)              0.00815       2.28949       0.81695       0.76369
    12  C(13)             -0.00070      -0.19544      -0.06974      -0.06519
    13  C(13)              0.01026       2.88427       1.02918       0.96209
    14  C(13)              0.00738       2.07427       0.74015       0.69190
    15  C(13)             -0.00089      -0.25030      -0.08931      -0.08349
    16  C(13)              0.00725       2.03718       0.72692       0.67953
    17  C(13)              0.00062       0.17513       0.06249       0.05842
    18  C(13)              0.00101       0.28416       0.10139       0.09478
    19  C(13)              0.00706       1.98458       0.70815       0.66198
    20  C(13)              0.00004       0.01241       0.00443       0.00414
    21  C(13)              0.00656       1.84329       0.65773       0.61485
    22  C(13)             -0.00178      -0.49964      -0.17828      -0.16666
    23  H(1)               0.00021       0.23266       0.08302       0.07761
    24  C(13)              0.00255       0.71589       0.25545       0.23879
    25  H(1)              -0.00008      -0.08934      -0.03188      -0.02980
    26  C(13)             -0.00365      -1.02474      -0.36565      -0.34182
    27  H(1)               0.00039       0.43045       0.15359       0.14358
    28  C(13)              0.00269       0.75555       0.26960       0.25203
    29  H(1)              -0.00009      -0.10332      -0.03687      -0.03446
    30  C(13)              0.00009       0.02426       0.00865       0.00809
    31  H(1)               0.00038       0.42815       0.15277       0.14282
    32  H(1)               0.00012       0.13793       0.04922       0.04601
    33  H(1)               0.00030       0.33549       0.11971       0.11191
    34  C(13)              0.00148       0.41650       0.14862       0.13893
    35  H(1)              -0.00043      -0.47842      -0.17071      -0.15958
    36  H(1)              -0.00052      -0.58462      -0.20861      -0.19501
    37  H(1)               0.00007       0.08280       0.02954       0.02762
    38  C(13)             -0.00030      -0.08495      -0.03031      -0.02834
    39  H(1)               0.00062       0.68838       0.24563       0.22962
    40  H(1)               0.00031       0.34678       0.12374       0.11567
    41  H(1)               0.00018       0.20073       0.07163       0.06696
    42  C(13)              0.00212       0.59502       0.21232       0.19848
    43  H(1)              -0.00024      -0.27149      -0.09687      -0.09056
    44  C(13)             -0.00168      -0.47128      -0.16816      -0.15720
    45  H(1)               0.00021       0.23220       0.08285       0.07745
    46  H(1)               0.00024       0.27039       0.09648       0.09019
    47  C(13)              0.00127       0.35765       0.12762       0.11930
    48  H(1)              -0.00064      -0.72015      -0.25697      -0.24022
    49  H(1)              -0.00026      -0.29329      -0.10465      -0.09783
    50  H(1)              -0.00007      -0.07466      -0.02664      -0.02490
    51  C(13)             -0.00109      -0.30650      -0.10937      -0.10224
    52  H(1)               0.00023       0.25527       0.09109       0.08515
    53  C(13)              0.00178       0.50080       0.17870       0.16705
    54  H(1)              -0.00017      -0.18806      -0.06711      -0.06273
    55  H(1)              -0.00013      -0.14981      -0.05345      -0.04997
    56  C(13)             -0.00002      -0.00554      -0.00198      -0.00185
    57  H(1)               0.00035       0.39418       0.14065       0.13148
    58  H(1)               0.00036       0.40361       0.14402       0.13463
    59  H(1)               0.00012       0.13802       0.04925       0.04604
    60  C(13)              0.00116       0.32679       0.11661       0.10900
    61  H(1)               0.00006       0.06844       0.02442       0.02283
    62  H(1)              -0.00039      -0.43586      -0.15553      -0.14539
    63  H(1)              -0.00047      -0.52115      -0.18596      -0.17384
    64  C(13)              0.00048       0.13588       0.04849       0.04532
    65  H(1)               0.00005       0.05030       0.01795       0.01678
    66  H(1)               0.00006       0.07260       0.02590       0.02422
    67  H(1)               0.00003       0.03747       0.01337       0.01250
    68  N(14)              0.00794       0.64174       0.22899       0.21406
    69  H(1)               0.00054       0.60572       0.21614       0.20205
    70  C(13)              0.00338       0.94886       0.33858       0.31650
    71  C(13)              0.00088       0.24740       0.08828       0.08252
    72  H(1)               0.00014       0.15583       0.05561       0.05198
    73  N(14)              0.12910      10.42795       3.72095       3.47839
    74  C(13)             -0.00186      -0.52228      -0.18636      -0.17421
    75  H(1)               0.00034       0.38067       0.13583       0.12698
 --------------------------------------------------------
       Center         ----  Spin Dipole Couplings  ----
                      3XX-RR        3YY-RR        3ZZ-RR
 --------------------------------------------------------
     1   Atom       -0.990047      2.239781     -1.249735
     2   Atom        0.083883     -0.019386     -0.064497
     3   Atom        0.004648      0.085188     -0.089836
     4   Atom        0.077186     -0.008746     -0.068440
     5   Atom       -0.005274      0.087697     -0.082423
     6   Atom        0.045199     -0.023996     -0.021203
     7   Atom        0.023555      0.011175     -0.034730
     8   Atom       -0.001792     -0.004851      0.006643
     9   Atom        0.010878      0.054127     -0.065005
    10   Atom       -0.003184      0.064522     -0.061337
    11   Atom       -0.014175     -0.001495      0.015670
    12   Atom        0.015727      0.017575     -0.033302
    13   Atom        0.028198     -0.018134     -0.010064
    14   Atom        0.036609     -0.025288     -0.011321
    15   Atom        0.023952      0.012102     -0.036054
    16   Atom       -0.003931     -0.006160      0.010091
    17   Atom        0.010679      0.050553     -0.061232
    18   Atom       -0.002258      0.060374     -0.058116
    19   Atom       -0.010695      0.001753      0.008942
    20   Atom        0.013718      0.016445     -0.030163
    21   Atom        0.028182     -0.010579     -0.017603
    22   Atom        0.033698     -0.006436     -0.027262
    23   Atom        0.012397     -0.005723     -0.006674
    24   Atom       -0.017323      0.026528     -0.009205
    25   Atom       -0.006524      0.013286     -0.006762
    26   Atom        0.039018     -0.001060     -0.037959
    27   Atom        0.011769     -0.005128     -0.006641
    28   Atom       -0.016649      0.023060     -0.006411
    29   Atom       -0.006150      0.012294     -0.006144
    30   Atom       -0.000332      0.003832     -0.003500
    31   Atom       -0.000745      0.003486     -0.002741
    32   Atom        0.001185      0.001205     -0.002390
    33   Atom       -0.000893      0.003756     -0.002863
    34   Atom        0.006531     -0.002731     -0.003800
    35   Atom        0.005346     -0.002606     -0.002740
    36   Atom        0.005063     -0.002400     -0.002663
    37   Atom        0.003163     -0.000840     -0.002323
    38   Atom       -0.002949      0.006636     -0.003686
    39   Atom       -0.002352      0.004806     -0.002455
    40   Atom       -0.002812      0.005976     -0.003164
    41   Atom       -0.001075      0.003515     -0.002440
    42   Atom        0.001699     -0.000630     -0.001070
    43   Atom        0.004163     -0.001219     -0.002944
    44   Atom        0.007312     -0.001877     -0.005435
    45   Atom        0.000833      0.000911     -0.001744
    46   Atom        0.000503      0.000464     -0.000967
    47   Atom        0.006064     -0.002323     -0.003740
    48   Atom        0.004275     -0.001841     -0.002435
    49   Atom        0.005602     -0.002724     -0.002878
    50   Atom        0.003004     -0.000750     -0.002254
    51   Atom        0.000829      0.006338     -0.007166
    52   Atom       -0.001162      0.004190     -0.003027
    53   Atom        0.000358     -0.003347      0.002989
    54   Atom        0.001408      0.000149     -0.001556
    55   Atom       -0.000293      0.001792     -0.001498
    56   Atom       -0.002767      0.006310     -0.003544
    57   Atom       -0.002490      0.004943     -0.002454
    58   Atom       -0.002493      0.005366     -0.002873
    59   Atom       -0.000933      0.003250     -0.002318
    60   Atom        0.003906      0.000000     -0.003907
    61   Atom        0.001376      0.000925     -0.002301
    62   Atom        0.003317     -0.000581     -0.002736
    63   Atom        0.003378     -0.000713     -0.002665
    64   Atom       -0.002846     -0.003923      0.006769
    65   Atom       -0.002287     -0.002388      0.004675
    66   Atom       -0.002179     -0.002270      0.004450
    67   Atom       -0.001171     -0.003139      0.004311
    68   Atom       -0.010500     -0.005320      0.015820
    69   Atom       -0.003647     -0.004674      0.008321
    70   Atom       -0.008048     -0.007606      0.015654
    71   Atom       -0.008205     -0.019707      0.027913
    72   Atom        0.004172     -0.016303      0.012131
    73   Atom       -0.121920     -0.107741      0.229661
    74   Atom       -0.007052     -0.022989      0.030041
    75   Atom        0.004453     -0.017019      0.012566
 --------------------------------------------------------
                        XY            XZ            YZ
 --------------------------------------------------------
     1   Atom       -0.410600      0.069404     -0.152479
     2   Atom        0.148936      0.023185      0.012907
     3   Atom       -0.154245     -0.009756      0.006844
     4   Atom        0.142029     -0.014960     -0.007794
     5   Atom       -0.148533      0.014305     -0.014086
     6   Atom        0.010409     -0.002881     -0.000681
     7   Atom        0.011489      0.002821      0.001362
     8   Atom        0.013595     -0.001569     -0.000759
     9   Atom        0.029537     -0.002791      0.001535
    10   Atom       -0.012910      0.002205      0.008839
    11   Atom       -0.011705      0.000464     -0.000083
    12   Atom       -0.012722     -0.002294      0.005478
    13   Atom       -0.028098      0.004371     -0.001523
    14   Atom        0.012559     -0.001533     -0.000080
    15   Atom        0.011017      0.002806      0.000933
    16   Atom        0.012882     -0.001265     -0.000364
    17   Atom        0.026015      0.002673     -0.001399
    18   Atom       -0.010393     -0.000409     -0.013521
    19   Atom       -0.011051      0.001457      0.001841
    20   Atom       -0.012500     -0.000418     -0.004043
    21   Atom       -0.028241     -0.000089      0.000816
    22   Atom       -0.006768      0.000551     -0.002472
    23   Atom       -0.002845     -0.000046     -0.000047
    24   Atom        0.007005     -0.000454      0.001066
    25   Atom        0.003211      0.000176      0.000600
    26   Atom       -0.005138     -0.002883     -0.001234
    27   Atom       -0.002160     -0.000719      0.000011
    28   Atom        0.006521     -0.000293     -0.001959
    29   Atom        0.003100     -0.000229     -0.001159
    30   Atom        0.005285      0.000011      0.000065
    31   Atom        0.003871      0.000705      0.001419
    32   Atom        0.003570     -0.000007     -0.000002
    33   Atom        0.003757     -0.000553     -0.001178
    34   Atom        0.003051      0.000132      0.000024
    35   Atom        0.001902      0.001401      0.000275
    36   Atom        0.001980     -0.001148     -0.000248
    37   Atom        0.002582      0.000173      0.000090
    38   Atom       -0.003156     -0.000048      0.000209
    39   Atom       -0.002210     -0.000399      0.001700
    40   Atom       -0.001555      0.000127     -0.000946
    41   Atom       -0.003081      0.000207     -0.000226
    42   Atom       -0.004000     -0.001006     -0.003997
    43   Atom       -0.003338      0.000836     -0.000367
    44   Atom       -0.004260      0.000566      0.009831
    45   Atom       -0.003418     -0.001299      0.000760
    46   Atom       -0.001724     -0.000360      0.000656
    47   Atom        0.003084      0.000426     -0.000120
    48   Atom        0.002179     -0.000989     -0.000281
    49   Atom        0.001789      0.001171      0.000194
    50   Atom        0.002536      0.000502      0.000222
    51   Atom        0.005704     -0.003391      0.000612
    52   Atom        0.003792      0.000333      0.000687
    53   Atom        0.001808      0.006490     -0.002046
    54   Atom        0.002080     -0.000791     -0.000222
    55   Atom        0.002072      0.000180     -0.000101
    56   Atom       -0.002885      0.000208     -0.000691
    57   Atom       -0.001782      0.000363     -0.001993
    58   Atom       -0.001684     -0.000070      0.000692
    59   Atom       -0.002813      0.000198     -0.000386
    60   Atom       -0.004932      0.000071     -0.000131
    61   Atom       -0.003260      0.000112     -0.000128
    62   Atom       -0.003814     -0.000969      0.000578
    63   Atom       -0.003711      0.001242     -0.000728
    64   Atom        0.000025      0.003161      0.000153
    65   Atom       -0.000145      0.001352     -0.000952
    66   Atom        0.000265      0.001648      0.001261
    67   Atom       -0.000084      0.003656     -0.000108
    68   Atom       -0.000348     -0.003248      0.000406
    69   Atom       -0.000393     -0.003650      0.001134
    70   Atom       -0.000058      0.003364      0.001060
    71   Atom       -0.000468     -0.022782      0.002771
    72   Atom       -0.003799     -0.024252      0.004480
    73   Atom        0.002129     -0.000127      0.016770
    74   Atom        0.000400      0.023200      0.001036
    75   Atom       -0.001739      0.025074     -0.001903
 --------------------------------------------------------


 ---------------------------------------------------------------------------------
              Anisotropic Spin Dipole Couplings in Principal Axis System
 ---------------------------------------------------------------------------------

       Atom             a.u.   MegaHertz   Gauss  10(-4) cm-1        Axes

              Baa    -1.2679   -21.951    -7.833    -7.322 -0.2189  0.0168  0.9756
     1 Fe(57) Bbb    -1.0304   -17.840    -6.366    -5.951  0.9678  0.1315  0.2148
              Bcc     2.2984    39.791    14.199    13.273 -0.1247  0.9912 -0.0450
 
              Baa    -0.1255    -4.841    -1.728    -1.615 -0.5825  0.8113  0.0497
     2 N(14)  Bbb    -0.0671    -2.586    -0.923    -0.863 -0.0542 -0.0998  0.9935
              Bcc     0.1926     7.428     2.650     2.478  0.8110  0.5761  0.1021
 
              Baa    -0.1150    -4.435    -1.583    -1.479  0.7865  0.6012  0.1414
     3 N(14)  Bbb    -0.0898    -3.462    -1.235    -1.155 -0.0886 -0.1168  0.9892
              Bcc     0.2048     7.898     2.818     2.634 -0.6112  0.7905  0.0386
 
              Baa    -0.1143    -4.409    -1.573    -1.471 -0.5976  0.7996 -0.0590
     4 N(14)  Bbb    -0.0694    -2.676    -0.955    -0.893  0.0176  0.0867  0.9961
              Bcc     0.1837     7.085     2.528     2.363  0.8016  0.5942 -0.0659
 
              Baa    -0.1148    -4.426    -1.579    -1.476  0.8054  0.5838 -0.1020
     5 N(14)  Bbb    -0.0835    -3.220    -1.149    -1.074  0.0408  0.1171  0.9923
              Bcc     0.1982     7.646     2.728     2.550 -0.5913  0.8034 -0.0705
 
              Baa    -0.0255    -3.428    -1.223    -1.143 -0.1429  0.9879  0.0601
     6 C(13)  Bbb    -0.0213    -2.860    -1.021    -0.954  0.0515 -0.0532  0.9973
              Bcc     0.0469     6.288     2.244     2.097  0.9884  0.1456 -0.0433
 
              Baa    -0.0349    -4.681    -1.670    -1.561 -0.0446 -0.0184  0.9988
     7 C(13)  Bbb     0.0043     0.579     0.207     0.193 -0.5119  0.8590 -0.0070
              Bcc     0.0306     4.101     1.463     1.368  0.8579  0.5117  0.0477
 
              Baa    -0.0170    -2.283    -0.815    -0.761 -0.6672  0.7446 -0.0204
     8 C(13)  Bbb     0.0060     0.806     0.288     0.269  0.2549  0.2540  0.9330
              Bcc     0.0110     1.477     0.527     0.493  0.6999  0.6173 -0.3593
 
              Baa    -0.0652    -8.745    -3.121    -2.917  0.0461 -0.0243  0.9986
     9 C(13)  Bbb    -0.0039    -0.529    -0.189    -0.176  0.8907 -0.4517 -0.0521
              Bcc     0.0691     9.274     3.309     3.093  0.4523  0.8918  0.0008
 
              Baa    -0.0621    -8.336    -2.975    -2.781 -0.0537 -0.0750  0.9957
    10 C(13)  Bbb    -0.0053    -0.713    -0.254    -0.238  0.9827  0.1733  0.0660
              Bcc     0.0674     9.049     3.229     3.018 -0.1775  0.9820  0.0644
 
              Baa    -0.0211    -2.838    -1.013    -0.947  0.8592  0.5116 -0.0097
    11 C(13)  Bbb     0.0055     0.734     0.262     0.245 -0.5111  0.8590  0.0302
              Bcc     0.0157     2.104     0.751     0.702  0.0238 -0.0210  0.9995
 
              Baa    -0.0339    -4.550    -1.623    -1.518  0.0201 -0.1009  0.9947
    12 C(13)  Bbb     0.0040     0.537     0.192     0.179  0.7391  0.6715  0.0531
              Bcc     0.0299     4.012     1.432     1.338 -0.6733  0.7341  0.0881
 
              Baa    -0.0314    -4.213    -1.503    -1.405  0.4277  0.9036 -0.0231
    13 C(13)  Bbb    -0.0105    -1.404    -0.501    -0.468 -0.0700  0.0586  0.9958
              Bcc     0.0419     5.617     2.004     1.874  0.9012 -0.4243  0.0883
 
              Baa    -0.0277    -3.723    -1.328    -1.242 -0.1918  0.9813 -0.0131
    14 C(13)  Bbb    -0.0114    -1.525    -0.544    -0.509  0.0271  0.0186  0.9995
              Bcc     0.0391     5.248     1.872     1.750  0.9811  0.1914 -0.0301
 
              Baa    -0.0362    -4.856    -1.733    -1.620 -0.0449 -0.0091  0.9989
    15 C(13)  Bbb     0.0055     0.742     0.265     0.247 -0.5114  0.8592 -0.0152
              Bcc     0.0307     4.114     1.468     1.372  0.8581  0.5116  0.0432
 
              Baa    -0.0180    -2.414    -0.861    -0.805 -0.6765  0.7361 -0.0209
    16 C(13)  Bbb     0.0074     0.990     0.353     0.330  0.6704  0.6273  0.3964
              Bcc     0.0106     1.424     0.508     0.475 -0.3049 -0.2541  0.9179
 
              Baa    -0.0614    -8.237    -2.939    -2.748 -0.0454  0.0230  0.9987
    17 C(13)  Bbb    -0.0020    -0.269    -0.096    -0.090  0.8956 -0.4419  0.0509
              Bcc     0.0634     8.507     3.035     2.837  0.4425  0.8967 -0.0006
 
              Baa    -0.0597    -8.009    -2.858    -2.671  0.0277  0.1142  0.9931
    18 C(13)  Bbb    -0.0038    -0.513    -0.183    -0.171  0.9876  0.1504 -0.0449
              Bcc     0.0635     8.522     3.041     2.843 -0.1545  0.9820 -0.1087
 
              Baa    -0.0173    -2.326    -0.830    -0.776  0.8590  0.5053 -0.0830
    19 C(13)  Bbb     0.0077     1.034     0.369     0.345 -0.4718  0.7180 -0.5118
              Bcc     0.0096     1.293     0.461     0.431 -0.1990  0.4788  0.8551
 
              Baa    -0.0306    -4.102    -1.464    -1.368  0.0363  0.0952  0.9948
    20 C(13)  Bbb     0.0028     0.373     0.133     0.124  0.7480  0.6575 -0.0902
              Bcc     0.0278     3.728     1.330     1.244 -0.6627  0.7474 -0.0474
 
              Baa    -0.0255    -3.423    -1.221    -1.142  0.4637  0.8818 -0.0858
    21 C(13)  Bbb    -0.0175    -2.355    -0.840    -0.785  0.0466  0.0724  0.9963
              Bcc     0.0431     5.778     2.062     1.927  0.8848 -0.4660 -0.0076
 
              Baa    -0.0276    -3.697    -1.319    -1.233  0.0041  0.1176  0.9931
    22 C(13)  Bbb    -0.0073    -0.976    -0.348    -0.325  0.1634  0.9796 -0.1166
              Bcc     0.0348     4.673     1.667     1.559  0.9866 -0.1627  0.0152
 
              Baa    -0.0067    -3.564    -1.272    -1.189  0.0174  0.1005  0.9948
    23 H(1)   Bbb    -0.0062    -3.283    -1.172    -1.095  0.1506  0.9833 -0.1020
              Bcc     0.0128     6.847     2.443     2.284  0.9884 -0.1515 -0.0019
 
              Baa    -0.0185    -2.477    -0.884    -0.826  0.9857 -0.1551  0.0663
    24 C(13)  Bbb    -0.0092    -1.233    -0.440    -0.411 -0.0696 -0.0161  0.9974
              Bcc     0.0276     3.710     1.324     1.237  0.1536  0.9878  0.0267
 
              Baa    -0.0071    -3.764    -1.343    -1.256  0.9493 -0.1416 -0.2808
    25 H(1)   Bbb    -0.0068    -3.605    -1.286    -1.203  0.2730 -0.0725  0.9593
              Bcc     0.0138     7.370     2.630     2.458  0.1561  0.9873  0.0301
 
              Baa    -0.0381    -5.116    -1.825    -1.706  0.0399  0.0388  0.9985
    26 C(13)  Bbb    -0.0016    -0.220    -0.078    -0.073  0.1222  0.9916 -0.0434
              Bcc     0.0398     5.336     1.904     1.780  0.9917 -0.1238 -0.0348
 
              Baa    -0.0067    -3.560    -1.270    -1.188  0.0455  0.0563  0.9974
    27 H(1)   Bbb    -0.0054    -2.879    -1.027    -0.960  0.1221  0.9906 -0.0615
              Bcc     0.0121     6.439     2.298     2.148  0.9915 -0.1246 -0.0382
 
              Baa    -0.0177    -2.374    -0.847    -0.792  0.9874 -0.1581 -0.0018
    28 C(13)  Bbb    -0.0065    -0.877    -0.313    -0.293  0.0120  0.0634  0.9979
              Bcc     0.0242     3.252     1.160     1.085  0.1577  0.9854 -0.0645
 
              Baa    -0.0067    -3.553    -1.268    -1.185  0.9840 -0.1556  0.0872
    29 H(1)   Bbb    -0.0062    -3.316    -1.183    -1.106 -0.0762  0.0750  0.9943
              Bcc     0.0129     6.869     2.451     2.291  0.1612  0.9850 -0.0620
 
              Baa    -0.0039    -0.528    -0.188    -0.176  0.8248 -0.5619  0.0632
    30 C(13)  Bbb    -0.0035    -0.469    -0.168    -0.157 -0.0553  0.0310  0.9980
              Bcc     0.0074     0.997     0.356     0.333  0.5628  0.8266  0.0055
 
              Baa    -0.0031    -1.680    -0.600    -0.560  0.5682 -0.4752  0.6719
    31 H(1)   Bbb    -0.0029    -1.556    -0.555    -0.519 -0.6535  0.2356  0.7193
              Bcc     0.0061     3.236     1.155     1.079  0.5001  0.8477  0.1767
 
              Baa    -0.0024    -1.276    -0.455    -0.425  0.1405 -0.1389  0.9803
    32 H(1)   Bbb    -0.0024    -1.267    -0.452    -0.423  0.6940 -0.6923 -0.1976
              Bcc     0.0048     2.542     0.907     0.848  0.7061  0.7081 -0.0009
 
              Baa    -0.0031    -1.662    -0.593    -0.554 -0.4421  0.3810  0.8120
    33 H(1)   Bbb    -0.0029    -1.560    -0.557    -0.520  0.7575 -0.3262  0.5655
              Bcc     0.0060     3.222     1.150     1.075  0.4804  0.8651 -0.1444
 
              Baa    -0.0038    -0.510    -0.182    -0.170 -0.0383  0.0869  0.9955
    34 C(13)  Bbb    -0.0036    -0.489    -0.174    -0.163 -0.2848  0.9539 -0.0942
              Bcc     0.0074     0.999     0.357     0.333  0.9578  0.2872  0.0118
 
              Baa    -0.0031    -1.631    -0.582    -0.544 -0.2669  0.8630  0.4290
    35 H(1)   Bbb    -0.0030    -1.575    -0.562    -0.526 -0.0455 -0.4559  0.8889
              Bcc     0.0060     3.207     1.144     1.070  0.9627  0.2177  0.1610
 
              Baa    -0.0029    -1.552    -0.554    -0.518 -0.2748  0.8741 -0.4006
    36 H(1)   Bbb    -0.0028    -1.500    -0.535    -0.500  0.0256  0.4232  0.9057
              Bcc     0.0057     3.052     1.089     1.018  0.9612  0.2386 -0.1387
 
              Baa    -0.0023    -1.243    -0.443    -0.414 -0.0170 -0.0307  0.9994
    37 H(1)   Bbb    -0.0021    -1.123    -0.401    -0.375 -0.4405  0.8975  0.0201
              Bcc     0.0044     2.366     0.844     0.789  0.8976  0.4399  0.0288
 
              Baa    -0.0039    -0.523    -0.187    -0.174  0.9554  0.2876 -0.0672
    38 C(13)  Bbb    -0.0037    -0.495    -0.177    -0.165  0.0699  0.0011  0.9976
              Bcc     0.0076     1.018     0.363     0.340 -0.2870  0.9577  0.0190
 
              Baa    -0.0030    -1.607    -0.573    -0.536  0.8663  0.3270 -0.3776
    39 H(1)   Bbb    -0.0028    -1.489    -0.531    -0.497  0.4232 -0.0789  0.9026
              Bcc     0.0058     3.096     1.105     1.033 -0.2653  0.9417  0.2067
 
              Baa    -0.0033    -1.743    -0.622    -0.581  0.1627  0.1276  0.9784
    40 H(1)   Bbb    -0.0031    -1.640    -0.585    -0.547  0.9723  0.1482 -0.1810
              Bcc     0.0063     3.382     1.207     1.128 -0.1681  0.9807 -0.0999
 
              Baa    -0.0027    -1.417    -0.506    -0.473  0.8341  0.4026 -0.3771
    41 H(1)   Bbb    -0.0024    -1.290    -0.460    -0.430  0.3209  0.2019  0.9254
              Bcc     0.0051     2.707     0.966     0.903 -0.4487  0.8928 -0.0392
 
              Baa    -0.0064    -0.864    -0.308    -0.288  0.4131  0.6918  0.5922
    42 C(13)  Bbb     0.0012     0.161     0.057     0.054 -0.6189 -0.2638  0.7399
              Bcc     0.0052     0.704     0.251     0.235 -0.6681  0.6722 -0.3191
 
              Baa    -0.0030    -1.623    -0.579    -0.541 -0.1476 -0.0716  0.9865
    43 H(1)   Bbb    -0.0028    -1.500    -0.535    -0.500  0.4157  0.9005  0.1276
              Bcc     0.0059     3.124     1.115     1.042  0.8974 -0.4289  0.1031
 
              Baa    -0.0141    -1.895    -0.676    -0.632 -0.1488 -0.6500  0.7452
    44 C(13)  Bbb     0.0041     0.550     0.196     0.183  0.6062  0.5354  0.5881
              Bcc     0.0100     1.345     0.480     0.449  0.7813 -0.5393 -0.3143
 
              Baa    -0.0028    -1.472    -0.525    -0.491  0.6906  0.5447  0.4758
    45 H(1)   Bbb    -0.0019    -0.995    -0.355    -0.332 -0.2041 -0.4843  0.8508
              Bcc     0.0046     2.467     0.880     0.823  0.6939 -0.6846 -0.2233
 
              Baa    -0.0014    -0.746    -0.266    -0.249  0.4783  0.6505 -0.5901
    46 H(1)   Bbb    -0.0010    -0.514    -0.184    -0.172  0.5482  0.3038  0.7792
              Bcc     0.0024     1.260     0.450     0.420 -0.6861  0.6961  0.2113
 
              Baa    -0.0039    -0.519    -0.185    -0.173 -0.1600  0.3900  0.9068
    47 C(13)  Bbb    -0.0032    -0.432    -0.154    -0.144 -0.2686  0.8668 -0.4201
              Bcc     0.0071     0.951     0.339     0.317  0.9499  0.3108  0.0339
 
              Baa    -0.0026    -1.384    -0.494    -0.462  0.2649 -0.4476  0.8541
    48 H(1)   Bbb    -0.0025    -1.344    -0.479    -0.448 -0.1970  0.8419  0.5024
              Bcc     0.0051     2.728     0.973     0.910  0.9439  0.3013 -0.1349
 
              Baa    -0.0031    -1.663    -0.593    -0.555 -0.2377  0.8457  0.4778
    49 H(1)   Bbb    -0.0030    -1.606    -0.573    -0.536 -0.0153 -0.4951  0.8687
              Bcc     0.0061     3.269     1.166     1.090  0.9712  0.1992  0.1306
 
              Baa    -0.0023    -1.229    -0.438    -0.410 -0.1188  0.0524  0.9915
    50 H(1)   Bbb    -0.0020    -1.080    -0.385    -0.360 -0.4400  0.8924 -0.0999
              Bcc     0.0043     2.309     0.824     0.770  0.8901  0.4482  0.0830
 
              Baa    -0.0089    -1.196    -0.427    -0.399  0.4215 -0.1932  0.8860
    51 C(13)  Bbb    -0.0011    -0.148    -0.053    -0.049  0.7237 -0.5171 -0.4571
              Bcc     0.0100     1.344     0.480     0.448  0.5464  0.8338 -0.0781
 
              Baa    -0.0031    -1.673    -0.597    -0.558  0.7987 -0.4508  0.3986
    52 H(1)   Bbb    -0.0031    -1.644    -0.587    -0.548 -0.3898  0.1170  0.9134
              Bcc     0.0062     3.317     1.184     1.107  0.4584  0.8849  0.0823
 
              Baa    -0.0070    -0.934    -0.333    -0.312  0.6090 -0.5987 -0.5202
    53 C(13)  Bbb    -0.0013    -0.181    -0.065    -0.060  0.4867  0.8000 -0.3509
              Bcc     0.0083     1.116     0.398     0.372  0.6263 -0.0395  0.7786
 
              Baa    -0.0019    -0.994    -0.355    -0.332  0.4213 -0.3429  0.8396
    54 H(1)   Bbb    -0.0012    -0.649    -0.232    -0.217 -0.4301  0.7395  0.5178
              Bcc     0.0031     1.643     0.586     0.548  0.7985  0.5792 -0.1641
 
              Baa    -0.0017    -0.931    -0.332    -0.310  0.6523 -0.4008 -0.6434
    55 H(1)   Bbb    -0.0013    -0.707    -0.252    -0.236  0.5469 -0.3388  0.7656
              Bcc     0.0031     1.638     0.584     0.546  0.5248  0.8512  0.0018
 
              Baa    -0.0036    -0.484    -0.173    -0.162  0.8903  0.2316 -0.3920
    56 C(13)  Bbb    -0.0036    -0.482    -0.172    -0.161  0.3600  0.1690  0.9175
              Bcc     0.0072     0.966     0.345     0.322 -0.2787  0.9580 -0.0671
 
              Baa    -0.0030    -1.606    -0.573    -0.536  0.5369  0.3163  0.7821
    57 H(1)   Bbb    -0.0028    -1.511    -0.539    -0.504  0.8163  0.0394 -0.5762
              Bcc     0.0058     3.117     1.112     1.040 -0.2131  0.9478 -0.2370
 
              Baa    -0.0030    -1.583    -0.565    -0.528 -0.4592 -0.1653  0.8728
    58 H(1)   Bbb    -0.0028    -1.494    -0.533    -0.498  0.8656  0.1378  0.4814
              Bcc     0.0058     3.077     1.098     1.026 -0.1998  0.9766  0.0798
 
              Baa    -0.0023    -1.253    -0.447    -0.418  0.7257  0.3227 -0.6077
    59 H(1)   Bbb    -0.0023    -1.250    -0.446    -0.417  0.5220  0.3172  0.7918
              Bcc     0.0047     2.503     0.893     0.835 -0.4483  0.8918 -0.0617
 
              Baa    -0.0039    -0.526    -0.188    -0.175  0.0578  0.1061  0.9927
    60 C(13)  Bbb    -0.0033    -0.449    -0.160    -0.150  0.5592  0.8203 -0.1203
              Bcc     0.0073     0.974     0.348     0.325  0.8270 -0.5621  0.0119
 
              Baa    -0.0023    -1.231    -0.439    -0.411  0.0434  0.0833  0.9956
    61 H(1)   Bbb    -0.0021    -1.129    -0.403    -0.377  0.6812  0.7265 -0.0905
              Bcc     0.0044     2.360     0.842     0.787  0.7308 -0.6821  0.0252
 
              Baa    -0.0029    -1.558    -0.556    -0.520  0.5278  0.7748  0.3480
    62 H(1)   Bbb    -0.0029    -1.537    -0.548    -0.513 -0.0785 -0.3634  0.9283
              Bcc     0.0058     3.095     1.104     1.032  0.8457 -0.5173 -0.1310
 
              Baa    -0.0029    -1.554    -0.554    -0.518 -0.3936 -0.3883  0.8332
    63 H(1)   Bbb    -0.0029    -1.549    -0.553    -0.517  0.3527  0.7732  0.5269
              Bcc     0.0058     3.102     1.107     1.035  0.8489 -0.5013  0.1674
 
              Baa    -0.0039    -0.527    -0.188    -0.176  0.1369  0.9891 -0.0546
    64 C(13)  Bbb    -0.0038    -0.508    -0.181    -0.170  0.9482 -0.1468 -0.2817
              Bcc     0.0077     1.036     0.369     0.345  0.2867  0.0132  0.9579
 
              Baa    -0.0026    -1.367    -0.488    -0.456  0.8065 -0.5477 -0.2228
    65 H(1)   Bbb    -0.0025    -1.329    -0.474    -0.443  0.5625  0.8268  0.0037
              Bcc     0.0051     2.696     0.962     0.899  0.1821 -0.1283  0.9749
 
              Baa    -0.0026    -1.375    -0.491    -0.459  0.8997  0.3413 -0.2722
    66 H(1)   Bbb    -0.0025    -1.326    -0.473    -0.442 -0.3744  0.9239 -0.0790
              Bcc     0.0051     2.701     0.964     0.901  0.2246  0.1730  0.9590
 
              Baa    -0.0031    -1.679    -0.599    -0.560  0.1669  0.9837 -0.0675
    67 H(1)   Bbb    -0.0030    -1.598    -0.570    -0.533  0.8787 -0.1795 -0.4424
              Bcc     0.0061     3.277     1.169     1.093  0.4473 -0.0145  0.8943
 
              Baa    -0.0109    -0.421    -0.150    -0.140  0.9914  0.0530  0.1197
    68 N(14)  Bbb    -0.0053    -0.205    -0.073    -0.068 -0.0502  0.9984 -0.0269
              Bcc     0.0162     0.626     0.223     0.209 -0.1209  0.0206  0.9925
 
              Baa    -0.0048    -2.568    -0.916    -0.856  0.4606  0.8861  0.0515
    69 H(1)   Bbb    -0.0046    -2.473    -0.883    -0.825  0.8456 -0.4557  0.2781
              Bcc     0.0094     5.041     1.799     1.681 -0.2699  0.0845  0.9592
 
              Baa    -0.0086    -1.149    -0.410    -0.383  0.9653  0.2179 -0.1436
    70 C(13)  Bbb    -0.0076    -1.021    -0.364    -0.340 -0.2219  0.9750 -0.0123
              Bcc     0.0162     2.170     0.774     0.724  0.1374  0.0438  0.9896
 
              Baa    -0.0204    -2.733    -0.975    -0.912 -0.4911  0.8252 -0.2791
    71 C(13)  Bbb    -0.0187    -2.507    -0.895    -0.836  0.7552  0.5630  0.3357
              Bcc     0.0390     5.240     1.870     1.748 -0.4342  0.0459  0.8997
 
              Baa    -0.0170    -9.069    -3.236    -3.025  0.0703  0.9931 -0.0942
    72 H(1)   Bbb    -0.0164    -8.763    -3.127    -2.923  0.7628  0.0074  0.6466
              Bcc     0.0334    17.832     6.363     5.948 -0.6428  0.1173  0.7570
 
              Baa    -0.1223    -4.715    -1.682    -1.573  0.9881 -0.1539  0.0077
    73 N(14)  Bbb    -0.1082    -4.175    -1.490    -1.392  0.1540  0.9869 -0.0489
              Bcc     0.2305     8.890     3.172     2.965 -0.0001  0.0495  0.9988
 
              Baa    -0.0230    -3.088    -1.102    -1.030  0.0091  0.9997 -0.0235
    74 C(13)  Bbb    -0.0182    -2.443    -0.872    -0.815  0.9012 -0.0184 -0.4330
              Bcc     0.0412     5.531     1.974     1.845  0.4333  0.0172  0.9011
 
              Baa    -0.0172    -9.165    -3.270    -3.057  0.2597  0.9527 -0.1579
    75 H(1)   Bbb    -0.0169    -8.997    -3.210    -3.001  0.7165 -0.2997 -0.6299
              Bcc     0.0340    18.162     6.481     6.058  0.6474 -0.0504  0.7605
 

 ---------------------------------------------------------------------------------

 Unable to Open any file for archive entry.
 1\1\GINC-BGN1014\SP\UAPFD\Gen\C34H34Fe1N6(5)\BEBJONES\21-Sep-2024\0\\#
  apfd/gen scf=maxcycle=999 geom=check\\1mbs_II_Q\\0,5\Fe,0,9.835133493
 8,-10.0610338643,10.0420331112\N,0,10.56842736,-11.6617785964,9.177833
 371\N,0,10.9308831543,-8.8728030875,8.9126358077\N,0,9.040720889,-8.45
 23425781,11.001484028\N,0,8.7604119664,-11.2084090573,11.3202610839\C,
 0,10.3505394296,-12.9635298611,9.501437958\C,0,10.9715065412,-13.83757
 62092,8.5304872015\C,0,11.7132139614,-13.0366037599,7.7187921091\C,0,1
 1.4549974489,-11.6759281608,8.1395331672\C,0,11.6206476805,-9.24610656
 18,7.7962493421\C,0,12.209904087,-8.1038877055,7.1497590248\C,0,11.698
 6028882,-7.0036188855,7.7844165187\C,0,10.9369112985,-7.5106988655,8.9
 10750193\C,0,9.3130281021,-7.1456233542,10.7148500221\C,0,8.6279279078
 ,-6.2618305464,11.6228363878\C,0,7.8917624892,-7.063244128,12.45334257
 17\C,0,8.1404290146,-8.422846233,12.0175400345\C,0,7.7895634077,-10.83
 01214576,12.1954205382\C,0,7.1717367981,-11.9823422194,12.8119054009\C
 ,0,7.7591872441,-13.0740895126,12.2541676498\C,0,8.7098379656,-12.5717
 062809,11.2874039523\C,0,9.4508142342,-13.3950234122,10.4596972561\H,0
 ,9.3126803176,-14.4600718743,10.5682138946\C,0,11.8995482353,-10.56131
 28118,7.4551877619\H,0,12.5182851519,-10.7282282548,6.5865066078\C,0,1
 0.1542708822,-6.7021826775,9.7104799183\H,0,10.2215200388,-5.636325783
 3,9.5545435552\C,0,7.5204102942,-9.5274330938,12.5650909232\H,0,6.7596
 612676,-9.3622420812,13.3120204147\C,0,12.5863040704,-13.4090948435,6.
 570033656\H,0,12.1683532431,-13.0415070214,5.632374734\H,0,12.69040727
 39,-14.4889353616,6.4977527491\H,0,13.5786825125,-12.9752527097,6.6908
 8916\C,0,10.8468098288,-15.3224574057,8.5361520162\H,0,9.8013478332,-1
 5.616756508,8.446709338\H,0,11.2368976988,-15.7396589696,9.4653048793\
 H,0,11.3962588135,-15.7594926,7.7061285672\C,0,13.1321797798,-8.155206
 5914,5.9824947396\H,0,12.5820908617,-8.3243659851,5.0553709357\H,0,13.
 8529184106,-8.9634033628,6.0988649592\H,0,13.6725362272,-7.2148736549,
 5.8953577394\C,0,11.9342930453,-5.6015611118,7.516245999\H,0,11.986219
 7341,-4.9556476162,8.3854671127\C,0,12.0674945606,-5.0678421893,6.3065
 618525\H,0,11.9762580538,-5.6555277756,5.4097963429\H,0,12.2469283256,
 -4.0142492798,6.1708310402\C,0,8.7888522422,-4.7822713331,11.66411037\
 H,0,8.1459144154,-4.3009997608,10.9254315654\H,0,9.8183014496,-4.49872
 19384,11.4506023685\H,0,8.5212738894,-4.405957597,12.6493464463\C,0,7.
 0388815888,-6.7001908955,13.5638237858\H,0,7.0096072901,-7.4123356886,
 14.3805568095\C,0,6.3084000145,-5.5929875211,13.6460476975\H,0,6.26264
 7478,-4.8762925645,12.8449106905\H,0,5.7051990311,-5.3790348891,14.512
 7389006\C,0,6.1054851022,-11.908477545,13.8498842985\H,0,5.2270688219,
 -11.3955506579,13.4583348338\H,0,6.4563084442,-11.3583705374,14.723183
 2564\H,0,5.8070225442,-12.9037893558,14.169233331\C,0,7.5000147348,-14
 .5194614146,12.5093163649\H,0,6.7671905396,-14.6458839996,13.302235957
 3\H,0,8.4171112893,-15.0296363106,12.8048532892\H,0,7.1179882623,-15.0
 040864876,11.6105375226\C,0,13.9863434986,-8.730452927,13.6004060951\H
 ,0,14.9881165322,-9.1022670752,13.3857788525\H,0,13.7977245798,-8.8551
 143788,14.6665123182\H,0,13.9493280275,-7.6723300363,13.3620366116\N,0
 ,12.7933597261,-10.813301928,12.8906045773\H,0,13.310880506,-11.434280
 2537,13.4911026719\C,0,12.971540152,-9.4580712164,12.7973097285\C,0,11
 .8052492469,-11.1578501496,12.0368405173\H,0,11.4518824836,-12.1602440
 416,11.9033449443\N,0,11.3436834186,-10.1036270213,11.4053761112\C,0,1
 2.0617314505,-9.0380966359,11.8697336459\H,0,11.8773494139,-8.04654202
 8,11.5105908333\\Version=ES64L-G16RevC.02\State=5-A\HF=-2907.0102596\S
 2=6.084779\S2-1=0.\S2A=6.000474\RMSD=1.102e-09\Dipole=1.5392497,-0.813
 8254,1.3548109\Quadrupole=-3.0384458,1.9940365,1.0444093,-1.8800433,2.
 3566734,-2.8546133\PG=C01 [X(C34H34Fe1N6)]\\@
 The archive entry for this job was punched.


 Sorry, no quote for you today!
 Job cpu time:       0 days  3 hours 49 minutes 15.9 seconds.
 Elapsed time:       0 days  0 hours  4 minutes  1.2 seconds.
 File lengths (MBytes):  RWF=    408 Int=      0 D2E=      0 Chk=    150 Scr=      1
 Normal termination of Gaussian 16 at Sat Sep 21 01:34:08 2024.
