 Entering Gaussian System, Link 0=g16
 Input=1mlr01.com
 Output=1mlr01.log
 Initial command:
 /sw/chem/gaussian/g16_C02/a100/g16/l1.exe "/local/bebjones_8022141/Gau-77316.inp" -scrdir="/local/bebjones_8022141/"
 Entering Link 1 = /sw/chem/gaussian/g16_C02/a100/g16/l1.exe PID=     77317.
  
 Copyright (c) 1988-2021, Gaussian, Inc.  All Rights Reserved.
  
 This is part of the Gaussian(R) 16 program.  It is based on
 the Gaussian(R) 09 system (copyright 2009, Gaussian, Inc.),
 the Gaussian(R) 03 system (copyright 2003, Gaussian, Inc.),
 the Gaussian(R) 98 system (copyright 1998, Gaussian, Inc.),
 the Gaussian(R) 94 system (copyright 1995, Gaussian, Inc.),
 the Gaussian 92(TM) system (copyright 1992, Gaussian, Inc.),
 the Gaussian 90(TM) system (copyright 1990, Gaussian, Inc.),
 the Gaussian 88(TM) system (copyright 1988, Gaussian, Inc.),
 the Gaussian 86(TM) system (copyright 1986, Carnegie Mellon
 University), and the Gaussian 82(TM) system (copyright 1983,
 Carnegie Mellon University). Gaussian is a federally registered
 trademark of Gaussian, Inc.
  
 This software contains proprietary and confidential information,
 including trade secrets, belonging to Gaussian, Inc.
  
 This software is provided under written license and may be
 used, copied, transmitted, or stored only in accord with that
 written license.
  
 The following legend is applicable only to US Government
 contracts under FAR:
  
                    RESTRICTED RIGHTS LEGEND
  
 Use, reproduction and disclosure by the US Government is
 subject to restrictions as set forth in subparagraphs (a)
 and (c) of the Commercial Computer Software - Restricted
 Rights clause in FAR 52.227-19.
  
 Gaussian, Inc.
 340 Quinnipiac St., Bldg. 40, Wallingford CT 06492
  
  
 ---------------------------------------------------------------
 Warning -- This program may not be used in any manner that
 competes with the business of Gaussian, Inc. or will provide
 assistance to any competitor of Gaussian, Inc.  The licensee
 of this program is prohibited from giving any competitor of
 Gaussian, Inc. access to this program.  By using this program,
 the user acknowledges that Gaussian, Inc. is engaged in the
 business of creating and licensing software in the field of
 computational chemistry and represents and warrants to the
 licensee that it is not a competitor of Gaussian, Inc. and that
 it will not use this program in any manner prohibited above.
 ---------------------------------------------------------------
  

 Cite this work as:
 Gaussian 16, Revision C.02,
 M. J. Frisch, G. W. Trucks, H. B. Schlegel, G. E. Scuseria, 
 M. A. Robb, J. R. Cheeseman, G. Scalmani, V. Barone, 
 G. A. Petersson, H. Nakatsuji, X. Li, M. Caricato, A. V. Marenich, 
 J. Bloino, B. G. Janesko, R. Gomperts, B. Mennucci, H. P. Hratchian, 
 J. V. Ortiz, A. F. Izmaylov, J. L. Sonnenberg, D. Williams-Young, 
 F. Ding, F. Lipparini, F. Egidi, J. Goings, B. Peng, A. Petrone, 
 T. Henderson, D. Ranasinghe, V. G. Zakrzewski, J. Gao, N. Rega, 
 G. Zheng, W. Liang, M. Hada, M. Ehara, K. Toyota, R. Fukuda, 
 J. Hasegawa, M. Ishida, T. Nakajima, Y. Honda, O. Kitao, H. Nakai, 
 T. Vreven, K. Throssell, J. A. Montgomery, Jr., J. E. Peralta, 
 F. Ogliaro, M. J. Bearpark, J. J. Heyd, E. N. Brothers, K. N. Kudin, 
 V. N. Staroverov, T. A. Keith, R. Kobayashi, J. Normand, 
 K. Raghavachari, A. P. Rendell, J. C. Burant, S. S. Iyengar, 
 J. Tomasi, M. Cossi, J. M. Millam, M. Klene, C. Adamo, R. Cammi, 
 J. W. Ochterski, R. L. Martin, K. Morokuma, O. Farkas, 
 J. B. Foresman, and D. J. Fox, Gaussian, Inc., Wallingford CT, 2019.
 
 ******************************************
 Gaussian 16:  ES64L-G16RevC.02  7-Dec-2021
                20-Sep-2024 
 ******************************************
 %mem=16GB
 %CPU=0-71
 SetSPE:  set environment variable "OMP_PROC_BIND" = "true"
 SetSPE:  set environment variable "OMP_PLACES" = "{0},{1},{2},{3},{4},{5},{6},{7},{8},{9},{10},{11},{12},{13},{14},{15},{16},{17},{18},{19},{20},{21},{22},{23},{24},{25},{26},{27},{28},{29},{30},{31},{32},{33},{34},{35},{36},{37},{38},{39},{40},{41},{42},{43},{44},{45},{46},{47},{48},{49},{50},{51},{52},{53},{54},{55},{56},{57},{58},{59},{60},{61},{62},{63},{64},{65},{66},{67},{68},{69},{70},{71}"
 Will use up to   72 processors via shared memory.
 %gpucpu=0,1,2,3=0,1,2,3
 Will use    4 GPUs:
 Thread  CPU   GPU
      0    0     0
      1    1     1
      2    2     2
      3    3     3
      4    4    -1
      5    5    -1
      6    6    -1
      7    7    -1
      8    8    -1
      9    9    -1
     10   10    -1
     11   11    -1
     12   12    -1
     13   13    -1
     14   14    -1
     15   15    -1
     16   16    -1
     17   17    -1
     18   18    -1
     19   19    -1
     20   20    -1
     21   21    -1
     22   22    -1
     23   23    -1
     24   24    -1
     25   25    -1
     26   26    -1
     27   27    -1
     28   28    -1
     29   29    -1
     30   30    -1
     31   31    -1
     32   32    -1
     33   33    -1
     34   34    -1
     35   35    -1
     36   36    -1
     37   37    -1
     38   38    -1
     39   39    -1
     40   40    -1
     41   41    -1
     42   42    -1
     43   43    -1
     44   44    -1
     45   45    -1
     46   46    -1
     47   47    -1
     48   48    -1
     49   49    -1
     50   50    -1
     51   51    -1
     52   52    -1
     53   53    -1
     54   54    -1
     55   55    -1
     56   56    -1
     57   57    -1
     58   58    -1
     59   59    -1
     60   60    -1
     61   61    -1
     62   62    -1
     63   63    -1
     64   64    -1
     65   65    -1
     66   66    -1
     67   67    -1
     68   68    -1
     69   69    -1
     70   70    -1
     71   71    -1
 SetGPE:  set environment variable "OMP_PROC_BIND" = "true"
 SetGPE:  set environment variable "OMP_PLACES" = "{0},{1},{2},{3},{4},{5},{6},{7},{8},{9},{10},{11},{12},{13},{14},{15},{16},{17},{18},{19},{20},{21},{22},{23},{24},{25},{26},{27},{28},{29},{30},{31},{32},{33},{34},{35},{36},{37},{38},{39},{40},{41},{42},{43},{44},{45},{46},{47},{48},{49},{50},{51},{52},{53},{54},{55},{56},{57},{58},{59},{60},{61},{62},{63},{64},{65},{66},{67},{68},{69},{70},{71}"
 %chk=1mlr_II_O.chk
 Properties for Device   0
 Minimum vector length:                              32
 Maximum vector length:                            1024
 Number of SMPs:                                    108
 Maximum number of threads per SMP:                2048
 Number of ASync Engines:                             5
 Memory:                                           9207742464
 Properties for Device   1
 Minimum vector length:                              32
 Maximum vector length:                            1024
 Number of SMPs:                                    108
 Maximum number of threads per SMP:                2048
 Number of ASync Engines:                             5
 Memory:                                           9207742464
 Properties for Device   2
 Minimum vector length:                              32
 Maximum vector length:                            1024
 Number of SMPs:                                    108
 Maximum number of threads per SMP:                2048
 Number of ASync Engines:                             5
 Memory:                                           9207742464
 Properties for Device   3
 Minimum vector length:                              32
 Maximum vector length:                            1024
 Number of SMPs:                                    108
 Maximum number of threads per SMP:                2048
 Number of ASync Engines:                             5
 Memory:                                           9207742464
   8286968217 words of memory will be used on each GPU.
 ------------------------------------------
 # polar def2tzvp apfd int=(grid=ultrafine)
 ------------------------------------------
 1/38=1,172=1/1;
 2/12=2,17=6,18=5,40=1/2;
 3/5=44,7=101,11=2,25=1,30=1,74=-44,75=-5/1,2,3;
 4//1;
 5/5=2,38=5,98=1/2;
 8/6=4,10=90,11=11/1;
 10/6=1,13=10/2;
 6/7=2,8=2,9=2,10=2,28=1/1;
 99/5=1,9=1/99;
 ---------
 1mlr_II_S
 ---------
 Symbolic Z-matrix:
 Charge =  0 Multiplicity = 1
 Fe                    35.17938   4.22847   9.94912 
 N                     37.10225   4.00158   9.43892 
 N                     34.90048   5.57355   8.54392 
 N                     33.4199   4.67945   10.77358 
 N                     35.6759   3.2621    11.7076 
 C                     38.10269   3.30407   10.04264 
 C                     39.31935   3.35322   9.26564 
 C                     39.05177   4.14037   8.19063 
 C                     37.67088   4.55215   8.32191 
 C                     35.78064   5.93399   7.56814 
 C                     35.17072   6.84786   6.63772 
 C                     33.8793   7.02468   7.06127 
 C                     33.73778   6.22418   8.26132 
 C                     32.52209   5.60047   10.30561 
 C                     31.39555   5.73666   11.18885 
 C                     31.62562   4.88022   12.23088 
 C                     32.90464   4.25254   11.96033 
 C                     34.86492   3.03891   12.78077 
 C                     35.47523   2.12809   13.72174 
 C                     36.7168   1.86101   13.23723 
 C                     36.82381   2.58088   11.98942 
 C                     37.97027   2.5956    11.22123 
 H                     38.82732   2.04761   11.58092 
 C                     37.07832   5.46124   7.46845 
 H                     37.68053   5.83524   6.6545 
 C                     32.64892   6.29108   9.11012 
 H                     31.84257   6.95195   8.82972 
 C                     33.56393   3.48429   12.89857 
 H                     33.03534   3.24473   13.80837 
 C                     39.95213   4.54805   7.07547 
 H                     40.91654   4.05284   7.15784 
 H                     40.11926   5.62536   7.093 
 H                     39.51299   4.28879   6.11218 
 C                     40.58949   2.6776    9.65422 
 H                     40.43596   1.60476   9.77212 
 H                     40.95654   3.07221   10.60186 
 H                     41.35664   2.83306   8.89998 
 C                     35.83047   7.40122   5.42343 
 H                     36.47357   6.65485   4.95963 
 H                     36.44548   8.26628   5.67655 
 H                     35.08008   7.71277   4.69988 
 C                     32.81618   7.81347   6.47891 
 H                     31.81778   7.40937   6.60418 
 C                     32.96894   8.96348   5.83039 
 H                     33.92903   9.43609   5.71934 
 H                     32.12705   9.48869   5.41058 
 C                     30.20942   6.60166   10.94267 
 H                     29.93042   6.58612   9.89004 
 H                     30.41889   7.63587   11.21984 
 H                     29.36456   6.25124   11.53187 
 C                     30.80436   4.60631   13.39018 
 H                     30.83     3.5839    13.74998 
 C                     30.04862   5.49597   14.02511 
 H                     30.0248   6.53338   13.74055 
 H                     29.4471   5.22034   14.87544 
 C                     34.82779   1.65501   14.97733 
 H                     33.91692   1.09953   14.75248 
 H                     34.56082   2.49949   15.61264 
 H                     35.49673   1.00444   15.53544 
 C                     37.7906   0.99807   13.80562 
 H                     38.05726   0.20327   13.10847 
 H                     37.46631   0.54176   14.73749 
 H                     38.68637   1.58602   14.00644 
 C                     32.21115   0.69493   6.80927 
 H                     32.63852   0.37002   5.8608 
 H                     31.43061   1.42156   6.60782 
 H                     31.76485  -0.17157   7.29653 
 N                     34.34456   0.61135   8.1162 
 H                     34.54925  -0.35286   7.9111 
 C                     33.25098   1.30766   7.67387 
 C                     35.08812   1.45029   8.87317 
 H                     36.00529   1.175     9.3536 
 N                     34.53148   2.63878   8.93866 
 C                     33.3868   2.5628    8.19419 
 H                     32.74338   3.41255   8.08653 
 
 Stoichiometry    C34H34FeN6
 Framework group  C1[X(C34H34FeN6)]
 Deg. of freedom   219
 Full point group                 C1      NOp   1
 Largest Abelian subgroup         C1      NOp   1
 Largest concise Abelian subgroup C1      NOp   1
                         Standard orientation:                         
 ---------------------------------------------------------------------
 Center     Atomic      Atomic             Coordinates (Angstroms)
 Number     Number       Type             X           Y           Z
 ---------------------------------------------------------------------
      1         26           0        0.150250   -0.115403   -0.208552
      2          7           0        1.128488   -1.838496   -0.496999
      3          7           0       -1.590875   -0.987385   -0.472632
      4          7           0       -0.700922    1.685636   -0.311839
      5          7           0        1.976376    0.809008   -0.497294
      6          6           0        2.460054   -2.091790   -0.618063
      7          6           0        2.716464   -3.508938   -0.729087
      8          6           0        1.500888   -4.116535   -0.720542
      9          6           0        0.519564   -3.060800   -0.593718
     10          6           0       -1.826910   -2.322833   -0.605394
     11          6           0       -3.240436   -2.594085   -0.639841
     12          6           0       -3.868779   -1.383524   -0.505090
     13          6           0       -2.814780   -0.392901   -0.411886
     14          6           0       -2.036478    1.938779   -0.471666
     15          6           0       -2.296700    3.347848   -0.592328
     16          6           0       -1.078289    3.965840   -0.516148
     17          6           0       -0.099081    2.906664   -0.366615
     18          6           0        2.221087    2.149504   -0.546219
     19          6           0        3.638669    2.427439   -0.519496
     20          6           0        4.260446    1.218825   -0.534657
     21          6           0        3.209990    0.227261   -0.528063
     22          6           0        3.451512   -1.130134   -0.590130
     23          1           0        4.477057   -1.459039   -0.655459
     24          6           0       -0.839515   -3.291565   -0.668695
     25          1           0       -1.157723   -4.316057   -0.787893
     26          6           0       -3.029368    0.971108   -0.475160
     27          1           0       -4.051806    1.308106   -0.556541
     28          6           0        1.258266    3.135314   -0.469039
     29          1           0        1.588620    4.160820   -0.530207
     30          6           0        1.172585   -5.565936   -0.829532
     31          1           0        2.078650   -6.166795   -0.840222
     32          1           0        0.620349   -5.765112   -1.748339
     33          1           0        0.557443   -5.885291    0.011660
     34          6           0        4.075027   -4.106658   -0.862338
     35          1           0        4.705395   -3.825042   -0.018664
     36          1           0        4.557213   -3.757114   -1.775454
     37          1           0        4.018182   -5.191492   -0.900447
     38          6           0       -3.850676   -3.949205   -0.724972
     39          1           0       -3.271631   -4.670018   -0.149753
     40          1           0       -3.886622   -4.293864   -1.759651
     41          1           0       -4.865956   -3.926762   -0.334614
     42          6           0       -5.280966   -1.077846   -0.442962
     43          1           0       -5.545097   -0.235068    0.186138
     44          6           0       -6.244884   -1.728446   -1.086388
     45          1           0       -6.037176   -2.539457   -1.762091
     46          1           0       -7.280127   -1.449754   -0.979259
     47          6           0       -3.645607    3.966306   -0.709430
     48          1           0       -4.365059    3.449432   -0.075919
     49          1           0       -4.007032    3.917738   -1.737682
     50          1           0       -3.603555    5.010813   -0.407815
     51          6           0       -0.762116    5.376957   -0.563635
     52          1           0        0.071623    5.690091    0.054642
     53          6           0       -1.401824    6.284493   -1.293663
     54          1           0       -2.203129    6.020273   -1.961383
     55          1           0       -1.123745    7.325145   -1.270008
     56          6           0        4.229220    3.795183   -0.522426
     57          1           0        3.919683    4.347624    0.365149
     58          1           0        3.900632    4.352685   -1.399499
     59          1           0        5.315383    3.746904   -0.534303
     60          6           0        5.716611    0.902051   -0.535557
     61          1           0        5.981333    0.298304    0.332921
     62          1           0        6.309766    1.812786   -0.513247
     63          1           0        5.984607    0.341383   -1.431244
     64          6           0       -1.102127    0.181823    5.222677
     65          1           0       -1.166932   -0.749609    5.784842
     66          1           0       -2.107257    0.548643    5.041111
     67          1           0       -0.568537    0.911008    5.831764
     68          7           0        0.889766   -0.462366    3.850121
     69          1           0        1.487283   -0.670359    4.633297
     70          6           0       -0.408081   -0.031062    3.927608
     71          6           0        1.215808   -0.553192    2.540482
     72          1           0        2.174572   -0.865840    2.178786
     73          7           0        0.201965   -0.204537    1.780742
     74          6           0       -0.816220    0.121615    2.633513
     75          1           0       -1.766602    0.442988    2.257808
 ---------------------------------------------------------------------
 Rotational constants (GHZ):           0.0927844           0.0914121           0.0595880
 Standard basis: def2TZVP (5D, 7F)
 There are  1696 symmetry adapted cartesian basis functions of A   symmetry.
 There are  1489 symmetry adapted basis functions of A   symmetry.
  1489 basis functions,  2414 primitive gaussians,  1696 cartesian basis functions
   153 alpha electrons      153 beta electrons
       nuclear repulsion energy      5551.1404060983 Hartrees.
 NAtoms=   75 NActive=   75 NUniq=   75 SFac= 1.00D+00 NAtFMM=   60 NAOKFM=T Big=T
 Integral buffers will be    131072 words long.
 Raffenetti 2 integral format.
 Two-electron integral symmetry is turned on.
 R6APFD:  NTU= -4 IXU= 1 FactS= 1.050
 Nuclear repulsion after empirical dispersion term =     5551.0078055442 Hartrees.
 One-electron integrals computed using PRISM.
   1 Symmetry operations used in ECPInt.
 ECPInt:  NShTT=  174936 NPrTT=  542361 LenC2=  136866 LenP2D=  280775.
 LDataN:  DoStor=T MaxTD1= 6 Len=  172
 Number of processors reduced to  24 by ecpmxn.
 NBasis=  1489 RedAO= T EigKep=  4.21D-06  NBF=  1489
 NBsUse=  1489 1.00D-06 EigRej= -1.00D+00 NBFU=  1489
 ExpMin= 4.20D-02 ExpMax= 3.01D+05 ExpMxC= 2.91D+03 IAcc=3 IRadAn=         5 AccDes= 0.00D+00
 Harris functional with IExCor= 3731 and IRadAn=       5 diagonalized for initial guess.
 HarFok:  IExCor= 3731 AccDes= 0.00D+00 IRadAn=         5 IDoV= 1 UseB2=F ITyADJ=14
 ICtDFT=  3500011 ScaDFX=  1.000000  1.000000  1.000000  1.000000
 FoFCou: FMM=F IPFlag=           0 FMFlag=      100000 FMFlg1=        2001
         NFxFlg=           0 DoJE=T BraDBF=F KetDBF=T FulRan=T
         wScrn=  0.000000 ICntrl=       500 IOpCl=  0 I1Cent=   200000004 NGrid=           0
         NMat0=    1 NMatS0=      1 NMatT0=    0 NMatD0=    1 NMtDS0=    0 NMtDT0=    0
 Petite list used in FoFCou.
 Requested convergence on RMS density matrix=1.00D-08 within 128 cycles.
 Requested convergence on MAX density matrix=1.00D-06.
 Requested convergence on             energy=1.00D-06.
 No special actions if energy rises.
 EnCoef did     3 forward-backward iterations
 EnCoef did   100 forward-backward iterations
 EnCoef did   100 forward-backward iterations
 EnCoef did   100 forward-backward iterations
 Restarting incremental Fock formation.
 SCF Done:  E(RAPFD) =  -2907.59722737     A.U. after   30 cycles
            NFock= 30  Conv=0.18D-08     -V/T= 2.0035
 DoSCS=F DFT=T ScalE2(SS,OS)=  1.000000  1.000000
 Range of M.O.s used for correlation:     1  1489
 NBasis=  1489 NAE=   153 NBE=   153 NFC=     0 NFV=     0
 NROrb=   1489 NOA=   153 NOB=   153 NVA=  1336 NVB=  1336

 **** Warning!!: The largest alpha MO coefficient is  0.46165916D+02

          Differentiating once with respect to electric field.
                with respect to dipole field.
          Electric field/nuclear overlap derivatives assumed to be zero.
          There are     3 degrees of freedom in the 1st order CPHF.  IDoFFX=0 NUNeed=     3.
      3 vectors produced by pass  0 Test12= 6.81D-12 3.33D-08 XBig12= 1.86D+03 2.63D+01.
 AX will form     3 AO Fock derivatives at one time.
      3 vectors produced by pass  1 Test12= 6.81D-12 3.33D-08 XBig12= 1.15D+03 8.55D+00.
      3 vectors produced by pass  2 Test12= 6.81D-12 3.33D-08 XBig12= 3.16D+02 5.01D+00.
      3 vectors produced by pass  3 Test12= 6.81D-12 3.33D-08 XBig12= 2.13D+02 3.34D+00.
      3 vectors produced by pass  4 Test12= 6.81D-12 3.33D-08 XBig12= 1.35D+02 2.50D+00.
      3 vectors produced by pass  5 Test12= 6.81D-12 3.33D-08 XBig12= 4.52D+01 1.90D+00.
      3 vectors produced by pass  6 Test12= 6.81D-12 3.33D-08 XBig12= 4.25D+01 2.06D+00.
      3 vectors produced by pass  7 Test12= 6.81D-12 3.33D-08 XBig12= 1.72D+01 1.71D+00.
      3 vectors produced by pass  8 Test12= 6.81D-12 3.33D-08 XBig12= 1.07D+01 1.07D+00.
      3 vectors produced by pass  9 Test12= 6.81D-12 3.33D-08 XBig12= 8.86D+00 6.22D-01.
      3 vectors produced by pass 10 Test12= 6.81D-12 3.33D-08 XBig12= 4.51D+00 4.58D-01.
      3 vectors produced by pass 11 Test12= 6.81D-12 3.33D-08 XBig12= 1.95D+00 2.37D-01.
      3 vectors produced by pass 12 Test12= 6.81D-12 3.33D-08 XBig12= 8.24D-01 1.38D-01.
      3 vectors produced by pass 13 Test12= 6.81D-12 3.33D-08 XBig12= 2.29D-01 7.12D-02.
      3 vectors produced by pass 14 Test12= 6.81D-12 3.33D-08 XBig12= 8.47D-02 6.28D-02.
      3 vectors produced by pass 15 Test12= 6.81D-12 3.33D-08 XBig12= 3.38D-02 5.10D-02.
      3 vectors produced by pass 16 Test12= 6.81D-12 3.33D-08 XBig12= 1.06D-02 1.86D-02.
      3 vectors produced by pass 17 Test12= 6.81D-12 3.33D-08 XBig12= 3.15D-03 1.04D-02.
      3 vectors produced by pass 18 Test12= 6.81D-12 3.33D-08 XBig12= 7.94D-04 4.89D-03.
      3 vectors produced by pass 19 Test12= 6.81D-12 3.33D-08 XBig12= 1.79D-04 2.75D-03.
      3 vectors produced by pass 20 Test12= 6.81D-12 3.33D-08 XBig12= 4.22D-05 1.86D-03.
      3 vectors produced by pass 21 Test12= 6.81D-12 3.33D-08 XBig12= 6.94D-06 8.04D-04.
      3 vectors produced by pass 22 Test12= 6.81D-12 3.33D-08 XBig12= 1.70D-06 3.97D-04.
      3 vectors produced by pass 23 Test12= 6.81D-12 3.33D-08 XBig12= 3.49D-07 1.39D-04.
      3 vectors produced by pass 24 Test12= 6.81D-12 3.33D-08 XBig12= 5.28D-08 4.02D-05.
      3 vectors produced by pass 25 Test12= 6.81D-12 3.33D-08 XBig12= 7.05D-09 1.46D-05.
      3 vectors produced by pass 26 Test12= 6.81D-12 3.33D-08 XBig12= 1.57D-09 6.68D-06.
      3 vectors produced by pass 27 Test12= 6.81D-12 3.33D-08 XBig12= 2.50D-10 3.61D-06.
      3 vectors produced by pass 28 Test12= 6.81D-12 3.33D-08 XBig12= 3.81D-11 1.82D-06.
      3 vectors produced by pass 29 Test12= 6.81D-12 3.33D-08 XBig12= 8.00D-12 8.19D-07.
      3 vectors produced by pass 30 Test12= 6.81D-12 3.33D-08 XBig12= 1.15D-12 3.20D-07.
      2 vectors produced by pass 31 Test12= 6.81D-12 3.33D-08 XBig12= 1.43D-13 9.95D-08.
 InvSVY:  IOpt=1 It=  1 EMax= 2.84D-14
 Solved reduced A of dimension    95 with     3 vectors.
 Isotropic polarizability for W=    0.000000      572.35 Bohr**3.
 End of Minotr F.D. properties file   721 does not exist.
 End of Minotr F.D. properties file   722 does not exist.
 End of Minotr F.D. properties file   788 does not exist.

 **********************************************************************

            Population analysis using the SCF Density.

 **********************************************************************

 Orbital symmetries:
       Occupied  (A) (A) (A) (A) (A) (A) (A) (A) (A) (A) (A) (A)
                 (A) (A) (A) (A) (A) (A) (A) (A) (A) (A) (A) (A)
                 (A) (A) (A) (A) (A) (A) (A) (A) (A) (A) (A) (A)
                 (A) (A) (A) (A) (A) (A) (A) (A) (A) (A) (A) (A)
                 (A) (A) (A) (A) (A) (A) (A) (A) (A) (A) (A) (A)
                 (A) (A) (A) (A) (A) (A) (A) (A) (A) (A) (A) (A)
                 (A) (A) (A) (A) (A) (A) (A) (A) (A) (A) (A) (A)
                 (A) (A) (A) (A) (A) (A) (A) (A) (A) (A) (A) (A)
                 (A) (A) (A) (A) (A) (A) (A) (A) (A) (A) (A) (A)
                 (A) (A) (A) (A) (A) (A) (A) (A) (A) (A) (A) (A)
                 (A) (A) (A) (A) (A) (A) (A) (A) (A) (A) (A) (A)
                 (A) (A) (A) (A) (A) (A) (A) (A) (A) (A) (A) (A)
                 (A) (A) (A) (A) (A) (A) (A) (A) (A)
       Virtual   (A) (A) (A) (A) (A) (A) (A) (A) (A) (A) (A) (A)
                 (A) (A) (A) (A) (A) (A) (A) (A) (A) (A) (A) (A)
                 (A) (A) (A) (A) (A) (A) (A) (A) (A) (A) (A) (A)
                 (A) (A) (A) (A) (A) (A) (A) (A) (A) (A) (A) (A)
                 (A) (A) (A) (A) (A) (A) (A) (A) (A) (A) (A) (A)
                 (A) (A) (A) (A) (A) (A) (A) (A) (A) (A) (A) (A)
                 (A) (A) (A) (A) (A) (A) (A) (A) (A) (A) (A) (A)
                 (A) (A) (A) (A) (A) (A) (A) (A) (A) (A) (A) (A)
                 (A) (A) (A) (A) (A) (A) (A) (A) (A) (A) (A) (A)
                 (A) (A) (A) (A) (A) (A) (A) (A) (A) (A) (A) (A)
                 (A) (A) (A) (A) (A) (A) (A) (A) (A) (A) (A) (A)
                 (A) (A) (A) (A) (A) (A) (A) (A) (A) (A) (A) (A)
                 (A) (A) (A) (A) (A) (A) (A) (A) (A) (A) (A) (A)
                 (A) (A) (A) (A) (A) (A) (A) (A) (A) (A) (A) (A)
                 (A) (A) (A) (A) (A) (A) (A) (A) (A) (A) (A) (A)
                 (A) (A) (A) (A) (A) (A) (A) (A) (A) (A) (A) (A)
                 (A) (A) (A) (A) (A) (A) (A) (A) (A) (A) (A) (A)
                 (A) (A) (A) (A) (A) (A) (A) (A) (A) (A) (A) (A)
                 (A) (A) (A) (A) (A) (A) (A) (A) (A) (A) (A) (A)
                 (A) (A) (A) (A) (A) (A) (A) (A) (A) (A) (A) (A)
                 (A) (A) (A) (A) (A) (A) (A) (A) (A) (A) (A) (A)
                 (A) (A) (A) (A) (A) (A) (A) (A) (A) (A) (A) (A)
                 (A) (A) (A) (A) (A) (A) (A) (A) (A) (A) (A) (A)
                 (A) (A) (A) (A) (A) (A) (A) (A) (A) (A) (A) (A)
                 (A) (A) (A) (A) (A) (A) (A) (A) (A) (A) (A) (A)
                 (A) (A) (A) (A) (A) (A) (A) (A) (A) (A) (A) (A)
                 (A) (A) (A) (A) (A) (A) (A) (A) (A) (A) (A) (A)
                 (A) (A) (A) (A) (A) (A) (A) (A) (A) (A) (A) (A)
                 (A) (A) (A) (A) (A) (A) (A) (A) (A) (A) (A) (A)
                 (A) (A) (A) (A) (A) (A) (A) (A) (A) (A) (A) (A)
                 (A) (A) (A) (A) (A) (A) (A) (A) (A) (A) (A) (A)
                 (A) (A) (A) (A) (A) (A) (A) (A) (A) (A) (A) (A)
                 (A) (A) (A) (A) (A) (A) (A) (A) (A) (A) (A) (A)
                 (A) (A) (A) (A) (A) (A) (A) (A) (A) (A) (A) (A)
                 (A) (A) (A) (A) (A) (A) (A) (A) (A) (A) (A) (A)
                 (A) (A) (A) (A) (A) (A) (A) (A) (A) (A) (A) (A)
                 (A) (A) (A) (A) (A) (A) (A) (A) (A) (A) (A) (A)
                 (A) (A) (A) (A) (A) (A) (A) (A) (A) (A) (A) (A)
                 (A) (A) (A) (A) (A) (A) (A) (A) (A) (A) (A) (A)
                 (A) (A) (A) (A) (A) (A) (A) (A) (A) (A) (A) (A)
                 (A) (A) (A) (A) (A) (A) (A) (A) (A) (A) (A) (A)
                 (A) (A) (A) (A) (A) (A) (A) (A) (A) (A) (A) (A)
                 (A) (A) (A) (A) (A) (A) (A) (A) (A) (A) (A) (A)
                 (A) (A) (A) (A) (A) (A) (A) (A) (A) (A) (A) (A)
                 (A) (A) (A) (A) (A) (A) (A) (A) (A) (A) (A) (A)
                 (A) (A) (A) (A) (A) (A) (A) (A) (A) (A) (A) (A)
                 (A) (A) (A) (A) (A) (A) (A) (A) (A) (A) (A) (A)
                 (A) (A) (A) (A) (A) (A) (A) (A) (A) (A) (A) (A)
                 (A) (A) (A) (A) (A) (A) (A) (A) (A) (A) (A) (A)
                 (A) (A) (A) (A) (A) (A) (A) (A) (A) (A) (A) (A)
                 (A) (A) (A) (A) (A) (A) (A) (A) (A) (A) (A) (A)
                 (A) (A) (A) (A) (A) (A) (A) (A) (A) (A) (A) (A)
                 (A) (A) (A) (A) (A) (A) (A) (A) (A) (A) (A) (A)
                 (A) (A) (A) (A) (A) (A) (A) (A) (A) (A) (A) (A)
                 (A) (A) (A) (A) (A) (A) (A) (A) (A) (A) (A) (A)
                 (A) (A) (A) (A) (A) (A) (A) (A) (A) (A) (A) (A)
                 (A) (A) (A) (A) (A) (A) (A) (A) (A) (A) (A) (A)
                 (A) (A) (A) (A) (A) (A) (A) (A) (A) (A) (A) (A)
                 (A) (A) (A) (A) (A) (A) (A) (A) (A) (A) (A) (A)
                 (A) (A) (A) (A) (A) (A) (A) (A) (A) (A) (A) (A)
                 (A) (A) (A) (A) (A) (A) (A) (A) (A) (A) (A) (A)
                 (A) (A) (A) (A) (A) (A) (A) (A) (A) (A) (A) (A)
                 (A) (A) (A) (A) (A) (A) (A) (A) (A) (A) (A) (A)
                 (A) (A) (A) (A) (A) (A) (A) (A) (A) (A) (A) (A)
                 (A) (A) (A) (A) (A) (A) (A) (A) (A) (A) (A) (A)
                 (A) (A) (A) (A) (A) (A) (A) (A) (A) (A) (A) (A)
                 (A) (A) (A) (A) (A) (A) (A) (A) (A) (A) (A) (A)
                 (A) (A) (A) (A) (A) (A) (A) (A) (A) (A) (A) (A)
                 (A) (A) (A) (A) (A) (A) (A) (A) (A) (A) (A) (A)
                 (A) (A) (A) (A) (A) (A) (A) (A) (A) (A) (A) (A)
                 (A) (A) (A) (A) (A) (A) (A) (A) (A) (A) (A) (A)
                 (A) (A) (A) (A) (A) (A) (A) (A) (A) (A) (A) (A)
                 (A) (A) (A) (A) (A) (A) (A) (A) (A) (A) (A) (A)
                 (A) (A) (A) (A) (A) (A) (A) (A) (A) (A) (A) (A)
                 (A) (A) (A) (A) (A) (A) (A) (A) (A) (A) (A) (A)
                 (A) (A) (A) (A) (A) (A) (A) (A) (A) (A) (A) (A)
                 (A) (A) (A) (A) (A) (A) (A) (A) (A) (A) (A) (A)
                 (A) (A) (A) (A) (A) (A) (A) (A) (A) (A) (A) (A)
                 (A) (A) (A) (A) (A) (A) (A) (A) (A) (A) (A) (A)
                 (A) (A) (A) (A) (A) (A) (A) (A) (A) (A) (A) (A)
                 (A) (A) (A) (A) (A) (A) (A) (A) (A) (A) (A) (A)
                 (A) (A) (A) (A) (A) (A) (A) (A) (A) (A) (A) (A)
                 (A) (A) (A) (A) (A) (A) (A) (A) (A) (A) (A) (A)
                 (A) (A) (A) (A) (A) (A) (A) (A) (A) (A) (A) (A)
                 (A) (A) (A) (A) (A) (A) (A) (A) (A) (A) (A) (A)
                 (A) (A) (A) (A) (A) (A) (A) (A) (A) (A) (A) (A)
                 (A) (A) (A) (A) (A) (A) (A) (A) (A) (A) (A) (A)
                 (A) (A) (A) (A) (A) (A) (A) (A) (A) (A) (A) (A)
                 (A) (A) (A) (A) (A) (A) (A) (A) (A) (A) (A) (A)
                 (A) (A) (A) (A) (A) (A) (A) (A) (A) (A) (A) (A)
                 (A) (A) (A) (A) (A) (A) (A) (A) (A) (A) (A) (A)
                 (A) (A) (A) (A) (A) (A) (A) (A) (A) (A) (A) (A)
                 (A) (A) (A) (A) (A) (A) (A) (A) (A) (A) (A) (A)
                 (A) (A) (A) (A) (A) (A) (A) (A) (A) (A) (A) (A)
                 (A) (A) (A) (A) (A) (A) (A) (A) (A) (A) (A) (A)
                 (A) (A) (A) (A) (A) (A) (A) (A) (A) (A) (A) (A)
                 (A) (A) (A) (A) (A) (A) (A) (A) (A) (A) (A) (A)
                 (A) (A) (A) (A) (A) (A) (A) (A) (A) (A) (A) (A)
                 (A) (A) (A) (A) (A) (A) (A) (A) (A) (A) (A) (A)
                 (A) (A) (A) (A) (A) (A) (A) (A) (A) (A) (A) (A)
                 (A) (A) (A) (A) (A) (A) (A) (A) (A) (A) (A) (A)
                 (A) (A) (A) (A) (A) (A) (A) (A) (A) (A) (A) (A)
                 (A) (A) (A) (A) (A) (A) (A) (A) (A) (A) (A) (A)
                 (A) (A) (A) (A) (A) (A) (A) (A) (A) (A) (A) (A)
                 (A) (A) (A) (A) (A) (A) (A) (A) (A) (A) (A) (A)
                 (A) (A) (A) (A) (A) (A) (A) (A) (A) (A) (A) (A)
                 (A) (A) (A) (A) (A) (A) (A) (A) (A) (A) (A) (A)
                 (A) (A) (A) (A) (A) (A) (A) (A) (A) (A) (A) (A)
                 (A) (A) (A) (A) (A) (A) (A) (A) (A) (A) (A) (A)
                 (A) (A) (A) (A) (A) (A) (A) (A) (A) (A) (A) (A)
                 (A) (A) (A) (A) (A) (A) (A) (A) (A) (A) (A) (A)
                 (A) (A) (A) (A)
 The electronic state is 1-A.
 Alpha  occ. eigenvalues -- -256.18245 -30.03161 -25.87348 -25.86935 -25.86887
 Alpha  occ. eigenvalues --  -14.42487 -14.37566 -14.33847 -14.33841 -14.33670
 Alpha  occ. eigenvalues --  -14.33383 -10.26322 -10.24456 -10.21625 -10.21619
 Alpha  occ. eigenvalues --  -10.21151 -10.21094 -10.21039 -10.20992 -10.20986
 Alpha  occ. eigenvalues --  -10.20926 -10.20909 -10.20743 -10.19676 -10.19569
 Alpha  occ. eigenvalues --  -10.19157 -10.18998 -10.18835 -10.18809 -10.18778
 Alpha  occ. eigenvalues --  -10.18730 -10.18710 -10.18694 -10.18688 -10.18663
 Alpha  occ. eigenvalues --  -10.18642 -10.18623 -10.18527 -10.18524 -10.18452
 Alpha  occ. eigenvalues --  -10.18426 -10.18329 -10.18316 -10.18284 -10.18172
 Alpha  occ. eigenvalues --   -3.40968  -2.17739  -2.16794  -2.16709  -1.06029
 Alpha  occ. eigenvalues --   -0.96964  -0.96020  -0.95951  -0.94972  -0.91648
 Alpha  occ. eigenvalues --   -0.82353  -0.81953  -0.81634  -0.80948  -0.80819
 Alpha  occ. eigenvalues --   -0.80502  -0.79686  -0.79611  -0.76826  -0.75772
 Alpha  occ. eigenvalues --   -0.74397  -0.74022  -0.73254  -0.72458  -0.71044
 Alpha  occ. eigenvalues --   -0.70205  -0.68376  -0.68031  -0.67891  -0.65284
 Alpha  occ. eigenvalues --   -0.64204  -0.64131  -0.62015  -0.60715  -0.60090
 Alpha  occ. eigenvalues --   -0.57952  -0.56677  -0.56503  -0.54550  -0.53693
 Alpha  occ. eigenvalues --   -0.53411  -0.52665  -0.51163  -0.51066  -0.50581
 Alpha  occ. eigenvalues --   -0.48774  -0.48415  -0.48159  -0.47876  -0.47309
 Alpha  occ. eigenvalues --   -0.45115  -0.44836  -0.44649  -0.44638  -0.44088
 Alpha  occ. eigenvalues --   -0.43909  -0.43774  -0.43569  -0.43460  -0.43127
 Alpha  occ. eigenvalues --   -0.43107  -0.43060  -0.42721  -0.42433  -0.42244
 Alpha  occ. eigenvalues --   -0.41749  -0.41548  -0.41467  -0.40454  -0.40283
 Alpha  occ. eigenvalues --   -0.40221  -0.39866  -0.39581  -0.39215  -0.39150
 Alpha  occ. eigenvalues --   -0.38671  -0.38367  -0.37998  -0.37699  -0.37164
 Alpha  occ. eigenvalues --   -0.37095  -0.36629  -0.36153  -0.36002  -0.35334
 Alpha  occ. eigenvalues --   -0.34543  -0.34441  -0.34192  -0.33761  -0.32648
 Alpha  occ. eigenvalues --   -0.31885  -0.31239  -0.30623  -0.29838  -0.29770
 Alpha  occ. eigenvalues --   -0.29214  -0.26816  -0.26691  -0.24970  -0.24327
 Alpha  occ. eigenvalues --   -0.23454  -0.23155  -0.22244  -0.19860  -0.18936
 Alpha  occ. eigenvalues --   -0.18458  -0.18189  -0.17893
 Alpha virt. eigenvalues --   -0.06728  -0.06540  -0.02048  -0.01719   0.00574
 Alpha virt. eigenvalues --    0.00762   0.02139   0.02324   0.03906   0.04221
 Alpha virt. eigenvalues --    0.04469   0.04986   0.05288   0.05639   0.06070
 Alpha virt. eigenvalues --    0.06168   0.07063   0.07328   0.07826   0.07949
 Alpha virt. eigenvalues --    0.08350   0.08766   0.09366   0.09481   0.09608
 Alpha virt. eigenvalues --    0.09951   0.10617   0.10961   0.11195   0.11383
 Alpha virt. eigenvalues --    0.11639   0.11793   0.12013   0.12109   0.12342
 Alpha virt. eigenvalues --    0.12566   0.12809   0.13133   0.13347   0.13437
 Alpha virt. eigenvalues --    0.13805   0.14003   0.14241   0.14359   0.14579
 Alpha virt. eigenvalues --    0.14922   0.15173   0.15534   0.15669   0.15784
 Alpha virt. eigenvalues --    0.15911   0.16079   0.16162   0.16529   0.16990
 Alpha virt. eigenvalues --    0.17052   0.17155   0.17501   0.17818   0.18073
 Alpha virt. eigenvalues --    0.18497   0.18551   0.19241   0.19516   0.19848
 Alpha virt. eigenvalues --    0.19946   0.19976   0.20276   0.20602   0.20847
 Alpha virt. eigenvalues --    0.21130   0.21371   0.22002   0.22080   0.22435
 Alpha virt. eigenvalues --    0.22648   0.22786   0.23236   0.23641   0.23810
 Alpha virt. eigenvalues --    0.24141   0.24502   0.25091   0.25333   0.25795
 Alpha virt. eigenvalues --    0.26113   0.26305   0.26466   0.26730   0.27014
 Alpha virt. eigenvalues --    0.27163   0.27207   0.27469   0.27568   0.27971
 Alpha virt. eigenvalues --    0.28744   0.28872   0.28883   0.29384   0.29570
 Alpha virt. eigenvalues --    0.29723   0.29853   0.30147   0.30399   0.30749
 Alpha virt. eigenvalues --    0.31044   0.31249   0.31608   0.31966   0.32077
 Alpha virt. eigenvalues --    0.32440   0.32627   0.33000   0.33427   0.33718
 Alpha virt. eigenvalues --    0.33861   0.34015   0.34203   0.34382   0.34862
 Alpha virt. eigenvalues --    0.35681   0.35744   0.36007   0.36101   0.36455
 Alpha virt. eigenvalues --    0.36797   0.37093   0.37211   0.37583   0.37624
 Alpha virt. eigenvalues --    0.38161   0.38320   0.38542   0.38997   0.39226
 Alpha virt. eigenvalues --    0.39402   0.39741   0.39840   0.40137   0.40341
 Alpha virt. eigenvalues --    0.40610   0.40809   0.40912   0.41038   0.41171
 Alpha virt. eigenvalues --    0.41499   0.41907   0.41978   0.42308   0.42483
 Alpha virt. eigenvalues --    0.42627   0.42843   0.43126   0.43195   0.43554
 Alpha virt. eigenvalues --    0.43756   0.43907   0.44193   0.44348   0.44481
 Alpha virt. eigenvalues --    0.44984   0.45077   0.45180   0.45483   0.46037
 Alpha virt. eigenvalues --    0.46166   0.46297   0.46473   0.46776   0.46974
 Alpha virt. eigenvalues --    0.47208   0.47459   0.47742   0.47905   0.48082
 Alpha virt. eigenvalues --    0.48285   0.48418   0.48627   0.48889   0.48967
 Alpha virt. eigenvalues --    0.49038   0.49374   0.49530   0.49821   0.50061
 Alpha virt. eigenvalues --    0.50330   0.50472   0.51007   0.51184   0.51340
 Alpha virt. eigenvalues --    0.51510   0.51547   0.52058   0.52195   0.52301
 Alpha virt. eigenvalues --    0.52658   0.52814   0.53055   0.53309   0.53465
 Alpha virt. eigenvalues --    0.53915   0.54040   0.54142   0.54615   0.54732
 Alpha virt. eigenvalues --    0.55002   0.55371   0.55622   0.55890   0.56263
 Alpha virt. eigenvalues --    0.56481   0.57017   0.57216   0.57564   0.57849
 Alpha virt. eigenvalues --    0.57995   0.58449   0.58608   0.58951   0.58980
 Alpha virt. eigenvalues --    0.59575   0.59912   0.60279   0.60327   0.60875
 Alpha virt. eigenvalues --    0.61179   0.61481   0.62034   0.62490   0.62618
 Alpha virt. eigenvalues --    0.62788   0.63056   0.63624   0.63966   0.64193
 Alpha virt. eigenvalues --    0.64701   0.64884   0.65072   0.65259   0.65613
 Alpha virt. eigenvalues --    0.66135   0.66260   0.66666   0.67169   0.67401
 Alpha virt. eigenvalues --    0.67534   0.67860   0.68433   0.68903   0.69250
 Alpha virt. eigenvalues --    0.69366   0.69948   0.70150   0.70389   0.70866
 Alpha virt. eigenvalues --    0.71085   0.71117   0.71740   0.71773   0.72238
 Alpha virt. eigenvalues --    0.72395   0.72909   0.73251   0.73436   0.73715
 Alpha virt. eigenvalues --    0.73990   0.74287   0.74474   0.74607   0.74824
 Alpha virt. eigenvalues --    0.75594   0.75787   0.76199   0.76680   0.76803
 Alpha virt. eigenvalues --    0.77002   0.77552   0.77717   0.78307   0.78628
 Alpha virt. eigenvalues --    0.78850   0.79336   0.79652   0.79898   0.80297
 Alpha virt. eigenvalues --    0.80715   0.81078   0.81554   0.81893   0.82173
 Alpha virt. eigenvalues --    0.82717   0.82811   0.83432   0.83791   0.84061
 Alpha virt. eigenvalues --    0.84485   0.84882   0.84912   0.85574   0.86100
 Alpha virt. eigenvalues --    0.86405   0.86783   0.87455   0.87818   0.87892
 Alpha virt. eigenvalues --    0.88434   0.88600   0.89273   0.89562   0.89742
 Alpha virt. eigenvalues --    0.90323   0.90892   0.91001   0.91588   0.91863
 Alpha virt. eigenvalues --    0.92115   0.92512   0.93231   0.93317   0.94074
 Alpha virt. eigenvalues --    0.94254   0.94301   0.94879   0.95249   0.95727
 Alpha virt. eigenvalues --    0.96204   0.96475   0.96965   0.97277   0.97951
 Alpha virt. eigenvalues --    0.98121   0.98622   0.98738   0.98856   0.99500
 Alpha virt. eigenvalues --    0.99816   1.00201   1.00216   1.00678   1.01143
 Alpha virt. eigenvalues --    1.01303   1.01570   1.01987   1.02305   1.02591
 Alpha virt. eigenvalues --    1.02894   1.03195   1.03434   1.03749   1.04229
 Alpha virt. eigenvalues --    1.04297   1.04568   1.04935   1.05411   1.05503
 Alpha virt. eigenvalues --    1.05650   1.06302   1.06588   1.07175   1.07780
 Alpha virt. eigenvalues --    1.08338   1.08676   1.08969   1.09561   1.10176
 Alpha virt. eigenvalues --    1.10353   1.11069   1.11188   1.11595   1.12009
 Alpha virt. eigenvalues --    1.12590   1.13157   1.13302   1.13992   1.14101
 Alpha virt. eigenvalues --    1.14259   1.14711   1.15544   1.15839   1.16395
 Alpha virt. eigenvalues --    1.16989   1.17164   1.17561   1.17838   1.18335
 Alpha virt. eigenvalues --    1.18621   1.19375   1.19643   1.19936   1.20093
 Alpha virt. eigenvalues --    1.20658   1.21113   1.21724   1.22142   1.22295
 Alpha virt. eigenvalues --    1.22401   1.23285   1.23961   1.24601   1.24862
 Alpha virt. eigenvalues --    1.25765   1.25959   1.26115   1.26934   1.27302
 Alpha virt. eigenvalues --    1.27551   1.27642   1.28116   1.28454   1.28538
 Alpha virt. eigenvalues --    1.28879   1.29582   1.29672   1.29931   1.30205
 Alpha virt. eigenvalues --    1.30576   1.31191   1.31879   1.31945   1.32346
 Alpha virt. eigenvalues --    1.32761   1.33975   1.34310   1.34914   1.36091
 Alpha virt. eigenvalues --    1.36588   1.36680   1.37411   1.38118   1.38695
 Alpha virt. eigenvalues --    1.39113   1.39470   1.39714   1.40610   1.41214
 Alpha virt. eigenvalues --    1.41586   1.42406   1.42826   1.43000   1.43775
 Alpha virt. eigenvalues --    1.44773   1.45228   1.45422   1.46415   1.46500
 Alpha virt. eigenvalues --    1.46656   1.46922   1.47467   1.47549   1.48623
 Alpha virt. eigenvalues --    1.48804   1.49219   1.49375   1.49407   1.49895
 Alpha virt. eigenvalues --    1.50605   1.50637   1.50878   1.51185   1.51344
 Alpha virt. eigenvalues --    1.51624   1.51991   1.52316   1.52776   1.52797
 Alpha virt. eigenvalues --    1.52998   1.53150   1.53566   1.53985   1.54186
 Alpha virt. eigenvalues --    1.54357   1.54451   1.55072   1.55274   1.55505
 Alpha virt. eigenvalues --    1.55724   1.55815   1.56234   1.56427   1.56489
 Alpha virt. eigenvalues --    1.56748   1.57238   1.57629   1.57805   1.58148
 Alpha virt. eigenvalues --    1.58365   1.58563   1.58954   1.59280   1.59327
 Alpha virt. eigenvalues --    1.59795   1.60153   1.60653   1.60959   1.61180
 Alpha virt. eigenvalues --    1.61502   1.61802   1.62132   1.62468   1.62830
 Alpha virt. eigenvalues --    1.63118   1.63231   1.63741   1.64031   1.64246
 Alpha virt. eigenvalues --    1.64464   1.64856   1.65450   1.65750   1.65853
 Alpha virt. eigenvalues --    1.66234   1.66720   1.67016   1.67144   1.67644
 Alpha virt. eigenvalues --    1.67755   1.68124   1.68688   1.69296   1.69530
 Alpha virt. eigenvalues --    1.69755   1.70129   1.70193   1.70812   1.71145
 Alpha virt. eigenvalues --    1.71624   1.72109   1.72782   1.73360   1.73436
 Alpha virt. eigenvalues --    1.73838   1.74085   1.74611   1.75324   1.76395
 Alpha virt. eigenvalues --    1.77037   1.77319   1.77818   1.78864   1.78984
 Alpha virt. eigenvalues --    1.79941   1.80303   1.81067   1.81481   1.81720
 Alpha virt. eigenvalues --    1.82117   1.82907   1.83181   1.83787   1.84295
 Alpha virt. eigenvalues --    1.84865   1.85004   1.85822   1.86367   1.86633
 Alpha virt. eigenvalues --    1.87022   1.87221   1.87711   1.87827   1.88701
 Alpha virt. eigenvalues --    1.88835   1.89267   1.89685   1.89877   1.90787
 Alpha virt. eigenvalues --    1.91012   1.92090   1.92248   1.92695   1.93264
 Alpha virt. eigenvalues --    1.93734   1.94212   1.94911   1.95477   1.96005
 Alpha virt. eigenvalues --    1.96758   1.97255   1.97684   1.97935   1.98632
 Alpha virt. eigenvalues --    1.98826   1.99271   1.99902   2.00287   2.00601
 Alpha virt. eigenvalues --    2.01567   2.01832   2.02166   2.02238   2.03091
 Alpha virt. eigenvalues --    2.03338   2.03619   2.04461   2.05551   2.05568
 Alpha virt. eigenvalues --    2.06408   2.06623   2.07113   2.08111   2.08245
 Alpha virt. eigenvalues --    2.08666   2.08831   2.09341   2.10054   2.10448
 Alpha virt. eigenvalues --    2.11089   2.11316   2.11753   2.12330   2.12455
 Alpha virt. eigenvalues --    2.13401   2.13492   2.13632   2.14014   2.14441
 Alpha virt. eigenvalues --    2.15187   2.15332   2.15539   2.16865   2.17048
 Alpha virt. eigenvalues --    2.17366   2.17812   2.18659   2.18942   2.19536
 Alpha virt. eigenvalues --    2.19634   2.20024   2.20351   2.20727   2.21533
 Alpha virt. eigenvalues --    2.21955   2.22542   2.23035   2.23911   2.24184
 Alpha virt. eigenvalues --    2.24859   2.25890   2.26209   2.26529   2.26656
 Alpha virt. eigenvalues --    2.26777   2.27471   2.27769   2.28156   2.28377
 Alpha virt. eigenvalues --    2.28733   2.28934   2.29989   2.30421   2.30624
 Alpha virt. eigenvalues --    2.31144   2.32074   2.32639   2.33114   2.33681
 Alpha virt. eigenvalues --    2.34190   2.35111   2.35270   2.35342   2.35959
 Alpha virt. eigenvalues --    2.36601   2.36788   2.37178   2.37343   2.37845
 Alpha virt. eigenvalues --    2.38385   2.38818   2.39139   2.39533   2.40025
 Alpha virt. eigenvalues --    2.40426   2.40854   2.40963   2.41136   2.42199
 Alpha virt. eigenvalues --    2.42506   2.42837   2.43308   2.43495   2.43599
 Alpha virt. eigenvalues --    2.44553   2.45118   2.45297   2.45940   2.46342
 Alpha virt. eigenvalues --    2.46577   2.47252   2.47622   2.48049   2.48682
 Alpha virt. eigenvalues --    2.49004   2.49340   2.50190   2.50525   2.51207
 Alpha virt. eigenvalues --    2.51533   2.51997   2.52160   2.53065   2.53126
 Alpha virt. eigenvalues --    2.53530   2.54101   2.54679   2.54983   2.55291
 Alpha virt. eigenvalues --    2.55967   2.56179   2.56436   2.56629   2.56961
 Alpha virt. eigenvalues --    2.57506   2.57834   2.58145   2.58795   2.59372
 Alpha virt. eigenvalues --    2.59518   2.59857   2.60261   2.60368   2.60925
 Alpha virt. eigenvalues --    2.61366   2.61828   2.62284   2.62629   2.63008
 Alpha virt. eigenvalues --    2.63632   2.64070   2.64622   2.64774   2.65376
 Alpha virt. eigenvalues --    2.65552   2.66057   2.66635   2.67027   2.67454
 Alpha virt. eigenvalues --    2.68006   2.68067   2.68583   2.68900   2.69285
 Alpha virt. eigenvalues --    2.69483   2.70365   2.70768   2.71114   2.71462
 Alpha virt. eigenvalues --    2.71770   2.72703   2.73487   2.73755   2.74452
 Alpha virt. eigenvalues --    2.74764   2.74920   2.75228   2.75716   2.76245
 Alpha virt. eigenvalues --    2.77025   2.77488   2.78142   2.78259   2.78692
 Alpha virt. eigenvalues --    2.79024   2.79181   2.80245   2.80659   2.80882
 Alpha virt. eigenvalues --    2.81561   2.81730   2.82517   2.82836   2.83030
 Alpha virt. eigenvalues --    2.83647   2.83938   2.84287   2.84536   2.85554
 Alpha virt. eigenvalues --    2.85793   2.86289   2.86631   2.86997   2.87303
 Alpha virt. eigenvalues --    2.87806   2.88191   2.88443   2.88737   2.89236
 Alpha virt. eigenvalues --    2.89709   2.89959   2.90388   2.90529   2.90809
 Alpha virt. eigenvalues --    2.91142   2.91825   2.91929   2.92359   2.92895
 Alpha virt. eigenvalues --    2.93389   2.93599   2.94049   2.94307   2.94696
 Alpha virt. eigenvalues --    2.95018   2.95275   2.95546   2.95979   2.96312
 Alpha virt. eigenvalues --    2.96793   2.96984   2.97342   2.97694   2.98152
 Alpha virt. eigenvalues --    2.98270   2.98725   2.99582   2.99916   3.00297
 Alpha virt. eigenvalues --    3.01120   3.01434   3.01857   3.01922   3.02371
 Alpha virt. eigenvalues --    3.02737   3.03491   3.03673   3.04335   3.05095
 Alpha virt. eigenvalues --    3.05400   3.05751   3.06086   3.06603   3.06967
 Alpha virt. eigenvalues --    3.07313   3.07424   3.07798   3.08233   3.08434
 Alpha virt. eigenvalues --    3.08830   3.09299   3.09526   3.09690   3.09832
 Alpha virt. eigenvalues --    3.10513   3.10849   3.11018   3.11312   3.11752
 Alpha virt. eigenvalues --    3.11916   3.12150   3.12822   3.13027   3.13715
 Alpha virt. eigenvalues --    3.13866   3.13896   3.14422   3.14639   3.14932
 Alpha virt. eigenvalues --    3.15424   3.15451   3.15948   3.16387   3.16948
 Alpha virt. eigenvalues --    3.17207   3.17526   3.17867   3.18151   3.18547
 Alpha virt. eigenvalues --    3.18821   3.19169   3.19626   3.19792   3.20216
 Alpha virt. eigenvalues --    3.20398   3.20802   3.21034   3.21344   3.21497
 Alpha virt. eigenvalues --    3.21860   3.21958   3.22724   3.22795   3.23095
 Alpha virt. eigenvalues --    3.23686   3.23931   3.24268   3.24585   3.24927
 Alpha virt. eigenvalues --    3.25273   3.25439   3.25851   3.26294   3.26344
 Alpha virt. eigenvalues --    3.26559   3.26736   3.27090   3.27452   3.27934
 Alpha virt. eigenvalues --    3.27995   3.28162   3.28444   3.28611   3.29336
 Alpha virt. eigenvalues --    3.29437   3.29859   3.30020   3.30359   3.30521
 Alpha virt. eigenvalues --    3.30750   3.31211   3.31379   3.31601   3.31929
 Alpha virt. eigenvalues --    3.32358   3.32582   3.32727   3.33166   3.33745
 Alpha virt. eigenvalues --    3.33805   3.34250   3.34481   3.34560   3.34957
 Alpha virt. eigenvalues --    3.35225   3.35284   3.35587   3.35912   3.35996
 Alpha virt. eigenvalues --    3.36391   3.36671   3.37052   3.37305   3.37582
 Alpha virt. eigenvalues --    3.37848   3.38088   3.38263   3.38403   3.38799
 Alpha virt. eigenvalues --    3.39170   3.39493   3.39697   3.40339   3.40890
 Alpha virt. eigenvalues --    3.41171   3.41785   3.42152   3.42357   3.42801
 Alpha virt. eigenvalues --    3.43197   3.43612   3.43911   3.44204   3.44736
 Alpha virt. eigenvalues --    3.45254   3.45483   3.46213   3.46911   3.47073
 Alpha virt. eigenvalues --    3.47196   3.48254   3.48497   3.48579   3.48774
 Alpha virt. eigenvalues --    3.49465   3.49682   3.50101   3.50741   3.51408
 Alpha virt. eigenvalues --    3.52021   3.52390   3.52869   3.53041   3.53286
 Alpha virt. eigenvalues --    3.53714   3.54411   3.55194   3.55371   3.55834
 Alpha virt. eigenvalues --    3.56574   3.56831   3.57786   3.58381   3.58673
 Alpha virt. eigenvalues --    3.59192   3.59445   3.59679   3.60862   3.61258
 Alpha virt. eigenvalues --    3.62117   3.62276   3.62948   3.63191   3.63489
 Alpha virt. eigenvalues --    3.64699   3.65027   3.65140   3.65567   3.65760
 Alpha virt. eigenvalues --    3.66335   3.66755   3.67355   3.67997   3.68335
 Alpha virt. eigenvalues --    3.68948   3.69272   3.70026   3.70225   3.70771
 Alpha virt. eigenvalues --    3.71038   3.71282   3.71505   3.72134   3.72253
 Alpha virt. eigenvalues --    3.72292   3.73342   3.73823   3.74048   3.74171
 Alpha virt. eigenvalues --    3.74674   3.75276   3.75580   3.75747   3.76502
 Alpha virt. eigenvalues --    3.76829   3.77794   3.77938   3.78278   3.79128
 Alpha virt. eigenvalues --    3.79553   3.80633   3.80968   3.81807   3.82507
 Alpha virt. eigenvalues --    3.82813   3.83406   3.84357   3.84441   3.85085
 Alpha virt. eigenvalues --    3.85892   3.86301   3.86398   3.87179   3.88165
 Alpha virt. eigenvalues --    3.88552   3.88660   3.89474   3.89828   3.90222
 Alpha virt. eigenvalues --    3.90606   3.91100   3.91802   3.92421   3.92905
 Alpha virt. eigenvalues --    3.93100   3.93977   3.94979   3.95606   3.96565
 Alpha virt. eigenvalues --    3.96737   3.97835   3.98686   3.99192   3.99459
 Alpha virt. eigenvalues --    4.00315   4.00329   4.01102   4.01300   4.02302
 Alpha virt. eigenvalues --    4.03109   4.03449   4.04136   4.04736   4.05437
 Alpha virt. eigenvalues --    4.05906   4.06220   4.06612   4.07700   4.08149
 Alpha virt. eigenvalues --    4.09558   4.10088   4.10350   4.11126   4.12190
 Alpha virt. eigenvalues --    4.12943   4.14190   4.14230   4.14427   4.15109
 Alpha virt. eigenvalues --    4.16035   4.16327   4.16790   4.17769   4.18204
 Alpha virt. eigenvalues --    4.18514   4.18863   4.19357   4.20626   4.21222
 Alpha virt. eigenvalues --    4.21474   4.21840   4.22725   4.23061   4.23318
 Alpha virt. eigenvalues --    4.25030   4.25180   4.25685   4.25824   4.26703
 Alpha virt. eigenvalues --    4.27208   4.28284   4.28691   4.28947   4.29430
 Alpha virt. eigenvalues --    4.29995   4.30771   4.31119   4.31939   4.32111
 Alpha virt. eigenvalues --    4.33138   4.33600   4.33769   4.35018   4.35342
 Alpha virt. eigenvalues --    4.36034   4.37018   4.37826   4.38102   4.39031
 Alpha virt. eigenvalues --    4.39429   4.40363   4.40734   4.40883   4.41155
 Alpha virt. eigenvalues --    4.41607   4.42186   4.42698   4.43478   4.43986
 Alpha virt. eigenvalues --    4.44417   4.44935   4.45015   4.45190   4.46084
 Alpha virt. eigenvalues --    4.46641   4.47772   4.47910   4.49083   4.49231
 Alpha virt. eigenvalues --    4.49897   4.50700   4.51197   4.52342   4.53379
 Alpha virt. eigenvalues --    4.54487   4.55269   4.55848   4.56004   4.57298
 Alpha virt. eigenvalues --    4.57526   4.58649   4.58975   4.61369   4.61612
 Alpha virt. eigenvalues --    4.63606   4.64293   4.65042   4.66233   4.68017
 Alpha virt. eigenvalues --    4.68154   4.68505   4.69320   4.69658   4.70311
 Alpha virt. eigenvalues --    4.70892   4.71168   4.73306   4.73440   4.74403
 Alpha virt. eigenvalues --    4.74549   4.75512   4.76785   4.77768   4.79155
 Alpha virt. eigenvalues --    4.79417   4.80442   4.81275   4.81464   4.82495
 Alpha virt. eigenvalues --    4.83443   4.84036   4.84349   4.84922   4.85028
 Alpha virt. eigenvalues --    4.85985   4.86299   4.87392   4.88802   4.89899
 Alpha virt. eigenvalues --    4.90200   4.91057   4.92297   4.93100   4.93840
 Alpha virt. eigenvalues --    4.94496   4.95315   4.96017   4.96080   4.97295
 Alpha virt. eigenvalues --    4.98363   4.98477   4.99344   5.00554   5.01421
 Alpha virt. eigenvalues --    5.02686   5.03195   5.03763   5.04841   5.05839
 Alpha virt. eigenvalues --    5.05990   5.06628   5.07603   5.08013   5.08672
 Alpha virt. eigenvalues --    5.09535   5.10394   5.12897   5.13133   5.16718
 Alpha virt. eigenvalues --    5.17817   5.18271   5.20029   5.20276   5.21382
 Alpha virt. eigenvalues --    5.21856   5.22178   5.23059   5.24491   5.24798
 Alpha virt. eigenvalues --    5.26049   5.28168   5.28712   5.29434   5.33954
 Alpha virt. eigenvalues --    5.34561   5.35158   5.36374   5.37175   5.38402
 Alpha virt. eigenvalues --    5.39113   5.39626   5.40136   5.40965   5.42177
 Alpha virt. eigenvalues --    5.42567   5.45936   5.47657   5.48367   5.48820
 Alpha virt. eigenvalues --    5.50481   5.50873   5.51308   5.53006   5.55225
 Alpha virt. eigenvalues --    5.56707   5.59869   5.60661   5.61134   5.61924
 Alpha virt. eigenvalues --    5.62074   5.65021   5.65765   5.66388   5.67183
 Alpha virt. eigenvalues --    5.67829   5.70205   5.73477   5.75666   5.76549
 Alpha virt. eigenvalues --    5.77672   5.78049   5.78457   5.86745   5.87659
 Alpha virt. eigenvalues --    5.92533   5.95071   5.99750   6.00621   6.02364
 Alpha virt. eigenvalues --    6.06734   6.08897   6.10909   6.13050   6.13761
 Alpha virt. eigenvalues --    6.15641   6.17222   6.26704   6.33071   6.33348
 Alpha virt. eigenvalues --    6.39542  22.35937  22.36466  22.43492  22.46063
 Alpha virt. eigenvalues --   22.46583  22.52515  22.53214  22.62839  22.63182
 Alpha virt. eigenvalues --   22.73840  22.80572  22.87028  22.89185  22.92279
 Alpha virt. eigenvalues --   22.93208  22.95167  22.95457  23.01933  23.03273
 Alpha virt. eigenvalues --   23.03960  23.12041  23.25734  23.27361  23.29914
 Alpha virt. eigenvalues --   23.30028  23.36658  23.41766  23.50749  23.51451
 Alpha virt. eigenvalues --   23.55934  23.73730  23.78141  23.78528  23.87219
 Alpha virt. eigenvalues --   32.39170  32.63285  32.83777  32.92537  32.93537
 Alpha virt. eigenvalues --   33.08228
          Condensed to atoms (all electrons):
 Mulliken charges:
               1
     1  Fe  -0.182841
     2  N   -0.070741
     3  N   -0.065669
     4  N   -0.055505
     5  N   -0.130880
     6  C    0.257672
     7  C   -0.056129
     8  C   -0.027847
     9  C    0.248144
    10  C    0.264643
    11  C   -0.077482
    12  C    0.098782
    13  C    0.158303
    14  C    0.284916
    15  C   -0.105717
    16  C    0.134602
    17  C    0.148380
    18  C    0.160236
    19  C   -0.000866
    20  C   -0.092958
    21  C    0.278599
    22  C   -0.485261
    23  H    0.139481
    24  C   -0.432161
    25  H    0.131848
    26  C   -0.421573
    27  H    0.115799
    28  C   -0.339497
    29  H    0.123686
    30  C   -0.414850
    31  H    0.119665
    32  H    0.139745
    33  H    0.133179
    34  C   -0.412489
    35  H    0.128945
    36  H    0.139506
    37  H    0.120178
    38  C   -0.446154
    39  H    0.125856
    40  H    0.144088
    41  H    0.153880
    42  C   -0.222455
    43  H    0.113876
    44  C   -0.284891
    45  H    0.140600
    46  H    0.122183
    47  C   -0.449131
    48  H    0.123839
    49  H    0.146536
    50  H    0.154659
    51  C   -0.208941
    52  H    0.115377
    53  C   -0.284604
    54  H    0.141148
    55  H    0.121772
    56  C   -0.417743
    57  H    0.137479
    58  H    0.138781
    59  H    0.119241
    60  C   -0.409802
    61  H    0.128619
    62  H    0.120277
    63  H    0.138694
    64  C   -0.389744
    65  H    0.137445
    66  H    0.147458
    67  H    0.136349
    68  N   -0.228348
    69  H    0.237594
    70  C    0.175421
    71  C    0.005964
    72  H    0.174567
    73  N    0.046450
    74  C   -0.216282
    75  H    0.156101
 Sum of Mulliken charges =  -0.00000
 Mulliken charges with hydrogens summed into heavy atoms:
               1
     1  Fe  -0.182841
     2  N   -0.070741
     3  N   -0.065669
     4  N   -0.055505
     5  N   -0.130880
     6  C    0.257672
     7  C   -0.056129
     8  C   -0.027847
     9  C    0.248144
    10  C    0.264643
    11  C   -0.077482
    12  C    0.098782
    13  C    0.158303
    14  C    0.284916
    15  C   -0.105717
    16  C    0.134602
    17  C    0.148380
    18  C    0.160236
    19  C   -0.000866
    20  C   -0.092958
    21  C    0.278599
    22  C   -0.345780
    24  C   -0.300313
    26  C   -0.305774
    28  C   -0.215811
    30  C   -0.022261
    34  C   -0.023860
    38  C   -0.022330
    42  C   -0.108579
    44  C   -0.022108
    47  C   -0.024098
    51  C   -0.093564
    53  C   -0.021684
    56  C   -0.022243
    60  C   -0.022211
    64  C    0.031508
    68  N    0.009246
    70  C    0.175421
    71  C    0.180530
    73  N    0.046450
    74  C   -0.060182
 Electronic spatial extent (au):  <R**2>=          19948.9907
 Charge=             -0.0000 electrons
 Dipole moment (field-independent basis, Debye):
    X=              1.9019    Y=             -1.2495    Z=              5.9440  Tot=              6.3647
 Quadrupole moment (field-independent basis, Debye-Ang):
   XX=           -229.0691   YY=           -235.0436   ZZ=           -222.6247
   XY=             -2.5135   XZ=              5.6319   YZ=             -0.4262
 Traceless Quadrupole moment (field-independent basis, Debye-Ang):
   XX=             -0.1566   YY=             -6.1312   ZZ=              6.2878
   XY=             -2.5135   XZ=              5.6319   YZ=             -0.4262
 Octapole moment (field-independent basis, Debye-Ang**2):
  XXX=             44.0276  YYY=            -32.7264  ZZZ=            174.5170  XYY=             20.2584
  XXY=              3.3036  XXZ=              8.9674  XZZ=             25.9249  YZZ=            -21.3854
  YYZ=            -19.9767  XYZ=             -8.0786
 Hexadecapole moment (field-independent basis, Debye-Ang**3):
 XXXX=         -11756.3608 YYYY=         -11550.0081 ZZZZ=          -2895.7914 XXXY=            -46.0383
 XXXZ=             12.3347 YYYX=             48.8461 YYYZ=             15.6621 ZZZX=            111.6627
 ZZZY=            -50.8750 XXYY=          -3908.7585 XXZZ=          -2599.6800 YYZZ=          -2637.4245
 XXYZ=             23.5205 YYXZ=             69.5371 ZZXY=            -45.7917
 N-N= 5.551007805544D+03 E-N=-1.793421623375D+04  KE= 2.897561525374D+03
  Exact polarizability:     711.082       0.629     697.930       9.244       0.478     308.024
 Approx polarizability:    1320.267      -6.628    1276.258      15.295      11.714     487.263

 ----------------------------------------------------------------------

 Electric dipole moment (input orientation):
 (Debye = 10**-18 statcoulomb cm , SI units = C m)
                  (au)            (Debye)         (10**-30 SI)
   Tot        0.250406D+01      0.636469D+01      0.212303D+02
   x         -0.829739D-01     -0.210899D+00     -0.703482D+00
   y         -0.225668D+01     -0.573590D+01     -0.191329D+02
   z         -0.108206D+01     -0.275032D+01     -0.917407D+01

 Dipole polarizability, Alpha (input orientation).
 (esu units = cm**3 , SI units = C**2 m**2 J**-1)
 Alpha(0;0):
               (au)            (10**-24 esu)      (10**-40 SI)
   iso        0.572345D+03      0.848128D+02      0.943670D+02
   aniso      0.396971D+03      0.588250D+02      0.654516D+02
   xx         0.643768D+03      0.953966D+02      0.106143D+03
   yx        -0.120753D+03     -0.178938D+02     -0.199095D+02
   yy         0.470384D+03      0.697037D+02      0.775558D+02
   zx        -0.718259D+02     -0.106435D+02     -0.118425D+02
   zy        -0.156759D+03     -0.232292D+02     -0.258460D+02
   zz         0.602884D+03      0.893383D+02      0.994022D+02

 First dipole hyperpolarizability, Beta (input orientation).
 ||, _|_  parallel and perpendicular components, (z) with respect to z axis,
 vector components x,y,z.  Values do not include the 1/n! factor of 1/2.
 (esu units = statvolt**-1 cm**4 , SI units = C**3 m**3 J**-2)
 Beta(0;0,0):
               (au)            (10**-30 esu)      (10**-50 SI)
   || (z)    -0.198151D+03     -0.171187D+01     -0.635345D+00
   _|_(z)    -0.660504D+02     -0.570624D+00     -0.211782D+00
   x         -0.386327D+04     -0.333756D+02     -0.123870D+02
   y          0.282558D+04      0.244108D+02      0.905982D+01
   z         -0.990757D+03     -0.855937D+01     -0.317672D+01
   ||         0.977555D+03      0.844531D+01      0.313439D+01
   xxx       -0.464107D+03     -0.400952D+01     -0.148810D+01
   xxy        0.703789D+02      0.608019D+00      0.225660D+00
   yxy       -0.180464D+03     -0.155907D+01     -0.578634D+00
   yyy        0.282644D+03      0.244183D+01      0.906260D+00
   xxz        0.567322D+03      0.490122D+01      0.181904D+01
   yxz       -0.337061D+02     -0.291195D+00     -0.108074D+00
   yyz       -0.548113D+03     -0.473527D+01     -0.175745D+01
   zxz       -0.643185D+03     -0.555662D+01     -0.206228D+01
   zyz        0.588835D+03      0.508708D+01      0.188802D+01
   zzz       -0.349462D+03     -0.301908D+01     -0.112050D+01

 ----------------------------------------------------------------------

 Dipole orientation:
    26         65.63882489         14.87083219        -17.52842334
     7         69.31062319         14.26332324        -16.84581688
     7         65.14715853         11.36641493        -18.65419980
     7         62.24703510         15.83667261        -18.85952772
     7         66.50435736         18.67567252        -17.34972269
     6         71.18941491         15.90148940        -16.21356464
     6         73.53350941         14.58597658        -15.73896030
     6         73.06454799         12.10071974        -16.18490996
     6         70.43259296         11.93303600        -16.90691154
     6         66.85604921          9.44444848        -18.52635539
     6         65.72660987          7.08830714        -19.28474055
     6         63.25455624          7.61409251        -19.85085878
     6         62.94373140         10.30707630        -19.45868322
     6         60.54473440         14.25089598        -19.98969758
     6         58.35684082         15.59928119        -20.87233600
     6         58.75977293         18.08356132        -20.27911980
     6         61.21658433         18.18667056        -19.06932127
     6         64.91459349         20.65394530        -17.79518408
     6         66.04399393         23.02558602        -17.05061896
     6         68.42929172         22.46785773        -16.27787492
     6         68.68111647         19.75812429        -16.49157838
     6         70.89348444         18.48301446        -15.96114925
     1         72.51089219         19.57761755        -15.37529407
     6         69.33129357          9.71254512        -17.72109720
     1         70.50466862          8.04414707        -17.73107757
     6         60.83186276         11.65498255        -20.19755793
     1         59.30076487         10.60507021        -21.04357641
     6         62.43304625         20.43895081        -18.56840593
     1         61.38739017         22.16351680        -18.87025395
     6         74.81844517          9.90355558        -16.02494114
     1         76.65387616         10.48692693        -15.30923874
     1         75.09049078          9.05870375        -17.88441680
     1         74.05976661          8.45782002        -14.76929707
     6         75.93418416         15.85046321        -14.98519259
     1         75.67917348         16.92283299        -13.24477527
     1         76.55239231         17.15597563        -16.45404880
     1         77.42387125         14.46903250        -14.68208787
     6         67.02663371          4.59364875        -19.27685239
     1         68.29942575          4.43968480        -17.66730050
     1         68.13800054          4.34130177        -20.99529638
     1         65.64270512          3.07699923        -19.16960435
     6         61.25247401          5.93515027        -20.65208595
     1         59.37529245          6.43973936        -20.00366048
     6         61.53622989          3.89597800        -22.09057167
     1         63.33746087          3.35806636        -22.86488894
     1         59.95209698          2.71820790        -22.58950612
     6         56.09842387         14.42568040        -22.07017063
     1         55.63812140         12.63473884        -21.16666973
     1         56.43585394         14.05995250        -24.07091805
     1         54.48002130         15.68248633        -21.90163167
     6         57.14720882         20.24959716        -20.70788670
     1         57.21337507         21.69973577        -19.26209966
     6         55.64534638         20.57335128        -22.69417429
     1         55.57731103         19.23915796        -24.22704953
     1         54.46712770         22.22325202        -22.88146390
     6         64.76146502         25.52537819        -17.22971928
     1         63.07746694         25.56097101        -16.04306554
     1         64.18429814         25.90600973        -19.16996436
     1         66.01529708         27.03442375        -16.61940827
     6         70.45532823         24.18407259        -15.33964368
     1         71.03382850         23.65748278        -13.43347489
     1         69.80261230         26.13158441        -15.30318470
     1         72.11105715         24.08040127        -16.56101905
     6         60.36981487         12.29717749         -8.76084296
     1         61.24900239         10.96452910         -7.45977551
     1         58.87993449         11.32894139         -9.78495653
     1         59.53072536         13.81824299         -7.65511872
     7         64.31975315         14.67536486         -9.81932428
     1         64.75710483         15.12288969         -8.02258581
     6         62.25501870         13.30936188        -10.57548088
     6         65.64333096         15.30752113        -11.91277169
     1         67.35597275         16.38704249        -11.89368935
     7         64.54131448         14.42488410        -13.95543335
     6         62.42946173         13.17407504        -13.14642803
     1         61.18776062         12.27024685        -14.46538310

 Electric dipole moment (dipole orientation):
 (Debye = 10**-18 statcoulomb cm , SI units = C m)
                  (au)            (Debye)         (10**-30 SI)
   Tot        0.250406D+01      0.636469D+01      0.212303D+02
   x          0.000000D+00      0.000000D+00      0.000000D+00
   y          0.000000D+00      0.000000D+00      0.000000D+00
   z          0.250406D+01      0.636469D+01      0.212303D+02

 Dipole polarizability, Alpha (dipole orientation).
 (esu units = cm**3 , SI units = C**2 m**2 J**-1)
 Alpha(0;0):
               (au)            (10**-24 esu)      (10**-40 SI)
   iso        0.572345D+03      0.848128D+02      0.943670D+02
   aniso      0.396971D+03      0.588250D+02      0.654516D+02
   xx         0.653219D+03      0.967971D+02      0.107701D+03
   yx        -0.119926D+02     -0.177712D+01     -0.197731D+01
   yy         0.699863D+03      0.103709D+03      0.115392D+03
   zx         0.129655D+03      0.192128D+02      0.213771D+02
   zy         0.496015D+02      0.735019D+01      0.817819D+01
   zz         0.363954D+03      0.539324D+02      0.600079D+02

 First dipole hyperpolarizability, Beta (dipole orientation).
 ||, _|_  parallel and perpendicular components, (z) with respect to z axis,
 vector components x,y,z.  Values do not include the 1/n! factor of 1/2.
 (esu units = statvolt**-1 cm**4 , SI units = C**3 m**3 J**-2)
 Beta(0;0,0):
               (au)            (10**-30 esu)      (10**-50 SI)
   || (z)    -0.398058D+03     -0.343891D+01     -0.127632D+01
   _|_(z)    -0.132686D+03     -0.114630D+01     -0.425439D+00
   x         -0.388640D+04     -0.335754D+02     -0.124612D+02
   y         -0.219659D+04     -0.189768D+02     -0.704306D+01
   z         -0.199029D+04     -0.171945D+02     -0.638158D+01
   ||         0.977555D+03      0.844531D+01      0.313439D+01
   xxx       -0.526244D+03     -0.454634D+01     -0.168733D+01
   xxy        0.505143D+03      0.436404D+01      0.161967D+01
   yxy       -0.500887D+03     -0.432728D+01     -0.160603D+01
   yyy       -0.121000D+04     -0.104534D+02     -0.387969D+01
   xxz       -0.319275D+03     -0.275828D+01     -0.102371D+01
   yxz        0.188207D+03      0.162597D+01      0.603461D+00
   yyz       -0.473417D+03     -0.408995D+01     -0.151795D+01
   zxz       -0.268334D+03     -0.231820D+01     -0.860375D+00
   zyz       -0.273411D+02     -0.236206D+00     -0.876655D-01
   zzz        0.129262D+03      0.111672D+01      0.414461D+00

 ----------------------------------------------------------------------
 Unable to Open any file for archive entry.
 1\1\GINC-BGN1011\SP\RAPFD\def2TZVP\C34H34Fe1N6\BEBJONES\20-Sep-2024\0\
 \# polar def2tzvp apfd int=(grid=ultrafine)\\1mlr_II_S\\0,1\Fe,0,35.17
 93832494,4.2284686901,9.9491168643\N,0,37.1022528837,4.0015843354,9.43
 89225921\N,0,34.9004756586,5.5735466792,8.5439184048\N,0,33.4198992403
 ,4.6794461385,10.7735800125\N,0,35.6759021809,3.2621046728,11.70759745
 81\C,0,38.1026939745,3.304071559,10.0426404441\C,0,39.3193466476,3.353
 2187536,9.2656449717\C,0,39.0517698951,4.1403746136,8.1906288236\C,0,3
 7.6708768774,4.5521493578,8.321910398\C,0,35.7806392232,5.9339949771,7
 .5681376525\C,0,35.1707237083,6.8478615047,6.6377219036\C,0,33.8793005
 232,7.0246753752,7.061268028\C,0,33.7377835423,6.2241836838,8.26131848
 92\C,0,32.5220904645,5.600466283,10.3056100897\C,0,31.3955498497,5.736
 6559344,11.1888480309\C,0,31.6256191351,4.8802212775,12.2308809429\C,0
 ,32.9046353114,4.252542094,11.9603311094\C,0,34.8649200823,3.038914463
 8,12.7807707983\C,0,35.4752283792,2.1280886011,13.7217390703\C,0,36.71
 68019636,1.8610098888,13.2372318025\C,0,36.8238071157,2.5808765264,11.
 9894170369\C,0,37.9702734976,2.595599203,11.2212340674\H,0,38.82731795
 42,2.0476136495,11.5809206236\C,0,37.0783162106,5.4612424814,7.4684524
 756\H,0,37.6805290142,5.8352421057,6.6545042838\C,0,32.648916617,6.291
 0835588,9.1101206795\H,0,31.8425653594,6.9519505914,8.8297248418\C,0,3
 3.563934505,3.4842940942,12.8985650958\H,0,33.035343429,3.2447288818,1
 3.8083655528\C,0,39.9521317307,4.5480469858,7.0754718191\H,0,40.916542
 7871,4.0528419438,7.1578380332\H,0,40.1192646894,5.6253592879,7.092997
 3428\H,0,39.5129942542,4.2887853192,6.1121801292\C,0,40.5894906143,2.6
 775973324,9.654217983\H,0,40.43596338,1.6047572059,9.7721215203\H,0,40
 .9565426924,3.0722109537,10.6018555842\H,0,41.3566368361,2.8330601815,
 8.8999847444\C,0,35.830474317,7.4012172928,5.4234251033\H,0,36.4735686
 529,6.6548501684,4.9596278871\H,0,36.4454813103,8.2662829128,5.6765482
 501\H,0,35.0800767023,7.7127670941,4.6998804663\C,0,32.8161799134,7.81
 34731316,6.4789052871\H,0,31.8177776262,7.409365139,6.6041839396\C,0,3
 2.9689446042,8.9634752177,5.8303892497\H,0,33.9290261678,9.4360921522,
 5.7193384216\H,0,32.1270531291,9.4886927237,5.4105809995\C,0,30.209417
 1713,6.6016626444,10.9426680531\H,0,29.9304180957,6.5861228591,9.89004
 05178\H,0,30.4188874863,7.6358706649,11.2198447506\H,0,29.3645646225,6
 .2512425038,11.53187482\C,0,30.8043600093,4.6063093673,13.3901803903\H
 ,0,30.8299966061,3.5838967132,13.7499821189\C,0,30.0486192142,5.495974
 0148,14.0251145332\H,0,30.0248007141,6.533379384,13.740554004\H,0,29.4
 471001922,5.2203427503,14.8754358013\C,0,34.827787383,1.6550144839,14.
 9773282506\H,0,33.9169223503,1.0995299316,14.7524801671\H,0,34.5608195
 033,2.499489086,15.6126444085\H,0,35.4967276036,1.0044396065,15.535444
 4776\C,0,37.7905978726,0.9980726472,13.8056212099\H,0,38.0572577906,0.
 2032695492,13.1084666475\H,0,37.4663102871,0.5417625314,14.7374937854\
 H,0,38.686372613,1.5860228444,14.0064382382\C,0,32.2111460312,0.694925
 2291,6.8092652465\H,0,32.6385168084,0.3700232799,5.8607982654\H,0,31.4
 306134932,1.4215607146,6.6078226777\H,0,31.7648546933,-0.1715709005,7.
 2965269336\N,0,34.3445624131,0.6113464387,8.116198704\H,0,34.549254403
 2,-0.3528568298,7.9110957213\C,0,33.2509758332,1.3076550712,7.67386841
 45\C,0,35.0881158915,1.4502917904,8.8731701561\H,0,36.0052891513,1.175
 0030589,9.3535975806\N,0,34.5314791508,2.6387824648,8.9386586231\C,0,3
 3.3868042438,2.5628004772,8.1941867401\H,0,32.7433824715,3.4125526051,
 8.0865294589\\Version=ES64L-G16RevC.02\State=1-A\HF=-2907.5972274\RMSD
 =1.792e-09\Dipole=-0.0829739,-2.2566776,-1.0820586\Polar=643.7678958,-
 120.7533599,470.3839207,-71.8259087,-156.7586727,602.8844111\HyperPola
 r=-464.1071159,70.3789412,-180.464222,282.6443679,567.3220746,-33.7061
 353,-548.1126958,-643.1852248,588.8353218,-349.4616222\Quadrupole=-2.1
 936558,6.6157322,-4.4220765,-0.7438931,1.0024629,2.6119314\PG=C01 [X(C
 34H34Fe1N6)]\\@
 The archive entry for this job was punched.


 ON A CLEAR DISK YOU CAN SEEK FOREVER.
 Job cpu time:       2 days  2 hours  2 minutes  2.3 seconds.
 Elapsed time:       0 days  0 hours 43 minutes 40.9 seconds.
 File lengths (MBytes):  RWF=   1142 Int=      0 D2E=      0 Chk=    146 Scr=      1
 Normal termination of Gaussian 16 at Fri Sep 20 04:41:04 2024.
 Initial command:
 /sw/chem/gaussian/g16_C02/a100/g16/l1.exe "/local/bebjones_8022141/Gau-77316.inp" -scrdir="/local/bebjones_8022141/"
 Entering Link 1 = /sw/chem/gaussian/g16_C02/a100/g16/l1.exe PID=     79017.
  
 Copyright (c) 1988-2021, Gaussian, Inc.  All Rights Reserved.
  
 This is part of the Gaussian(R) 16 program.  It is based on
 the Gaussian(R) 09 system (copyright 2009, Gaussian, Inc.),
 the Gaussian(R) 03 system (copyright 2003, Gaussian, Inc.),
 the Gaussian(R) 98 system (copyright 1998, Gaussian, Inc.),
 the Gaussian(R) 94 system (copyright 1995, Gaussian, Inc.),
 the Gaussian 92(TM) system (copyright 1992, Gaussian, Inc.),
 the Gaussian 90(TM) system (copyright 1990, Gaussian, Inc.),
 the Gaussian 88(TM) system (copyright 1988, Gaussian, Inc.),
 the Gaussian 86(TM) system (copyright 1986, Carnegie Mellon
 University), and the Gaussian 82(TM) system (copyright 1983,
 Carnegie Mellon University). Gaussian is a federally registered
 trademark of Gaussian, Inc.
  
 This software contains proprietary and confidential information,
 including trade secrets, belonging to Gaussian, Inc.
  
 This software is provided under written license and may be
 used, copied, transmitted, or stored only in accord with that
 written license.
  
 The following legend is applicable only to US Government
 contracts under FAR:
  
                    RESTRICTED RIGHTS LEGEND
  
 Use, reproduction and disclosure by the US Government is
 subject to restrictions as set forth in subparagraphs (a)
 and (c) of the Commercial Computer Software - Restricted
 Rights clause in FAR 52.227-19.
  
 Gaussian, Inc.
 340 Quinnipiac St., Bldg. 40, Wallingford CT 06492
  
  
 ---------------------------------------------------------------
 Warning -- This program may not be used in any manner that
 competes with the business of Gaussian, Inc. or will provide
 assistance to any competitor of Gaussian, Inc.  The licensee
 of this program is prohibited from giving any competitor of
 Gaussian, Inc. access to this program.  By using this program,
 the user acknowledges that Gaussian, Inc. is engaged in the
 business of creating and licensing software in the field of
 computational chemistry and represents and warrants to the
 licensee that it is not a competitor of Gaussian, Inc. and that
 it will not use this program in any manner prohibited above.
 ---------------------------------------------------------------
  

 Cite this work as:
 Gaussian 16, Revision C.02,
 M. J. Frisch, G. W. Trucks, H. B. Schlegel, G. E. Scuseria, 
 M. A. Robb, J. R. Cheeseman, G. Scalmani, V. Barone, 
 G. A. Petersson, H. Nakatsuji, X. Li, M. Caricato, A. V. Marenich, 
 J. Bloino, B. G. Janesko, R. Gomperts, B. Mennucci, H. P. Hratchian, 
 J. V. Ortiz, A. F. Izmaylov, J. L. Sonnenberg, D. Williams-Young, 
 F. Ding, F. Lipparini, F. Egidi, J. Goings, B. Peng, A. Petrone, 
 T. Henderson, D. Ranasinghe, V. G. Zakrzewski, J. Gao, N. Rega, 
 G. Zheng, W. Liang, M. Hada, M. Ehara, K. Toyota, R. Fukuda, 
 J. Hasegawa, M. Ishida, T. Nakajima, Y. Honda, O. Kitao, H. Nakai, 
 T. Vreven, K. Throssell, J. A. Montgomery, Jr., J. E. Peralta, 
 F. Ogliaro, M. J. Bearpark, J. J. Heyd, E. N. Brothers, K. N. Kudin, 
 V. N. Staroverov, T. A. Keith, R. Kobayashi, J. Normand, 
 K. Raghavachari, A. P. Rendell, J. C. Burant, S. S. Iyengar, 
 J. Tomasi, M. Cossi, J. M. Millam, M. Klene, C. Adamo, R. Cammi, 
 J. W. Ochterski, R. L. Martin, K. Morokuma, O. Farkas, 
 J. B. Foresman, and D. J. Fox, Gaussian, Inc., Wallingford CT, 2019.
 
 ******************************************
 Gaussian 16:  ES64L-G16RevC.02  7-Dec-2021
                20-Sep-2024 
 ******************************************
 %mem=16GB
 %CPU=0-71
 SetSPE:  set environment variable "OMP_PROC_BIND" = "true"
 SetSPE:  set environment variable "OMP_PLACES" = "{0},{1},{2},{3},{4},{5},{6},{7},{8},{9},{10},{11},{12},{13},{14},{15},{16},{17},{18},{19},{20},{21},{22},{23},{24},{25},{26},{27},{28},{29},{30},{31},{32},{33},{34},{35},{36},{37},{38},{39},{40},{41},{42},{43},{44},{45},{46},{47},{48},{49},{50},{51},{52},{53},{54},{55},{56},{57},{58},{59},{60},{61},{62},{63},{64},{65},{66},{67},{68},{69},{70},{71}"
 Will use up to   72 processors via shared memory.
 %gpucpu=0,1,2,3=0,1,2,3
 Will use    4 GPUs:
 Thread  CPU   GPU
      0    0     0
      1    1     1
      2    2     2
      3    3     3
      4    4    -1
      5    5    -1
      6    6    -1
      7    7    -1
      8    8    -1
      9    9    -1
     10   10    -1
     11   11    -1
     12   12    -1
     13   13    -1
     14   14    -1
     15   15    -1
     16   16    -1
     17   17    -1
     18   18    -1
     19   19    -1
     20   20    -1
     21   21    -1
     22   22    -1
     23   23    -1
[...]
    93. BD (   1) C  74 - H  75          1.98214    -0.54717  1486(v),1481(v),1283(v)
                                                    1340(v),1483(g),148(r)
                                                    151(r),147(r),155(r),1402(r)
   137. CR (   1) C  64                  1.99940   -10.06502  1483(v),1283(v),1481(v)
                                                    1291(v)
   138. CR (   1) N  68                  1.99938   -14.22921  1311(v),1285(v),1279(v)
                                                    1479(v),1286(v)
   139. CR (   1) C  70                  1.99915   -10.09689  1368(v),1483(g),1489(v)
                                                    1213(v),1256(v)
   140. CR (   1) C  71                  1.99938   -10.13172  1340(v),1480(v),1336(v)
                                                    148(r),147(r)
   141. CR (   1) N  73                  1.99933   -14.16821  147(r),148(r),151(r),1309(v)
                                                    1366(v),166(r),172(r),164(r)
   142. CR (   1) C  74                  1.99900   -10.06855  1479(v),1283(v),1483(g)
                                                    1342(v),1286(v),148(r)
                                                    147(r)
   158. LP (   1) N  68                  1.57724    -0.29187  1487(v),1484(v),1312(v)
                                                    1284(v),1278(v),1310(v)
                                                    163(r)
   159. LP (   1) N  73                  1.62340    -0.38777  147(r),148(r),151(r),1482(v)
                                                    1483(v),1309(v),1485(v)
                                                    1489(v),1366(v),1486(g)
                                                    1343(g),1488(g),165(r)
                                                    186(r),155(r),216(r),267(r)
                                                    242(r),268(r),241(r),190(r)
                                                    215(r),179(r),189(r),1397(r)
                                                    1402(r),1403(r),1401(r)
                                                    1404(r),1400(r),150(r)
                                                    1406(r),1398(r),169(r)
                                                    149(r),1405(r),1407(r)
                                                    270(r),146(r)
  1211. RY*(   1) C  64                  0.00121     1.13667   
  1212. RY*(   2) C  64                  0.00077     1.99231   
  1213. RY*(   3) C  64                  0.00053     1.30438   
  1214. RY*(   4) C  64                  0.00012     1.26503   
  1215. RY*(   5) C  64                  0.00007     1.08076   
  1216. RY*(   6) C  64                  0.00008     2.38451   
  1217. RY*(   7) C  64                  0.00000    21.59789   
  1218. RY*(   8) C  64                  0.00001     1.88774   
  1219. RY*(   9) C  64                  0.00001     1.39101   
  1220. RY*(  10) C  64                  0.00001     1.46461   
  1221. RY*(  11) C  64                  0.00000     2.72245   
  1222. RY*(  12) C  64                  0.00000     3.32061   
  1223. RY*(  13) C  64                  0.00000     2.56206   
  1224. RY*(  14) C  64                  0.00001     1.46401   
  1225. RY*(  15) C  64                  0.00000     2.38224   
  1226. RY*(  16) C  64                  0.00000     2.94229   
  1227. RY*(  17) C  64                  0.00000     2.49468   
  1228. RY*(  18) C  64                  0.00000     2.52094   
  1229. RY*(  19) C  64                  0.00000     2.66354   
  1230. RY*(  20) C  64                  0.00000     3.69248   
  1231. RY*(  21) C  64                  0.00001     3.47486   
  1232. RY*(  22) C  64                  0.00000     3.34385   
  1233. RY*(  23) C  64                  0.00000     3.55978   
  1234. RY*(  24) C  64                  0.00000     3.49679   
  1235. RY*(  25) C  64                  0.00000     3.23829   
  1236. RY*(  26) C  64                  0.00000     3.39792   
  1237. RY*(   1) H  65                  0.00073     1.00609   
  1238. RY*(   2) H  65                  0.00014     1.68886   
  1239. RY*(   3) H  65                  0.00008     1.94975   
  1240. RY*(   4) H  65                  0.00006     2.00722   
  1241. RY*(   5) H  65                  0.00000     2.86817   
  1242. RY*(   1) H  66                  0.00024     1.32962   
  1243. RY*(   2) H  66                  0.00013     1.62837   
  1244. RY*(   3) H  66                  0.00008     2.05181   
  1245. RY*(   4) H  66                  0.00003     1.69465   
  1246. RY*(   5) H  66                  0.00001     2.89116   
  1247. RY*(   1) H  67                  0.00072     0.99974   
  1248. RY*(   2) H  67                  0.00014     1.69045   
  1249. RY*(   3) H  67                  0.00008     1.95912   
  1250. RY*(   4) H  67                  0.00006     2.00298   
  1251. RY*(   5) H  67                  0.00000     2.86769   
  1252. RY*(   1) N  68                  0.00282     0.65791   
  1253. RY*(   2) N  68                  0.00232     1.74145   
  1254. RY*(   3) N  68                  0.00102     2.05270   
  1255. RY*(   4) N  68                  0.00075     2.20997   
  1256. RY*(   5) N  68                  0.00052     1.08629   
  1257. RY*(   6) N  68                  0.00025     2.00519   
  1258. RY*(   7) N  68                  0.00021     1.69832   
  1259. RY*(   8) N  68                  0.00007     2.52366   
  1260. RY*(   9) N  68                  0.00006     2.39662   
  1261. RY*(  10) N  68                  0.00005     3.39992   
  1262. RY*(  11) N  68                  0.00006     3.02561   
  1263. RY*(  12) N  68                  0.00000     2.13759   
  1264. RY*(  13) N  68                  0.00001     4.28083   
  1265. RY*(  14) N  68                  0.00000    30.64308   
  1266. RY*(  15) N  68                  0.00001     2.53512   
  1267. RY*(  16) N  68                  0.00000     3.05311   
  1268. RY*(  17) N  68                  0.00000     4.67909   
  1269. RY*(  18) N  68                  0.00000     4.19423   
  1270. RY*(  19) N  68                  0.00001     3.89325   
  1271. RY*(  20) N  68                  0.00000     4.54381   
  1272. RY*(  21) N  68                  0.00000     4.62675   
  1273. RY*(  22) N  68                  0.00000     4.36894   
  1274. RY*(  23) N  68                  0.00000     4.42414   
  1275. RY*(  24) N  68                  0.00000     4.37887   
  1276. RY*(  25) N  68                  0.00000     4.41405   
  1277. RY*(  26) N  68                  0.00000     4.48397   
  1278. RY*(   1) H  69                  0.00056     2.14121   
  1279. RY*(   2) H  69                  0.00039     2.14766   
  1280. RY*(   3) H  69                  0.00029     1.07769   
  1281. RY*(   4) H  69                  0.00021     2.44688   
  1282. RY*(   5) H  69                  0.00001     3.05081   
  1283. RY*(   1) C  70                  0.00418     1.66288   
  1284. RY*(   2) C  70                  0.00257     0.99128   
  1285. RY*(   3) C  70                  0.00187     1.44439   
  1286. RY*(   4) C  70                  0.00166     2.01114   
  1287. RY*(   5) C  70                  0.00121     1.71707   
  1288. RY*(   6) C  70                  0.00109     1.66857   
  1289. RY*(   7) C  70                  0.00038     2.86155   
  1290. RY*(   8) C  70                  0.00019     2.75029   
  1291. RY*(   9) C  70                  0.00016     2.32504   
  1292. RY*(  10) C  70                  0.00008     3.51039   
  1293. RY*(  11) C  70                  0.00003     2.41811   
  1294. RY*(  12) C  70                  0.00003     2.64393   
  1295. RY*(  13) C  70                  0.00001     1.70208   
  1296. RY*(  14) C  70                  0.00001     2.16185   
  1297. RY*(  15) C  70                  0.00001     2.83151   
  1298. RY*(  16) C  70                  0.00000     1.07182   
  1299. RY*(  17) C  70                  0.00001     3.32548   
  1300. RY*(  18) C  70                  0.00000    20.59877   
  1301. RY*(  19) C  70                  0.00001     1.31265   
  1302. RY*(  20) C  70                  0.00000     4.02693   
  1303. RY*(  21) C  70                  0.00000     3.81483   
  1304. RY*(  22) C  70                  0.00000     3.55395   
  1305. RY*(  23) C  70                  0.00000     3.64009   
  1306. RY*(  24) C  70                  0.00000     3.52367   
  1307. RY*(  25) C  70                  0.00000     3.49883   
  1308. RY*(  26) C  70                  0.00000     3.51618   
  1309. RY*(   1) C  71                  0.00407     1.56580   
  1310. RY*(   2) C  71                  0.00319     0.66840   
  1311. RY*(   3) C  71                  0.00204     1.31865   
  1312. RY*(   4) C  71                  0.00129     2.50701   
  1313. RY*(   5) C  71                  0.00079     1.59343   
  1314. RY*(   6) C  71                  0.00040     1.59601   
  1315. RY*(   7) C  71                  0.00032     1.70715   
  1316. RY*(   8) C  71                  0.00012     2.85580   
  1317. RY*(   9) C  71                  0.00005     2.34349   
  1318. RY*(  10) C  71                  0.00005     3.63114   
  1319. RY*(  11) C  71                  0.00003     1.88087   
  1320. RY*(  12) C  71                  0.00003     1.47997   
  1321. RY*(  13) C  71                  0.00001     2.21018   
  1322. RY*(  14) C  71                  0.00000     3.19242   
  1323. RY*(  15) C  71                  0.00001     2.82734   
  1324. RY*(  16) C  71                  0.00001     3.44380   
  1325. RY*(  17) C  71                  0.00001     2.69691   
  1326. RY*(  18) C  71                  0.00001     2.93749   
  1327. RY*(  19) C  71                  0.00000    21.34841   
  1328. RY*(  20) C  71                  0.00001     3.79954   
  1329. RY*(  21) C  71                  0.00001     4.05550   
  1330. RY*(  22) C  71                  0.00000     3.53170   
  1331. RY*(  23) C  71                  0.00000     3.75373   
  1332. RY*(  24) C  71                  0.00000     3.63245   
  1333. RY*(  25) C  71                  0.00000     3.40742   
  1334. RY*(  26) C  71                  0.00000     3.48397   
  1335. RY*(   1) H  72                  0.00061     0.77607   
  1336. RY*(   2) H  72                  0.00026     2.34943   
  1337. RY*(   3) H  72                  0.00021     2.06515   
  1338. RY*(   4) H  72                  0.00011     2.38161   
  1339. RY*(   5) H  72                  0.00002     3.13376   
  1340. RY*(   1) N  73                  0.00588     1.46493   
  1341. RY*(   2) N  73                  0.00553     0.88455   
  1342. RY*(   3) N  73                  0.00522     1.44816   
  1343. RY*(   4) N  73                  0.00122     1.41199   
  1344. RY*(   5) N  73                  0.00067     1.73425   
  1345. RY*(   6) N  73                  0.00043     2.16241   
  1346. RY*(   7) N  73                  0.00035     3.37619   
  1347. RY*(   8) N  73                  0.00034     3.01881   
  1348. RY*(   9) N  73                  0.00010     2.57470   
  1349. RY*(  10) N  73                  0.00009     2.49420   
  1350. RY*(  11) N  73                  0.00008     3.32236   
  1351. RY*(  12) N  73                  0.00007     3.09857   
  1352. RY*(  13) N  73                  0.00005     3.01148   
  1353. RY*(  14) N  73                  0.00002     3.86908   
  1354. RY*(  15) N  73                  0.00003     4.25023   
  1355. RY*(  16) N  73                  0.00000    31.71599   
  1356. RY*(  17) N  73                  0.00001     4.66754   
  1357. RY*(  18) N  73                  0.00001     4.69164   
  1358. RY*(  19) N  73                  0.00001     4.08900   
  1359. RY*(  20) N  73                  0.00000     4.45372   
  1360. RY*(  21) N  73                  0.00001     4.13241   
  1361. RY*(  22) N  73                  0.00000     4.12137   
  1362. RY*(  23) N  73                  0.00000     4.66967   
  1363. RY*(  24) N  73                  0.00000     4.67003   
  1364. RY*(  25) N  73                  0.00000     4.59808   
  1365. RY*(  26) N  73                  0.00000     4.68305   
  1366. RY*(   1) C  74                  0.00362     1.63243   
  1367. RY*(   2) C  74                  0.00246     0.71690   
  1368. RY*(   3) C  74                  0.00171     1.76721   
  1369. RY*(   4) C  74                  0.00065     2.05587   
  1370. RY*(   5) C  74                  0.00058     1.63147   
  1371. RY*(   6) C  74                  0.00045     1.72942   
  1372. RY*(   7) C  74                  0.00044     2.00686   
  1373. RY*(   8) C  74                  0.00020     1.59141   
  1374. RY*(   9) C  74                  0.00015     1.84863   
  1375. RY*(  10) C  74                  0.00013     1.72796   
  1376. RY*(  11) C  74                  0.00008     1.92318   
  1377. RY*(  12) C  74                  0.00005     2.69674   
  1378. RY*(  13) C  74                  0.00006     2.08866   
  1379. RY*(  14) C  74                  0.00004     2.41130   
  1380. RY*(  15) C  74                  0.00002     5.46026   
  1381. RY*(  16) C  74                  0.00002     1.51931   
  1382. RY*(  17) C  74                  0.00000     3.60643   
  1383. RY*(  18) C  74                  0.00000     3.36243   
  1384. RY*(  19) C  74                  0.00000    18.97102   
  1385. RY*(  20) C  74                  0.00001     3.28728   
  1386. RY*(  21) C  74                  0.00001     4.09034   
  1387. RY*(  22) C  74                  0.00000     3.52141   
  1388. RY*(  23) C  74                  0.00000     3.53713   
  1389. RY*(  24) C  74                  0.00000     3.40443   
  1390. RY*(  25) C  74                  0.00000     3.44451   
  1391. RY*(  26) C  74                  0.00000     3.57392   
  1392. RY*(   1) H  75                  0.00061     0.97575   
  1393. RY*(   2) H  75                  0.00025     2.25792   
  1394. RY*(   3) H  75                  0.00021     2.13340   
  1395. RY*(   4) H  75                  0.00006     2.66363   
  1396. RY*(   5) H  75                  0.00001     3.07169   
  1476. BD*(   1) C  64 - H  65          0.01186     0.35403   
  1477. BD*(   1) C  64 - H  66          0.00341     0.36747   
  1478. BD*(   1) C  64 - H  67          0.01142     0.35404   
  1479. BD*(   1) C  64 - C  70          0.01349     0.38256   
  1480. BD*(   1) N  68 - H  69          0.01398     0.35951   
  1481. BD*(   1) N  68 - C  70          0.02728     0.42264   
  1482. BD*(   1) N  68 - C  71          0.02225     0.43746   
  1483. BD*(   1) C  70 - C  74          0.02098     0.55728   
  1484. BD*(   2) C  70 - C  74          0.29785     0.02665  1487(v),1476(v),1478(v)
                                                    1287(g),1372(g)
  1485. BD*(   1) C  71 - H  72          0.01741     0.38055   
  1486. BD*(   1) C  71 - N  73          0.01524     0.52566   
  1487. BD*(   2) C  71 - N  73          0.42421    -0.01634  1484(v),1310(g),1367(v)
                                                    1341(g),150(r),1402(r)
  1488. BD*(   1) N  73 - C  74          0.01557     0.47017   
  1489. BD*(   1) C  74 - H  75          0.01397     0.42095   
       -------------------------------
              Total Lewis   42.70714  ( 97.7501%)
        Valence non-Lewis    0.90892  (  2.0804%)
        Rydberg non-Lewis    0.07406  (  0.1695%)
       -------------------------------
            Total unit  3   43.69012  (100.0000%)
           Charge unit  3    0.30988
 Unable to Open any file for archive entry.
 1\1\GINC-BGN1011\SP\RAPFD\def2TZVP\C34H34Fe1N6\BEBJONES\20-Sep-2024\0\
 \# apfd/def2TZVP int=(grid=ultrafine) geom=check guess=read pop=nbo sc
 f=qc\\1mlr_II_S_nbo\\0,1\Fe,0,35.1793832494,4.2284686901,9.9491168643\
 N,0,37.1022528837,4.0015843354,9.4389225921\N,0,34.9004756586,5.573546
 6792,8.5439184048\N,0,33.4198992403,4.6794461385,10.7735800125\N,0,35.
 6759021809,3.2621046728,11.7075974581\C,0,38.1026939745,3.304071559,10
 .0426404441\C,0,39.3193466476,3.3532187536,9.2656449717\C,0,39.0517698
 951,4.1403746136,8.1906288236\C,0,37.6708768774,4.5521493578,8.3219103
 98\C,0,35.7806392232,5.9339949771,7.5681376525\C,0,35.1707237083,6.847
 8615047,6.6377219036\C,0,33.8793005232,7.0246753752,7.061268028\C,0,33
 .7377835423,6.2241836838,8.2613184892\C,0,32.5220904645,5.600466283,10
 .3056100897\C,0,31.3955498497,5.7366559344,11.1888480309\C,0,31.625619
 1351,4.8802212775,12.2308809429\C,0,32.9046353114,4.252542094,11.96033
 11094\C,0,34.8649200823,3.0389144638,12.7807707983\C,0,35.4752283792,2
 .1280886011,13.7217390703\C,0,36.7168019636,1.8610098888,13.2372318025
 \C,0,36.8238071157,2.5808765264,11.9894170369\C,0,37.9702734976,2.5955
 99203,11.2212340674\H,0,38.8273179542,2.0476136495,11.5809206236\C,0,3
 7.0783162106,5.4612424814,7.4684524756\H,0,37.6805290142,5.8352421057,
 6.6545042838\C,0,32.648916617,6.2910835588,9.1101206795\H,0,31.8425653
 594,6.9519505914,8.8297248418\C,0,33.563934505,3.4842940942,12.8985650
 958\H,0,33.035343429,3.2447288818,13.8083655528\C,0,39.9521317307,4.54
 80469858,7.0754718191\H,0,40.9165427871,4.0528419438,7.1578380332\H,0,
 40.1192646894,5.6253592879,7.0929973428\H,0,39.5129942542,4.2887853192
 ,6.1121801292\C,0,40.5894906143,2.6775973324,9.654217983\H,0,40.435963
 38,1.6047572059,9.7721215203\H,0,40.9565426924,3.0722109537,10.6018555
 842\H,0,41.3566368361,2.8330601815,8.8999847444\C,0,35.830474317,7.401
 2172928,5.4234251033\H,0,36.4735686529,6.6548501684,4.9596278871\H,0,3
 6.4454813103,8.2662829128,5.6765482501\H,0,35.0800767023,7.7127670941,
 4.6998804663\C,0,32.8161799134,7.8134731316,6.4789052871\H,0,31.817777
 6262,7.409365139,6.6041839396\C,0,32.9689446042,8.9634752177,5.8303892
 497\H,0,33.9290261678,9.4360921522,5.7193384216\H,0,32.1270531291,9.48
 86927237,5.4105809995\C,0,30.2094171713,6.6016626444,10.9426680531\H,0
 ,29.9304180957,6.5861228591,9.8900405178\H,0,30.4188874863,7.635870664
 9,11.2198447506\H,0,29.3645646225,6.2512425038,11.53187482\C,0,30.8043
 600093,4.6063093673,13.3901803903\H,0,30.8299966061,3.5838967132,13.74
 99821189\C,0,30.0486192142,5.4959740148,14.0251145332\H,0,30.024800714
 1,6.533379384,13.740554004\H,0,29.4471001922,5.2203427503,14.875435801
 3\C,0,34.827787383,1.6550144839,14.9773282506\H,0,33.9169223503,1.0995
 299316,14.7524801671\H,0,34.5608195033,2.499489086,15.6126444085\H,0,3
 5.4967276036,1.0044396065,15.5354444776\C,0,37.7905978726,0.9980726472
 ,13.8056212099\H,0,38.0572577906,0.2032695492,13.1084666475\H,0,37.466
 3102871,0.5417625314,14.7374937854\H,0,38.686372613,1.5860228444,14.00
 64382382\C,0,32.2111460312,0.6949252291,6.8092652465\H,0,32.6385168084
 ,0.3700232799,5.8607982654\H,0,31.4306134932,1.4215607146,6.6078226777
 \H,0,31.7648546933,-0.1715709005,7.2965269336\N,0,34.3445624131,0.6113
 464387,8.116198704\H,0,34.5492544032,-0.3528568298,7.9110957213\C,0,33
 .2509758332,1.3076550712,7.6738684145\C,0,35.0881158915,1.4502917904,8
 .8731701561\H,0,36.0052891513,1.1750030589,9.3535975806\N,0,34.5314791
 508,2.6387824648,8.9386586231\C,0,33.3868042438,2.5628004772,8.1941867
 401\H,0,32.7433824715,3.4125526051,8.0865294589\\Version=ES64L-G16RevC
 .02\State=1-A\HF=-2907.5972274\RMSD=4.884e-10\Dipole=-0.0829739,-2.256
 6776,-1.0820586\Quadrupole=-2.1936558,6.6157322,-4.4220765,-0.7438931,
 1.0024629,2.6119314\PG=C01 [X(C34H34Fe1N6)]\\@
 The archive entry for this job was punched.


 WORK FAITHFULLY FOR EIGHT HOURS A DAY AND DON'T WORRY.
 IN TIME YOU MAY BECOME BOSS AND WORK TWELVE HOURS A DAY
 AND HAVE ALL THE WORRY.
 Job cpu time:       0 days  0 hours 43 minutes 16.9 seconds.
 Elapsed time:       0 days  0 hours  0 minutes 54.3 seconds.
 File lengths (MBytes):  RWF=    749 Int=      0 D2E=      0 Chk=    150 Scr=      1
 Normal termination of Gaussian 16 at Fri Sep 20 04:42:01 2024.
