 Entering Gaussian System, Link 0=g16
 Input=1ntf16re.com
 Output=1ntf16re.log
 Initial command:
 /sw/chem/gaussian/g16_C02/a100/g16/l1.exe "/local/bebjones_8025570/Gau-927840.inp" -scrdir="/local/bebjones_8025570/"
 Entering Link 1 = /sw/chem/gaussian/g16_C02/a100/g16/l1.exe PID=    927841.
  
 Copyright (c) 1988-2021, Gaussian, Inc.  All Rights Reserved.
  
 This is part of the Gaussian(R) 16 program.  It is based on
 the Gaussian(R) 09 system (copyright 2009, Gaussian, Inc.),
 the Gaussian(R) 03 system (copyright 2003, Gaussian, Inc.),
 the Gaussian(R) 98 system (copyright 1998, Gaussian, Inc.),
 the Gaussian(R) 94 system (copyright 1995, Gaussian, Inc.),
 the Gaussian 92(TM) system (copyright 1992, Gaussian, Inc.),
 the Gaussian 90(TM) system (copyright 1990, Gaussian, Inc.),
 the Gaussian 88(TM) system (copyright 1988, Gaussian, Inc.),
 the Gaussian 86(TM) system (copyright 1986, Carnegie Mellon
 University), and the Gaussian 82(TM) system (copyright 1983,
 Carnegie Mellon University). Gaussian is a federally registered
 trademark of Gaussian, Inc.
  
 This software contains proprietary and confidential information,
 including trade secrets, belonging to Gaussian, Inc.
  
 This software is provided under written license and may be
 used, copied, transmitted, or stored only in accord with that
 written license.
  
 The following legend is applicable only to US Government
 contracts under FAR:
  
                    RESTRICTED RIGHTS LEGEND
  
 Use, reproduction and disclosure by the US Government is
 subject to restrictions as set forth in subparagraphs (a)
 and (c) of the Commercial Computer Software - Restricted
 Rights clause in FAR 52.227-19.
  
 Gaussian, Inc.
 340 Quinnipiac St., Bldg. 40, Wallingford CT 06492
  
  
 ---------------------------------------------------------------
 Warning -- This program may not be used in any manner that
 competes with the business of Gaussian, Inc. or will provide
 assistance to any competitor of Gaussian, Inc.  The licensee
 of this program is prohibited from giving any competitor of
 Gaussian, Inc. access to this program.  By using this program,
 the user acknowledges that Gaussian, Inc. is engaged in the
 business of creating and licensing software in the field of
 computational chemistry and represents and warrants to the
 licensee that it is not a competitor of Gaussian, Inc. and that
 it will not use this program in any manner prohibited above.
 ---------------------------------------------------------------
  

 Cite this work as:
 Gaussian 16, Revision C.02,
 M. J. Frisch, G. W. Trucks, H. B. Schlegel, G. E. Scuseria, 
 M. A. Robb, J. R. Cheeseman, G. Scalmani, V. Barone, 
 G. A. Petersson, H. Nakatsuji, X. Li, M. Caricato, A. V. Marenich, 
 J. Bloino, B. G. Janesko, R. Gomperts, B. Mennucci, H. P. Hratchian, 
 J. V. Ortiz, A. F. Izmaylov, J. L. Sonnenberg, D. Williams-Young, 
 F. Ding, F. Lipparini, F. Egidi, J. Goings, B. Peng, A. Petrone, 
 T. Henderson, D. Ranasinghe, V. G. Zakrzewski, J. Gao, N. Rega, 
 G. Zheng, W. Liang, M. Hada, M. Ehara, K. Toyota, R. Fukuda, 
 J. Hasegawa, M. Ishida, T. Nakajima, Y. Honda, O. Kitao, H. Nakai, 
 T. Vreven, K. Throssell, J. A. Montgomery, Jr., J. E. Peralta, 
 F. Ogliaro, M. J. Bearpark, J. J. Heyd, E. N. Brothers, K. N. Kudin, 
 V. N. Staroverov, T. A. Keith, R. Kobayashi, J. Normand, 
 K. Raghavachari, A. P. Rendell, J. C. Burant, S. S. Iyengar, 
 J. Tomasi, M. Cossi, J. M. Millam, M. Klene, C. Adamo, R. Cammi, 
 J. W. Ochterski, R. L. Martin, K. Morokuma, O. Farkas, 
 J. B. Foresman, and D. J. Fox, Gaussian, Inc., Wallingford CT, 2019.
 
 ******************************************
 Gaussian 16:  ES64L-G16RevC.02  7-Dec-2021
                21-Sep-2024 
 ******************************************
 %mem=16GB
 %CPU=0-71
 SetSPE:  set environment variable "OMP_PROC_BIND" = "true"
 SetSPE:  set environment variable "OMP_PLACES" = "{0},{1},{2},{3},{4},{5},{6},{7},{8},{9},{10},{11},{12},{13},{14},{15},{16},{17},{18},{19},{20},{21},{22},{23},{24},{25},{26},{27},{28},{29},{30},{31},{32},{33},{34},{35},{36},{37},{38},{39},{40},{41},{42},{43},{44},{45},{46},{47},{48},{49},{50},{51},{52},{53},{54},{55},{56},{57},{58},{59},{60},{61},{62},{63},{64},{65},{66},{67},{68},{69},{70},{71}"
 Will use up to   72 processors via shared memory.
 %gpucpu=0,1,2,3=0,1,2,3
 Will use    4 GPUs:
 Thread  CPU   GPU
      0    0     0
      1    1     1
      2    2     2
      3    3     3
      4    4    -1
      5    5    -1
      6    6    -1
      7    7    -1
      8    8    -1
      9    9    -1
     10   10    -1
     11   11    -1
     12   12    -1
     13   13    -1
     14   14    -1
     15   15    -1
     16   16    -1
     17   17    -1
     18   18    -1
     19   19    -1
     20   20    -1
     21   21    -1
     22   22    -1
     23   23    -1
     24   24    -1
     25   25    -1
     26   26    -1
     27   27    -1
     28   28    -1
     29   29    -1
     30   30    -1
     31   31    -1
     32   32    -1
     33   33    -1
     34   34    -1
     35   35    -1
     36   36    -1
     37   37    -1
     38   38    -1
     39   39    -1
     40   40    -1
     41   41    -1
     42   42    -1
     43   43    -1
     44   44    -1
     45   45    -1
     46   46    -1
     47   47    -1
     48   48    -1
     49   49    -1
     50   50    -1
     51   51    -1
     52   52    -1
     53   53    -1
     54   54    -1
     55   55    -1
     56   56    -1
     57   57    -1
     58   58    -1
     59   59    -1
     60   60    -1
     61   61    -1
     62   62    -1
     63   63    -1
     64   64    -1
     65   65    -1
     66   66    -1
     67   67    -1
     68   68    -1
     69   69    -1
     70   70    -1
     71   71    -1
 SetGPE:  set environment variable "OMP_PROC_BIND" = "true"
 SetGPE:  set environment variable "OMP_PLACES" = "{0},{1},{2},{3},{4},{5},{6},{7},{8},{9},{10},{11},{12},{13},{14},{15},{16},{17},{18},{19},{20},{21},{22},{23},{24},{25},{26},{27},{28},{29},{30},{31},{32},{33},{34},{35},{36},{37},{38},{39},{40},{41},{42},{43},{44},{45},{46},{47},{48},{49},{50},{51},{52},{53},{54},{55},{56},{57},{58},{59},{60},{61},{62},{63},{64},{65},{66},{67},{68},{69},{70},{71}"
 %oldchk=1ntf_III_D.chk
 %chk=1ntf_III_Dre.chk
 Properties for Device   0
 Minimum vector length:                              32
 Maximum vector length:                            1024
 Number of SMPs:                                    108
 Maximum number of threads per SMP:                2048
 Number of ASync Engines:                             5
 Memory:                                           9207742464
 Properties for Device   1
 Minimum vector length:                              32
 Maximum vector length:                            1024
 Number of SMPs:                                    108
 Maximum number of threads per SMP:                2048
 Number of ASync Engines:                             5
 Memory:                                           9207742464
 Properties for Device   2
 Minimum vector length:                              32
 Maximum vector length:                            1024
 Number of SMPs:                                    108
 Maximum number of threads per SMP:                2048
 Number of ASync Engines:                             5
 Memory:                                           9207742464
 Properties for Device   3
 Minimum vector length:                              32
 Maximum vector length:                            1024
 Number of SMPs:                                    108
 Maximum number of threads per SMP:                2048
 Number of ASync Engines:                             5
 Memory:                                           9207742464
   8286968217 words of memory will be used on each GPU.
 Copying data from "1ntf_III_D.chk" to current chk file "1ntf_III_Dre.chk"
 IOpt=  2 FromEx=T IUOpen= 4 IOptOp= 5 NList=   0 IFRang= 0 IUIn= 4 IUOut= 2.
 --------------------------------------
 # apfd/gen scf=maxcycle=999 geom=check
 --------------------------------------
 1/29=2,38=1,172=1/1;
 2/12=2,40=1/2;
 3/5=7,11=2,14=-4,25=1,30=1,74=-44/1,2,3;
 4//1;
 5/5=2,7=999,38=5/2;
 6/7=2,8=2,9=2,10=2,28=1/1;
 99/5=1,9=1/99;
 ----------
 1ntf_III_H
 ----------
 Structure from the checkpoint file:  "1ntf_III_Dre.chk"
 Charge =  1 Multiplicity = 6
 Z-Matrix found in chk file.
 Fe,0,10.2523970791,18.7121056812,4.6868703049
 N,0,8.2719694358,18.752972041,4.9754399404
 N,0,10.1988574167,20.5713287149,3.9670636404
 N,0,12.2681659771,18.8678306331,4.8667313978
 N,0,10.3394229613,17.0366898564,5.8330026652
 C,0,7.4893323165,17.8194122123,5.5791429696
 C,0,6.0888935031,18.0995316752,5.3537749761
 C,0,6.0418570558,19.2445715088,4.6205829961
 C,0,7.4142848834,19.65148807,4.4172567003
 C,0,9.0843410399,21.2520860078,3.5928244543
 C,0,9.4360583281,22.5374238414,3.0303115577
 C,0,10.7922108038,22.619935523,3.0887068889
 C,0,11.2507792569,21.37896522,3.6758763415
 C,0,13.0497058624,19.8983766367,4.4502674897
 C,0,14.4531000589,19.5942983016,4.6411310156
 C,0,14.4947204526,18.3360736493,5.1802424317
 C,0,13.1250512654,17.9148249283,5.3276934739
 C,0,11.450425792,16.3157660895,6.1315647771
 C,0,11.0974394592,15.0798462614,6.8023808754
 C,0,9.7316522348,15.0743610603,6.8891177456
 C,0,9.2834557712,16.2972902987,6.272041405
 C,0,7.9575229325,16.6930221715,6.2289928921
 H,0,7.2236352089,16.0285174804,6.6580295532
 C,0,7.7851420832,20.8030569819,3.7450441521
 H,0,6.9942827863,21.4326452874,3.3667253074
 C,0,12.5805436546,21.0781101909,3.9007505551
 H,0,13.3088558761,21.82528643,3.6258278465
 C,0,12.7500671586,16.698369146,5.8678086139
 H,0,13.5369474101,16.0213935839,6.1611237054
 C,0,4.9712573887,17.2551183746,5.8610159337
 H,0,5.0112601006,17.1792606493,6.9477097133
 H,0,5.0343867514,16.2472398855,5.4496663675
 H,0,4.0094402285,17.6787668924,5.5828825034
 C,0,4.8585925911,19.9884824514,4.1041915325
 H,0,4.9123532542,20.0942379043,3.0203374092
 H,0,4.8154898703,20.9875196194,4.5387858035
 H,0,3.9368632277,19.4681058658,4.3520104316
 C,0,8.8521338824,14.0698816967,7.5471740648
 H,0,8.400470914,13.4058386632,6.8083540348
 H,0,8.0487457123,14.5584948908,8.0963936387
 H,0,9.4319980042,13.4662577781,8.2422163065
 C,0,12.0473519871,14.0987585988,7.2804474445
 H,0,12.985382591,14.4951326749,7.6513291596
 C,0,11.8546948311,12.7842338309,7.2866151587
 H,0,10.9635423581,12.334481442,6.8847483645
 H,0,12.6011363967,12.1071585953,7.6672766016
 C,0,15.686386211,17.5089289456,5.5125677101
 H,0,15.5195332103,16.4678684291,5.2406640331
 H,0,15.9043151348,17.5489413251,6.5812680231
 H,0,16.5558187529,17.8755615939,4.9710085746
 C,0,15.5437274605,20.4793829203,4.2938771672
 H,0,15.3796460159,21.1071583994,3.4260133688
 C,0,16.6929628806,20.5778459652,4.953394993
 H,0,16.8904960704,20.0137682591,5.8482753959
 H,0,17.4702238869,21.2515723467,4.6331991884
 C,0,11.6901729713,23.7282256675,2.6589963898
 H,0,12.4301676925,23.3665778094,1.9451799485
 H,0,12.2217918856,24.1445435389,3.5153351286
 H,0,11.1214837421,24.5260733312,2.1876296862
 C,0,8.44908408,23.5303044329,2.5202757201
 H,0,7.8749432859,23.1108908609,1.6933907681
 H,0,8.9508498611,24.4281266829,2.1682381546
 H,0,7.7501219706,23.8145220605,3.3069871685
 O,0,10.375,19.758,6.705
 H,0,11.306,19.726,6.926
 H,0,9.726,20.096,7.21
 C,0,9.1077594101,18.425358992,1.5312589698
 H,0,9.625250894,19.3207048505,1.2035725772
 H,0,8.1956790524,18.6990265215,2.0507194072
 H,0,8.9040907642,17.7774928558,0.6843482011
 S,0,10.238637193,17.5674972001,2.6865478565
 H,0,9.3795360573,16.5780593556,2.9684642931
 Recover connectivity data from disk.
 Stoichiometry    C31H34FeN4OS(1+,6)
 Framework group  C1[X(C31H34FeN4OS)]
 Deg. of freedom   210
 Full point group                 C1      NOp   1
 Largest Abelian subgroup         C1      NOp   1
 Largest concise Abelian subgroup C1      NOp   1
                         Standard orientation:                         
 ---------------------------------------------------------------------
 Center     Atomic      Atomic             Coordinates (Angstroms)
 Number     Number       Type             X           Y           Z
 ---------------------------------------------------------------------
      1         26           0        0.171923   -0.031169    0.077517
      2          7           0        1.549965   -1.436540   -0.287131
      3          7           0        1.554099    1.393236   -0.118336
      4          7           0       -1.272595    1.387872   -0.062532
      5          7           0       -1.268827   -1.438968   -0.188099
      6          6           0        1.367648   -2.775018   -0.441245
      7          6           0        2.634959   -3.470904   -0.428892
      8          6           0        3.593703   -2.515479   -0.291515
      9          6           0        2.897729   -1.249583   -0.231449
     10          6           0        2.899281    1.204475   -0.140410
     11          6           0        3.591849    2.472923   -0.200483
     12          6           0        2.627825    3.431683   -0.228841
     13          6           0        1.359773    2.735884   -0.174366
     14          6           0       -1.094794    2.733776   -0.119108
     15          6           0       -2.366896    3.426095   -0.089776
     16          6           0       -3.323658    2.450060   -0.003370
     17          6           0       -2.619460    1.193367   -0.007020
     18          6           0       -2.609859   -1.256544   -0.080612
     19          6           0       -3.308533   -2.525593   -0.139434
     20          6           0       -2.340478   -3.483327   -0.275611
     21          6           0       -1.080684   -2.783492   -0.294830
     22          6           0        0.139420   -3.406651   -0.493759
     23          1           0        0.139381   -4.479281   -0.610783
     24          6           0        3.533803   -0.024361   -0.132668
     25          1           0        4.612968   -0.026226   -0.113588
     26          6           0        0.132109    3.370046   -0.180128
     27          1           0        0.133538    4.447516   -0.238008
     28          6           0       -3.246663   -0.038059    0.041031
     29          1           0       -4.322487   -0.044852    0.118909
     30          6           0        2.783182   -4.948166   -0.552038
     31          1           0        2.344551   -5.300577   -1.485669
     32          1           0        2.277700   -5.454581    0.270789
     33          1           0        3.831953   -5.234162   -0.537447
     34          6           0        5.074325   -2.665702   -0.218233
     35          1           0        5.461040   -2.230466    0.703632
     36          1           0        5.552105   -2.158627   -1.056927
     37          1           0        5.358035   -3.714742   -0.246784
     38          6           0       -2.512078   -4.951480   -0.450687
     39          1           0       -2.326964   -5.478641    0.486671
     40          1           0       -1.818282   -5.336808   -1.196332
     41          1           0       -3.527515   -5.171445   -0.773474
     42          6           0       -4.745910   -2.680853   -0.082388
     43          1           0       -5.322491   -1.890879   -0.549361
     44          6           0       -5.385727   -3.692388    0.494293
     45          1           0       -4.864719   -4.476823    1.015004
     46          1           0       -6.461279   -3.753153    0.492474
     47          6           0       -4.798029    2.606052    0.125354
     48          1           0       -5.201476    1.879018    0.828370
     49          1           0       -5.292298    2.457418   -0.836323
     50          1           0       -5.036032    3.605680    0.482728
     51          6           0       -2.524884    4.863781   -0.128858
     52          1           0       -1.741733    5.434646    0.355909
     53          6           0       -3.529462    5.510719   -0.709973
     54          1           0       -4.308433    4.996985   -1.245972
     55          1           0       -3.592225    6.586039   -0.692253
     56          6           0        2.770857    4.912659   -0.303320
     57          1           0        2.253913    5.389615    0.529264
     58          1           0        2.340993    5.292961   -1.230598
     59          1           0        3.818186    5.202366   -0.266886
     60          6           0        5.074080    2.620564   -0.235969
     61          1           0        5.523379    2.200392    0.664515
     62          1           0        5.356563    3.668183   -0.302919
     63          1           0        5.490649    2.097658   -1.096946
     64          8           0        0.025110    0.140563   -2.187594
     65          1           0       -0.749878    0.684741   -2.328625
     66          1           0        0.531411   -0.227192   -2.819168
     67          6           0        1.898551   -0.045445    2.970414
     68          1           0        2.159883    1.003832    2.883556
     69          1           0        2.554583   -0.639301    2.343054
     70          1           0        1.947849   -0.360610    4.008060
     71         16           0        0.174553   -0.200343    2.375990
     72          1           0        0.123035   -1.530735    2.530651
 ---------------------------------------------------------------------
 Rotational constants (GHZ):           0.1077174           0.1068843           0.0594997
 General basis read from cards:  (5D, 7F)
 Warning:  center  64 has no basis functions!
 There are   648 symmetry adapted cartesian basis functions of A   symmetry.
 There are   609 symmetry adapted basis functions of A   symmetry.
   609 basis functions,  1254 primitive gaussians,   648 cartesian basis functions
   151 alpha electrons      146 beta electrons
       nuclear repulsion energy      5400.9383972422 Hartrees.



 Warning!  O  atom   64 has  8 valence electrons but only   0 basis functions.
 This is less than a minimal basis set!



 NAtoms=   72 NActive=   72 NUniq=   72 SFac= 1.00D+00 NAtFMM=   60 NAOKFM=T Big=T
 Integral buffers will be    131072 words long.
 Raffenetti 2 integral format.
 Two-electron integral symmetry is turned on.
 R6APFD:  NTU= -4 IXU= 1 FactS= 1.050
 Nuclear repulsion after empirical dispersion term =     5400.7888395676 Hartrees.
 One-electron integrals computed using PRISM.
 NBasis=   609 RedAO= T EigKep=  2.57D-04  NBF=   609
 NBsUse=   609 1.00D-06 EigRej= -1.00D+00 NBFU=   609
 ExpMin= 4.20D-02 ExpMax= 3.01D+05 ExpMxC= 3.30D+03 IAcc=3 IRadAn=         5 AccDes= 0.00D+00
 Harris functional with IExCor= 3731 and IRadAn=       5 diagonalized for initial guess.
 HarFok:  IExCor= 3731 AccDes= 0.00D+00 IRadAn=         5 IDoV= 1 UseB2=F ITyADJ=14
 ICtDFT=  3500011 ScaDFX=  1.000000  1.000000  1.000000  1.000000
 FoFCou: FMM=F IPFlag=           0 FMFlag=      100000 FMFlg1=        2001
         NFxFlg=           0 DoJE=T BraDBF=F KetDBF=T FulRan=T
         wScrn=  0.000000 ICntrl=       500 IOpCl=  0 I1Cent=   200000004 NGrid=           0
         NMat0=    1 NMatS0=      1 NMatT0=    0 NMatD0=    1 NMtDS0=    0 NMtDT0=    0
 Petite list used in FoFCou.
 Initial guess <Sx>= 0.0000 <Sy>= 0.0000 <Sz>= 2.5000 <S**2>= 8.7500 S= 2.5000
 Requested convergence on RMS density matrix=1.00D-08 within 999 cycles.
 Requested convergence on MAX density matrix=1.00D-06.
 Requested convergence on             energy=1.00D-06.
 No special actions if energy rises.
 EnCoef did   100 forward-backward iterations
 EnCoef did   100 forward-backward iterations
 EnCoef did     2 forward-backward iterations
 EnCoef did     1 forward-backward iterations
 EnCoef did   100 forward-backward iterations
 EnCoef did     2 forward-backward iterations
 EnCoef did     8 forward-backward iterations
 EnCoef did     4 forward-backward iterations
 Restarting incremental Fock formation.
 Restarting incremental Fock formation.
 SCF Done:  E(UAPFD) =  -3095.18496655     A.U. after   47 cycles
            NFock= 47  Conv=0.85D-08     -V/T= 2.0051
 <Sx>= 0.0000 <Sy>= 0.0000 <Sz>= 2.5000 <S**2>= 8.8282 S= 2.5130
 <L.S>=  0.00000000000    
 Annihilation of the first spin contaminant:
 S**2 before annihilation     8.8282,   after     8.7517

 **********************************************************************

            Population analysis using the SCF Density.

 **********************************************************************

 Orbital symmetries:
 Alpha Orbitals:
       Occupied  (A) (A) (A) (A) (A) (A) (A) (A) (A) (A) (A) (A)
                 (A) (A) (A) (A) (A) (A) (A) (A) (A) (A) (A) (A)
                 (A) (A) (A) (A) (A) (A) (A) (A) (A) (A) (A) (A)
                 (A) (A) (A) (A) (A) (A) (A) (A) (A) (A) (A) (A)
                 (A) (A) (A) (A) (A) (A) (A) (A) (A) (A) (A) (A)
                 (A) (A) (A) (A) (A) (A) (A) (A) (A) (A) (A) (A)
                 (A) (A) (A) (A) (A) (A) (A) (A) (A) (A) (A) (A)
                 (A) (A) (A) (A) (A) (A) (A) (A) (A) (A) (A) (A)
                 (A) (A) (A) (A) (A) (A) (A) (A) (A) (A) (A) (A)
                 (A) (A) (A) (A) (A) (A) (A) (A) (A) (A) (A) (A)
                 (A) (A) (A) (A) (A) (A) (A) (A) (A) (A) (A) (A)
                 (A) (A) (A) (A) (A) (A) (A) (A) (A) (A) (A) (A)
                 (A) (A) (A) (A) (A) (A) (A)
       Virtual   (A) (A) (A) (A) (A) (A) (A) (A) (A) (A) (A) (A)
                 (A) (A) (A) (A) (A) (A) (A) (A) (A) (A) (A) (A)
                 (A) (A) (A) (A) (A) (A) (A) (A) (A) (A) (A) (A)
                 (A) (A) (A) (A) (A) (A) (A) (A) (A) (A) (A) (A)
                 (A) (A) (A) (A) (A) (A) (A) (A) (A) (A) (A) (A)
                 (A) (A) (A) (A) (A) (A) (A) (A) (A) (A) (A) (A)
                 (A) (A) (A) (A) (A) (A) (A) (A) (A) (A) (A) (A)
                 (A) (A) (A) (A) (A) (A) (A) (A) (A) (A) (A) (A)
                 (A) (A) (A) (A) (A) (A) (A) (A) (A) (A) (A) (A)
                 (A) (A) (A) (A) (A) (A) (A) (A) (A) (A) (A) (A)
                 (A) (A) (A) (A) (A) (A) (A) (A) (A) (A) (A) (A)
                 (A) (A) (A) (A) (A) (A) (A) (A) (A) (A) (A) (A)
                 (A) (A) (A) (A) (A) (A) (A) (A) (A) (A) (A) (A)
                 (A) (A) (A) (A) (A) (A) (A) (A) (A) (A) (A) (A)
                 (A) (A) (A) (A) (A) (A) (A) (A) (A) (A) (A) (A)
                 (A) (A) (A) (A) (A) (A) (A) (A) (A) (A) (A) (A)
                 (A) (A) (A) (A) (A) (A) (A) (A) (A) (A) (A) (A)
                 (A) (A) (A) (A) (A) (A) (A) (A) (A) (A) (A) (A)
                 (A) (A) (A) (A) (A) (A) (A) (A) (A) (A) (A) (A)
                 (A) (A) (A) (A) (A) (A) (A) (A) (A) (A) (A) (A)
                 (A) (A) (A) (A) (A) (A) (A) (A) (A) (A) (A) (A)
                 (A) (A) (A) (A) (A) (A) (A) (A) (A) (A) (A) (A)
                 (A) (A) (A) (A) (A) (A) (A) (A) (A) (A) (A) (A)
                 (A) (A) (A) (A) (A) (A) (A) (A) (A) (A) (A) (A)
                 (A) (A) (A) (A) (A) (A) (A) (A) (A) (A) (A) (A)
                 (A) (A) (A) (A) (A) (A) (A) (A) (A) (A) (A) (A)
                 (A) (A) (A) (A) (A) (A) (A) (A) (A) (A) (A) (A)
                 (A) (A) (A) (A) (A) (A) (A) (A) (A) (A) (A) (A)
                 (A) (A) (A) (A) (A) (A) (A) (A) (A) (A) (A) (A)
                 (A) (A) (A) (A) (A) (A) (A) (A) (A) (A) (A) (A)
                 (A) (A) (A) (A) (A) (A) (A) (A) (A) (A) (A) (A)
                 (A) (A) (A) (A) (A) (A) (A) (A) (A) (A) (A) (A)
                 (A) (A) (A) (A) (A) (A) (A) (A) (A) (A) (A) (A)
                 (A) (A) (A) (A) (A) (A) (A) (A) (A) (A) (A) (A)
                 (A) (A) (A) (A) (A) (A) (A) (A) (A) (A) (A) (A)
                 (A) (A) (A) (A) (A) (A) (A) (A) (A) (A) (A) (A)
                 (A) (A) (A) (A) (A) (A) (A) (A) (A) (A) (A) (A)
                 (A) (A) (A) (A) (A) (A) (A) (A) (A) (A) (A) (A)
                 (A) (A)
 Beta  Orbitals:
       Occupied  (A) (A) (A) (A) (A) (A) (A) (A) (A) (A) (A) (A)
                 (A) (A) (A) (A) (A) (A) (A) (A) (A) (A) (A) (A)
                 (A) (A) (A) (A) (A) (A) (A) (A) (A) (A) (A) (A)
                 (A) (A) (A) (A) (A) (A) (A) (A) (A) (A) (A) (A)
                 (A) (A) (A) (A) (A) (A) (A) (A) (A) (A) (A) (A)
                 (A) (A) (A) (A) (A) (A) (A) (A) (A) (A) (A) (A)
                 (A) (A) (A) (A) (A) (A) (A) (A) (A) (A) (A) (A)
                 (A) (A) (A) (A) (A) (A) (A) (A) (A) (A) (A) (A)
                 (A) (A) (A) (A) (A) (A) (A) (A) (A) (A) (A) (A)
                 (A) (A) (A) (A) (A) (A) (A) (A) (A) (A) (A) (A)
                 (A) (A) (A) (A) (A) (A) (A) (A) (A) (A) (A) (A)
                 (A) (A) (A) (A) (A) (A) (A) (A) (A) (A) (A) (A)
                 (A) (A)
       Virtual   (A) (A) (A) (A) (A) (A) (A) (A) (A) (A) (A) (A)
                 (A) (A) (A) (A) (A) (A) (A) (A) (A) (A) (A) (A)
                 (A) (A) (A) (A) (A) (A) (A) (A) (A) (A) (A) (A)
                 (A) (A) (A) (A) (A) (A) (A) (A) (A) (A) (A) (A)
                 (A) (A) (A) (A) (A) (A) (A) (A) (A) (A) (A) (A)
                 (A) (A) (A) (A) (A) (A) (A) (A) (A) (A) (A) (A)
                 (A) (A) (A) (A) (A) (A) (A) (A) (A) (A) (A) (A)
                 (A) (A) (A) (A) (A) (A) (A) (A) (A) (A) (A) (A)
                 (A) (A) (A) (A) (A) (A) (A) (A) (A) (A) (A) (A)
                 (A) (A) (A) (A) (A) (A) (A) (A) (A) (A) (A) (A)
                 (A) (A) (A) (A) (A) (A) (A) (A) (A) (A) (A) (A)
                 (A) (A) (A) (A) (A) (A) (A) (A) (A) (A) (A) (A)
                 (A) (A) (A) (A) (A) (A) (A) (A) (A) (A) (A) (A)
                 (A) (A) (A) (A) (A) (A) (A) (A) (A) (A) (A) (A)
                 (A) (A) (A) (A) (A) (A) (A) (A) (A) (A) (A) (A)
                 (A) (A) (A) (A) (A) (A) (A) (A) (A) (A) (A) (A)
                 (A) (A) (A) (A) (A) (A) (A) (A) (A) (A) (A) (A)
                 (A) (A) (A) (A) (A) (A) (A) (A) (A) (A) (A) (A)
                 (A) (A) (A) (A) (A) (A) (A) (A) (A) (A) (A) (A)
                 (A) (A) (A) (A) (A) (A) (A) (A) (A) (A) (A) (A)
                 (A) (A) (A) (A) (A) (A) (A) (A) (A) (A) (A) (A)
                 (A) (A) (A) (A) (A) (A) (A) (A) (A) (A) (A) (A)
                 (A) (A) (A) (A) (A) (A) (A) (A) (A) (A) (A) (A)
                 (A) (A) (A) (A) (A) (A) (A) (A) (A) (A) (A) (A)
                 (A) (A) (A) (A) (A) (A) (A) (A) (A) (A) (A) (A)
                 (A) (A) (A) (A) (A) (A) (A) (A) (A) (A) (A) (A)
                 (A) (A) (A) (A) (A) (A) (A) (A) (A) (A) (A) (A)
                 (A) (A) (A) (A) (A) (A) (A) (A) (A) (A) (A) (A)
                 (A) (A) (A) (A) (A) (A) (A) (A) (A) (A) (A) (A)
                 (A) (A) (A) (A) (A) (A) (A) (A) (A) (A) (A) (A)
                 (A) (A) (A) (A) (A) (A) (A) (A) (A) (A) (A) (A)
                 (A) (A) (A) (A) (A) (A) (A) (A) (A) (A) (A) (A)
                 (A) (A) (A) (A) (A) (A) (A) (A) (A) (A) (A) (A)
                 (A) (A) (A) (A) (A) (A) (A) (A) (A) (A) (A) (A)
                 (A) (A) (A) (A) (A) (A) (A) (A) (A) (A) (A) (A)
                 (A) (A) (A) (A) (A) (A) (A) (A) (A) (A) (A) (A)
                 (A) (A) (A) (A) (A) (A) (A) (A) (A) (A) (A) (A)
                 (A) (A) (A) (A) (A) (A) (A) (A) (A) (A) (A) (A)
                 (A) (A) (A) (A) (A) (A) (A)
 The electronic state is 6-A.
 Alpha  occ. eigenvalues -- -256.28480 -89.02636 -30.17611 -26.02317 -26.00147
 Alpha  occ. eigenvalues --  -25.99890 -14.46129 -14.46062 -14.45993 -14.45788
 Alpha  occ. eigenvalues --  -10.32305 -10.32075 -10.31972 -10.31939 -10.31488
 Alpha  occ. eigenvalues --  -10.31281 -10.31267 -10.31119 -10.29482 -10.29067
 Alpha  occ. eigenvalues --  -10.28925 -10.28919 -10.28879 -10.28618 -10.28581
 Alpha  occ. eigenvalues --  -10.28486 -10.28459 -10.28424 -10.28300 -10.28192
 Alpha  occ. eigenvalues --  -10.28117 -10.27624 -10.27463 -10.27453 -10.27425
 Alpha  occ. eigenvalues --  -10.27273 -10.27193 -10.27001 -10.27001 -10.26931
 Alpha  occ. eigenvalues --  -10.26790  -8.05946  -6.00543  -6.00248  -5.99672
 Alpha  occ. eigenvalues --   -3.63505  -2.43240  -2.39600  -2.38642  -2.34092
 Alpha  occ. eigenvalues --   -1.52064  -1.08565  -1.07207  -1.07172  -1.06126
 Alpha  occ. eigenvalues --   -0.97812  -0.92253  -0.90851  -0.90768  -0.90076
 Alpha  occ. eigenvalues --   -0.89920  -0.89459  -0.89353  -0.87787  -0.85476
 Alpha  occ. eigenvalues --   -0.84343  -0.83801  -0.83120  -0.81867  -0.80023
 Alpha  occ. eigenvalues --   -0.79127  -0.77404  -0.77298  -0.77167  -0.73832
 Alpha  occ. eigenvalues --   -0.73797  -0.73671  -0.69577  -0.68943  -0.67169
 Alpha  occ. eigenvalues --   -0.67081  -0.63944  -0.63429  -0.62469  -0.62104
 Alpha  occ. eigenvalues --   -0.60776  -0.60680  -0.60347  -0.58612  -0.57243
 Alpha  occ. eigenvalues --   -0.57153  -0.55335  -0.55141  -0.54840  -0.54524
 Alpha  occ. eigenvalues --   -0.53592  -0.53394  -0.52914  -0.52657  -0.52527
 Alpha  occ. eigenvalues --   -0.52168  -0.51850  -0.51371  -0.50898  -0.50795
 Alpha  occ. eigenvalues --   -0.50097  -0.49868  -0.49761  -0.49663  -0.49543
 Alpha  occ. eigenvalues --   -0.49501  -0.49146  -0.48909  -0.48587  -0.48226
 Alpha  occ. eigenvalues --   -0.48115  -0.47830  -0.47524  -0.47297  -0.47226
 Alpha  occ. eigenvalues --   -0.46691  -0.46522  -0.45957  -0.45585  -0.45393
 Alpha  occ. eigenvalues --   -0.45001  -0.44429  -0.44092  -0.43215  -0.42703
 Alpha  occ. eigenvalues --   -0.42246  -0.42074  -0.42007  -0.41105  -0.40742
 Alpha  occ. eigenvalues --   -0.38983  -0.38493  -0.38261  -0.37751  -0.36755
 Alpha  occ. eigenvalues --   -0.36433  -0.34101  -0.32994  -0.32322  -0.31426
 Alpha  occ. eigenvalues --   -0.30921  -0.28827  -0.28385  -0.27559  -0.21402
 Alpha  occ. eigenvalues --   -0.20324
 Alpha virt. eigenvalues --   -0.16172  -0.10986  -0.07338  -0.06814  -0.06320
 Alpha virt. eigenvalues --   -0.05258  -0.04028  -0.03555  -0.01284  -0.00419
 Alpha virt. eigenvalues --    0.01614   0.01789   0.02830   0.02939   0.03535
 Alpha virt. eigenvalues --    0.04077   0.04532   0.05012   0.05077   0.05479
 Alpha virt. eigenvalues --    0.05684   0.06095   0.06605   0.06827   0.07356
 Alpha virt. eigenvalues --    0.07762   0.08146   0.08199   0.08634   0.08848
 Alpha virt. eigenvalues --    0.09239   0.09424   0.09661   0.10062   0.10267
 Alpha virt. eigenvalues --    0.10666   0.10896   0.11237   0.11461   0.11752
 Alpha virt. eigenvalues --    0.12221   0.12633   0.13027   0.13375   0.13688
 Alpha virt. eigenvalues --    0.14227   0.14550   0.14726   0.15915   0.16036
 Alpha virt. eigenvalues --    0.16350   0.16987   0.17258   0.17779   0.17865
 Alpha virt. eigenvalues --    0.18888   0.18922   0.20105   0.20458   0.21111
 Alpha virt. eigenvalues --    0.21756   0.22554   0.22903   0.24251   0.25347
 Alpha virt. eigenvalues --    0.25769   0.25869   0.26519   0.26707   0.27675
 Alpha virt. eigenvalues --    0.28198   0.29028   0.29634   0.30042   0.30867
 Alpha virt. eigenvalues --    0.33201   0.33637   0.34001   0.34361   0.34651
 Alpha virt. eigenvalues --    0.35115   0.35969   0.37142   0.37657   0.38945
 Alpha virt. eigenvalues --    0.39288   0.39859   0.40008   0.40803   0.41404
 Alpha virt. eigenvalues --    0.41723   0.42114   0.42837   0.43445   0.43889
 Alpha virt. eigenvalues --    0.44303   0.44745   0.44845   0.45610   0.46078
 Alpha virt. eigenvalues --    0.46381   0.46733   0.47141   0.47877   0.48471
 Alpha virt. eigenvalues --    0.49059   0.49424   0.50310   0.50699   0.51064
 Alpha virt. eigenvalues --    0.51222   0.51790   0.52190   0.52701   0.53464
 Alpha virt. eigenvalues --    0.53549   0.53803   0.54262   0.54591   0.54970
 Alpha virt. eigenvalues --    0.55563   0.56165   0.56249   0.57020   0.57307
 Alpha virt. eigenvalues --    0.57668   0.57725   0.58374   0.58621   0.58817
 Alpha virt. eigenvalues --    0.59350   0.59634   0.60178   0.60557   0.61792
 Alpha virt. eigenvalues --    0.62468   0.62777   0.63417   0.63552   0.63834
 Alpha virt. eigenvalues --    0.63970   0.65593   0.65884   0.66321   0.66577
 Alpha virt. eigenvalues --    0.66977   0.67699   0.68291   0.68688   0.68925
 Alpha virt. eigenvalues --    0.69363   0.69595   0.69743   0.70469   0.70908
 Alpha virt. eigenvalues --    0.71515   0.71678   0.72148   0.72541   0.72853
 Alpha virt. eigenvalues --    0.73213   0.73991   0.74284   0.74840   0.76413
 Alpha virt. eigenvalues --    0.76946   0.77141   0.77893   0.78686   0.78815
 Alpha virt. eigenvalues --    0.79157   0.79653   0.79744   0.80513   0.81320
 Alpha virt. eigenvalues --    0.81852   0.82025   0.82357   0.82959   0.83351
 Alpha virt. eigenvalues --    0.83529   0.83953   0.84036   0.84414   0.84772
 Alpha virt. eigenvalues --    0.85065   0.85314   0.85643   0.86212   0.86688
 Alpha virt. eigenvalues --    0.87071   0.87461   0.88132   0.88289   0.89172
 Alpha virt. eigenvalues --    0.89566   0.90282   0.90870   0.90995   0.91243
 Alpha virt. eigenvalues --    0.91701   0.92027   0.92366   0.92475   0.92617
 Alpha virt. eigenvalues --    0.93756   0.94754   0.94874   0.95342   0.95883
 Alpha virt. eigenvalues --    0.96199   0.96920   0.97265   0.98229   0.98457
 Alpha virt. eigenvalues --    0.99397   1.01120   1.01987   1.03273   1.04909
 Alpha virt. eigenvalues --    1.05455   1.06503   1.07109   1.07951   1.07965
 Alpha virt. eigenvalues --    1.08321   1.08528   1.09048   1.10859   1.10997
 Alpha virt. eigenvalues --    1.11591   1.12097   1.12515   1.12782   1.13201
 Alpha virt. eigenvalues --    1.14116   1.14750   1.15775   1.16060   1.16819
 Alpha virt. eigenvalues --    1.17290   1.18236   1.19686   1.20183   1.21029
 Alpha virt. eigenvalues --    1.21481   1.21824   1.22277   1.23323   1.25634
 Alpha virt. eigenvalues --    1.26194   1.26342   1.26837   1.27812   1.28131
 Alpha virt. eigenvalues --    1.28649   1.28949   1.29501   1.29930   1.30360
 Alpha virt. eigenvalues --    1.31362   1.32589   1.33961   1.34788   1.34940
 Alpha virt. eigenvalues --    1.37135   1.38100   1.38624   1.39722   1.40747
 Alpha virt. eigenvalues --    1.41769   1.42739   1.44270   1.44667   1.45392
 Alpha virt. eigenvalues --    1.45867   1.46191   1.47276   1.47743   1.48806
 Alpha virt. eigenvalues --    1.49746   1.50533   1.51008   1.52626   1.54068
 Alpha virt. eigenvalues --    1.55236   1.55335   1.57134   1.60426   1.60945
 Alpha virt. eigenvalues --    1.61489   1.62590   1.63759   1.64874   1.65199
 Alpha virt. eigenvalues --    1.65738   1.66250   1.67055   1.68857   1.69341
 Alpha virt. eigenvalues --    1.69555   1.71021   1.71336   1.72004   1.72614
 Alpha virt. eigenvalues --    1.73245   1.73546   1.73951   1.74809   1.75564
 Alpha virt. eigenvalues --    1.76676   1.77987   1.78221   1.78414   1.79231
 Alpha virt. eigenvalues --    1.79326   1.81352   1.82180   1.82351   1.83269
 Alpha virt. eigenvalues --    1.83410   1.84130   1.84590   1.84849   1.85604
 Alpha virt. eigenvalues --    1.86188   1.87002   1.90265   1.91275   1.91472
 Alpha virt. eigenvalues --    1.91610   1.91655   1.92384   1.92656   1.94174
 Alpha virt. eigenvalues --    1.94399   1.96279   1.96502   1.96600   1.97437
 Alpha virt. eigenvalues --    1.99011   1.99079   1.99515   2.00137   2.03356
 Alpha virt. eigenvalues --    2.04244   2.04679   2.06278   2.06929   2.07440
 Alpha virt. eigenvalues --    2.08125   2.09438   2.09767   2.09903   2.10827
 Alpha virt. eigenvalues --    2.11494   2.12131   2.12681   2.13261   2.14316
 Alpha virt. eigenvalues --    2.14689   2.15940   2.16592   2.17469   2.18011
 Alpha virt. eigenvalues --    2.18237   2.18294   2.18856   2.20190   2.20718
 Alpha virt. eigenvalues --    2.21068   2.21220   2.21694   2.22184   2.22533
 Alpha virt. eigenvalues --    2.23097   2.24237   2.25602   2.25985   2.26774
 Alpha virt. eigenvalues --    2.26978   2.27460   2.28630   2.29326   2.29594
 Alpha virt. eigenvalues --    2.30921   2.31945   2.33030   2.33484   2.33691
 Alpha virt. eigenvalues --    2.34356   2.35172   2.35778   2.36203   2.36977
 Alpha virt. eigenvalues --    2.38896   2.40130   2.40555   2.42686   2.43673
 Alpha virt. eigenvalues --    2.44159   2.44397   2.44657   2.46377   2.46879
 Alpha virt. eigenvalues --    2.47454   2.48142   2.48367   2.51479   2.51848
 Alpha virt. eigenvalues --    2.53928   2.56309   2.57077   2.57936   2.59243
 Alpha virt. eigenvalues --    2.59643   2.60877   2.61921   2.62534   2.66389
 Alpha virt. eigenvalues --    2.68040   2.69262   2.70808   2.72013   2.72539
 Alpha virt. eigenvalues --    2.77768   2.78411   2.79343   2.81134   2.82082
 Alpha virt. eigenvalues --    2.83423   2.86527   2.87445   2.87906   2.88628
 Alpha virt. eigenvalues --    2.89926   2.90779   2.91412   2.95864   2.96605
 Alpha virt. eigenvalues --    3.03787   3.04905   3.11729   3.14064   3.14584
 Alpha virt. eigenvalues --    3.18791   3.21257   3.21517   3.29520   3.30689
 Alpha virt. eigenvalues --    3.31282   3.36181   3.36954   3.39179   3.41385
 Alpha virt. eigenvalues --    3.69336   3.82720   3.97558
  Beta  occ. eigenvalues -- -256.28355 -89.02581 -30.09954 -25.94944 -25.94187
  Beta  occ. eigenvalues --  -25.94032 -14.45847 -14.45723 -14.45713 -14.45530
  Beta  occ. eigenvalues --  -10.32382 -10.32172 -10.32045 -10.32034 -10.31280
  Beta  occ. eigenvalues --  -10.31030 -10.31008 -10.30868 -10.29496 -10.29181
  Beta  occ. eigenvalues --  -10.29043 -10.28977 -10.28942 -10.28716 -10.28668
  Beta  occ. eigenvalues --  -10.28397 -10.28304 -10.28243 -10.28175 -10.28117
  Beta  occ. eigenvalues --  -10.27987 -10.27456 -10.27444 -10.27285 -10.27255
  Beta  occ. eigenvalues --  -10.27207 -10.27078 -10.27038 -10.26994 -10.26943
  Beta  occ. eigenvalues --  -10.26700  -8.05882  -6.00498  -6.00181  -5.99556
  Beta  occ. eigenvalues --   -3.45250  -2.34379  -2.21798  -2.20712  -2.20173
  Beta  occ. eigenvalues --   -1.51904  -1.08079  -1.06766  -1.06674  -1.05646
  Beta  occ. eigenvalues --   -0.97209  -0.91938  -0.90672  -0.90542  -0.89798
  Beta  occ. eigenvalues --   -0.89707  -0.89290  -0.88876  -0.87569  -0.85315
  Beta  occ. eigenvalues --   -0.84246  -0.83444  -0.82942  -0.81814  -0.79811
  Beta  occ. eigenvalues --   -0.78964  -0.77186  -0.77096  -0.76969  -0.73692
  Beta  occ. eigenvalues --   -0.73651  -0.73217  -0.69401  -0.68747  -0.66931
  Beta  occ. eigenvalues --   -0.66643  -0.63705  -0.63192  -0.62279  -0.61610
  Beta  occ. eigenvalues --   -0.60407  -0.60371  -0.60095  -0.57721  -0.56897
  Beta  occ. eigenvalues --   -0.56663  -0.54792  -0.54413  -0.54054  -0.53792
  Beta  occ. eigenvalues --   -0.53285  -0.53035  -0.52423  -0.52255  -0.52062
  Beta  occ. eigenvalues --   -0.51882  -0.51627  -0.51164  -0.50691  -0.50642
  Beta  occ. eigenvalues --   -0.49782  -0.49618  -0.49502  -0.49365  -0.49192
  Beta  occ. eigenvalues --   -0.48763  -0.48728  -0.48502  -0.47961  -0.47817
  Beta  occ. eigenvalues --   -0.47678  -0.47255  -0.47082  -0.46795  -0.46376
  Beta  occ. eigenvalues --   -0.46101  -0.45322  -0.45213  -0.44693  -0.44552
  Beta  occ. eigenvalues --   -0.43476  -0.43335  -0.43107  -0.42442  -0.41792
  Beta  occ. eigenvalues --   -0.41248  -0.41138  -0.40558  -0.38172  -0.38008
  Beta  occ. eigenvalues --   -0.36966  -0.35985  -0.35611  -0.33744  -0.32717
  Beta  occ. eigenvalues --   -0.31960  -0.31391  -0.28923  -0.27403  -0.27106
  Beta  occ. eigenvalues --   -0.26473
  Beta virt. eigenvalues --   -0.17407  -0.15583  -0.12695  -0.11722  -0.09879
  Beta virt. eigenvalues --   -0.06740  -0.06375  -0.05837  -0.05015  -0.04119
  Beta virt. eigenvalues --   -0.03600  -0.03263  -0.01060  -0.00321   0.00433
  Beta virt. eigenvalues --    0.01919   0.02236   0.02932   0.03242   0.03751
  Beta virt. eigenvalues --    0.04171   0.04836   0.05498   0.05736   0.05926
  Beta virt. eigenvalues --    0.06286   0.06460   0.06953   0.07129   0.07687
  Beta virt. eigenvalues --    0.07919   0.08326   0.08404   0.08760   0.09026
  Beta virt. eigenvalues --    0.09416   0.09559   0.09786   0.10245   0.10424
  Beta virt. eigenvalues --    0.10822   0.11081   0.11370   0.11583   0.12063
  Beta virt. eigenvalues --    0.12432   0.12769   0.13262   0.13521   0.13808
  Beta virt. eigenvalues --    0.14354   0.14837   0.15317   0.16227   0.16370
  Beta virt. eigenvalues --    0.17068   0.17562   0.17735   0.17996   0.18829
  Beta virt. eigenvalues --    0.19070   0.19454   0.20579   0.21130   0.21906
  Beta virt. eigenvalues --    0.22079   0.22959   0.23310   0.24473   0.25695
  Beta virt. eigenvalues --    0.26013   0.26206   0.26906   0.26993   0.28124
  Beta virt. eigenvalues --    0.28671   0.29212   0.29850   0.30324   0.31118
  Beta virt. eigenvalues --    0.33644   0.33955   0.34302   0.34603   0.34995
  Beta virt. eigenvalues --    0.35623   0.36291   0.37496   0.38233   0.39437
  Beta virt. eigenvalues --    0.39523   0.40111   0.40886   0.41156   0.41719
  Beta virt. eigenvalues --    0.42224   0.42851   0.43229   0.44111   0.44241
  Beta virt. eigenvalues --    0.44706   0.44968   0.45068   0.46017   0.46315
  Beta virt. eigenvalues --    0.46572   0.47091   0.47373   0.48187   0.48665
  Beta virt. eigenvalues --    0.49313   0.49712   0.50597   0.50979   0.51222
  Beta virt. eigenvalues --    0.51620   0.52075   0.52484   0.53203   0.53778
  Beta virt. eigenvalues --    0.54063   0.54236   0.54580   0.55021   0.55261
  Beta virt. eigenvalues --    0.55900   0.56425   0.56616   0.57372   0.57553
  Beta virt. eigenvalues --    0.57910   0.57984   0.58511   0.59155   0.59327
  Beta virt. eigenvalues --    0.59534   0.60058   0.60501   0.60830   0.62302
  Beta virt. eigenvalues --    0.62773   0.63329   0.63780   0.63855   0.64160
  Beta virt. eigenvalues --    0.64265   0.65835   0.66131   0.66513   0.66844
  Beta virt. eigenvalues --    0.67628   0.68296   0.68528   0.68791   0.69174
  Beta virt. eigenvalues --    0.69592   0.69811   0.70170   0.70650   0.71112
  Beta virt. eigenvalues --    0.71922   0.72041   0.72356   0.72757   0.73474
  Beta virt. eigenvalues --    0.73728   0.74607   0.74979   0.75277   0.76971
  Beta virt. eigenvalues --    0.77384   0.77569   0.78313   0.78868   0.79013
  Beta virt. eigenvalues --    0.79261   0.79823   0.80047   0.80825   0.81547
  Beta virt. eigenvalues --    0.81973   0.82212   0.82955   0.83273   0.83625
  Beta virt. eigenvalues --    0.83709   0.84158   0.84281   0.84600   0.84926
  Beta virt. eigenvalues --    0.85184   0.85502   0.85801   0.86573   0.86956
  Beta virt. eigenvalues --    0.87213   0.87738   0.88360   0.88519   0.89363
  Beta virt. eigenvalues --    0.89818   0.90488   0.91021   0.91196   0.91440
  Beta virt. eigenvalues --    0.91923   0.92169   0.92451   0.92628   0.92698
  Beta virt. eigenvalues --    0.93915   0.94920   0.95242   0.95584   0.96414
  Beta virt. eigenvalues --    0.96427   0.97053   0.97643   0.98380   0.98910
  Beta virt. eigenvalues --    1.00562   1.01304   1.02230   1.03994   1.05252
  Beta virt. eigenvalues --    1.06124   1.06952   1.07532   1.08192   1.08442
  Beta virt. eigenvalues --    1.08889   1.09071   1.09551   1.11009   1.11123
  Beta virt. eigenvalues --    1.12288   1.12509   1.12835   1.12994   1.13493
  Beta virt. eigenvalues --    1.15074   1.15605   1.16064   1.16650   1.17426
  Beta virt. eigenvalues --    1.17712   1.19021   1.20101   1.20665   1.21422
  Beta virt. eigenvalues --    1.21806   1.22397   1.22785   1.23633   1.25940
  Beta virt. eigenvalues --    1.26629   1.26726   1.27114   1.28104   1.28421
  Beta virt. eigenvalues --    1.28923   1.29256   1.29791   1.30324   1.30683
  Beta virt. eigenvalues --    1.31732   1.32988   1.34458   1.35105   1.35435
  Beta virt. eigenvalues --    1.37822   1.38432   1.38839   1.40429   1.41427
  Beta virt. eigenvalues --    1.42448   1.43349   1.44631   1.44948   1.45810
  Beta virt. eigenvalues --    1.46080   1.46451   1.47809   1.48525   1.49303
  Beta virt. eigenvalues --    1.50433   1.50877   1.51975   1.52948   1.54290
  Beta virt. eigenvalues --    1.55448   1.55877   1.57406   1.60721   1.61207
  Beta virt. eigenvalues --    1.61710   1.62915   1.63931   1.64971   1.65504
  Beta virt. eigenvalues --    1.66120   1.67159   1.67986   1.69326   1.69715
  Beta virt. eigenvalues --    1.70018   1.71202   1.71558   1.72240   1.72908
  Beta virt. eigenvalues --    1.73513   1.73666   1.74200   1.75059   1.75802
  Beta virt. eigenvalues --    1.77020   1.78397   1.78539   1.78645   1.79464
  Beta virt. eigenvalues --    1.80288   1.81550   1.82531   1.82833   1.83451
  Beta virt. eigenvalues --    1.83838   1.84637   1.85069   1.85809   1.86290
  Beta virt. eigenvalues --    1.86627   1.87329   1.90937   1.91415   1.91713
  Beta virt. eigenvalues --    1.91889   1.92031   1.92643   1.93063   1.94447
  Beta virt. eigenvalues --    1.95252   1.96469   1.96745   1.97062   1.97788
  Beta virt. eigenvalues --    1.99449   1.99862   2.00035   2.00422   2.03612
  Beta virt. eigenvalues --    2.04481   2.04944   2.06593   2.07322   2.07658
  Beta virt. eigenvalues --    2.08432   2.09758   2.09967   2.10110   2.11776
  Beta virt. eigenvalues --    2.12613   2.13432   2.14270   2.14651   2.15480
  Beta virt. eigenvalues --    2.16140   2.16728   2.17412   2.17925   2.18277
  Beta virt. eigenvalues --    2.18517   2.18747   2.19158   2.20593   2.20982
  Beta virt. eigenvalues --    2.21265   2.21644   2.21917   2.22553   2.22864
  Beta virt. eigenvalues --    2.23429   2.24584   2.25930   2.26340   2.27031
  Beta virt. eigenvalues --    2.27183   2.27666   2.29102   2.29627   2.29843
  Beta virt. eigenvalues --    2.31208   2.32147   2.33435   2.33726   2.33945
  Beta virt. eigenvalues --    2.34686   2.35284   2.36193   2.36623   2.37244
  Beta virt. eigenvalues --    2.39601   2.40513   2.41005   2.43102   2.43991
  Beta virt. eigenvalues --    2.44507   2.44732   2.44857   2.46782   2.47190
  Beta virt. eigenvalues --    2.47746   2.48474   2.48757   2.51790   2.52177
  Beta virt. eigenvalues --    2.54214   2.56635   2.57490   2.58427   2.59784
  Beta virt. eigenvalues --    2.60149   2.61318   2.62145   2.62954   2.66578
  Beta virt. eigenvalues --    2.68663   2.69505   2.70953   2.72140   2.72693
  Beta virt. eigenvalues --    2.78065   2.78666   2.79713   2.81491   2.82434
  Beta virt. eigenvalues --    2.83835   2.86750   2.87755   2.88843   2.88922
  Beta virt. eigenvalues --    2.90126   2.90962   2.91639   2.96081   2.96860
  Beta virt. eigenvalues --    3.04069   3.05156   3.11912   3.14480   3.14799
  Beta virt. eigenvalues --    3.21370   3.21630   3.26077   3.30167   3.30841
  Beta virt. eigenvalues --    3.32258   3.37225   3.37452   3.47773   3.50796
  Beta virt. eigenvalues --    3.80570   3.93559   4.08167
          Condensed to atoms (all electrons):
          Atomic-Atomic Spin Densities.
 Mulliken charges and spin densities:
               1          2
     1  Fe  -3.076545   3.550387
     2  N   -0.527300   0.086736
     3  N   -0.447612   0.082850
     4  N   -0.504623   0.109319
     5  N   -0.521795   0.082712
     6  C    0.253321  -0.072459
     7  C    0.033697   0.142473
     8  C    0.053522  -0.054549
     9  C    0.234259   0.178076
    10  C    0.207707   0.169169
    11  C    0.050315  -0.077360
    12  C    0.031250   0.123875
    13  C    0.167507  -0.083785
    14  C    0.188730  -0.073722
    15  C    0.002572   0.133399
    16  C    0.058651  -0.045390
    17  C    0.210165   0.152542
    18  C    0.200393   0.141320
    19  C    0.021558  -0.076163
    20  C    0.034272   0.126858
    21  C    0.250067  -0.082268
    22  C   -0.355801   0.255630
    23  H    0.175305  -0.012024
    24  C   -0.269981  -0.100479
    25  H    0.181315   0.003857
    26  C   -0.298539   0.268812
    27  H    0.173060  -0.012870
    28  C   -0.247036  -0.089179
    29  H    0.183113   0.003602
    30  C   -0.607543  -0.012075
    31  H    0.186666   0.006234
    32  H    0.204956   0.007051
    33  H    0.197121   0.000769
    34  C   -0.610333   0.004433
    35  H    0.203994  -0.001453
    36  H    0.192010  -0.001499
    37  H    0.200733   0.000147
    38  C   -0.608718  -0.009830
    39  H    0.206901   0.006124
    40  H    0.178541   0.003808
    41  H    0.201461   0.001007
    42  C   -0.156975   0.021444
    43  H    0.164661  -0.001834
    44  C   -0.388688  -0.026300
    45  H    0.189555   0.001315
    46  H    0.187614   0.001394
    47  C   -0.614933   0.004013
    48  H    0.204260  -0.000734
    49  H    0.183793  -0.000843
    50  H    0.214390  -0.000328
    51  C   -0.152682  -0.042315
    52  H    0.180441   0.004780
    53  C   -0.404693   0.064758
    54  H    0.173466  -0.003240
    55  H    0.186457  -0.002921
    56  C   -0.605272  -0.010209
    57  H    0.206590   0.005534
    58  H    0.178268   0.005671
    59  H    0.198001   0.000632
    60  C   -0.608630   0.006649
    61  H    0.205771  -0.002792
    62  H    0.198842   0.000031
    63  H    0.185680  -0.002721
    64  O    8.000000   0.000000
    65  H   -1.498474  -0.008930
    66  H   -2.108171   0.072108
    67  C   -0.680462  -0.002767
    68  H    0.236864   0.000201
    69  H    0.236112   0.001445
    70  H    0.226449  -0.000085
    71  S    0.092122   0.075263
    72  H    0.162312   0.004697
 Sum of Mulliken charges =   1.00000   5.00000
 Mulliken charges and spin densities with hydrogens summed into heavy atoms:
               1          2
     1  Fe  -3.076545   3.550387
     2  N   -0.527300   0.086736
     3  N   -0.447612   0.082850
     4  N   -0.504623   0.109319
     5  N   -0.521795   0.082712
     6  C    0.253321  -0.072459
     7  C    0.033697   0.142473
     8  C    0.053522  -0.054549
     9  C    0.234259   0.178076
    10  C    0.207707   0.169169
    11  C    0.050315  -0.077360
    12  C    0.031250   0.123875
    13  C    0.167507  -0.083785
    14  C    0.188730  -0.073722
    15  C    0.002572   0.133399
    16  C    0.058651  -0.045390
    17  C    0.210165   0.152542
    18  C    0.200393   0.141320
    19  C    0.021558  -0.076163
    20  C    0.034272   0.126858
    21  C    0.250067  -0.082268
    22  C   -0.180496   0.243606
    24  C   -0.088666  -0.096622
    26  C   -0.125479   0.255942
    28  C   -0.063923  -0.085578
    30  C   -0.018801   0.001979
    34  C   -0.013596   0.001629
    38  C   -0.021814   0.001109
    42  C    0.007685   0.019610
    44  C   -0.011519  -0.023591
    47  C   -0.012490   0.002108
    51  C    0.027759  -0.037534
    53  C   -0.044770   0.058597
    56  C   -0.022414   0.001627
    60  C   -0.018338   0.001167
    64  O    4.393354   0.063178
    67  C    0.018963  -0.001206
    71  S    0.254434   0.079960
 Electronic spatial extent (au):  <R**2>=          18403.4608
 Charge=              1.0000 electrons
 Dipole moment (field-independent basis, Debye):
    X=              1.0483    Y=              0.2780    Z=            -15.3131  Tot=             15.3515
 Quadrupole moment (field-independent basis, Debye-Ang):
   XX=           -222.7753   YY=           -229.6226   ZZ=           -207.7608
   XY=              2.7014   XZ=              9.2534   YZ=             -9.8230
 Traceless Quadrupole moment (field-independent basis, Debye-Ang):
   XX=             -2.7224   YY=             -9.5697   ZZ=             12.2921
   XY=              2.7014   XZ=              9.2534   YZ=             -9.8230
 Octapole moment (field-independent basis, Debye-Ang**2):
  XXX=              4.4692  YYY=            -15.3278  ZZZ=             13.6763  XYY=              4.2565
  XXY=            -16.8449  XXZ=             55.4074  XZZ=             10.3481  YZZ=              5.5169
  YYZ=             53.2083  XYZ=              6.4265
 Hexadecapole moment (field-independent basis, Debye-Ang**3):
 XXXX=         -10729.3661 YYYY=         -10839.3188 ZZZZ=          -1642.4826 XXXY=             65.3670
 XXXZ=             21.4641 YYYX=            -27.1044 YYYZ=            -19.7098 ZZZX=            135.9779
 ZZZY=            -77.6374 XXYY=          -3498.6972 XXZZ=          -2369.9087 YYZZ=          -2353.3434
 XXYZ=            -65.5936 YYXZ=            -29.0145 ZZXY=             22.3113
 N-N= 5.400788839568D+03 E-N=-1.805441218015D+04  KE= 3.079525063908D+03
                          Isotropic Fermi Contact Couplings
        Atom                 a.u.       MegaHertz       Gauss      10(-4) cm-1
     1  Fe(57)             0.36312      10.53330       3.75854       3.51353
     2  N(14)              0.11420       7.38001       2.63337       2.46170
     3  N(14)              0.10753       6.94899       2.47957       2.31793
     4  N(14)              0.17053      11.01950       3.93203       3.67571
     5  N(14)              0.11584       7.48552       2.67102       2.49690
     6  C(13)             -0.00755      -1.69757      -0.60573      -0.56625
     7  C(13)              0.02449       5.50580       1.96461       1.83654
     8  C(13)             -0.00779      -1.75170      -0.62505      -0.58430
     9  C(13)              0.03055       6.86871       2.45093       2.29115
    10  C(13)              0.02815       6.32930       2.25845       2.11123
    11  C(13)             -0.01090      -2.44971      -0.87412      -0.81714
    12  C(13)              0.02168       4.87411       1.73920       1.62583
    13  C(13)             -0.01059      -2.37993      -0.84922      -0.79386
    14  C(13)             -0.00852      -1.91477      -0.68324      -0.63870
    15  C(13)              0.02344       5.27096       1.88081       1.75820
    16  C(13)             -0.00572      -1.28714      -0.45929      -0.42935
    17  C(13)              0.02751       6.18434       2.20673       2.06287
    18  C(13)              0.02410       5.41859       1.93349       1.80745
    19  C(13)             -0.01036      -2.33041      -0.83155      -0.77734
    20  C(13)              0.02200       4.94684       1.76516       1.65009
    21  C(13)             -0.01081      -2.43157      -0.86765      -0.81109
    22  C(13)              0.03504       7.87798       2.81106       2.62781
    23  H(1)              -0.00387      -3.45865      -1.23413      -1.15368
    24  C(13)             -0.01651      -3.71123      -1.32426      -1.23793
    25  H(1)               0.00120       1.07184       0.38246       0.35753
    26  C(13)              0.03636       8.17594       2.91738       2.72720
    27  H(1)              -0.00414      -3.70162      -1.32083      -1.23473
    28  C(13)             -0.01508      -3.38971      -1.20953      -1.13069
    29  H(1)               0.00105       0.93808       0.33473       0.31291
    30  C(13)             -0.00391      -0.87871      -0.31355      -0.29311
    31  H(1)               0.00252       2.24912       0.80254       0.75023
    32  H(1)               0.00274       2.45302       0.87530       0.81824
    33  H(1)               0.00025       0.22693       0.08098       0.07570
    34  C(13)              0.00189       0.42468       0.15154       0.14166
    35  H(1)              -0.00058      -0.51611      -0.18416      -0.17216
    36  H(1)              -0.00058      -0.51673      -0.18438      -0.17236
    37  H(1)               0.00002       0.01441       0.00514       0.00481
    38  C(13)             -0.00314      -0.70504      -0.25157      -0.23517
    39  H(1)               0.00277       2.47247       0.88224       0.82473
    40  H(1)               0.00128       1.14005       0.40680       0.38028
    41  H(1)               0.00055       0.49127       0.17530       0.16387
    42  C(13)              0.00444       0.99881       0.35640       0.33317
    43  H(1)              -0.00058      -0.51999      -0.18554      -0.17345
    44  C(13)             -0.00386      -0.86750      -0.30955      -0.28937
    45  H(1)               0.00044       0.39232       0.13999       0.13086
    46  H(1)               0.00044       0.39547       0.14111       0.13192
    47  C(13)              0.00189       0.42539       0.15179       0.14190
    48  H(1)              -0.00023      -0.20883      -0.07451      -0.06966
    49  H(1)              -0.00047      -0.42296      -0.15092      -0.14108
    50  H(1)              -0.00012      -0.11142      -0.03976      -0.03716
    51  C(13)             -0.00777      -1.74807      -0.62375      -0.58309
    52  H(1)               0.00132       1.17872       0.42060       0.39318
    53  C(13)              0.00994       2.23459       0.79736       0.74538
    54  H(1)              -0.00100      -0.89575      -0.31963      -0.29879
    55  H(1)              -0.00091      -0.80913      -0.28872      -0.26990
    56  C(13)             -0.00320      -0.71908      -0.25658      -0.23986
    57  H(1)               0.00204       1.82509       0.65124       0.60878
    58  H(1)               0.00229       2.04419       0.72942       0.68187
    59  H(1)               0.00022       0.19391       0.06919       0.06468
    60  C(13)              0.00273       0.61453       0.21928       0.20498
    61  H(1)              -0.00120      -1.07400      -0.38323      -0.35825
    62  H(1)              -0.00003      -0.02783      -0.00993      -0.00928
    63  H(1)              -0.00103      -0.91902      -0.32793      -0.30655
    64  O(17)             -0.00003       0.00363       0.00130       0.00121
    65  H(1)              -0.01100      -9.83083      -3.50789      -3.27921
    66  H(1)               0.04731      42.29583      15.09220      14.10837
    67  C(13)             -0.00498      -1.12077      -0.39992      -0.37385
    68  H(1)               0.00011       0.10257       0.03660       0.03421
    69  H(1)               0.00054       0.47926       0.17101       0.15986
    70  H(1)               0.00097       0.86867       0.30996       0.28976
    71  S(33)              0.12344       8.47961       3.02574       2.82849
    72  H(1)               0.00002       0.01661       0.00593       0.00554
 --------------------------------------------------------
       Center         ----  Spin Dipole Couplings  ----
                      3XX-RR        3YY-RR        3ZZ-RR
 --------------------------------------------------------
     1   Atom        0.185526      1.274746     -1.460272
     2   Atom        0.013392      0.022432     -0.035825
     3   Atom        0.005651      0.006975     -0.012626
     4   Atom        0.029042      0.024191     -0.053233
     5   Atom        0.005670      0.004611     -0.010281
     6   Atom        0.008485      0.064596     -0.073081
     7   Atom       -0.065007     -0.062476      0.127483
     8   Atom        0.026265      0.021256     -0.047521
     9   Atom       -0.046234     -0.102554      0.148788
    10   Atom       -0.041867     -0.095385      0.137252
    11   Atom        0.038737      0.034333     -0.073070
    12   Atom       -0.056888     -0.051848      0.108736
    13   Atom        0.016969      0.070539     -0.087508
    14   Atom        0.009909      0.064241     -0.074150
    15   Atom       -0.059827     -0.057947      0.117774
    16   Atom        0.023721      0.017450     -0.041172
    17   Atom       -0.033184     -0.092359      0.125543
    18   Atom       -0.030667     -0.079672      0.110340
    19   Atom        0.037955      0.032284     -0.070238
    20   Atom       -0.057624     -0.052085      0.109708
    21   Atom        0.016962      0.068319     -0.085281
    22   Atom       -0.132574     -0.086334      0.218909
    23   Atom       -0.020389      0.027736     -0.007347
    24   Atom        0.060124      0.030573     -0.090697
    25   Atom        0.011110     -0.001691     -0.009419
    26   Atom       -0.142375     -0.099623      0.241998
    27   Atom       -0.021666      0.029623     -0.007957
    28   Atom        0.056550      0.027043     -0.083593
    29   Atom        0.010681     -0.001738     -0.008943
    30   Atom       -0.002240      0.007084     -0.004844
    31   Atom       -0.002401      0.006065     -0.003664
    32   Atom       -0.002578      0.007549     -0.004971
    33   Atom        0.000074      0.003629     -0.003703
    34   Atom        0.007596     -0.002502     -0.005094
    35   Atom        0.006301     -0.002490     -0.003810
    36   Atom        0.006048     -0.002445     -0.003603
    37   Atom        0.003849     -0.000404     -0.003445
    38   Atom       -0.001734      0.006160     -0.004426
    39   Atom       -0.002024      0.005938     -0.003914
    40   Atom       -0.002184      0.006438     -0.004254
    41   Atom        0.000386      0.002935     -0.003321
    42   Atom       -0.000140     -0.003995      0.004135
    43   Atom        0.005995     -0.002385     -0.003610
    44   Atom        0.015046      0.001079     -0.016126
    45   Atom        0.002799     -0.000585     -0.002214
    46   Atom        0.000571      0.000665     -0.001236
    47   Atom        0.007467     -0.002065     -0.005402
    48   Atom        0.006742     -0.002818     -0.003924
    49   Atom        0.005130     -0.001706     -0.003424
    50   Atom        0.003493     -0.000028     -0.003465
    51   Atom        0.002484      0.021422     -0.023906
    52   Atom       -0.002731      0.008061     -0.005330
    53   Atom        0.000167     -0.027026      0.026859
    54   Atom        0.002859     -0.000578     -0.002281
    55   Atom       -0.003244      0.006433     -0.003190
    56   Atom       -0.001749      0.006442     -0.004694
    57   Atom       -0.002164      0.006851     -0.004687
    58   Atom       -0.002121      0.005937     -0.003817
    59   Atom        0.000360      0.003100     -0.003460
    60   Atom        0.006735     -0.001920     -0.004815
    61   Atom        0.005638     -0.001994     -0.003644
    62   Atom        0.003243     -0.000120     -0.003123
    63   Atom        0.005518     -0.002157     -0.003362
    64   Atom       -0.044841     -0.043926      0.088767
    65   Atom       -0.019396     -0.022747      0.042143
    66   Atom       -0.021308     -0.020817      0.042125
    67   Atom       -0.006151     -0.013113      0.019265
    68   Atom       -0.001366     -0.009874      0.011240
    69   Atom        0.005838     -0.013762      0.007924
    70   Atom       -0.002541     -0.007823      0.010364
    71   Atom       -0.145650     -0.156187      0.301836
    72   Atom       -0.026129     -0.002009      0.028138
 --------------------------------------------------------
                        XY            XZ            YZ
 --------------------------------------------------------
     1   Atom       -1.354314     -0.004477      0.161957
     2   Atom       -0.183043     -0.003141     -0.018222
     3   Atom        0.156647     -0.008738      0.006220
     4   Atom       -0.203974     -0.000160      0.015981
     5   Atom        0.154526      0.030227      0.009492
     6   Atom       -0.012478      0.001435      0.012787
     7   Atom       -0.012614     -0.027042     -0.012061
     8   Atom       -0.013145      0.000143      0.006216
     9   Atom       -0.019130     -0.019496     -0.019392
    10   Atom        0.020774      0.005224      0.006328
    11   Atom        0.012671     -0.000273     -0.001891
    12   Atom        0.014313      0.001529      0.008006
    13   Atom        0.012463     -0.001693      0.000028
    14   Atom       -0.012686     -0.005266     -0.013092
    15   Atom       -0.014504      0.016905      0.003306
    16   Atom       -0.014179      0.000923     -0.008859
    17   Atom       -0.018268      0.013621      0.005579
    18   Atom        0.019068      0.006270     -0.013927
    19   Atom        0.011892     -0.005608      0.004364
    20   Atom        0.011908      0.014249     -0.021083
    21   Atom        0.013536     -0.009100      0.008952
    22   Atom       -0.002177      0.023838     -0.042052
    23   Atom        0.000237      0.001138      0.004909
    24   Atom        0.000681      0.004231      0.003737
    25   Atom        0.000353     -0.000272      0.000360
    26   Atom        0.000544      0.006388      0.009365
    27   Atom        0.000290      0.000042     -0.001576
    28   Atom        0.001196     -0.007568      0.006082
    29   Atom        0.000495     -0.000513      0.000236
    30   Atom       -0.005972     -0.000924      0.001747
    31   Atom       -0.003639     -0.001115      0.003738
    32   Atom       -0.003847      0.000343     -0.001453
    33   Atom       -0.005356     -0.000473      0.000679
    34   Atom       -0.005287     -0.000583      0.000342
    35   Atom       -0.003570      0.001833     -0.000394
    36   Atom       -0.003171     -0.002051      0.000547
    37   Atom       -0.003860     -0.000129      0.000168
    38   Atom        0.005995      0.001130      0.000965
    39   Atom        0.004277     -0.000682     -0.001573
    40   Atom        0.003980      0.000958      0.003057
    41   Atom        0.005177      0.000986      0.001070
    42   Atom        0.003966      0.000394      0.009048
    43   Atom        0.002292      0.001400      0.000358
    44   Atom        0.002489     -0.001956     -0.017774
    45   Atom        0.004616     -0.001698     -0.000434
    46   Atom        0.001942     -0.000367     -0.000862
    47   Atom       -0.005195     -0.000344     -0.000189
    48   Atom       -0.002959     -0.001945      0.000283
    49   Atom       -0.003160      0.001578     -0.000445
    50   Atom       -0.003547     -0.000958      0.000119
    51   Atom       -0.008641      0.018992     -0.001275
    52   Atom       -0.005254     -0.000155      0.000404
    53   Atom       -0.004518     -0.043030      0.000193
    54   Atom       -0.000637      0.002123      0.000435
    55   Atom       -0.002481     -0.001544     -0.000297
    56   Atom        0.006076     -0.000396     -0.000856
    57   Atom        0.004084      0.000504      0.001717
    58   Atom        0.003906     -0.001150     -0.003132
    59   Atom        0.005044     -0.000281     -0.000333
    60   Atom        0.005279     -0.000587     -0.000062
    61   Atom        0.003684      0.001280      0.000429
    62   Atom        0.003473     -0.000334     -0.000242
    63   Atom        0.003467     -0.002077     -0.000664
    64   Atom       -0.003386      0.003283     -0.006162
    65   Atom       -0.008600      0.023418     -0.017620
    66   Atom       -0.000639     -0.007080      0.003394
    67   Atom       -0.002169      0.017150     -0.000962
    68   Atom        0.005963      0.015191      0.007619
    69   Atom       -0.005558      0.021445     -0.004524
    70   Atom       -0.000470      0.008083     -0.001479
    71   Atom       -0.010242     -0.031547     -0.037426
    72   Atom        0.001334     -0.002095     -0.029870
 --------------------------------------------------------


 ---------------------------------------------------------------------------------
              Anisotropic Spin Dipole Couplings in Principal Axis System
 ---------------------------------------------------------------------------------

       Atom             a.u.   MegaHertz   Gauss  10(-4) cm-1        Axes

              Baa    -1.4755   -25.545    -9.115    -8.521 -0.0752 -0.0955  0.9926
     1 Fe(57) Bbb    -0.7195   -12.456    -4.445    -4.155  0.8261  0.5516  0.1156
              Bcc     2.1950    38.001    13.560    12.676 -0.5586  0.8286  0.0374
 
              Baa    -0.1669    -6.437    -2.297    -2.147  0.7088  0.6962  0.1138
     2 N(14)  Bbb    -0.0346    -1.335    -0.476    -0.445 -0.1134 -0.0468  0.9925
              Bcc     0.2015     7.772     2.773     2.592 -0.6963  0.7163 -0.0458
 
              Baa    -0.1511    -5.829    -2.080    -1.944  0.7068 -0.7033  0.0762
     3 N(14)  Bbb    -0.0118    -0.456    -0.163    -0.152 -0.0469  0.0609  0.9970
              Bcc     0.1630     6.286     2.243     2.097  0.7058  0.7083 -0.0100
 
              Baa    -0.1784    -6.880    -2.455    -2.295  0.6983  0.7102 -0.0898
     4 N(14)  Bbb    -0.0527    -2.031    -0.725    -0.678  0.0915  0.0359  0.9952
              Bcc     0.2311     8.911     3.180     2.973  0.7100 -0.7031 -0.0399
 
              Baa    -0.1509    -5.821    -2.077    -1.942  0.7087 -0.6976 -0.1052
     5 N(14)  Bbb    -0.0133    -0.512    -0.183    -0.171 -0.0386 -0.1873  0.9815
              Bcc     0.1642     6.333     2.260     2.113  0.7045  0.6916  0.1597
 
              Baa    -0.0743    -9.976    -3.560    -3.328 -0.0315 -0.0944  0.9950
     6 C(13)  Bbb     0.0060     0.810     0.289     0.270  0.9790  0.1977  0.0497
              Bcc     0.0683     9.165     3.270     3.057 -0.2015  0.9757  0.0862
 
              Baa    -0.0803   -10.774    -3.844    -3.594  0.7627  0.6323  0.1360
     7 C(13)  Bbb    -0.0515    -6.906    -2.464    -2.304 -0.6330  0.7729 -0.0436
              Bcc     0.1318    17.680     6.309     5.897 -0.1326 -0.0528  0.9898
 
              Baa    -0.0481    -6.455    -2.303    -2.153 -0.0183 -0.0927  0.9955
     8 C(13)  Bbb     0.0108     1.447     0.516     0.483  0.6446  0.7601  0.0826
              Bcc     0.0373     5.008     1.787     1.670  0.7643 -0.6432 -0.0458
 
              Baa    -0.1107   -14.858    -5.302    -4.956  0.3091  0.9464  0.0939
     9 C(13)  Bbb    -0.0412    -5.528    -1.972    -1.844  0.9467 -0.3156  0.0649
              Bcc     0.1519    20.386     7.274     6.800 -0.0911 -0.0689  0.9935
 
              Baa    -0.1026   -13.765    -4.912    -4.592 -0.3223  0.9465 -0.0180
    10 C(13)  Bbb    -0.0350    -4.701    -1.677    -1.568  0.9461  0.3214 -0.0405
              Bcc     0.1376    18.466     6.589     6.160  0.0326  0.0300  0.9990
 
              Baa    -0.0731    -9.810    -3.500    -3.272  0.0005  0.0175  0.9998
    11 C(13)  Bbb     0.0237     3.179     1.134     1.060 -0.6442  0.7647 -0.0131
              Bcc     0.0494     6.631     2.366     2.212  0.7648  0.6441 -0.0117
 
              Baa    -0.0690    -9.258    -3.303    -3.088  0.7622 -0.6469  0.0226
    12 C(13)  Bbb    -0.0402    -5.391    -1.924    -1.798  0.6472  0.7608 -0.0476
              Bcc     0.1092    14.649     5.227     4.886  0.0136  0.0509  0.9986
 
              Baa    -0.0875   -11.746    -4.191    -3.918  0.0164 -0.0015  0.9999
    13 C(13)  Bbb     0.0142     1.911     0.682     0.637  0.9762 -0.2161 -0.0163
              Bcc     0.0733     9.836     3.510     3.281  0.2161  0.9764 -0.0021
 
              Baa    -0.0759   -10.180    -3.633    -3.396  0.0756  0.0996  0.9922
    14 C(13)  Bbb     0.0078     1.053     0.376     0.351  0.9757  0.1976 -0.0942
              Bcc     0.0680     9.127     3.257     3.045 -0.2055  0.9752 -0.0822
 
              Baa    -0.0745   -10.003    -3.569    -3.337  0.7432  0.6647 -0.0768
    15 C(13)  Bbb    -0.0448    -6.018    -2.147    -2.007 -0.6626  0.7470  0.0537
              Bcc     0.1194    16.021     5.717     5.344  0.0930  0.0110  0.9956
 
              Baa    -0.0425    -5.703    -2.035    -1.902  0.0184  0.1504  0.9884
    16 C(13)  Bbb     0.0069     0.922     0.329     0.308  0.6428  0.7555 -0.1270
              Bcc     0.0356     4.781     1.706     1.595  0.7658 -0.6377  0.0828
 
              Baa    -0.0979   -13.140    -4.689    -4.383  0.2794  0.9593 -0.0410
    17 C(13)  Bbb    -0.0289    -3.873    -1.382    -1.292  0.9566 -0.2817 -0.0742
              Bcc     0.1268    17.012     6.070     5.675  0.0827  0.0185  0.9964
 
              Baa    -0.0874   -11.727    -4.184    -3.912 -0.3253  0.9425  0.0767
    18 C(13)  Bbb    -0.0241    -3.239    -1.156    -1.080  0.9450  0.3270 -0.0102
              Bcc     0.1115    14.965     5.340     4.992  0.0347 -0.0692  0.9970
 
              Baa    -0.0708    -9.497    -3.389    -3.168  0.0568 -0.0488  0.9972
    19 C(13)  Bbb     0.0234     3.140     1.121     1.047 -0.6139  0.7859  0.0734
              Bcc     0.0474     6.357     2.268     2.120  0.7873  0.6164 -0.0147
 
              Baa    -0.0704    -9.446    -3.370    -3.151  0.7523 -0.6449 -0.1350
    20 C(13)  Bbb    -0.0430    -5.765    -2.057    -1.923  0.6547  0.7547  0.0431
              Bcc     0.1133    15.210     5.427     5.074  0.0741 -0.1208  0.9899
 
              Baa    -0.0868   -11.641    -4.154    -3.883  0.0957 -0.0657  0.9932
    21 C(13)  Bbb     0.0148     1.987     0.709     0.663  0.9679 -0.2267 -0.1083
              Bcc     0.0719     9.654     3.445     3.220  0.2323  0.9717  0.0419
 
              Baa    -0.1342   -18.008    -6.426    -6.007  0.9975 -0.0154 -0.0692
    22 C(13)  Bbb    -0.0920   -12.345    -4.405    -4.118  0.0245  0.9909  0.1322
              Bcc     0.2262    30.353    10.831    10.125  0.0665 -0.1335  0.9888
 
              Baa    -0.0205   -10.932    -3.901    -3.646  0.9961  0.0040 -0.0878
    23 H(1)   Bbb    -0.0079    -4.228    -1.509    -1.410  0.0875 -0.1364  0.9868
              Bcc     0.0284    15.160     5.409     5.057  0.0080  0.9906  0.1362
 
              Baa    -0.0909   -12.202    -4.354    -4.070 -0.0278 -0.0306  0.9991
    24 C(13)  Bbb     0.0307     4.115     1.468     1.373 -0.0274  0.9992  0.0298
              Bcc     0.0603     8.087     2.886     2.697  0.9992  0.0265  0.0287
 
              Baa    -0.0094    -5.037    -1.797    -1.680  0.0141 -0.0471  0.9988
    25 H(1)   Bbb    -0.0017    -0.898    -0.320    -0.300 -0.0265  0.9985  0.0474
              Bcc     0.0111     5.935     2.118     1.980  0.9995  0.0272 -0.0128
 
              Baa    -0.1425   -19.120    -6.823    -6.378  0.9998 -0.0091 -0.0164
    26 C(13)  Bbb    -0.0999   -13.403    -4.782    -4.471  0.0087  0.9996 -0.0275
              Bcc     0.2424    32.523    11.605    10.848  0.0166  0.0274  0.9995
 
              Baa    -0.0217   -11.561    -4.125    -3.856  1.0000 -0.0058 -0.0037
    27 H(1)   Bbb    -0.0080    -4.281    -1.527    -1.428  0.0040  0.0418  0.9991
              Bcc     0.0297    15.842     5.653     5.284  0.0056  0.9991 -0.0418
 
              Baa    -0.0843   -11.317    -4.038    -3.775  0.0540 -0.0550  0.9970
    28 C(13)  Bbb     0.0274     3.671     1.310     1.224 -0.0262  0.9981  0.0565
              Bcc     0.0570     7.647     2.728     2.551  0.9982  0.0292 -0.0525
 
              Baa    -0.0090    -4.783    -1.707    -1.595  0.0270 -0.0345  0.9990
    29 H(1)   Bbb    -0.0017    -0.933    -0.333    -0.311 -0.0383  0.9986  0.0355
              Bcc     0.0107     5.716     2.040     1.907  0.9989  0.0392 -0.0256
 
              Baa    -0.0052    -0.697    -0.249    -0.233  0.7780  0.2997  0.5522
    30 C(13)  Bbb    -0.0051    -0.679    -0.242    -0.226 -0.4531 -0.3413  0.8235
              Bcc     0.0103     1.376     0.491     0.459 -0.4353  0.8909  0.1297
 
              Baa    -0.0049    -2.638    -0.941    -0.880 -0.0844 -0.3453  0.9347
    31 H(1)   Bbb    -0.0037    -1.975    -0.705    -0.659  0.9417  0.2790  0.1881
              Bcc     0.0086     4.613     1.646     1.539 -0.3257  0.8961  0.3016
 
              Baa    -0.0051    -2.745    -0.979    -0.916  0.0688  0.1340  0.9886
    32 H(1)   Bbb    -0.0039    -2.059    -0.735    -0.687  0.9462  0.3054 -0.1072
              Bcc     0.0090     4.803     1.714     1.602 -0.3163  0.9427 -0.1058
 
              Baa    -0.0038    -2.026    -0.723    -0.676  0.7341  0.5640 -0.3781
    33 H(1)   Bbb    -0.0038    -2.005    -0.715    -0.669  0.3471  0.1669  0.9229
              Bcc     0.0076     4.031     1.438     1.345 -0.5836  0.8087  0.0733
 
              Baa    -0.0051    -0.690    -0.246    -0.230 -0.0463 -0.2189  0.9746
    34 C(13)  Bbb    -0.0047    -0.637    -0.227    -0.212  0.3930  0.8930  0.2192
              Bcc     0.0099     1.327     0.473     0.443  0.9184 -0.3931 -0.0447
 
              Baa    -0.0042    -2.256    -0.805    -0.752 -0.2821 -0.3799  0.8809
    35 H(1)   Bbb    -0.0036    -1.940    -0.692    -0.647  0.2285  0.8652  0.4463
              Bcc     0.0079     4.196     1.497     1.400  0.9318 -0.3272  0.1573
 
              Baa    -0.0040    -2.154    -0.768    -0.718  0.2441  0.1574  0.9569
    36 H(1)   Bbb    -0.0035    -1.851    -0.661    -0.617  0.2648  0.9384 -0.2219
              Bcc     0.0075     4.005     1.429     1.336  0.9329 -0.3076 -0.1874
 
              Baa    -0.0035    -1.845    -0.658    -0.615 -0.0340 -0.0976  0.9946
    37 H(1)   Bbb    -0.0027    -1.428    -0.510    -0.476  0.5080  0.8554  0.1013
              Bcc     0.0061     3.273     1.168     1.092  0.8607 -0.5087 -0.0205
 
              Baa    -0.0053    -0.716    -0.255    -0.239  0.7490 -0.3431 -0.5668
    38 C(13)  Bbb    -0.0042    -0.563    -0.201    -0.188  0.4616 -0.3435  0.8179
              Bcc     0.0095     1.279     0.456     0.427  0.4753  0.8742  0.0990
 
              Baa    -0.0042    -2.219    -0.792    -0.740  0.0473  0.1341  0.9898
    39 H(1)   Bbb    -0.0039    -2.073    -0.740    -0.692  0.9174 -0.3978  0.0100
              Bcc     0.0080     4.293     1.532     1.432  0.3951  0.9076 -0.1419
 
              Baa    -0.0051    -2.706    -0.966    -0.903  0.0627 -0.2764  0.9590
    40 H(1)   Bbb    -0.0037    -1.977    -0.706    -0.660  0.9347 -0.3205 -0.1535
              Bcc     0.0088     4.684     1.671     1.562  0.3498  0.9060  0.2383
 
              Baa    -0.0037    -1.992    -0.711    -0.664  0.7316 -0.4922 -0.4717
    41 H(1)   Bbb    -0.0035    -1.846    -0.659    -0.616  0.3001 -0.3888  0.8711
              Bcc     0.0072     3.838     1.369     1.280  0.6122  0.7788  0.1367
 
              Baa    -0.0108    -1.448    -0.517    -0.483 -0.2881  0.8222 -0.4909
    42 C(13)  Bbb     0.0002     0.026     0.009     0.009  0.9282  0.1138 -0.3542
              Bcc     0.0106     1.421     0.507     0.474  0.2354  0.5577  0.7960
 
              Baa    -0.0038    -2.033    -0.725    -0.678 -0.1334 -0.0343  0.9905
    43 H(1)   Bbb    -0.0030    -1.585    -0.566    -0.529 -0.2477  0.9688  0.0002
              Bcc     0.0068     3.618     1.291     1.207  0.9596  0.2453  0.1377
 
              Baa    -0.0273    -3.660    -1.306    -1.221  0.0080  0.5306  0.8476
    44 C(13)  Bbb     0.0102     1.367     0.488     0.456 -0.5433  0.7139 -0.4418
              Bcc     0.0171     2.293     0.818     0.765  0.8395  0.4570 -0.2940
 
              Baa    -0.0041    -2.162    -0.771    -0.721 -0.5808  0.7276 -0.3650
    45 H(1)   Bbb    -0.0023    -1.221    -0.436    -0.407 -0.0641  0.4061  0.9116
              Bcc     0.0063     3.382     1.207     1.128  0.8115  0.5528 -0.1892
 
              Baa    -0.0017    -0.913    -0.326    -0.305 -0.3599  0.5637  0.7434
    46 H(1)   Bbb    -0.0010    -0.555    -0.198    -0.185  0.6500 -0.4201  0.6332
              Bcc     0.0028     1.469     0.524     0.490  0.6693  0.7112 -0.2152
 
              Baa    -0.0055    -0.737    -0.263    -0.246  0.1197  0.2346  0.9647
    47 C(13)  Bbb    -0.0043    -0.572    -0.204    -0.191  0.3842  0.8850 -0.2629
              Bcc     0.0098     1.309     0.467     0.437  0.9155 -0.4021 -0.0158
 
              Baa    -0.0043    -2.316    -0.827    -0.773  0.2415  0.2977  0.9236
    48 H(1)   Bbb    -0.0036    -1.901    -0.678    -0.634  0.1977  0.9167 -0.3472
              Bcc     0.0079     4.217     1.505     1.407  0.9500 -0.2664 -0.1626
 
              Baa    -0.0037    -1.985    -0.708    -0.662 -0.2184 -0.1286  0.9674
    49 H(1)   Bbb    -0.0029    -1.553    -0.554    -0.518  0.3250  0.9251  0.1963
              Bcc     0.0066     3.538     1.263     1.180  0.9201 -0.3573  0.1602
 
              Baa    -0.0037    -1.953    -0.697    -0.651  0.2186  0.1819  0.9587
    50 H(1)   Bbb    -0.0021    -1.128    -0.403    -0.376  0.4818  0.8342 -0.2682
              Bcc     0.0058     3.081     1.100     1.028  0.8486 -0.5206 -0.0947
 
              Baa    -0.0340    -4.561    -1.628    -1.521 -0.4711 -0.0532  0.8805
    51 C(13)  Bbb     0.0076     1.016     0.363     0.339  0.7475  0.5060  0.4305
              Bcc     0.0264     3.545     1.265     1.182 -0.4684  0.8609 -0.1986
 
              Baa    -0.0053    -2.850    -1.017    -0.951 -0.0068 -0.0328  0.9994
    52 H(1)   Bbb    -0.0049    -2.596    -0.926    -0.866  0.9265  0.3759  0.0186
              Bcc     0.0102     5.447     1.944     1.817 -0.3763  0.9261  0.0278
 
              Baa    -0.0335    -4.494    -1.603    -1.499  0.7133  0.4837  0.5071
    53 C(13)  Bbb    -0.0252    -3.378    -1.205    -1.127 -0.3720  0.8746 -0.3109
              Bcc     0.0587     7.872     2.809     2.626 -0.5939  0.0331  0.8038
 
              Baa    -0.0032    -1.705    -0.608    -0.569 -0.3436 -0.2348  0.9093
    54 H(1)   Bbb    -0.0005    -0.254    -0.091    -0.085  0.0208  0.9661  0.2573
              Bcc     0.0037     1.959     0.699     0.653  0.9389 -0.1073  0.3271
 
              Baa    -0.0051    -2.732    -0.975    -0.911  0.7550  0.1784  0.6310
    55 H(1)   Bbb    -0.0019    -1.020    -0.364    -0.340 -0.6119 -0.1544  0.7757
              Bcc     0.0070     3.753     1.339     1.252 -0.2358  0.9718  0.0074
 
              Baa    -0.0050    -0.670    -0.239    -0.223  0.8557 -0.4708 -0.2148
    56 C(13)  Bbb    -0.0047    -0.637    -0.227    -0.212  0.2199 -0.0449  0.9745
              Bcc     0.0097     1.307     0.466     0.436  0.4684  0.8811 -0.0651
 
              Baa    -0.0049    -2.638    -0.941    -0.880  0.0653 -0.1659  0.9840
    57 H(1)   Bbb    -0.0037    -1.985    -0.708    -0.662  0.9325 -0.3409 -0.1194
              Bcc     0.0087     4.623     1.650     1.542  0.3552  0.9254  0.1324
 
              Baa    -0.0047    -2.527    -0.902    -0.843  0.0027  0.2807  0.9598
    58 H(1)   Bbb    -0.0037    -1.970    -0.703    -0.657  0.9329 -0.3463  0.0987
              Bcc     0.0084     4.497     1.605     1.500  0.3601  0.8951 -0.2628
 
              Baa    -0.0035    -1.873    -0.668    -0.625  0.6791 -0.4907  0.5459
    59 H(1)   Bbb    -0.0035    -1.849    -0.660    -0.617 -0.4128  0.3596  0.8368
              Bcc     0.0070     3.722     1.328     1.241  0.6070  0.7936 -0.0416
 
              Baa    -0.0049    -0.659    -0.235    -0.220  0.1896 -0.3150  0.9300
    60 C(13)  Bbb    -0.0043    -0.583    -0.208    -0.194 -0.3846  0.8477  0.3655
              Bcc     0.0093     1.242     0.443     0.414  0.9034  0.4270 -0.0395
 
              Baa    -0.0038    -2.043    -0.729    -0.681 -0.1952  0.1657  0.9667
    61 H(1)   Bbb    -0.0035    -1.848    -0.659    -0.616 -0.3382  0.9138 -0.2249
              Bcc     0.0073     3.891     1.388     1.298  0.9206  0.3709  0.1224
 
              Baa    -0.0031    -1.678    -0.599    -0.560  0.0235  0.0528  0.9983
    62 H(1)   Bbb    -0.0023    -1.225    -0.437    -0.409 -0.5323  0.8459 -0.0322
              Bcc     0.0054     2.903     1.036     0.968  0.8462  0.5307 -0.0480
 
              Baa    -0.0038    -2.054    -0.733    -0.685  0.2929 -0.2364  0.9264
    63 H(1)   Bbb    -0.0034    -1.840    -0.657    -0.614 -0.2767  0.9066  0.3188
              Bcc     0.0073     3.893     1.389     1.299  0.9152  0.3497 -0.2002
 
              Baa    -0.0478     3.460     1.235     1.154  0.7449  0.6671  0.0122
    64 O(17)  Bbb    -0.0413     2.990     1.067     0.997 -0.6667  0.7435  0.0520
              Bcc     0.0891    -6.450    -2.302    -2.152  0.0257 -0.0469  0.9986
 
              Baa    -0.0299   -15.956    -5.693    -5.322  0.7030  0.7090 -0.0551
    65 H(1)   Bbb    -0.0250   -13.343    -4.761    -4.451 -0.6366  0.6620  0.3957
              Bcc     0.0549    29.299    10.455     9.773  0.3170 -0.2431  0.9167
 
              Baa    -0.0221   -11.817    -4.217    -3.942  0.9702  0.2229  0.0951
    66 H(1)   Bbb    -0.0209   -11.174    -3.987    -3.727 -0.2161  0.9734 -0.0766
              Bcc     0.0431    22.991     8.204     7.669 -0.1096  0.0538  0.9925
 
              Baa    -0.0157    -2.106    -0.751    -0.702  0.7750  0.5151 -0.3661
    67 C(13)  Bbb    -0.0123    -1.649    -0.589    -0.550 -0.4429  0.8560  0.2668
              Bcc     0.0280     3.755     1.340     1.253  0.4508 -0.0446  0.8915
 
              Baa    -0.0130    -6.911    -2.466    -2.305 -0.4984  0.8660  0.0402
    68 H(1)   Bbb    -0.0112    -5.960    -2.127    -1.988  0.6791  0.4189 -0.6028
              Bcc     0.0241    12.871     4.593     4.293  0.5388  0.2731  0.7969
 
              Baa    -0.0157    -8.359    -2.983    -2.788  0.5463  0.7606 -0.3507
    69 H(1)   Bbb    -0.0139    -7.391    -2.637    -2.465 -0.4848  0.6286  0.6081
              Bcc     0.0295    15.750     5.620     5.254  0.6830 -0.1622  0.7122
 
              Baa    -0.0080    -4.247    -1.515    -1.417 -0.0972  0.9877  0.1226
    70 H(1)   Bbb    -0.0064    -3.415    -1.219    -1.139  0.8966  0.1404 -0.4199
              Bcc     0.0144     7.662     2.734     2.556  0.4320 -0.0691  0.8992
 
              Baa    -0.1674    -6.865    -2.450    -2.290  0.5412  0.8346  0.1029
    71 S(33)  Bbb    -0.1395    -5.719    -2.041    -1.908  0.8382 -0.5452  0.0137
              Bcc     0.3069    12.585     4.490     4.198 -0.0675 -0.0789  0.9946
 
              Baa    -0.0262   -13.986    -4.991    -4.665  0.9994 -0.0235  0.0256
    72 H(1)   Bbb    -0.0204   -10.881    -3.883    -3.629  0.0065  0.8515  0.5244
              Bcc     0.0466    24.867     8.873     8.295 -0.0341 -0.5239  0.8511
 

 ---------------------------------------------------------------------------------

 Unable to Open any file for archive entry.
 1\1\GINC-BGN1011\SP\UAPFD\Gen\C31H34Fe1N4O1S1(1+,6)\BEBJONES\21-Sep-20
 24\0\\# apfd/gen scf=maxcycle=999 geom=check\\1ntf_III_H\\1,6\Fe,0,10.
 2523970791,18.7121056812,4.6868703049\N,0,8.2719694358,18.752972041,4.
 9754399404\N,0,10.1988574167,20.5713287149,3.9670636404\N,0,12.2681659
 771,18.8678306331,4.8667313978\N,0,10.3394229613,17.0366898564,5.83300
 26652\C,0,7.4893323165,17.8194122123,5.5791429696\C,0,6.0888935031,18.
 0995316752,5.3537749761\C,0,6.0418570558,19.2445715088,4.6205829961\C,
 0,7.4142848834,19.65148807,4.4172567003\C,0,9.0843410399,21.2520860078
 ,3.5928244543\C,0,9.4360583281,22.5374238414,3.0303115577\C,0,10.79221
 08038,22.619935523,3.0887068889\C,0,11.2507792569,21.37896522,3.675876
 3415\C,0,13.0497058624,19.8983766367,4.4502674897\C,0,14.4531000589,19
 .5942983016,4.6411310156\C,0,14.4947204526,18.3360736493,5.1802424317\
 C,0,13.1250512654,17.9148249283,5.3276934739\C,0,11.450425792,16.31576
 60895,6.1315647771\C,0,11.0974394592,15.0798462614,6.8023808754\C,0,9.
 7316522348,15.0743610603,6.8891177456\C,0,9.2834557712,16.2972902987,6
 .272041405\C,0,7.9575229325,16.6930221715,6.2289928921\H,0,7.223635208
 9,16.0285174804,6.6580295532\C,0,7.7851420832,20.8030569819,3.74504415
 21\H,0,6.9942827863,21.4326452874,3.3667253074\C,0,12.5805436546,21.07
 81101909,3.9007505551\H,0,13.3088558761,21.82528643,3.6258278465\C,0,1
 2.7500671586,16.698369146,5.8678086139\H,0,13.5369474101,16.0213935839
 ,6.1611237054\C,0,4.9712573887,17.2551183746,5.8610159337\H,0,5.011260
 1006,17.1792606493,6.9477097133\H,0,5.0343867514,16.2472398855,5.44966
 63675\H,0,4.0094402285,17.6787668924,5.5828825034\C,0,4.8585925911,19.
 9884824514,4.1041915325\H,0,4.9123532542,20.0942379043,3.0203374092\H,
 0,4.8154898703,20.9875196194,4.5387858035\H,0,3.9368632277,19.46810586
 58,4.3520104316\C,0,8.8521338824,14.0698816967,7.5471740648\H,0,8.4004
 70914,13.4058386632,6.8083540348\H,0,8.0487457123,14.5584948908,8.0963
 936387\H,0,9.4319980042,13.4662577781,8.2422163065\C,0,12.0473519871,1
 4.0987585988,7.2804474445\H,0,12.985382591,14.4951326749,7.6513291596\
 C,0,11.8546948311,12.7842338309,7.2866151587\H,0,10.9635423581,12.3344
 81442,6.8847483645\H,0,12.6011363967,12.1071585953,7.6672766016\C,0,15
 .686386211,17.5089289456,5.5125677101\H,0,15.5195332103,16.4678684291,
 5.2406640331\H,0,15.9043151348,17.5489413251,6.5812680231\H,0,16.55581
 87529,17.8755615939,4.9710085746\C,0,15.5437274605,20.4793829203,4.293
 8771672\H,0,15.3796460159,21.1071583994,3.4260133688\C,0,16.6929628806
 ,20.5778459652,4.953394993\H,0,16.8904960704,20.0137682591,5.848275395
 9\H,0,17.4702238869,21.2515723467,4.6331991884\C,0,11.6901729713,23.72
 82256675,2.6589963898\H,0,12.4301676925,23.3665778094,1.9451799485\H,0
 ,12.2217918856,24.1445435389,3.5153351286\H,0,11.1214837421,24.5260733
 312,2.1876296862\C,0,8.44908408,23.5303044329,2.5202757201\H,0,7.87494
 32859,23.1108908609,1.6933907681\H,0,8.9508498611,24.4281266829,2.1682
 381546\H,0,7.7501219706,23.8145220605,3.3069871685\O,0,10.375,19.758,6
 .705\H,0,11.306,19.726,6.926\H,0,9.726,20.096,7.21\C,0,9.1077594101,18
 .425358992,1.5312589698\H,0,9.625250894,19.3207048505,1.2035725772\H,0
 ,8.1956790524,18.6990265215,2.0507194072\H,0,8.9040907642,17.777492855
 8,0.6843482011\S,0,10.238637193,17.5674972001,2.6865478565\H,0,9.37953
 60573,16.5780593556,2.9684642931\\Version=ES64L-G16RevC.02\State=6-A\H
 F=-3095.1849665\S2=8.828152\S2-1=0.\S2A=8.751662\RMSD=8.501e-09\Dipole
 =-0.4980114,3.0253291,5.203629\Quadrupole=-7.2467014,0.2715366,6.97516
 47,1.746533,9.5053225,5.4585195\PG=C01 [X(C31H34Fe1N4O1S1)]\\@
 The archive entry for this job was punched.


 TO ERR IS HUMAN - AND TO BLAME IT ON A COMPUTER IS EVEN MORE SO.
 Job cpu time:       0 days  2 hours 24 minutes 39.0 seconds.
 Elapsed time:       0 days  0 hours  2 minutes 30.7 seconds.
 File lengths (MBytes):  RWF=    347 Int=      0 D2E=      0 Chk=    156 Scr=      1
 Normal termination of Gaussian 16 at Sat Sep 21 23:30:52 2024.
