 Entering Gaussian System, Link 0=g16
 Input=1obm05.com
 Output=1obm05.log
 Initial command:
 /sw/chem/gaussian/g16_C02/a100/g16/l1.exe "/local/bebjones_8030169/Gau-2369552.inp" -scrdir="/local/bebjones_8030169/"
 Entering Link 1 = /sw/chem/gaussian/g16_C02/a100/g16/l1.exe PID=   2369553.
  
 Copyright (c) 1988-2021, Gaussian, Inc.  All Rights Reserved.
  
 This is part of the Gaussian(R) 16 program.  It is based on
 the Gaussian(R) 09 system (copyright 2009, Gaussian, Inc.),
 the Gaussian(R) 03 system (copyright 2003, Gaussian, Inc.),
 the Gaussian(R) 98 system (copyright 1998, Gaussian, Inc.),
 the Gaussian(R) 94 system (copyright 1995, Gaussian, Inc.),
 the Gaussian 92(TM) system (copyright 1992, Gaussian, Inc.),
 the Gaussian 90(TM) system (copyright 1990, Gaussian, Inc.),
 the Gaussian 88(TM) system (copyright 1988, Gaussian, Inc.),
 the Gaussian 86(TM) system (copyright 1986, Carnegie Mellon
 University), and the Gaussian 82(TM) system (copyright 1983,
 Carnegie Mellon University). Gaussian is a federally registered
 trademark of Gaussian, Inc.
  
 This software contains proprietary and confidential information,
 including trade secrets, belonging to Gaussian, Inc.
  
 This software is provided under written license and may be
 used, copied, transmitted, or stored only in accord with that
 written license.
  
 The following legend is applicable only to US Government
 contracts under FAR:
  
                    RESTRICTED RIGHTS LEGEND
  
 Use, reproduction and disclosure by the US Government is
 subject to restrictions as set forth in subparagraphs (a)
 and (c) of the Commercial Computer Software - Restricted
 Rights clause in FAR 52.227-19.
  
 Gaussian, Inc.
 340 Quinnipiac St., Bldg. 40, Wallingford CT 06492
  
  
 ---------------------------------------------------------------
 Warning -- This program may not be used in any manner that
 competes with the business of Gaussian, Inc. or will provide
 assistance to any competitor of Gaussian, Inc.  The licensee
 of this program is prohibited from giving any competitor of
 Gaussian, Inc. access to this program.  By using this program,
 the user acknowledges that Gaussian, Inc. is engaged in the
 business of creating and licensing software in the field of
 computational chemistry and represents and warrants to the
 licensee that it is not a competitor of Gaussian, Inc. and that
 it will not use this program in any manner prohibited above.
 ---------------------------------------------------------------
  

 Cite this work as:
 Gaussian 16, Revision C.02,
 M. J. Frisch, G. W. Trucks, H. B. Schlegel, G. E. Scuseria, 
 M. A. Robb, J. R. Cheeseman, G. Scalmani, V. Barone, 
 G. A. Petersson, H. Nakatsuji, X. Li, M. Caricato, A. V. Marenich, 
 J. Bloino, B. G. Janesko, R. Gomperts, B. Mennucci, H. P. Hratchian, 
 J. V. Ortiz, A. F. Izmaylov, J. L. Sonnenberg, D. Williams-Young, 
 F. Ding, F. Lipparini, F. Egidi, J. Goings, B. Peng, A. Petrone, 
 T. Henderson, D. Ranasinghe, V. G. Zakrzewski, J. Gao, N. Rega, 
 G. Zheng, W. Liang, M. Hada, M. Ehara, K. Toyota, R. Fukuda, 
 J. Hasegawa, M. Ishida, T. Nakajima, Y. Honda, O. Kitao, H. Nakai, 
 T. Vreven, K. Throssell, J. A. Montgomery, Jr., J. E. Peralta, 
 F. Ogliaro, M. J. Bearpark, J. J. Heyd, E. N. Brothers, K. N. Kudin, 
 V. N. Staroverov, T. A. Keith, R. Kobayashi, J. Normand, 
 K. Raghavachari, A. P. Rendell, J. C. Burant, S. S. Iyengar, 
 J. Tomasi, M. Cossi, J. M. Millam, M. Klene, C. Adamo, R. Cammi, 
 J. W. Ochterski, R. L. Martin, K. Morokuma, O. Farkas, 
 J. B. Foresman, and D. J. Fox, Gaussian, Inc., Wallingford CT, 2019.
 
 ******************************************
 Gaussian 16:  ES64L-G16RevC.02  7-Dec-2021
                25-Sep-2024 
 ******************************************
 %mem=16GB
 %CPU=0-71
 SetSPE:  set environment variable "OMP_PROC_BIND" = "true"
 SetSPE:  set environment variable "OMP_PLACES" = "{0},{1},{2},{3},{4},{5},{6},{7},{8},{9},{10},{11},{12},{13},{14},{15},{16},{17},{18},{19},{20},{21},{22},{23},{24},{25},{26},{27},{28},{29},{30},{31},{32},{33},{34},{35},{36},{37},{38},{39},{40},{41},{42},{43},{44},{45},{46},{47},{48},{49},{50},{51},{52},{53},{54},{55},{56},{57},{58},{59},{60},{61},{62},{63},{64},{65},{66},{67},{68},{69},{70},{71}"
 Will use up to   72 processors via shared memory.
 %gpucpu=0,1,2,3=0,1,2,3
 Will use    4 GPUs:
 Thread  CPU   GPU
      0    0     0
      1    1     1
      2    2     2
      3    3     3
      4    4    -1
      5    5    -1
      6    6    -1
      7    7    -1
      8    8    -1
      9    9    -1
     10   10    -1
     11   11    -1
     12   12    -1
     13   13    -1
     14   14    -1
     15   15    -1
     16   16    -1
     17   17    -1
     18   18    -1
     19   19    -1
     20   20    -1
     21   21    -1
     22   22    -1
     23   23    -1
     24   24    -1
     25   25    -1
     26   26    -1
     27   27    -1
     28   28    -1
     29   29    -1
     30   30    -1
     31   31    -1
     32   32    -1
     33   33    -1
     34   34    -1
     35   35    -1
     36   36    -1
     37   37    -1
     38   38    -1
     39   39    -1
     40   40    -1
     41   41    -1
     42   42    -1
     43   43    -1
     44   44    -1
     45   45    -1
     46   46    -1
     47   47    -1
     48   48    -1
     49   49    -1
     50   50    -1
     51   51    -1
     52   52    -1
     53   53    -1
     54   54    -1
     55   55    -1
     56   56    -1
     57   57    -1
     58   58    -1
     59   59    -1
     60   60    -1
     61   61    -1
     62   62    -1
     63   63    -1
     64   64    -1
     65   65    -1
     66   66    -1
     67   67    -1
     68   68    -1
     69   69    -1
     70   70    -1
     71   71    -1
 SetGPE:  set environment variable "OMP_PROC_BIND" = "true"
 SetGPE:  set environment variable "OMP_PLACES" = "{0},{1},{2},{3},{4},{5},{6},{7},{8},{9},{10},{11},{12},{13},{14},{15},{16},{17},{18},{19},{20},{21},{22},{23},{24},{25},{26},{27},{28},{29},{30},{31},{32},{33},{34},{35},{36},{37},{38},{39},{40},{41},{42},{43},{44},{45},{46},{47},{48},{49},{50},{51},{52},{53},{54},{55},{56},{57},{58},{59},{60},{61},{62},{63},{64},{65},{66},{67},{68},{69},{70},{71}"
 %oldchk=1obm_II_Sre.chk
 %chk=1obm_II_Qn.chk
 Properties for Device   0
 Minimum vector length:                              32
 Maximum vector length:                            1024
 Number of SMPs:                                    108
 Maximum number of threads per SMP:                2048
 Number of ASync Engines:                             5
 Memory:                                           9207742464
 Properties for Device   1
 Minimum vector length:                              32
 Maximum vector length:                            1024
 Number of SMPs:                                    108
 Maximum number of threads per SMP:                2048
 Number of ASync Engines:                             5
 Memory:                                           9207742464
 Properties for Device   2
 Minimum vector length:                              32
 Maximum vector length:                            1024
 Number of SMPs:                                    108
 Maximum number of threads per SMP:                2048
 Number of ASync Engines:                             5
 Memory:                                           9207742464
 Properties for Device   3
 Minimum vector length:                              32
 Maximum vector length:                            1024
 Number of SMPs:                                    108
 Maximum number of threads per SMP:                2048
 Number of ASync Engines:                             5
 Memory:                                           9207742464
   8286968217 words of memory will be used on each GPU.
 Copying data from "1obm_II_Sre.chk" to current chk file "1obm_II_Qn.chk"
 IOpt=  2 FromEx=T IUOpen= 4 IOptOp= 5 NList=   0 IFRang= 0 IUIn= 4 IUOut= 2.
 --------------------------------------------------------------
 # apfd/def2TZVP guess=read scf=maxcycle=999 geom=check pop=nbo
 --------------------------------------------------------------
 1/29=2,38=1,172=1/1;
 2/12=2,40=1/2;
 3/5=44,7=101,11=2,14=-4,25=1,30=1,74=-44,116=-2/1,2,3;
 4/5=1/1;
 5/5=2,7=999,38=6/2;
 6/7=2,8=2,9=2,10=2,28=1,40=1/1,7;
 99/5=1,9=1/99;
 ---------
 1obm_II_Q
 ---------
 Structure from the checkpoint file:  "1obm_II_Qn.chk"
 Charge =  0 Multiplicity = 5
 Z-Matrix found in chk file.
 Fe,0,35.4423091767,4.1777472811,10.092875365
 N,0,37.2662261559,3.8379231691,9.3592339312
 N,0,35.0275615018,5.2655189225,8.4085750095
 N,0,33.5496218852,4.5414719513,10.6957085261
 N,0,35.7917265498,3.0645869544,11.6700045388
 C,0,38.2044192333,3.0458137246,9.9455787818
 C,0,39.4206446629,3.0318100252,9.1615361064
 C,0,39.1978191438,3.8490145098,8.0974341126
 C,0,37.840231249,4.3306630614,8.2333740137
 C,0,35.8948956532,5.5627938103,7.4026522888
 C,0,35.2645136466,6.3843569885,6.3995365822
 C,0,33.9895239509,6.6167379125,6.8388842287
 C,0,33.8707147536,5.9072559246,8.1008566814
 C,0,32.6155855039,5.3496563663,10.1287762274
 C,0,31.5004407001,5.5539107217,11.015192324
 C,0,31.7675124813,4.8196336926,12.1421226018
 C,0,33.0611966989,4.2032126434,11.9202209354
 C,0,34.9362030506,2.8107858172,12.6927659281
 C,0,35.5557964415,1.9335011129,13.6631153757
 C,0,36.7933082876,1.6407241866,13.1795003494
 C,0,36.9134587223,2.3412417256,11.9187410198
 C,0,38.0480648687,2.3390345824,11.1266998187
 H,0,38.8829791008,1.7396909647,11.4586361905
 C,0,37.2188697535,5.1662921006,7.3283135024
 H,0,37.7967122098,5.5022881913,6.4811618731
 C,0,32.7289755624,5.9304707476,8.8762447202
 H,0,31.8899430202,6.5063921182,8.5177887974
 C,0,33.6729763703,3.3559987385,12.8280413061
 H,0,33.1231011204,3.1048892933,13.7226401525
 C,0,40.1078821222,4.202734259,6.9715380703
 H,0,39.6892156824,3.870376097,6.0209757114
 H,0,41.0812109122,3.7349264303,7.0990516691
 H,0,40.2510174568,5.2820473813,6.9174614249
 C,0,40.6370693696,2.2443741347,9.5115595967
 H,0,40.4015200894,1.1807529971,9.5633599992
 H,0,41.0286298749,2.5503352571,10.4820288497
 H,0,41.4175328621,2.3845725695,8.7677580183
 C,0,35.9025926259,6.810475306,5.1232504609
 H,0,36.4947542006,5.9984891961,4.7018691115
 H,0,36.5643122801,7.6635667291,5.2834994745
 H,0,35.1414385548,7.0956220702,4.4001764549
 C,0,32.9178128738,7.3505437051,6.2049135344
 H,0,31.9185033288,6.9708676614,6.3887588919
 C,0,33.0552149167,8.4276995426,5.4379290602
 H,0,34.0098507999,8.887774504,5.2517468726
 H,0,32.2007849332,8.9052465818,4.9870427762
 C,0,30.3385789469,6.443705561,10.740341804
 H,0,29.5781432332,5.9220236156,10.156082284
 H,0,30.6492768673,7.3242839548,10.1799915802
 H,0,29.887189063,6.7680646883,11.6761755423
 C,0,30.9922934006,4.6965949285,13.3563310089
 H,0,31.566302939,4.5628026906,14.266122328
 C,0,29.6654496139,4.7282964244,13.4338380481
 H,0,29.041650571,4.8099408288,12.5611428958
 H,0,29.1544339623,4.6455890356,14.3790265879
 C,0,34.9114406926,1.4981799065,14.9347681871
 H,0,33.9674108666,0.9913528317,14.7346361225
 H,0,34.7031047742,2.3598787517,15.5702509761
 H,0,35.5574239701,0.8179504716,15.4847145202
 C,0,37.8630520061,0.7879667986,13.7718850731
 H,0,38.1293173316,-0.0236689845,13.0939696351
 H,0,37.5360512239,0.3539826578,14.7136121196
 H,0,38.7608898254,1.377540264,13.9601373034
 O,0,36.067,6.067,11.194
 H,0,35.274,6.492,11.521
 H,0,36.903,6.331,11.34
 C,0,32.4957279424,0.491678857,7.061650867
 H,0,32.925676328,0.1379267002,6.1245067901
 H,0,31.7058550418,1.2011315571,6.835957044
 H,0,32.0602187135,-0.3624168503,7.5804248483
 N,0,34.6500108716,0.4856869942,8.3346924726
 H,0,34.8776283139,-0.4751215804,8.1382729572
 C,0,33.5304463943,1.1471329224,7.9013712673
 C,0,35.3815017857,1.3550773547,9.0675310056
 H,0,36.313636627,1.1082923457,9.5325179632
 N,0,34.7943865234,2.5251771089,9.1249267234
 C,0,33.6423159739,2.4118752502,8.403662796
 H,0,32.9759371504,3.241525186,8.2942784376
 Recover connectivity data from disk.
 Stoichiometry    C34H36FeN6O(5)
 Framework group  C1[X(C34H36FeN6O)]
 Deg. of freedom   228
 Full point group                 C1      NOp   1
 Largest Abelian subgroup         C1      NOp   1
 Largest concise Abelian subgroup C1      NOp   1
                         Standard orientation:                         
 ---------------------------------------------------------------------
 Center     Atomic      Atomic             Coordinates (Angstroms)
 Number     Number       Type             X           Y           Z
 ---------------------------------------------------------------------
      1         26           0        0.243468   -0.009577   -0.421449
      2          7           0        1.578274   -1.491660   -0.467333
      3          7           0       -1.238372   -1.420434   -0.345531
      4          7           0       -1.201243    1.396785   -0.307752
      5          7           0        1.653006    1.354753   -0.402468
      6          6           0        2.928275   -1.322247   -0.451869
      7          6           0        3.602394   -2.601268   -0.513455
      8          6           0        2.625047   -3.544454   -0.584021
      9          6           0        1.367811   -2.829707   -0.539231
     10          6           0       -1.076731   -2.769569   -0.424456
     11          6           0       -2.347908   -3.448243   -0.378668
     12          6           0       -3.302975   -2.470780   -0.307675
     13          6           0       -2.579368   -1.211329   -0.292456
     14          6           0       -2.550310    1.237125   -0.346808
     15          6           0       -3.216649    2.500420   -0.523098
     16          6           0       -2.229621    3.451467   -0.564900
     17          6           0       -0.976538    2.732842   -0.437631
     18          6           0        1.482288    2.700941   -0.370680
     19          6           0        2.764654    3.371988   -0.352347
     20          6           0        3.709151    2.392795   -0.340290
     21          6           0        2.991889    1.135764   -0.349384
     22          6           0        3.594359   -0.109343   -0.386865
     23          1           0        4.673839   -0.138312   -0.367931
     24          6           0        0.128944   -3.436733   -0.554405
     25          1           0        0.101348   -4.512551   -0.633872
     26          6           0       -3.204424    0.018984   -0.261339
     27          1           0       -4.283187    0.034154   -0.247442
     28          6           0        0.262268    3.349959   -0.410976
     29          1           0        0.280815    4.429278   -0.432232
     30          6           0        2.747988   -5.027346   -0.667038
     31          1           0        2.288494   -5.499593    0.201961
     32          1           0        3.792398   -5.327436   -0.707368
     33          1           0        2.248324   -5.405180   -1.559174
     34          6           0        5.083067   -2.772685   -0.491447
     35          1           0        5.502616   -2.351492    0.422900
     36          1           0        5.542984   -2.263567   -1.338807
     37          1           0        5.352708   -3.824950   -0.536731
     38          6           0       -2.523624   -4.926720   -0.349351
     39          1           0       -1.767909   -5.389249    0.285079
     40          1           0       -2.430013   -5.350824   -1.350695
     41          1           0       -3.506650   -5.180007    0.041808
     42          6           0       -4.739356   -2.594272   -0.205138
     43          1           0       -5.234480   -1.824472    0.376956
     44          6           0       -5.482928   -3.548672   -0.756164
     45          1           0       -5.066819   -4.315923   -1.385323
     46          1           0       -6.550821   -3.577043   -0.614032
     47          6           0       -4.686215    2.679632   -0.682660
     48          1           0       -5.180032    2.731785    0.289553
     49          1           0       -5.119703    1.848554   -1.237043
     50          1           0       -4.893448    3.602769   -1.220823
     51          6           0       -2.345818    4.879638   -0.757846
     52          1           0       -1.525908    5.347835   -1.290432
     53          6           0       -3.352869    5.638102   -0.335818
     54          1           0       -4.169819    5.238936    0.239201
     55          1           0       -3.379700    6.697745   -0.530227
     56          6           0        2.939038    4.852219   -0.369801
     57          1           0        2.426217    5.310669    0.475750
     58          1           0        2.522256    5.273733   -1.285435
     59          1           0        3.991767    5.120084   -0.320215
     60          6           0        5.195118    2.511923   -0.327048
     61          1           0        5.614514    2.013222    0.547380
     62          1           0        5.500351    3.555226   -0.305273
     63          1           0        5.623254    2.048500   -1.216479
     64          8           0        0.059033    0.103879   -2.685318
     65          1           0       -0.670414    0.688517   -2.891494
     66          1           0        0.603831   -0.283340   -3.271121
     67          6           0       -1.017582   -0.033963    5.043614
     68          1           0       -0.811112   -0.939779    5.613791
     69          1           0       -2.086999    0.031277    4.869685
     70          1           0       -0.708191    0.823079    5.641971
     71          7           0        1.064886   -0.137965    3.660099
     72          1           0        1.698942   -0.188723    4.440446
     73          6           0       -0.300765   -0.055532    3.743191
     74          6           0        1.396315   -0.136995    2.349327
     75          1           0        2.402104   -0.193479    1.987126
     76          7           0        0.325481   -0.058930    1.598094
     77          6           0       -0.738052   -0.008390    2.450542
     78          1           0       -1.739465    0.057335    2.080141
 ---------------------------------------------------------------------
 Rotational constants (GHZ):           0.0929588           0.0918647           0.0592122
 Standard basis: def2TZVP (5D, 7F)
 There are  1744 symmetry adapted cartesian basis functions of A   symmetry.
 There are  1532 symmetry adapted basis functions of A   symmetry.
  1532 basis functions,  2481 primitive gaussians,  1744 cartesian basis functions
   160 alpha electrons      156 beta electrons
       nuclear repulsion energy      5966.7135962912 Hartrees.
 NAtoms=   78 NActive=   78 NUniq=   78 SFac= 1.00D+00 NAtFMM=   60 NAOKFM=T Big=T
 Integral buffers will be    131072 words long.
 Raffenetti 2 integral format.
 Two-electron integral symmetry is turned on.
 R6APFD:  NTU= -4 IXU= 1 FactS= 1.050
 Nuclear repulsion after empirical dispersion term =     5966.5601129153 Hartrees.
 One-electron integrals computed using PRISM.
   1 Symmetry operations used in ECPInt.
 ECPInt:  NShTT=  186355 NPrTT=  576197 LenC2=  147259 LenP2D=  301286.
 LDataN:  DoStor=T MaxTD1= 6 Len=  172
 Number of processors reduced to  23 by ecpmxn.
 NBasis=  1532 RedAO= T EigKep=  3.18D-06  NBF=  1532
 NBsUse=  1532 1.00D-06 EigRej= -1.00D+00 NBFU=  1532
 Initial guess from the checkpoint file:  "1obm_II_Qn.chk"
 B after Tr=     0.000000    0.000000   -0.000000
         Rot=    1.000000    0.000000   -0.000000    0.000000 Ang=   0.00 deg.
 Initial guess <Sx>= 0.0000 <Sy>= 0.0000 <Sz>= 2.0000 <S**2>= 6.1460 S= 2.0290
 Requested convergence on RMS density matrix=1.00D-08 within 999 cycles.
 Requested convergence on MAX density matrix=1.00D-06.
 Requested convergence on             energy=1.00D-06.
 No special actions if energy rises.
 Restarting incremental Fock formation.
 Restarting incremental Fock formation.
 SCF Done:  E(UAPFD) =  -2984.01119311     A.U. after   47 cycles
            NFock= 47  Conv=0.14D-08     -V/T= 2.0031
 <Sx>= 0.0000 <Sy>= 0.0000 <Sz>= 2.0000 <S**2>= 6.1454 S= 2.0289
 <L.S>=  0.00000000000    
 Annihilation of the first spin contaminant:
 S**2 before annihilation     6.1454,   after     6.0006

 **********************************************************************

            Population analysis using the SCF Density.

 **********************************************************************

 Orbital symmetries:
 Alpha Orbitals:
       Occupied  (A) (A) (A) (A) (A) (A) (A) (A) (A) (A) (A) (A)
                 (A) (A) (A) (A) (A) (A) (A) (A) (A) (A) (A) (A)
                 (A) (A) (A) (A) (A) (A) (A) (A) (A) (A) (A) (A)
                 (A) (A) (A) (A) (A) (A) (A) (A) (A) (A) (A) (A)
                 (A) (A) (A) (A) (A) (A) (A) (A) (A) (A) (A) (A)
                 (A) (A) (A) (A) (A) (A) (A) (A) (A) (A) (A) (A)
                 (A) (A) (A) (A) (A) (A) (A) (A) (A) (A) (A) (A)
                 (A) (A) (A) (A) (A) (A) (A) (A) (A) (A) (A) (A)
                 (A) (A) (A) (A) (A) (A) (A) (A) (A) (A) (A) (A)
                 (A) (A) (A) (A) (A) (A) (A) (A) (A) (A) (A) (A)
                 (A) (A) (A) (A) (A) (A) (A) (A) (A) (A) (A) (A)
                 (A) (A) (A) (A) (A) (A) (A) (A) (A) (A) (A) (A)
                 (A) (A) (A) (A) (A) (A) (A) (A) (A) (A) (A) (A)
                 (A) (A) (A) (A)
       Virtual   (A) (A) (A) (A) (A) (A) (A) (A) (A) (A) (A) (A)
                 (A) (A) (A) (A) (A) (A) (A) (A) (A) (A) (A) (A)
                 (A) (A) (A) (A) (A) (A) (A) (A) (A) (A) (A) (A)
                 (A) (A) (A) (A) (A) (A) (A) (A) (A) (A) (A) (A)
                 (A) (A) (A) (A) (A) (A) (A) (A) (A) (A) (A) (A)
                 (A) (A) (A) (A) (A) (A) (A) (A) (A) (A) (A) (A)
                 (A) (A) (A) (A) (A) (A) (A) (A) (A) (A) (A) (A)
                 (A) (A) (A) (A) (A) (A) (A) (A) (A) (A) (A) (A)
                 (A) (A) (A) (A) (A) (A) (A) (A) (A) (A) (A) (A)
                 (A) (A) (A) (A) (A) (A) (A) (A) (A) (A) (A) (A)
                 (A) (A) (A) (A) (A) (A) (A) (A) (A) (A) (A) (A)
                 (A) (A) (A) (A) (A) (A) (A) (A) (A) (A) (A) (A)
                 (A) (A) (A) (A) (A) (A) (A) (A) (A) (A) (A) (A)
                 (A) (A) (A) (A) (A) (A) (A) (A) (A) (A) (A) (A)
                 (A) (A) (A) (A) (A) (A) (A) (A) (A) (A) (A) (A)
                 (A) (A) (A) (A) (A) (A) (A) (A) (A) (A) (A) (A)
                 (A) (A) (A) (A) (A) (A) (A) (A) (A) (A) (A) (A)
                 (A) (A) (A) (A) (A) (A) (A) (A) (A) (A) (A) (A)
                 (A) (A) (A) (A) (A) (A) (A) (A) (A) (A) (A) (A)
                 (A) (A) (A) (A) (A) (A) (A) (A) (A) (A) (A) (A)
                 (A) (A) (A) (A) (A) (A) (A) (A) (A) (A) (A) (A)
                 (A) (A) (A) (A) (A) (A) (A) (A) (A) (A) (A) (A)
                 (A) (A) (A) (A) (A) (A) (A) (A) (A) (A) (A) (A)
                 (A) (A) (A) (A) (A) (A) (A) (A) (A) (A) (A) (A)
                 (A) (A) (A) (A) (A) (A) (A) (A) (A) (A) (A) (A)
                 (A) (A) (A) (A) (A) (A) (A) (A) (A) (A) (A) (A)
                 (A) (A) (A) (A) (A) (A) (A) (A) (A) (A) (A) (A)
                 (A) (A) (A) (A) (A) (A) (A) (A) (A) (A) (A) (A)
                 (A) (A) (A) (A) (A) (A) (A) (A) (A) (A) (A) (A)
                 (A) (A) (A) (A) (A) (A) (A) (A) (A) (A) (A) (A)
                 (A) (A) (A) (A) (A) (A) (A) (A) (A) (A) (A) (A)
                 (A) (A) (A) (A) (A) (A) (A) (A) (A) (A) (A) (A)
                 (A) (A) (A) (A) (A) (A) (A) (A) (A) (A) (A) (A)
                 (A) (A) (A) (A) (A) (A) (A) (A) (A) (A) (A) (A)
                 (A) (A) (A) (A) (A) (A) (A) (A) (A) (A) (A) (A)
                 (A) (A) (A) (A) (A) (A) (A) (A) (A) (A) (A) (A)
                 (A) (A) (A) (A) (A) (A) (A) (A) (A) (A) (A) (A)
                 (A) (A) (A) (A) (A) (A) (A) (A) (A) (A) (A) (A)
                 (A) (A) (A) (A) (A) (A) (A) (A) (A) (A) (A) (A)
                 (A) (A) (A) (A) (A) (A) (A) (A) (A) (A) (A) (A)
                 (A) (A) (A) (A) (A) (A) (A) (A) (A) (A) (A) (A)
                 (A) (A) (A) (A) (A) (A) (A) (A) (A) (A) (A) (A)
                 (A) (A) (A) (A) (A) (A) (A) (A) (A) (A) (A) (A)
                 (A) (A) (A) (A) (A) (A) (A) (A) (A) (A) (A) (A)
                 (A) (A) (A) (A) (A) (A) (A) (A) (A) (A) (A) (A)
                 (A) (A) (A) (A) (A) (A) (A) (A) (A) (A) (A) (A)
                 (A) (A) (A) (A) (A) (A) (A) (A) (A) (A) (A) (A)
                 (A) (A) (A) (A) (A) (A) (A) (A) (A) (A) (A) (A)
                 (A) (A) (A) (A) (A) (A) (A) (A) (A) (A) (A) (A)
                 (A) (A) (A) (A) (A) (A) (A) (A) (A) (A) (A) (A)
                 (A) (A) (A) (A) (A) (A) (A) (A) (A) (A) (A) (A)
                 (A) (A) (A) (A) (A) (A) (A) (A) (A) (A) (A) (A)
                 (A) (A) (A) (A) (A) (A) (A) (A) (A) (A) (A) (A)
                 (A) (A) (A) (A) (A) (A) (A) (A) (A) (A) (A) (A)
                 (A) (A) (A) (A) (A) (A) (A) (A) (A) (A) (A) (A)
                 (A) (A) (A) (A) (A) (A) (A) (A) (A) (A) (A) (A)
                 (A) (A) (A) (A) (A) (A) (A) (A) (A) (A) (A) (A)
                 (A) (A) (A) (A) (A) (A) (A) (A) (A) (A) (A) (A)
                 (A) (A) (A) (A) (A) (A) (A) (A) (A) (A) (A) (A)
                 (A) (A) (A) (A) (A) (A) (A) (A) (A) (A) (A) (A)
                 (A) (A) (A) (A) (A) (A) (A) (A) (A) (A) (A) (A)
                 (A) (A) (A) (A) (A) (A) (A) (A) (A) (A) (A) (A)
                 (A) (A) (A) (A) (A) (A) (A) (A) (A) (A) (A) (A)
                 (A) (A) (A) (A) (A) (A) (A) (A) (A) (A) (A) (A)
                 (A) (A) (A) (A) (A) (A) (A) (A) (A) (A) (A) (A)
                 (A) (A) (A) (A) (A) (A) (A) (A) (A) (A) (A) (A)
                 (A) (A) (A) (A) (A) (A) (A) (A) (A) (A) (A) (A)
                 (A) (A) (A) (A) (A) (A) (A) (A) (A) (A) (A) (A)
                 (A) (A) (A) (A) (A) (A) (A) (A) (A) (A) (A) (A)
                 (A) (A) (A) (A) (A) (A) (A) (A) (A) (A) (A) (A)
                 (A) (A) (A) (A) (A) (A) (A) (A) (A) (A) (A) (A)
                 (A) (A) (A) (A) (A) (A) (A) (A) (A) (A) (A) (A)
                 (A) (A) (A) (A) (A) (A) (A) (A) (A) (A) (A) (A)
                 (A) (A) (A) (A) (A) (A) (A) (A) (A) (A) (A) (A)
                 (A) (A) (A) (A) (A) (A) (A) (A) (A) (A) (A) (A)
                 (A) (A) (A) (A) (A) (A) (A) (A) (A) (A) (A) (A)
                 (A) (A) (A) (A) (A) (A) (A) (A) (A) (A) (A) (A)
                 (A) (A) (A) (A) (A) (A) (A) (A) (A) (A) (A) (A)
                 (A) (A) (A) (A) (A) (A) (A) (A) (A) (A) (A) (A)
                 (A) (A) (A) (A) (A) (A) (A) (A) (A) (A) (A) (A)
                 (A) (A) (A) (A) (A) (A) (A) (A) (A) (A) (A) (A)
                 (A) (A) (A) (A) (A) (A) (A) (A) (A) (A) (A) (A)
                 (A) (A) (A) (A) (A) (A) (A) (A) (A) (A) (A) (A)
                 (A) (A) (A) (A) (A) (A) (A) (A) (A) (A) (A) (A)
                 (A) (A) (A) (A) (A) (A) (A) (A) (A) (A) (A) (A)
                 (A) (A) (A) (A) (A) (A) (A) (A) (A) (A) (A) (A)
                 (A) (A) (A) (A) (A) (A) (A) (A) (A) (A) (A) (A)
                 (A) (A) (A) (A) (A) (A) (A) (A) (A) (A) (A) (A)
                 (A) (A) (A) (A) (A) (A) (A) (A) (A) (A) (A) (A)
                 (A) (A) (A) (A) (A) (A) (A) (A) (A) (A) (A) (A)
                 (A) (A) (A) (A) (A) (A) (A) (A) (A) (A) (A) (A)
                 (A) (A) (A) (A) (A) (A) (A) (A) (A) (A) (A) (A)
                 (A) (A) (A) (A) (A) (A) (A) (A) (A) (A) (A) (A)
                 (A) (A) (A) (A) (A) (A) (A) (A) (A) (A) (A) (A)
                 (A) (A) (A) (A) (A) (A) (A) (A) (A) (A) (A) (A)
                 (A) (A) (A) (A) (A) (A) (A) (A) (A) (A) (A) (A)
                 (A) (A) (A) (A) (A) (A) (A) (A) (A) (A) (A) (A)
                 (A) (A) (A) (A) (A) (A) (A) (A) (A) (A) (A) (A)
                 (A) (A) (A) (A) (A) (A) (A) (A) (A) (A) (A) (A)
                 (A) (A) (A) (A) (A) (A) (A) (A) (A) (A) (A) (A)
                 (A) (A) (A) (A) (A) (A) (A) (A) (A) (A) (A) (A)
                 (A) (A) (A) (A) (A) (A) (A) (A) (A) (A) (A) (A)
                 (A) (A) (A) (A) (A) (A) (A) (A) (A) (A) (A) (A)
                 (A) (A) (A) (A) (A) (A) (A) (A) (A) (A) (A) (A)
                 (A) (A) (A) (A) (A) (A) (A) (A) (A) (A) (A) (A)
                 (A) (A) (A) (A) (A) (A) (A) (A) (A) (A) (A) (A)
                 (A) (A) (A) (A) (A) (A) (A) (A) (A) (A) (A) (A)
                 (A) (A) (A) (A) (A) (A) (A) (A) (A) (A) (A) (A)
                 (A) (A) (A) (A) (A) (A) (A) (A) (A) (A) (A) (A)
                 (A) (A) (A) (A) (A) (A) (A) (A) (A) (A) (A) (A)
                 (A) (A) (A) (A) (A) (A) (A) (A) (A) (A) (A) (A)
                 (A) (A) (A) (A) (A) (A) (A) (A) (A) (A) (A) (A)
                 (A) (A) (A) (A) (A) (A) (A) (A) (A) (A) (A) (A)
                 (A) (A) (A) (A) (A) (A) (A) (A) (A) (A) (A) (A)
                 (A) (A) (A) (A)
 Beta  Orbitals:
       Occupied  (A) (A) (A) (A) (A) (A) (A) (A) (A) (A) (A) (A)
                 (A) (A) (A) (A) (A) (A) (A) (A) (A) (A) (A) (A)
                 (A) (A) (A) (A) (A) (A) (A) (A) (A) (A) (A) (A)
                 (A) (A) (A) (A) (A) (A) (A) (A) (A) (A) (A) (A)
                 (A) (A) (A) (A) (A) (A) (A) (A) (A) (A) (A) (A)
                 (A) (A) (A) (A) (A) (A) (A) (A) (A) (A) (A) (A)
                 (A) (A) (A) (A) (A) (A) (A) (A) (A) (A) (A) (A)
                 (A) (A) (A) (A) (A) (A) (A) (A) (A) (A) (A) (A)
                 (A) (A) (A) (A) (A) (A) (A) (A) (A) (A) (A) (A)
                 (A) (A) (A) (A) (A) (A) (A) (A) (A) (A) (A) (A)
                 (A) (A) (A) (A) (A) (A) (A) (A) (A) (A) (A) (A)
                 (A) (A) (A) (A) (A) (A) (A) (A) (A) (A) (A) (A)
                 (A) (A) (A) (A) (A) (A) (A) (A) (A) (A) (A) (A)
       Virtual   (A) (A) (A) (A) (A) (A) (A) (A) (A) (A) (A) (A)
                 (A) (A) (A) (A) (A) (A) (A) (A) (A) (A) (A) (A)
                 (A) (A) (A) (A) (A) (A) (A) (A) (A) (A) (A) (A)
                 (A) (A) (A) (A) (A) (A) (A) (A) (A) (A) (A) (A)
                 (A) (A) (A) (A) (A) (A) (A) (A) (A) (A) (A) (A)
                 (A) (A) (A) (A) (A) (A) (A) (A) (A) (A) (A) (A)
                 (A) (A) (A) (A) (A) (A) (A) (A) (A) (A) (A) (A)
                 (A) (A) (A) (A) (A) (A) (A) (A) (A) (A) (A) (A)
                 (A) (A) (A) (A) (A) (A) (A) (A) (A) (A) (A) (A)
                 (A) (A) (A) (A) (A) (A) (A) (A) (A) (A) (A) (A)
                 (A) (A) (A) (A) (A) (A) (A) (A) (A) (A) (A) (A)
                 (A) (A) (A) (A) (A) (A) (A) (A) (A) (A) (A) (A)
                 (A) (A) (A) (A) (A) (A) (A) (A) (A) (A) (A) (A)
                 (A) (A) (A) (A) (A) (A) (A) (A) (A) (A) (A) (A)
                 (A) (A) (A) (A) (A) (A) (A) (A) (A) (A) (A) (A)
                 (A) (A) (A) (A) (A) (A) (A) (A) (A) (A) (A) (A)
                 (A) (A) (A) (A) (A) (A) (A) (A) (A) (A) (A) (A)
                 (A) (A) (A) (A) (A) (A) (A) (A) (A) (A) (A) (A)
                 (A) (A) (A) (A) (A) (A) (A) (A) (A) (A) (A) (A)
                 (A) (A) (A) (A) (A) (A) (A) (A) (A) (A) (A) (A)
                 (A) (A) (A) (A) (A) (A) (A) (A) (A) (A) (A) (A)
                 (A) (A) (A) (A) (A) (A) (A) (A) (A) (A) (A) (A)
                 (A) (A) (A) (A) (A) (A) (A) (A) (A) (A) (A) (A)
                 (A) (A) (A) (A) (A) (A) (A) (A) (A) (A) (A) (A)
                 (A) (A) (A) (A) (A) (A) (A) (A) (A) (A) (A) (A)
                 (A) (A) (A) (A) (A) (A) (A) (A) (A) (A) (A) (A)
                 (A) (A) (A) (A) (A) (A) (A) (A) (A) (A) (A) (A)
                 (A) (A) (A) (A) (A) (A) (A) (A) (A) (A) (A) (A)
                 (A) (A) (A) (A) (A) (A) (A) (A) (A) (A) (A) (A)
                 (A) (A) (A) (A) (A) (A) (A) (A) (A) (A) (A) (A)
                 (A) (A) (A) (A) (A) (A) (A) (A) (A) (A) (A) (A)
                 (A) (A) (A) (A) (A) (A) (A) (A) (A) (A) (A) (A)
                 (A) (A) (A) (A) (A) (A) (A) (A) (A) (A) (A) (A)
                 (A) (A) (A) (A) (A) (A) (A) (A) (A) (A) (A) (A)
                 (A) (A) (A) (A) (A) (A) (A) (A) (A) (A) (A) (A)
                 (A) (A) (A) (A) (A) (A) (A) (A) (A) (A) (A) (A)
                 (A) (A) (A) (A) (A) (A) (A) (A) (A) (A) (A) (A)
                 (A) (A) (A) (A) (A) (A) (A) (A) (A) (A) (A) (A)
                 (A) (A) (A) (A) (A) (A) (A) (A) (A) (A) (A) (A)
                 (A) (A) (A) (A) (A) (A) (A) (A) (A) (A) (A) (A)
                 (A) (A) (A) (A) (A) (A) (A) (A) (A) (A) (A) (A)
                 (A) (A) (A) (A) (A) (A) (A) (A) (A) (A) (A) (A)
                 (A) (A) (A) (A) (A) (A) (A) (A) (A) (A) (A) (A)
                 (A) (A) (A) (A) (A) (A) (A) (A) (A) (A) (A) (A)
                 (A) (A) (A) (A) (A) (A) (A) (A) (A) (A) (A) (A)
                 (A) (A) (A) (A) (A) (A) (A) (A) (A) (A) (A) (A)
                 (A) (A) (A) (A) (A) (A) (A) (A) (A) (A) (A) (A)
                 (A) (A) (A) (A) (A) (A) (A) (A) (A) (A) (A) (A)
                 (A) (A) (A) (A) (A) (A) (A) (A) (A) (A) (A) (A)
                 (A) (A) (A) (A) (A) (A) (A) (A) (A) (A) (A) (A)
                 (A) (A) (A) (A) (A) (A) (A) (A) (A) (A) (A) (A)
                 (A) (A) (A) (A) (A) (A) (A) (A) (A) (A) (A) (A)
                 (A) (A) (A) (A) (A) (A) (A) (A) (A) (A) (A) (A)
                 (A) (A) (A) (A) (A) (A) (A) (A) (A) (A) (A) (A)
                 (A) (A) (A) (A) (A) (A) (A) (A) (A) (A) (A) (A)
                 (A) (A) (A) (A) (A) (A) (A) (A) (A) (A) (A) (A)
                 (A) (A) (A) (A) (A) (A) (A) (A) (A) (A) (A) (A)
                 (A) (A) (A) (A) (A) (A) (A) (A) (A) (A) (A) (A)
                 (A) (A) (A) (A) (A) (A) (A) (A) (A) (A) (A) (A)
                 (A) (A) (A) (A) (A) (A) (A) (A) (A) (A) (A) (A)
                 (A) (A) (A) (A) (A) (A) (A) (A) (A) (A) (A) (A)
                 (A) (A) (A) (A) (A) (A) (A) (A) (A) (A) (A) (A)
                 (A) (A) (A) (A) (A) (A) (A) (A) (A) (A) (A) (A)
                 (A) (A) (A) (A) (A) (A) (A) (A) (A) (A) (A) (A)
                 (A) (A) (A) (A) (A) (A) (A) (A) (A) (A) (A) (A)
                 (A) (A) (A) (A) (A) (A) (A) (A) (A) (A) (A) (A)
                 (A) (A) (A) (A) (A) (A) (A) (A) (A) (A) (A) (A)
                 (A) (A) (A) (A) (A) (A) (A) (A) (A) (A) (A) (A)
                 (A) (A) (A) (A) (A) (A) (A) (A) (A) (A) (A) (A)
                 (A) (A) (A) (A) (A) (A) (A) (A) (A) (A) (A) (A)
                 (A) (A) (A) (A) (A) (A) (A) (A) (A) (A) (A) (A)
                 (A) (A) (A) (A) (A) (A) (A) (A) (A) (A) (A) (A)
                 (A) (A) (A) (A) (A) (A) (A) (A) (A) (A) (A) (A)
                 (A) (A) (A) (A) (A) (A) (A) (A) (A) (A) (A) (A)
                 (A) (A) (A) (A) (A) (A) (A) (A) (A) (A) (A) (A)
                 (A) (A) (A) (A) (A) (A) (A) (A) (A) (A) (A) (A)
                 (A) (A) (A) (A) (A) (A) (A) (A) (A) (A) (A) (A)
                 (A) (A) (A) (A) (A) (A) (A) (A) (A) (A) (A) (A)
                 (A) (A) (A) (A) (A) (A) (A) (A) (A) (A) (A) (A)
                 (A) (A) (A) (A) (A) (A) (A) (A) (A) (A) (A) (A)
                 (A) (A) (A) (A) (A) (A) (A) (A) (A) (A) (A) (A)
                 (A) (A) (A) (A) (A) (A) (A) (A) (A) (A) (A) (A)
                 (A) (A) (A) (A) (A) (A) (A) (A) (A) (A) (A) (A)
                 (A) (A) (A) (A) (A) (A) (A) (A) (A) (A) (A) (A)
                 (A) (A) (A) (A) (A) (A) (A) (A) (A) (A) (A) (A)
                 (A) (A) (A) (A) (A) (A) (A) (A) (A) (A) (A) (A)
                 (A) (A) (A) (A) (A) (A) (A) (A) (A) (A) (A) (A)
                 (A) (A) (A) (A) (A) (A) (A) (A) (A) (A) (A) (A)
                 (A) (A) (A) (A) (A) (A) (A) (A) (A) (A) (A) (A)
                 (A) (A) (A) (A) (A) (A) (A) (A) (A) (A) (A) (A)
                 (A) (A) (A) (A) (A) (A) (A) (A) (A) (A) (A) (A)
                 (A) (A) (A) (A) (A) (A) (A) (A) (A) (A) (A) (A)
                 (A) (A) (A) (A) (A) (A) (A) (A) (A) (A) (A) (A)
                 (A) (A) (A) (A) (A) (A) (A) (A) (A) (A) (A) (A)
                 (A) (A) (A) (A) (A) (A) (A) (A) (A) (A) (A) (A)
                 (A) (A) (A) (A) (A) (A) (A) (A) (A) (A) (A) (A)
                 (A) (A) (A) (A) (A) (A) (A) (A) (A) (A) (A) (A)
                 (A) (A) (A) (A) (A) (A) (A) (A) (A) (A) (A) (A)
                 (A) (A) (A) (A) (A) (A) (A) (A) (A) (A) (A) (A)
                 (A) (A) (A) (A) (A) (A) (A) (A) (A) (A) (A) (A)
                 (A) (A) (A) (A) (A) (A) (A) (A) (A) (A) (A) (A)
                 (A) (A) (A) (A) (A) (A) (A) (A) (A) (A) (A) (A)
                 (A) (A) (A) (A) (A) (A) (A) (A) (A) (A) (A) (A)
                 (A) (A) (A) (A) (A) (A) (A) (A) (A) (A) (A) (A)
                 (A) (A) (A) (A) (A) (A) (A) (A) (A) (A) (A) (A)
                 (A) (A) (A) (A) (A) (A) (A) (A) (A) (A) (A) (A)
                 (A) (A) (A) (A) (A) (A) (A) (A) (A) (A) (A) (A)
                 (A) (A) (A) (A) (A) (A) (A) (A) (A) (A) (A) (A)
                 (A) (A) (A) (A) (A) (A) (A) (A) (A) (A) (A) (A)
                 (A) (A) (A) (A) (A) (A) (A) (A) (A) (A) (A) (A)
                 (A) (A) (A) (A) (A) (A) (A) (A) (A) (A) (A) (A)
                 (A) (A) (A) (A) (A) (A) (A) (A) (A) (A) (A) (A)
                 (A) (A) (A) (A) (A) (A) (A) (A) (A) (A) (A) (A)
                 (A) (A) (A) (A) (A) (A) (A) (A) (A) (A) (A) (A)
                 (A) (A) (A) (A) (A) (A) (A) (A)
 The electronic state is 5-A.
 Alpha  occ. eigenvalues -- -256.18504 -30.07706 -25.92246 -25.90300 -25.90026
 Alpha  occ. eigenvalues --  -19.17293 -14.41196 -14.34453 -14.32350 -14.32196
 Alpha  occ. eigenvalues --  -14.32074 -14.32054 -10.24868 -10.23120 -10.20910
 Alpha  occ. eigenvalues --  -10.20894 -10.20857 -10.20815 -10.20787 -10.20682
 Alpha  occ. eigenvalues --  -10.20580 -10.20518 -10.20470 -10.20154 -10.19459
 Alpha  occ. eigenvalues --  -10.19419 -10.18826 -10.18744 -10.18715 -10.18689
 Alpha  occ. eigenvalues --  -10.18656 -10.18573 -10.18573 -10.18548 -10.18525
 Alpha  occ. eigenvalues --  -10.18430 -10.18409 -10.18270 -10.18268 -10.18254
 Alpha  occ. eigenvalues --  -10.18178 -10.18174 -10.18158 -10.18085 -10.18066
 Alpha  occ. eigenvalues --  -10.17987  -3.53413  -2.33166  -2.28882  -2.28522
 Alpha  occ. eigenvalues --   -1.05363  -1.04707  -0.96857  -0.95932  -0.95813
 Alpha  occ. eigenvalues --   -0.94881  -0.90273  -0.82111  -0.81717  -0.81391
 Alpha  occ. eigenvalues --   -0.80694  -0.80373  -0.79750  -0.79448  -0.79359
 Alpha  occ. eigenvalues --   -0.76597  -0.75556  -0.74191  -0.73788  -0.73130
 Alpha  occ. eigenvalues --   -0.71325  -0.70879  -0.69982  -0.68241  -0.67934
 Alpha  occ. eigenvalues --   -0.67697  -0.64116  -0.64021  -0.63890  -0.60868
 Alpha  occ. eigenvalues --   -0.60812  -0.60432  -0.59872  -0.57709  -0.56604
 Alpha  occ. eigenvalues --   -0.55530  -0.54375  -0.53591  -0.53212  -0.52697
 Alpha  occ. eigenvalues --   -0.51064  -0.50958  -0.50480  -0.48962  -0.47794
 Alpha  occ. eigenvalues --   -0.47660  -0.47408  -0.47003  -0.45199  -0.44693
 Alpha  occ. eigenvalues --   -0.44553  -0.44435  -0.44023  -0.43556  -0.43549
 Alpha  occ. eigenvalues --   -0.43285  -0.43188  -0.42951  -0.42705  -0.42334
 Alpha  occ. eigenvalues --   -0.42258  -0.42090  -0.41985  -0.41615  -0.41418
 Alpha  occ. eigenvalues --   -0.41336  -0.41305  -0.40500  -0.40242  -0.40111
 Alpha  occ. eigenvalues --   -0.39620  -0.39436  -0.39339  -0.39164  -0.38749
 Alpha  occ. eigenvalues --   -0.38510  -0.38381  -0.38130  -0.37626  -0.37174
 Alpha  occ. eigenvalues --   -0.36829  -0.36623  -0.36110  -0.36048  -0.35598
 Alpha  occ. eigenvalues --   -0.34744  -0.34471  -0.34377  -0.33561  -0.33227
 Alpha  occ. eigenvalues --   -0.32839  -0.31666  -0.31062  -0.30450  -0.30244
 Alpha  occ. eigenvalues --   -0.30142  -0.29061  -0.28711  -0.27718  -0.26351
 Alpha  occ. eigenvalues --   -0.26188  -0.23524  -0.23015  -0.22143  -0.21435
 Alpha  occ. eigenvalues --   -0.21260  -0.20291  -0.18059  -0.17606  -0.16069
 Alpha virt. eigenvalues --   -0.06684  -0.06487  -0.01900   0.00643   0.01954
 Alpha virt. eigenvalues --    0.02260   0.02433   0.03293   0.04346   0.04963
 Alpha virt. eigenvalues --    0.05529   0.05778   0.05993   0.06146   0.06763
 Alpha virt. eigenvalues --    0.07187   0.07936   0.08155   0.08473   0.08853
 Alpha virt. eigenvalues --    0.09116   0.09799   0.09847   0.10224   0.10562
 Alpha virt. eigenvalues --    0.10705   0.10909   0.11277   0.11586   0.11640
 Alpha virt. eigenvalues --    0.12207   0.12223   0.12513   0.12714   0.12980
 Alpha virt. eigenvalues --    0.13045   0.13500   0.13596   0.13907   0.14118
 Alpha virt. eigenvalues --    0.14313   0.14600   0.14678   0.15104   0.15196
 Alpha virt. eigenvalues --    0.15363   0.15570   0.15736   0.15988   0.16149
 Alpha virt. eigenvalues --    0.16225   0.16519   0.16722   0.16896   0.17210
 Alpha virt. eigenvalues --    0.17454   0.17751   0.18129   0.18208   0.18934
 Alpha virt. eigenvalues --    0.19394   0.19566   0.19663   0.20008   0.20133
 Alpha virt. eigenvalues --    0.20543   0.20768   0.20830   0.21192   0.21593
 Alpha virt. eigenvalues --    0.21668   0.21957   0.22457   0.22664   0.22752
 Alpha virt. eigenvalues --    0.23186   0.23446   0.23640   0.24151   0.24433
 Alpha virt. eigenvalues --    0.24685   0.24911   0.25523   0.25675   0.25913
 Alpha virt. eigenvalues --    0.26023   0.26336   0.26893   0.27036   0.27385
 Alpha virt. eigenvalues --    0.27621   0.27805   0.27991   0.28291   0.28805
 Alpha virt. eigenvalues --    0.29050   0.29166   0.29342   0.29508   0.29733
 Alpha virt. eigenvalues --    0.30105   0.30166   0.30702   0.30919   0.31393
 Alpha virt. eigenvalues --    0.31559   0.31673   0.32163   0.32374   0.32735
 Alpha virt. eigenvalues --    0.32937   0.33243   0.33609   0.33786   0.34004
 Alpha virt. eigenvalues --    0.34317   0.34537   0.34751   0.34808   0.35337
 Alpha virt. eigenvalues --    0.35479   0.35903   0.36047   0.36262   0.36834
 Alpha virt. eigenvalues --    0.37170   0.37283   0.37576   0.37863   0.38014
 Alpha virt. eigenvalues --    0.38488   0.38628   0.38777   0.39099   0.39290
 Alpha virt. eigenvalues --    0.39715   0.39749   0.40056   0.40535   0.40790
 Alpha virt. eigenvalues --    0.40957   0.40980   0.41234   0.41438   0.41463
 Alpha virt. eigenvalues --    0.41684   0.41935   0.42322   0.42651   0.42684
 Alpha virt. eigenvalues --    0.42887   0.43014   0.43230   0.43525   0.43555
 Alpha virt. eigenvalues --    0.43891   0.44011   0.44298   0.44506   0.45022
 Alpha virt. eigenvalues --    0.45046   0.45321   0.45590   0.45779   0.45965
 Alpha virt. eigenvalues --    0.46544   0.46717   0.46744   0.47040   0.47185
 Alpha virt. eigenvalues --    0.47395   0.47530   0.47582   0.47808   0.47980
 Alpha virt. eigenvalues --    0.48123   0.48436   0.48692   0.49164   0.49316
 Alpha virt. eigenvalues --    0.49490   0.49623   0.50136   0.50146   0.50232
 Alpha virt. eigenvalues --    0.50498   0.50901   0.51206   0.51506   0.51622
 Alpha virt. eigenvalues --    0.51899   0.52007   0.52160   0.52437   0.52756
 Alpha virt. eigenvalues --    0.53005   0.53245   0.53465   0.53531   0.53681
 Alpha virt. eigenvalues --    0.54188   0.54564   0.54823   0.55081   0.55180
 Alpha virt. eigenvalues --    0.55361   0.55645   0.55654   0.56216   0.56275
 Alpha virt. eigenvalues --    0.56421   0.56888   0.57031   0.57628   0.57832
 Alpha virt. eigenvalues --    0.58034   0.58380   0.58571   0.58872   0.59239
 Alpha virt. eigenvalues --    0.59353   0.59943   0.59959   0.60650   0.60947
 Alpha virt. eigenvalues --    0.61182   0.61430   0.61679   0.62065   0.62385
 Alpha virt. eigenvalues --    0.62643   0.62839   0.63283   0.63600   0.63919
 Alpha virt. eigenvalues --    0.64316   0.64456   0.64680   0.65322   0.65510
 Alpha virt. eigenvalues --    0.65700   0.65928   0.66022   0.66341   0.66376
 Alpha virt. eigenvalues --    0.66694   0.67201   0.67395   0.67742   0.68309
 Alpha virt. eigenvalues --    0.68530   0.68909   0.69360   0.69562   0.69930
 Alpha virt. eigenvalues --    0.70011   0.70955   0.71266   0.71745   0.71904
 Alpha virt. eigenvalues --    0.72387   0.72660   0.72888   0.73146   0.73367
 Alpha virt. eigenvalues --    0.73826   0.73913   0.74349   0.74509   0.74779
 Alpha virt. eigenvalues --    0.74848   0.75369   0.75566   0.76271   0.76538
 Alpha virt. eigenvalues --    0.77013   0.77141   0.77304   0.77924   0.78286
 Alpha virt. eigenvalues --    0.78512   0.78673   0.79224   0.79579   0.79714
 Alpha virt. eigenvalues --    0.80280   0.80458   0.80481   0.81075   0.81347
 Alpha virt. eigenvalues --    0.81488   0.82012   0.82649   0.83050   0.83813
 Alpha virt. eigenvalues --    0.84299   0.84919   0.85108   0.85184   0.85810
 Alpha virt. eigenvalues --    0.85852   0.86201   0.86632   0.87122   0.87629
 Alpha virt. eigenvalues --    0.88123   0.88371   0.88892   0.89631   0.89748
 Alpha virt. eigenvalues --    0.90174   0.90437   0.90703   0.90966   0.91203
 Alpha virt. eigenvalues --    0.91557   0.92329   0.92512   0.93249   0.93386
 Alpha virt. eigenvalues --    0.93502   0.93705   0.94216   0.94410   0.94680
 Alpha virt. eigenvalues --    0.95048   0.95403   0.96191   0.96665   0.96767
 Alpha virt. eigenvalues --    0.97259   0.97416   0.97941   0.98244   0.98693
 Alpha virt. eigenvalues --    0.98916   0.99187   0.99753   1.00004   1.00072
 Alpha virt. eigenvalues --    1.00582   1.01119   1.01262   1.01429   1.02117
 Alpha virt. eigenvalues --    1.02247   1.02711   1.02965   1.03043   1.03417
 Alpha virt. eigenvalues --    1.03517   1.03800   1.04085   1.04210   1.04549
 Alpha virt. eigenvalues --    1.04744   1.05168   1.05651   1.06080   1.06276
 Alpha virt. eigenvalues --    1.07040   1.07233   1.08288   1.08401   1.08875
 Alpha virt. eigenvalues --    1.09096   1.09518   1.10068   1.10328   1.10609
 Alpha virt. eigenvalues --    1.11116   1.11388   1.11737   1.12368   1.12843
 Alpha virt. eigenvalues --    1.13288   1.13501   1.13854   1.14160   1.14993
 Alpha virt. eigenvalues --    1.15854   1.16182   1.16601   1.17033   1.17695
 Alpha virt. eigenvalues --    1.17808   1.18099   1.18558   1.18989   1.19233
 Alpha virt. eigenvalues --    1.19620   1.19922   1.20293   1.20632   1.20865
 Alpha virt. eigenvalues --    1.21332   1.21668   1.22077   1.22515   1.23004
 Alpha virt. eigenvalues --    1.23026   1.23938   1.24764   1.25059   1.25489
 Alpha virt. eigenvalues --    1.26447   1.26965   1.27101   1.27232   1.27652
 Alpha virt. eigenvalues --    1.27772   1.28752   1.28831   1.29095   1.29427
 Alpha virt. eigenvalues --    1.29755   1.29856   1.30260   1.30437   1.30964
 Alpha virt. eigenvalues --    1.31242   1.31855   1.32128   1.32732   1.32926
 Alpha virt. eigenvalues --    1.33499   1.34651   1.35151   1.35855   1.36224
 Alpha virt. eigenvalues --    1.36735   1.37341   1.37985   1.38661   1.38951
 Alpha virt. eigenvalues --    1.39555   1.39939   1.40303   1.40663   1.41579
 Alpha virt. eigenvalues --    1.41959   1.42243   1.43069   1.43499   1.43817
 Alpha virt. eigenvalues --    1.44520   1.44969   1.45638   1.45965   1.46578
 Alpha virt. eigenvalues --    1.47040   1.47133   1.47356   1.48046   1.48120
 Alpha virt. eigenvalues --    1.48580   1.49080   1.49477   1.49822   1.50124
 Alpha virt. eigenvalues --    1.50331   1.50564   1.51107   1.51321   1.51631
 Alpha virt. eigenvalues --    1.51758   1.51996   1.52246   1.52362   1.52641
 Alpha virt. eigenvalues --    1.52892   1.53328   1.53647   1.53853   1.54206
 Alpha virt. eigenvalues --    1.54331   1.54576   1.54878   1.55102   1.55151
 Alpha virt. eigenvalues --    1.55430   1.55745   1.55855   1.56082   1.56329
 Alpha virt. eigenvalues --    1.56846   1.56984   1.57101   1.57632   1.57869
 Alpha virt. eigenvalues --    1.58256   1.58444   1.58600   1.58707   1.59229
 Alpha virt. eigenvalues --    1.59573   1.59691   1.60214   1.60301   1.61024
 Alpha virt. eigenvalues --    1.61440   1.61747   1.61922   1.62232   1.62732
 Alpha virt. eigenvalues --    1.62776   1.63161   1.63560   1.63912   1.64094
 Alpha virt. eigenvalues --    1.64387   1.64585   1.64915   1.65232   1.65518
 Alpha virt. eigenvalues --    1.65718   1.66251   1.66921   1.67050   1.67390
 Alpha virt. eigenvalues --    1.67937   1.68120   1.68396   1.68674   1.69023
 Alpha virt. eigenvalues --    1.69287   1.69835   1.70004   1.70753   1.70974
 Alpha virt. eigenvalues --    1.71598   1.71729   1.72062   1.72468   1.72738
 Alpha virt. eigenvalues --    1.73260   1.73695   1.73796   1.74466   1.74911
 Alpha virt. eigenvalues --    1.74988   1.75565   1.76367   1.76744   1.77057
 Alpha virt. eigenvalues --    1.77488   1.78394   1.79831   1.80155   1.80411
 Alpha virt. eigenvalues --    1.81259   1.81475   1.82328   1.83051   1.83504
 Alpha virt. eigenvalues --    1.83692   1.84407   1.84720   1.84939   1.85169
 Alpha virt. eigenvalues --    1.85474   1.85690   1.86731   1.86764   1.87442
 Alpha virt. eigenvalues --    1.87593   1.88034   1.88305   1.88451   1.88817
 Alpha virt. eigenvalues --    1.89061   1.89387   1.90050   1.90622   1.90868
 Alpha virt. eigenvalues --    1.91744   1.92529   1.93252   1.93826   1.94417
 Alpha virt. eigenvalues --    1.94843   1.95417   1.95914   1.96315   1.96929
 Alpha virt. eigenvalues --    1.97049   1.97469   1.98037   1.98244   1.98529
 Alpha virt. eigenvalues --    1.98975   1.99475   1.99747   1.99870   2.00506
 Alpha virt. eigenvalues --    2.00702   2.01135   2.01569   2.01796   2.02892
 Alpha virt. eigenvalues --    2.03036   2.03802   2.04751   2.04967   2.05825
 Alpha virt. eigenvalues --    2.05883   2.06059   2.07097   2.07528   2.07988
 Alpha virt. eigenvalues --    2.08872   2.09047   2.09474   2.09780   2.10036
 Alpha virt. eigenvalues --    2.10739   2.10960   2.11502   2.12112   2.12397
 Alpha virt. eigenvalues --    2.12657   2.13517   2.13663   2.13877   2.14788
 Alpha virt. eigenvalues --    2.14933   2.15060   2.15728   2.16341   2.16498
 Alpha virt. eigenvalues --    2.16597   2.18215   2.18268   2.18929   2.19120
 Alpha virt. eigenvalues --    2.19952   2.20583   2.20986   2.21101   2.21535
 Alpha virt. eigenvalues --    2.21754   2.22224   2.22665   2.23485   2.23818
 Alpha virt. eigenvalues --    2.24259   2.25135   2.25541   2.25616   2.25981
 Alpha virt. eigenvalues --    2.26286   2.26841   2.27713   2.27906   2.27969
 Alpha virt. eigenvalues --    2.28437   2.28924   2.29320   2.29911   2.30307
 Alpha virt. eigenvalues --    2.31121   2.31385   2.32208   2.32400   2.32973
 Alpha virt. eigenvalues --    2.33207   2.33753   2.34066   2.34340   2.35079
 Alpha virt. eigenvalues --    2.35596   2.35707   2.36265   2.36628   2.36750
 Alpha virt. eigenvalues --    2.37344   2.37617   2.38173   2.38418   2.38703
 Alpha virt. eigenvalues --    2.39251   2.40007   2.40106   2.40425   2.41148
 Alpha virt. eigenvalues --    2.41504   2.42108   2.42607   2.43008   2.43636
 Alpha virt. eigenvalues --    2.44070   2.44338   2.44992   2.45506   2.45855
 Alpha virt. eigenvalues --    2.46006   2.46520   2.46688   2.47301   2.47377
 Alpha virt. eigenvalues --    2.47913   2.48106   2.48629   2.49481   2.49677
 Alpha virt. eigenvalues --    2.50118   2.50706   2.51091   2.51784   2.52881
 Alpha virt. eigenvalues --    2.53021   2.53180   2.53457   2.53729   2.53994
 Alpha virt. eigenvalues --    2.54641   2.54917   2.55304   2.56054   2.56199
 Alpha virt. eigenvalues --    2.56435   2.56800   2.56826   2.57097   2.57798
 Alpha virt. eigenvalues --    2.58098   2.58695   2.59133   2.59857   2.60029
 Alpha virt. eigenvalues --    2.60294   2.60620   2.61161   2.61389   2.61432
 Alpha virt. eigenvalues --    2.61891   2.62074   2.62577   2.62815   2.63497
 Alpha virt. eigenvalues --    2.63710   2.65176   2.65514   2.65815   2.66036
 Alpha virt. eigenvalues --    2.66516   2.66723   2.67321   2.67375   2.67916
 Alpha virt. eigenvalues --    2.68103   2.68312   2.68457   2.69675   2.69730
 Alpha virt. eigenvalues --    2.70243   2.70380   2.71043   2.71315   2.71738
 Alpha virt. eigenvalues --    2.72088   2.72407   2.72643   2.73459   2.73625
 Alpha virt. eigenvalues --    2.74156   2.75061   2.75224   2.75982   2.76113
 Alpha virt. eigenvalues --    2.76603   2.76693   2.77609   2.77898   2.78242
 Alpha virt. eigenvalues --    2.78451   2.78867   2.79333   2.80126   2.80700
 Alpha virt. eigenvalues --    2.80868   2.81317   2.81517   2.82042   2.82978
 Alpha virt. eigenvalues --    2.83055   2.83662   2.84042   2.84649   2.84739
 Alpha virt. eigenvalues --    2.85123   2.85678   2.86048   2.86166   2.86414
 Alpha virt. eigenvalues --    2.87089   2.87242   2.88037   2.88343   2.88663
 Alpha virt. eigenvalues --    2.89007   2.89241   2.89558   2.89952   2.90286
 Alpha virt. eigenvalues --    2.90587   2.90932   2.91702   2.92139   2.92238
 Alpha virt. eigenvalues --    2.92975   2.93138   2.93590   2.94364   2.94496
 Alpha virt. eigenvalues --    2.95040   2.95262   2.95614   2.95817   2.96136
 Alpha virt. eigenvalues --    2.96254   2.96739   2.97183   2.97531   2.97781
 Alpha virt. eigenvalues --    2.98230   2.98652   2.98995   2.99408   2.99854
 Alpha virt. eigenvalues --    3.00244   3.01019   3.01202   3.01428   3.01900
 Alpha virt. eigenvalues --    3.02079   3.02474   3.02784   3.02836   3.03263
 Alpha virt. eigenvalues --    3.04165   3.04405   3.05160   3.05269   3.05748
 Alpha virt. eigenvalues --    3.05860   3.06810   3.06982   3.07368   3.07601
 Alpha virt. eigenvalues --    3.07936   3.08281   3.08416   3.08740   3.09193
 Alpha virt. eigenvalues --    3.09420   3.09680   3.10285   3.10403   3.10764
 Alpha virt. eigenvalues --    3.11465   3.11976   3.12225   3.12576   3.12707
 Alpha virt. eigenvalues --    3.13279   3.13591   3.13822   3.14137   3.14430
 Alpha virt. eigenvalues --    3.14600   3.15065   3.15249   3.15888   3.16208
 Alpha virt. eigenvalues --    3.16440   3.16743   3.17364   3.17559   3.17878
 Alpha virt. eigenvalues --    3.18318   3.18434   3.18643   3.19171   3.19306
 Alpha virt. eigenvalues --    3.19751   3.20169   3.20233   3.20956   3.21287
 Alpha virt. eigenvalues --    3.21652   3.22039   3.22091   3.22622   3.22888
 Alpha virt. eigenvalues --    3.23387   3.23770   3.23922   3.24131   3.24431
 Alpha virt. eigenvalues --    3.24993   3.25586   3.25716   3.25920   3.25930
 Alpha virt. eigenvalues --    3.26119   3.26393   3.26681   3.26756   3.26995
 Alpha virt. eigenvalues --    3.27483   3.28036   3.28185   3.28541   3.28613
 Alpha virt. eigenvalues --    3.28773   3.29262   3.29561   3.29773   3.30141
 Alpha virt. eigenvalues --    3.30386   3.30465   3.30677   3.31121   3.31538
 Alpha virt. eigenvalues --    3.31670   3.32094   3.32159   3.32539   3.32636
 Alpha virt. eigenvalues --    3.33042   3.33543   3.33808   3.34025   3.34165
 Alpha virt. eigenvalues --    3.34526   3.34787   3.35231   3.35480   3.36047
 Alpha virt. eigenvalues --    3.36225   3.36561   3.36893   3.37190   3.37336
 Alpha virt. eigenvalues --    3.37482   3.37727   3.38383   3.38611   3.38713
 Alpha virt. eigenvalues --    3.38993   3.39317   3.39472   3.39958   3.40404
 Alpha virt. eigenvalues --    3.40655   3.40742   3.41202   3.41494   3.41536
 Alpha virt. eigenvalues --    3.42476   3.42786   3.43122   3.43252   3.43480
 Alpha virt. eigenvalues --    3.44355   3.44560   3.44859   3.45243   3.45820
 Alpha virt. eigenvalues --    3.46081   3.46336   3.46784   3.47070   3.47246
 Alpha virt. eigenvalues --    3.47794   3.48920   3.49356   3.49738   3.49921
 Alpha virt. eigenvalues --    3.50247   3.50680   3.51465   3.51918   3.52187
 Alpha virt. eigenvalues --    3.52552   3.53469   3.54538   3.54580   3.55286
 Alpha virt. eigenvalues --    3.55764   3.55939   3.56542   3.56682   3.56789
 Alpha virt. eigenvalues --    3.57338   3.57849   3.58453   3.58765   3.58944
 Alpha virt. eigenvalues --    3.59535   3.59806   3.60224   3.60772   3.61063
 Alpha virt. eigenvalues --    3.61886   3.62187   3.62677   3.64033   3.64396
 Alpha virt. eigenvalues --    3.64952   3.65074   3.66130   3.66198   3.66469
 Alpha virt. eigenvalues --    3.67391   3.67843   3.68100   3.68631   3.69300
 Alpha virt. eigenvalues --    3.69569   3.70015   3.70100   3.70782   3.70958
 Alpha virt. eigenvalues --    3.71317   3.71807   3.71986   3.72195   3.72693
 Alpha virt. eigenvalues --    3.73186   3.73521   3.74376   3.74526   3.74829
 Alpha virt. eigenvalues --    3.75066   3.75484   3.75861   3.76114   3.76443
 Alpha virt. eigenvalues --    3.77091   3.77935   3.78345   3.78865   3.79764
 Alpha virt. eigenvalues --    3.80297   3.80484   3.81232   3.81849   3.82206
 Alpha virt. eigenvalues --    3.82616   3.83121   3.83638   3.84186   3.84648
 Alpha virt. eigenvalues --    3.86091   3.86306   3.86621   3.86833   3.87729
 Alpha virt. eigenvalues --    3.87893   3.89571   3.90349   3.90877   3.90988
 Alpha virt. eigenvalues --    3.91250   3.91569   3.92020   3.92541   3.92912
 Alpha virt. eigenvalues --    3.93700   3.94247   3.95189   3.95297   3.96907
 Alpha virt. eigenvalues --    3.97911   3.98117   3.98915   3.99208   3.99603
 Alpha virt. eigenvalues --    4.00142   4.00246   4.00898   4.01391   4.02106
 Alpha virt. eigenvalues --    4.02772   4.03329   4.03657   4.04466   4.04749
 Alpha virt. eigenvalues --    4.05043   4.05812   4.05941   4.06409   4.07749
 Alpha virt. eigenvalues --    4.07915   4.08869   4.09513   4.10402   4.11019
 Alpha virt. eigenvalues --    4.11294   4.11584   4.12684   4.13076   4.13906
 Alpha virt. eigenvalues --    4.14293   4.15839   4.16242   4.17044   4.17203
 Alpha virt. eigenvalues --    4.17865   4.17974   4.18626   4.18912   4.19858
 Alpha virt. eigenvalues --    4.20433   4.20850   4.21260   4.21816   4.22501
 Alpha virt. eigenvalues --    4.23362   4.23848   4.24517   4.24767   4.25206
 Alpha virt. eigenvalues --    4.25361   4.26271   4.26473   4.26943   4.28043
 Alpha virt. eigenvalues --    4.28389   4.29496   4.29858   4.30193   4.31343
 Alpha virt. eigenvalues --    4.31865   4.32696   4.33300   4.33943   4.34035
 Alpha virt. eigenvalues --    4.34760   4.34918   4.35659   4.36194   4.36911
 Alpha virt. eigenvalues --    4.38217   4.38619   4.38974   4.40448   4.40954
 Alpha virt. eigenvalues --    4.41111   4.41738   4.42265   4.42546   4.42969
 Alpha virt. eigenvalues --    4.43292   4.43860   4.44202   4.44498   4.44730
 Alpha virt. eigenvalues --    4.44961   4.45912   4.46518   4.46580   4.46930
 Alpha virt. eigenvalues --    4.47474   4.48100   4.48917   4.49793   4.51009
 Alpha virt. eigenvalues --    4.51769   4.52417   4.54080   4.55110   4.55876
 Alpha virt. eigenvalues --    4.56638   4.57094   4.57888   4.58430   4.59140
 Alpha virt. eigenvalues --    4.60488   4.61948   4.63707   4.64427   4.65629
 Alpha virt. eigenvalues --    4.65792   4.66348   4.68784   4.69038   4.69137
 Alpha virt. eigenvalues --    4.69733   4.70167   4.72439   4.72574   4.72942
 Alpha virt. eigenvalues --    4.73353   4.74303   4.74471   4.75288   4.76479
 Alpha virt. eigenvalues --    4.76760   4.77989   4.80060   4.80567   4.81269
 Alpha virt. eigenvalues --    4.82280   4.83098   4.83429   4.83784   4.84321
 Alpha virt. eigenvalues --    4.84673   4.85489   4.85933   4.86740   4.87791
 Alpha virt. eigenvalues --    4.88165   4.89064   4.90338   4.90660   4.91562
 Alpha virt. eigenvalues --    4.91918   4.94234   4.95430   4.95641   4.96179
 Alpha virt. eigenvalues --    4.96650   4.97051   4.98100   4.99185   4.99861
 Alpha virt. eigenvalues --    5.01114   5.02651   5.02858   5.03854   5.04131
 Alpha virt. eigenvalues --    5.04995   5.05150   5.07094   5.07494   5.08140
 Alpha virt. eigenvalues --    5.08624   5.09376   5.10741   5.11254   5.12181
 Alpha virt. eigenvalues --    5.14090   5.14846   5.16159   5.18364   5.18922
 Alpha virt. eigenvalues --    5.20393   5.21025   5.21287   5.22259   5.22807
 Alpha virt. eigenvalues --    5.23490   5.24996   5.25316   5.26667   5.28535
 Alpha virt. eigenvalues --    5.29155   5.30483   5.31361   5.34649   5.36013
 Alpha virt. eigenvalues --    5.36575   5.37130   5.38540   5.39676   5.40090
 Alpha virt. eigenvalues --    5.40223   5.41081   5.41841   5.42034   5.43170
 Alpha virt. eigenvalues --    5.44331   5.45433   5.47326   5.49440   5.50024
 Alpha virt. eigenvalues --    5.50976   5.51472   5.52777   5.53185   5.53689
 Alpha virt. eigenvalues --    5.55991   5.57530   5.61244   5.61668   5.62562
 Alpha virt. eigenvalues --    5.63234   5.64071   5.64761   5.65051   5.66156
 Alpha virt. eigenvalues --    5.67731   5.68615   5.69597   5.71479   5.75221
 Alpha virt. eigenvalues --    5.76843   5.78052   5.78899   5.81725   5.82182
 Alpha virt. eigenvalues --    5.90529   5.92292   5.93196   5.96061   5.98467
 Alpha virt. eigenvalues --    6.02606   6.03243   6.04050   6.09928   6.11393
 Alpha virt. eigenvalues --    6.13191   6.13717   6.14394   6.18727   6.19692
 Alpha virt. eigenvalues --    6.24106   6.27473   6.35026   6.35890   6.42118
 Alpha virt. eigenvalues --    6.46558   6.51066   6.53581   6.67510   6.95467
 Alpha virt. eigenvalues --    7.27341  22.36031  22.37259  22.44599  22.46055
 Alpha virt. eigenvalues --   22.47031  22.53304  22.54422  22.62642  22.63034
 Alpha virt. eigenvalues --   22.79465  22.86383  22.88249  22.91366  22.94976
 Alpha virt. eigenvalues --   22.95880  22.96732  22.98663  23.04606  23.05162
 Alpha virt. eigenvalues --   23.10446  23.16483  23.27669  23.29625  23.31727
 Alpha virt. eigenvalues --   23.32692  23.42141  23.42718  23.51510  23.51923
 Alpha virt. eigenvalues --   23.56365  23.75040  23.80258  23.81298  23.90598
 Alpha virt. eigenvalues --   32.41698  32.80519  32.92281  32.96902  33.07296
 Alpha virt. eigenvalues --   33.13549  44.06615
  Beta  occ. eigenvalues -- -256.18373 -29.99335 -25.84424 -25.83699 -25.83479
  Beta  occ. eigenvalues --  -19.17167 -14.41187 -14.34231 -14.32145 -14.31980
  Beta  occ. eigenvalues --  -14.31902 -14.31873 -10.24871 -10.23111 -10.20905
  Beta  occ. eigenvalues --  -10.20889 -10.20858 -10.20847 -10.20782 -10.20681
  Beta  occ. eigenvalues --  -10.20602 -10.20550 -10.20501 -10.20159 -10.19460
  Beta  occ. eigenvalues --  -10.19412 -10.18836 -10.18730 -10.18712 -10.18686
  Beta  occ. eigenvalues --  -10.18642 -10.18573 -10.18571 -10.18549 -10.18518
  Beta  occ. eigenvalues --  -10.18438 -10.18398 -10.18288 -10.18280 -10.18251
  Beta  occ. eigenvalues --  -10.18182 -10.18178 -10.18174 -10.18081 -10.18060
  Beta  occ. eigenvalues --  -10.17997  -3.33411  -2.08992  -2.08950  -2.08591
  Beta  occ. eigenvalues --   -1.05176  -1.04613  -0.96666  -0.95731  -0.95646
  Beta  occ. eigenvalues --   -0.94689  -0.90081  -0.82130  -0.81668  -0.81349
  Beta  occ. eigenvalues --   -0.80619  -0.80300  -0.79729  -0.79452  -0.79357
  Beta  occ. eigenvalues --   -0.76587  -0.75536  -0.74183  -0.73794  -0.73126
  Beta  occ. eigenvalues --   -0.71285  -0.70842  -0.69928  -0.68145  -0.67828
  Beta  occ. eigenvalues --   -0.67680  -0.64015  -0.64002  -0.63844  -0.60776
  Beta  occ. eigenvalues --   -0.60761  -0.60389  -0.59824  -0.57691  -0.56423
  Beta  occ. eigenvalues --   -0.55452  -0.54331  -0.53524  -0.53157  -0.52469
  Beta  occ. eigenvalues --   -0.50951  -0.50872  -0.50388  -0.48571  -0.47733
  Beta  occ. eigenvalues --   -0.47389  -0.47239  -0.46928  -0.44922  -0.44551
  Beta  occ. eigenvalues --   -0.44479  -0.44307  -0.43982  -0.43501  -0.43342
  Beta  occ. eigenvalues --   -0.43194  -0.42934  -0.42744  -0.42651  -0.42232
  Beta  occ. eigenvalues --   -0.42051  -0.42000  -0.41574  -0.41423  -0.41335
  Beta  occ. eigenvalues --   -0.41306  -0.41171  -0.40077  -0.39975  -0.39894
  Beta  occ. eigenvalues --   -0.39413  -0.39239  -0.39037  -0.38811  -0.38484
  Beta  occ. eigenvalues --   -0.38238  -0.37716  -0.37484  -0.37063  -0.36771
  Beta  occ. eigenvalues --   -0.36062  -0.35728  -0.35478  -0.35158  -0.34374
  Beta  occ. eigenvalues --   -0.34148  -0.33804  -0.33494  -0.32368  -0.31775
  Beta  occ. eigenvalues --   -0.31357  -0.30883  -0.29881  -0.29640  -0.28804
  Beta  occ. eigenvalues --   -0.28285  -0.26665  -0.26490  -0.23796  -0.23387
  Beta  occ. eigenvalues --   -0.22491  -0.22301  -0.21632  -0.18314  -0.17888
  Beta  occ. eigenvalues --   -0.13834
  Beta virt. eigenvalues --   -0.07277  -0.05810  -0.02008  -0.00523   0.00363
  Beta virt. eigenvalues --    0.01269   0.01990   0.02257   0.02808   0.03321
  Beta virt. eigenvalues --    0.04316   0.05015   0.05529   0.05879   0.05975
  Beta virt. eigenvalues --    0.06413   0.06598   0.07154   0.07544   0.08060
  Beta virt. eigenvalues --    0.08298   0.08558   0.08963   0.09137   0.09781
  Beta virt. eigenvalues --    0.09828   0.10061   0.10363   0.10587   0.10729
  Beta virt. eigenvalues --    0.11049   0.11288   0.11598   0.11700   0.12224
  Beta virt. eigenvalues --    0.12244   0.12511   0.12724   0.12992   0.13051
  Beta virt. eigenvalues --    0.13505   0.13612   0.13902   0.14149   0.14349
  Beta virt. eigenvalues --    0.14618   0.14755   0.15125   0.15218   0.15431
  Beta virt. eigenvalues --    0.15644   0.15732   0.16004   0.16193   0.16253
  Beta virt. eigenvalues --    0.16562   0.16746   0.16929   0.17232   0.17496
  Beta virt. eigenvalues --    0.17772   0.18143   0.18249   0.18992   0.19468
  Beta virt. eigenvalues --    0.19566   0.19743   0.20046   0.20175   0.20557
  Beta virt. eigenvalues --    0.20771   0.20862   0.21262   0.21634   0.21695
  Beta virt. eigenvalues --    0.21979   0.22515   0.22687   0.22787   0.23206
  Beta virt. eigenvalues --    0.23467   0.23708   0.24199   0.24674   0.24817
  Beta virt. eigenvalues --    0.25189   0.25558   0.25747   0.26026   0.26150
  Beta virt. eigenvalues --    0.26410   0.26928   0.27136   0.27534   0.27706
  Beta virt. eigenvalues --    0.28015   0.28212   0.28430   0.28940   0.29097
  Beta virt. eigenvalues --    0.29304   0.29509   0.29730   0.29971   0.30188
  Beta virt. eigenvalues --    0.30411   0.30814   0.31084   0.31648   0.31739
  Beta virt. eigenvalues --    0.31811   0.32267   0.32561   0.32793   0.33058
  Beta virt. eigenvalues --    0.33305   0.33686   0.33950   0.34023   0.34513
  Beta virt. eigenvalues --    0.34651   0.34855   0.35097   0.35499   0.35578
  Beta virt. eigenvalues --    0.36082   0.36270   0.36871   0.36971   0.37300
  Beta virt. eigenvalues --    0.37362   0.37699   0.37998   0.38044   0.38541
  Beta virt. eigenvalues --    0.38745   0.38822   0.39132   0.39363   0.39746
  Beta virt. eigenvalues --    0.39931   0.40113   0.40606   0.40820   0.40994
  Beta virt. eigenvalues --    0.41144   0.41347   0.41475   0.41542   0.41827
  Beta virt. eigenvalues --    0.41989   0.42420   0.42715   0.42861   0.42969
  Beta virt. eigenvalues --    0.43191   0.43346   0.43592   0.43677   0.43982
  Beta virt. eigenvalues --    0.44178   0.44431   0.44722   0.45045   0.45214
  Beta virt. eigenvalues --    0.45425   0.45818   0.45865   0.46276   0.46609
  Beta virt. eigenvalues --    0.46782   0.46866   0.47124   0.47311   0.47540
  Beta virt. eigenvalues --    0.47619   0.47693   0.47891   0.48118   0.48171
  Beta virt. eigenvalues --    0.48549   0.48693   0.49210   0.49353   0.49558
  Beta virt. eigenvalues --    0.49663   0.50167   0.50208   0.50248   0.50596
  Beta virt. eigenvalues --    0.50945   0.51270   0.51590   0.51733   0.51966
  Beta virt. eigenvalues --    0.52044   0.52265   0.52471   0.52808   0.53137
  Beta virt. eigenvalues --    0.53359   0.53533   0.53647   0.53789   0.54294
  Beta virt. eigenvalues --    0.54635   0.54909   0.55178   0.55352   0.55466
  Beta virt. eigenvalues --    0.55763   0.55923   0.56275   0.56343   0.56543
  Beta virt. eigenvalues --    0.57038   0.57063   0.57704   0.57891   0.58091
  Beta virt. eigenvalues --    0.58474   0.58729   0.58961   0.59396   0.59514
  Beta virt. eigenvalues --    0.59990   0.60150   0.60705   0.61058   0.61249
  Beta virt. eigenvalues --    0.61492   0.61783   0.62139   0.62448   0.62752
  Beta virt. eigenvalues --    0.62898   0.63371   0.63653   0.64051   0.64390
  Beta virt. eigenvalues --    0.64563   0.64733   0.65464   0.65582   0.65920
  Beta virt. eigenvalues --    0.66078   0.66156   0.66413   0.66428   0.66779
  Beta virt. eigenvalues --    0.67263   0.67468   0.67828   0.68477   0.68627
  Beta virt. eigenvalues --    0.69004   0.69409   0.69631   0.70012   0.70172
  Beta virt. eigenvalues --    0.71053   0.71471   0.71903   0.72132   0.72449
  Beta virt. eigenvalues --    0.72869   0.72987   0.73187   0.73516   0.73915
  Beta virt. eigenvalues --    0.74027   0.74568   0.74665   0.74899   0.75022
  Beta virt. eigenvalues --    0.75488   0.75670   0.76355   0.76630   0.77041
  Beta virt. eigenvalues --    0.77247   0.77444   0.77998   0.78348   0.78646
  Beta virt. eigenvalues --    0.78853   0.79284   0.79630   0.79796   0.80315
  Beta virt. eigenvalues --    0.80500   0.80601   0.81162   0.81429   0.81652
  Beta virt. eigenvalues --    0.82028   0.82740   0.83104   0.83856   0.84432
  Beta virt. eigenvalues --    0.84968   0.85162   0.85248   0.85870   0.85925
  Beta virt. eigenvalues --    0.86264   0.86787   0.87216   0.87804   0.88167
  Beta virt. eigenvalues --    0.88401   0.89003   0.89694   0.89795   0.90430
  Beta virt. eigenvalues --    0.90502   0.90874   0.91109   0.91288   0.91653
  Beta virt. eigenvalues --    0.92387   0.92611   0.93380   0.93450   0.93650
  Beta virt. eigenvalues --    0.93819   0.94309   0.94487   0.94779   0.95235
  Beta virt. eigenvalues --    0.95480   0.96313   0.96755   0.97073   0.97275
  Beta virt. eigenvalues --    0.97518   0.97957   0.98260   0.98817   0.99065
  Beta virt. eigenvalues --    0.99309   0.99861   1.00076   1.00172   1.00637
  Beta virt. eigenvalues --    1.01188   1.01335   1.01544   1.02212   1.02335
  Beta virt. eigenvalues --    1.02849   1.03072   1.03170   1.03493   1.03787
  Beta virt. eigenvalues --    1.03888   1.04188   1.04376   1.04644   1.04784
  Beta virt. eigenvalues --    1.05242   1.05810   1.06163   1.06467   1.07332
  Beta virt. eigenvalues --    1.07411   1.08417   1.08652   1.09132   1.09271
  Beta virt. eigenvalues --    1.09748   1.10176   1.10584   1.10908   1.11339
  Beta virt. eigenvalues --    1.11663   1.12153   1.12524   1.13204   1.13475
  Beta virt. eigenvalues --    1.13719   1.14002   1.14499   1.15224   1.15977
  Beta virt. eigenvalues --    1.16290   1.16800   1.17145   1.17866   1.17929
  Beta virt. eigenvalues --    1.18269   1.18743   1.19090   1.19367   1.19886
  Beta virt. eigenvalues --    1.20071   1.20441   1.20849   1.21254   1.21477
  Beta virt. eigenvalues --    1.21839   1.22334   1.22682   1.23165   1.23511
  Beta virt. eigenvalues --    1.24242   1.24828   1.25341   1.25667   1.26654
  Beta virt. eigenvalues --    1.27072   1.27196   1.27323   1.27754   1.27894
  Beta virt. eigenvalues --    1.28793   1.29151   1.29442   1.29732   1.29960
  Beta virt. eigenvalues --    1.30217   1.30528   1.30608   1.31213   1.31584
  Beta virt. eigenvalues --    1.32027   1.32376   1.32981   1.33236   1.33665
  Beta virt. eigenvalues --    1.34721   1.35219   1.36073   1.36429   1.37061
  Beta virt. eigenvalues --    1.37465   1.38121   1.38887   1.39077   1.39805
  Beta virt. eigenvalues --    1.40168   1.40540   1.40776   1.41797   1.42089
  Beta virt. eigenvalues --    1.42355   1.43209   1.43590   1.43851   1.44619
  Beta virt. eigenvalues --    1.45085   1.45842   1.46112   1.46759   1.47149
  Beta virt. eigenvalues --    1.47231   1.47503   1.48134   1.48259   1.48679
  Beta virt. eigenvalues --    1.49159   1.49574   1.49971   1.50204   1.50377
  Beta virt. eigenvalues --    1.50653   1.51136   1.51396   1.51727   1.51865
  Beta virt. eigenvalues --    1.52112   1.52388   1.52534   1.52713   1.53038
  Beta virt. eigenvalues --    1.53448   1.53713   1.54087   1.54296   1.54459
  Beta virt. eigenvalues --    1.54777   1.54935   1.55154   1.55340   1.55534
  Beta virt. eigenvalues --    1.55874   1.56049   1.56155   1.56470   1.57006
  Beta virt. eigenvalues --    1.57157   1.57170   1.57697   1.58002   1.58397
  Beta virt. eigenvalues --    1.58641   1.58693   1.58840   1.59327   1.59626
  Beta virt. eigenvalues --    1.59938   1.60370   1.60391   1.61038   1.61554
  Beta virt. eigenvalues --    1.61800   1.62000   1.62325   1.62800   1.62859
  Beta virt. eigenvalues --    1.63203   1.63663   1.63927   1.64183   1.64436
  Beta virt. eigenvalues --    1.64690   1.64994   1.65260   1.65553   1.65758
  Beta virt. eigenvalues --    1.66314   1.66958   1.67114   1.67485   1.68014
  Beta virt. eigenvalues --    1.68171   1.68439   1.68726   1.69103   1.69370
  Beta virt. eigenvalues --    1.69879   1.70102   1.70849   1.71079   1.71645
  Beta virt. eigenvalues --    1.71798   1.72107   1.72565   1.72783   1.73319
  Beta virt. eigenvalues --    1.73746   1.73868   1.74529   1.74999   1.75055
  Beta virt. eigenvalues --    1.75685   1.76441   1.76820   1.77419   1.77726
  Beta virt. eigenvalues --    1.78408   1.79870   1.80179   1.80500   1.81291
  Beta virt. eigenvalues --    1.81543   1.82359   1.83123   1.83543   1.83756
  Beta virt. eigenvalues --    1.84441   1.84760   1.85148   1.85236   1.85519
  Beta virt. eigenvalues --    1.85756   1.86778   1.86832   1.87523   1.87675
  Beta virt. eigenvalues --    1.88138   1.88421   1.88583   1.88895   1.89096
  Beta virt. eigenvalues --    1.89468   1.90133   1.90694   1.90926   1.91825
  Beta virt. eigenvalues --    1.92647   1.93314   1.94075   1.94691   1.94983
  Beta virt. eigenvalues --    1.95505   1.95997   1.96524   1.97011   1.97124
  Beta virt. eigenvalues --    1.97553   1.98206   1.98478   1.98632   1.99159
  Beta virt. eigenvalues --    1.99572   1.99886   1.99941   2.00680   2.00892
  Beta virt. eigenvalues --    2.01306   2.01707   2.01875   2.02942   2.03095
  Beta virt. eigenvalues --    2.03955   2.04851   2.05245   2.05932   2.05991
  Beta virt. eigenvalues --    2.06586   2.07200   2.07676   2.08200   2.08900
  Beta virt. eigenvalues --    2.09128   2.09522   2.09913   2.10107   2.10846
  Beta virt. eigenvalues --    2.11091   2.11600   2.12370   2.12643   2.12871
  Beta virt. eigenvalues --    2.13561   2.13900   2.14100   2.14887   2.15112
  Beta virt. eigenvalues --    2.15219   2.15914   2.16436   2.16701   2.17096
  Beta virt. eigenvalues --    2.18247   2.18330   2.19081   2.19380   2.20056
  Beta virt. eigenvalues --    2.20675   2.21147   2.21305   2.21709   2.21929
  Beta virt. eigenvalues --    2.22295   2.22865   2.23688   2.23970   2.24422
  Beta virt. eigenvalues --    2.25223   2.25602   2.25685   2.26045   2.26379
  Beta virt. eigenvalues --    2.26928   2.27753   2.27935   2.28052   2.28557
  Beta virt. eigenvalues --    2.29042   2.29484   2.29973   2.30334   2.31246
  Beta virt. eigenvalues --    2.31449   2.32307   2.32541   2.33023   2.33578
  Beta virt. eigenvalues --    2.33934   2.34310   2.34482   2.35178   2.35650
  Beta virt. eigenvalues --    2.35770   2.36328   2.36718   2.36794   2.37416
  Beta virt. eigenvalues --    2.37628   2.38238   2.38617   2.38769   2.39284
  Beta virt. eigenvalues --    2.40044   2.40346   2.40545   2.41304   2.41593
  Beta virt. eigenvalues --    2.42252   2.42821   2.43201   2.43780   2.44242
  Beta virt. eigenvalues --    2.44506   2.45296   2.45587   2.45986   2.46236
  Beta virt. eigenvalues --    2.46653   2.46969   2.47363   2.47515   2.48111
  Beta virt. eigenvalues --    2.48147   2.48839   2.49731   2.49986   2.50257
  Beta virt. eigenvalues --    2.50761   2.51499   2.51929   2.52972   2.53106
  Beta virt. eigenvalues --    2.53240   2.53623   2.53963   2.54257   2.54826
  Beta virt. eigenvalues --    2.55096   2.55565   2.56166   2.56418   2.56635
  Beta virt. eigenvalues --    2.56894   2.56983   2.57182   2.57877   2.58182
  Beta virt. eigenvalues --    2.58893   2.59359   2.60058   2.60145   2.60358
  Beta virt. eigenvalues --    2.60763   2.61294   2.61449   2.61583   2.62086
  Beta virt. eigenvalues --    2.62175   2.62635   2.63011   2.63582   2.63897
  Beta virt. eigenvalues --    2.65276   2.65599   2.65859   2.66132   2.66647
  Beta virt. eigenvalues --    2.66857   2.67450   2.67509   2.67942   2.68175
  Beta virt. eigenvalues --    2.68374   2.68613   2.69798   2.69823   2.70298
  Beta virt. eigenvalues --    2.70536   2.71109   2.71461   2.71818   2.72216
  Beta virt. eigenvalues --    2.72615   2.72842   2.73497   2.73727   2.74271
  Beta virt. eigenvalues --    2.75351   2.75471   2.76242   2.76312   2.76738
  Beta virt. eigenvalues --    2.76889   2.77740   2.78040   2.78381   2.78558
  Beta virt. eigenvalues --    2.78953   2.79392   2.80184   2.80809   2.81041
  Beta virt. eigenvalues --    2.81331   2.81616   2.82095   2.83156   2.83302
  Beta virt. eigenvalues --    2.83673   2.84060   2.84821   2.84919   2.85286
  Beta virt. eigenvalues --    2.85761   2.86160   2.86244   2.86534   2.87205
  Beta virt. eigenvalues --    2.87371   2.88138   2.88562   2.88714   2.89152
  Beta virt. eigenvalues --    2.89444   2.89673   2.90030   2.90411   2.90713
  Beta virt. eigenvalues --    2.91084   2.91784   2.92307   2.92592   2.93017
  Beta virt. eigenvalues --    2.93290   2.93903   2.94447   2.94605   2.95091
  Beta virt. eigenvalues --    2.95350   2.95769   2.96198   2.96253   2.96348
  Beta virt. eigenvalues --    2.96796   2.97257   2.97624   2.97893   2.98402
  Beta virt. eigenvalues --    2.99125   2.99164   2.99643   3.00212   3.00365
  Beta virt. eigenvalues --    3.01063   3.01346   3.01576   3.02118   3.02288
  Beta virt. eigenvalues --    3.02550   3.02835   3.02944   3.03451   3.04266
  Beta virt. eigenvalues --    3.04542   3.05325   3.05638   3.05802   3.05933
  Beta virt. eigenvalues --    3.06857   3.07012   3.07552   3.07685   3.07999
  Beta virt. eigenvalues --    3.08343   3.08472   3.08821   3.09233   3.09555
  Beta virt. eigenvalues --    3.09800   3.10320   3.10553   3.10839   3.11536
  Beta virt. eigenvalues --    3.12046   3.12283   3.12616   3.12831   3.13315
  Beta virt. eigenvalues --    3.13674   3.13901   3.14189   3.14477   3.14643
  Beta virt. eigenvalues --    3.15105   3.15314   3.15923   3.16279   3.16474
  Beta virt. eigenvalues --    3.16866   3.17426   3.17641   3.17917   3.18360
  Beta virt. eigenvalues --    3.18486   3.18672   3.19262   3.19333   3.19787
  Beta virt. eigenvalues --    3.20205   3.20336   3.20972   3.21296   3.21676
  Beta virt. eigenvalues --    3.22060   3.22142   3.22684   3.22938   3.23437
  Beta virt. eigenvalues --    3.23826   3.23965   3.24210   3.24472   3.25128
  Beta virt. eigenvalues --    3.25596   3.25763   3.25964   3.25981   3.26138
  Beta virt. eigenvalues --    3.26453   3.26761   3.26817   3.27049   3.27615
  Beta virt. eigenvalues --    3.28111   3.28221   3.28598   3.28660   3.28842
  Beta virt. eigenvalues --    3.29314   3.29624   3.29820   3.30186   3.30436
  Beta virt. eigenvalues --    3.30481   3.30712   3.31153   3.31594   3.31729
  Beta virt. eigenvalues --    3.32123   3.32208   3.32586   3.32724   3.33076
  Beta virt. eigenvalues --    3.33606   3.33858   3.34080   3.34243   3.34546
  Beta virt. eigenvalues --    3.34853   3.35291   3.35528   3.36095   3.36327
  Beta virt. eigenvalues --    3.36591   3.36942   3.37257   3.37378   3.37502
  Beta virt. eigenvalues --    3.37743   3.38412   3.38670   3.38756   3.39058
  Beta virt. eigenvalues --    3.39377   3.39530   3.40016   3.40456   3.40711
  Beta virt. eigenvalues --    3.40803   3.41332   3.41597   3.41731   3.42543
  Beta virt. eigenvalues --    3.42848   3.43235   3.43294   3.43587   3.44522
  Beta virt. eigenvalues --    3.44691   3.45191   3.45380   3.45865   3.46295
  Beta virt. eigenvalues --    3.46405   3.46858   3.47217   3.47522   3.47961
  Beta virt. eigenvalues --    3.48964   3.49440   3.49881   3.50132   3.50370
  Beta virt. eigenvalues --    3.50802   3.51514   3.52000   3.52358   3.52731
  Beta virt. eigenvalues --    3.53653   3.54609   3.54909   3.55373   3.55927
  Beta virt. eigenvalues --    3.56135   3.56773   3.56795   3.56901   3.57479
  Beta virt. eigenvalues --    3.58031   3.58712   3.58879   3.59061   3.59692
  Beta virt. eigenvalues --    3.59922   3.60361   3.61110   3.61220   3.61986
  Beta virt. eigenvalues --    3.62321   3.63017   3.64150   3.64549   3.65106
  Beta virt. eigenvalues --    3.65258   3.66294   3.66399   3.66596   3.67614
  Beta virt. eigenvalues --    3.67889   3.68256   3.68905   3.69404   3.69671
[...]
   144. CR (   1) C  73                  0.99957   -10.08352  1527(g),1409(v),1532(v)
                                                    1254(v),1297(v)
   145. CR (   1) C  74                  0.99966   -10.11546  1381(v),149(r),1523(v)
                                                    1377(v),1531(v),150(r)
   146. CR (   1) N  76                  0.99971   -14.12490  149(r),150(r),153(r),1350(v)
                                                    1407(v),1528(v),168(r)
                                                    148(r),171(r)
   147. CR (   1) C  77                  0.99948   -10.05272  1324(v),1522(v),1527(g)
                                                    1383(v),149(r),150(r)
   163. LP (   1) N  76                  0.82947    -0.35300  149(r),150(r),153(r),1526(v)
                                                    1527(v),1350(v),1528(v)
                                                    1532(v),148(r),1407(v)
                                                    1529(g),1531(g),1384(g)
                                                    1382(g),154(r),170(r),244(r)
                                                    273(r),178(r),219(r),221(r)
                                                    195(r),192(r),247(r),171(r)
                                                    1439(r),1443(r),1446(r)
                                                    1448(r),151(r),193(r),270(r)
                                                    1438(r),1442(r),1445(r)
                                                    1440(r),245(r),218(r),2(r)
                                                    271(r),177(r),1447(r),152(r)
   164. LP (   1) C  77                  0.52512    -0.10634  1525(v),1530(v),1328(v)
                                                    1408(g),148(r),2(r),167(r)
                                                    1441(r)
  1252. RY*(   1) C  67                  0.00059     1.17413   
  1253. RY*(   2) C  67                  0.00039     2.02338   
  1254. RY*(   3) C  67                  0.00025     1.31345   
  1255. RY*(   4) C  67                  0.00006     1.27506   
  1256. RY*(   5) C  67                  0.00004     1.77722   
  1257. RY*(   6) C  67                  0.00000     2.81658   
  1258. RY*(   7) C  67                  0.00000    21.58695   
  1259. RY*(   8) C  67                  0.00000     1.78914   
  1260. RY*(   9) C  67                  0.00001     1.49864   
  1261. RY*(  10) C  67                  0.00001     1.09645   
  1262. RY*(  11) C  67                  0.00000     1.35880   
  1263. RY*(  12) C  67                  0.00000     3.14843   
  1264. RY*(  13) C  67                  0.00000     2.54127   
  1265. RY*(  14) C  67                  0.00000     2.79752   
  1266. RY*(  15) C  67                  0.00000     2.33579   
  1267. RY*(  16) C  67                  0.00001     2.87065   
  1268. RY*(  17) C  67                  0.00000     2.42901   
  1269. RY*(  18) C  67                  0.00001     2.55887   
  1270. RY*(  19) C  67                  0.00000     2.52950   
  1271. RY*(  20) C  67                  0.00000     3.54819   
  1272. RY*(  21) C  67                  0.00000     3.47417   
  1273. RY*(  22) C  67                  0.00000     3.28142   
  1274. RY*(  23) C  67                  0.00000     3.72965   
  1275. RY*(  24) C  67                  0.00000     3.46131   
  1276. RY*(  25) C  67                  0.00000     3.53887   
  1277. RY*(  26) C  67                  0.00000     3.22422   
  1278. RY*(   1) H  68                  0.00038     0.99787   
  1279. RY*(   2) H  68                  0.00007     1.69530   
  1280. RY*(   3) H  68                  0.00003     1.90508   
  1281. RY*(   4) H  68                  0.00004     2.08671   
  1282. RY*(   5) H  68                  0.00000     2.88843   
  1283. RY*(   1) H  69                  0.00012     1.46251   
  1284. RY*(   2) H  69                  0.00006     1.72343   
  1285. RY*(   3) H  69                  0.00004     2.06120   
  1286. RY*(   4) H  69                  0.00000     2.95265   
  1287. RY*(   5) H  69                  0.00001     1.47310   
  1288. RY*(   1) H  70                  0.00038     0.98912   
  1289. RY*(   2) H  70                  0.00007     1.69361   
  1290. RY*(   3) H  70                  0.00004     1.98315   
  1291. RY*(   4) H  70                  0.00003     2.01926   
  1292. RY*(   5) H  70                  0.00000     2.88903   
  1293. RY*(   1) N  71                  0.00138     0.70263   
  1294. RY*(   2) N  71                  0.00108     1.85241   
  1295. RY*(   3) N  71                  0.00053     2.18073   
  1296. RY*(   4) N  71                  0.00040     2.30869   
  1297. RY*(   5) N  71                  0.00026     1.11261   
  1298. RY*(   6) N  71                  0.00010     2.11867   
  1299. RY*(   7) N  71                  0.00006     2.33035   
  1300. RY*(   8) N  71                  0.00002     3.14263   
  1301. RY*(   9) N  71                  0.00003     2.59957   
  1302. RY*(  10) N  71                  0.00001     2.56129   
  1303. RY*(  11) N  71                  0.00002     3.42856   
  1304. RY*(  12) N  71                  0.00000    30.62424   
  1305. RY*(  13) N  71                  0.00000     4.06484   
  1306. RY*(  14) N  71                  0.00001     2.95788   
  1307. RY*(  15) N  71                  0.00001     4.04580   
  1308. RY*(  16) N  71                  0.00000     2.26643   
  1309. RY*(  17) N  71                  0.00000     4.70995   
  1310. RY*(  18) N  71                  0.00000     2.90067   
  1311. RY*(  19) N  71                  0.00000     3.80109   
  1312. RY*(  20) N  71                  0.00000     4.73847   
  1313. RY*(  21) N  71                  0.00000     4.65336   
  1314. RY*(  22) N  71                  0.00000     4.32900   
  1315. RY*(  23) N  71                  0.00000     4.47502   
  1316. RY*(  24) N  71                  0.00000     4.25809   
  1317. RY*(  25) N  71                  0.00000     4.47534   
  1318. RY*(  26) N  71                  0.00000     4.33752   
  1319. RY*(   1) H  72                  0.00029     2.18159   
  1320. RY*(   2) H  72                  0.00020     2.14742   
  1321. RY*(   3) H  72                  0.00010     1.12696   
  1322. RY*(   4) H  72                  0.00010     2.71222   
  1323. RY*(   5) H  72                  0.00000     3.08506   
  1324. RY*(   1) C  73                  0.00192     1.69374   
  1325. RY*(   2) C  73                  0.00176     1.20642   
  1326. RY*(   3) C  73                  0.00095     1.49529   
  1327. RY*(   4) C  73                  0.00080     2.14299   
  1328. RY*(   5) C  73                  0.00068     1.87337   
  1329. RY*(   6) C  73                  0.00049     1.78320   
  1330. RY*(   7) C  73                  0.00021     2.65079   
  1331. RY*(   8) C  73                  0.00010     2.83448   
  1332. RY*(   9) C  73                  0.00008     2.51026   
  1333. RY*(  10) C  73                  0.00003     3.63323   
  1334. RY*(  11) C  73                  0.00002     2.52452   
  1335. RY*(  12) C  73                  0.00000    21.53417   
  1336. RY*(  13) C  73                  0.00000     1.65628   
  1337. RY*(  14) C  73                  0.00000     1.63446   
  1338. RY*(  15) C  73                  0.00000     2.39891   
  1339. RY*(  16) C  73                  0.00000     1.95194   
  1340. RY*(  17) C  73                  0.00000     3.64010   
  1341. RY*(  18) C  73                  0.00000     1.10690   
  1342. RY*(  19) C  73                  0.00001     1.81510   
  1343. RY*(  20) C  73                  0.00000     4.04256   
  1344. RY*(  21) C  73                  0.00000     3.85979   
  1345. RY*(  22) C  73                  0.00000     3.55448   
  1346. RY*(  23) C  73                  0.00000     3.72347   
  1347. RY*(  24) C  73                  0.00000     3.40355   
  1348. RY*(  25) C  73                  0.00000     3.59631   
  1349. RY*(  26) C  73                  0.00000     3.51282   
  1350. RY*(   1) C  74                  0.00229     1.64413   
  1351. RY*(   2) C  74                  0.00198     0.67704   
  1352. RY*(   3) C  74                  0.00118     1.77792   
  1353. RY*(   4) C  74                  0.00073     1.27580   
  1354. RY*(   5) C  74                  0.00053     2.63489   
  1355. RY*(   6) C  74                  0.00036     1.83374   
  1356. RY*(   7) C  74                  0.00018     1.89697   
  1357. RY*(   8) C  74                  0.00010     1.19555   
  1358. RY*(   9) C  74                  0.00010     1.82216   
  1359. RY*(  10) C  74                  0.00008     1.72791   
  1360. RY*(  11) C  74                  0.00004     3.18800   
  1361. RY*(  12) C  74                  0.00003     1.83784   
  1362. RY*(  13) C  74                  0.00002     1.47205   
  1363. RY*(  14) C  74                  0.00002     2.11370   
  1364. RY*(  15) C  74                  0.00002     2.22367   
  1365. RY*(  16) C  74                  0.00002     3.58040   
  1366. RY*(  17) C  74                  0.00000     3.68255   
  1367. RY*(  18) C  74                  0.00000     3.24585   
  1368. RY*(  19) C  74                  0.00000    21.17218   
  1369. RY*(  20) C  74                  0.00001     3.92142   
  1370. RY*(  21) C  74                  0.00000     3.83935   
  1371. RY*(  22) C  74                  0.00000     3.55013   
  1372. RY*(  23) C  74                  0.00000     3.81202   
  1373. RY*(  24) C  74                  0.00000     3.52142   
  1374. RY*(  25) C  74                  0.00000     3.81729   
  1375. RY*(  26) C  74                  0.00000     3.41884   
  1376. RY*(   1) H  75                  0.00030     0.70728   
  1377. RY*(   2) H  75                  0.00019     2.46465   
  1378. RY*(   3) H  75                  0.00008     2.27280   
  1379. RY*(   4) H  75                  0.00003     2.67241   
  1380. RY*(   5) H  75                  0.00001     3.00662   
  1381. RY*(   1) N  76                  0.00358     1.11138   
  1382. RY*(   2) N  76                  0.00330     1.15616   
  1383. RY*(   3) N  76                  0.00118     0.96960   
  1384. RY*(   4) N  76                  0.00042     1.72246   
  1385. RY*(   5) N  76                  0.00039     1.65827   
  1386. RY*(   6) N  76                  0.00027     1.87092   
  1387. RY*(   7) N  76                  0.00023     3.02068   
  1388. RY*(   8) N  76                  0.00015     2.97778   
  1389. RY*(   9) N  76                  0.00005     2.32472   
  1390. RY*(  10) N  76                  0.00005     3.60977   
  1391. RY*(  11) N  76                  0.00003     3.02107   
  1392. RY*(  12) N  76                  0.00002     3.05534   
  1393. RY*(  13) N  76                  0.00002     4.78182   
  1394. RY*(  14) N  76                  0.00000     3.70496   
  1395. RY*(  15) N  76                  0.00000     4.58069   
  1396. RY*(  16) N  76                  0.00001     5.21959   
  1397. RY*(  17) N  76                  0.00000     4.89762   
  1398. RY*(  18) N  76                  0.00001     4.43301   
  1399. RY*(  19) N  76                  0.00001     3.15006   
  1400. RY*(  20) N  76                  0.00000     4.48894   
  1401. RY*(  21) N  76                  0.00000    31.78854   
  1402. RY*(  22) N  76                  0.00000     4.09307   
  1403. RY*(  23) N  76                  0.00000     4.69406   
  1404. RY*(  24) N  76                  0.00000     4.76329   
  1405. RY*(  25) N  76                  0.00000     4.64810   
  1406. RY*(  26) N  76                  0.00000     4.53483   
  1407. RY*(   1) C  77                  0.00207     1.47254   
  1408. RY*(   2) C  77                  0.00140     0.73142   
  1409. RY*(   3) C  77                  0.00089     1.70121   
  1410. RY*(   4) C  77                  0.00036     1.91692   
  1411. RY*(   5) C  77                  0.00030     1.55145   
  1412. RY*(   6) C  77                  0.00020     2.39432   
  1413. RY*(   7) C  77                  0.00017     2.07763   
  1414. RY*(   8) C  77                  0.00014     1.57827   
  1415. RY*(   9) C  77                  0.00010     1.81023   
  1416. RY*(  10) C  77                  0.00007     1.78321   
  1417. RY*(  11) C  77                  0.00004     1.91331   
  1418. RY*(  12) C  77                  0.00005     1.44011   
  1419. RY*(  13) C  77                  0.00003     2.47602   
  1420. RY*(  14) C  77                  0.00001     3.38789   
  1421. RY*(  15) C  77                  0.00002     2.79074   
  1422. RY*(  16) C  77                  0.00001     1.38691   
  1423. RY*(  17) C  77                  0.00000     3.73163   
  1424. RY*(  18) C  77                  0.00000     3.26156   
  1425. RY*(  19) C  77                  0.00000    21.49027   
  1426. RY*(  20) C  77                  0.00000     3.95964   
  1427. RY*(  21) C  77                  0.00000     3.75103   
  1428. RY*(  22) C  77                  0.00000     3.46796   
  1429. RY*(  23) C  77                  0.00000     3.83402   
  1430. RY*(  24) C  77                  0.00000     3.45167   
  1431. RY*(  25) C  77                  0.00000     3.73853   
  1432. RY*(  26) C  77                  0.00000     3.36602   
  1433. RY*(   1) H  78                  0.00026     1.00864   
  1434. RY*(   2) H  78                  0.00017     2.10452   
  1435. RY*(   3) H  78                  0.00012     2.32332   
  1436. RY*(   4) H  78                  0.00004     2.74268   
  1437. RY*(   5) H  78                  0.00000     3.12063   
  1519. BD*(   1) C  67 - H  68          0.00598     0.36230   
  1520. BD*(   1) C  67 - H  69          0.00175     0.37627   
  1521. BD*(   1) C  67 - H  70          0.00598     0.36238   
  1522. BD*(   1) C  67 - C  73          0.00696     0.39340   
  1523. BD*(   1) N  71 - H  72          0.00728     0.37161   
  1524. BD*(   1) N  71 - C  73          0.01358     0.43421   
  1525. BD*(   2) N  71 - C  73          0.38935    -0.04158  1530(v),1519(v),1521(v)
                                                    1325(g),1293(g),1330(g)
                                                    1412(v),1253(v),169(r)
  1526. BD*(   1) N  71 - C  74          0.01170     0.45434   
  1527. BD*(   1) C  73 - C  77          0.01080     0.57243   
  1528. BD*(   1) C  74 - H  75          0.00986     0.39551   
  1529. BD*(   1) C  74 - N  76          0.00902     0.53775   
  1530. BD*(   2) C  74 - N  76          0.20680     0.00224  1525(v),154(r),1351(g)
                                                    152(r),1444(r),1441(r),2(r)
                                                    160(r),148(r),1451(r)
  1531. BD*(   1) N  76 - C  77          0.00893     0.48566   
  1532. BD*(   1) C  77 - H  78          0.00756     0.43860   
       -------------------------------
              Total Lewis   21.11097  ( 96.6382%)
        Valence non-Lewis    0.69556  (  3.1840%)
        Rydberg non-Lewis    0.03883  (  0.1778%)
       -------------------------------
            Total unit  3   21.84537  (100.0000%)
           Charge unit  3    0.15463
 Unable to Open any file for archive entry.
 1\1\GINC-BGN1024\SP\UAPFD\def2TZVP\C34H36Fe1N6O1(5)\BEBJONES\25-Sep-20
 24\0\\# apfd/def2TZVP guess=read scf=maxcycle=999 geom=check pop=nbo\\
 1obm_II_Q\\0,5\Fe,0,35.4423091767,4.1777472811,10.092875365\N,0,37.266
 2261559,3.8379231691,9.3592339312\N,0,35.0275615018,5.2655189225,8.408
 5750095\N,0,33.5496218852,4.5414719513,10.6957085261\N,0,35.7917265498
 ,3.0645869544,11.6700045388\C,0,38.2044192333,3.0458137246,9.945578781
 8\C,0,39.4206446629,3.0318100252,9.1615361064\C,0,39.1978191438,3.8490
 145098,8.0974341126\C,0,37.840231249,4.3306630614,8.2333740137\C,0,35.
 8948956532,5.5627938103,7.4026522888\C,0,35.2645136466,6.3843569885,6.
 3995365822\C,0,33.9895239509,6.6167379125,6.8388842287\C,0,33.87071475
 36,5.9072559246,8.1008566814\C,0,32.6155855039,5.3496563663,10.1287762
 274\C,0,31.5004407001,5.5539107217,11.015192324\C,0,31.7675124813,4.81
 96336926,12.1421226018\C,0,33.0611966989,4.2032126434,11.9202209354\C,
 0,34.9362030506,2.8107858172,12.6927659281\C,0,35.5557964415,1.9335011
 129,13.6631153757\C,0,36.7933082876,1.6407241866,13.1795003494\C,0,36.
 9134587223,2.3412417256,11.9187410198\C,0,38.0480648687,2.3390345824,1
 1.1266998187\H,0,38.8829791008,1.7396909647,11.4586361905\C,0,37.21886
 97535,5.1662921006,7.3283135024\H,0,37.7967122098,5.5022881913,6.48116
 18731\C,0,32.7289755624,5.9304707476,8.8762447202\H,0,31.8899430202,6.
 5063921182,8.5177887974\C,0,33.6729763703,3.3559987385,12.8280413061\H
 ,0,33.1231011204,3.1048892933,13.7226401525\C,0,40.1078821222,4.202734
 259,6.9715380703\H,0,39.6892156824,3.870376097,6.0209757114\H,0,41.081
 2109122,3.7349264303,7.0990516691\H,0,40.2510174568,5.2820473813,6.917
 4614249\C,0,40.6370693696,2.2443741347,9.5115595967\H,0,40.4015200894,
 1.1807529971,9.5633599992\H,0,41.0286298749,2.5503352571,10.4820288497
 \H,0,41.4175328621,2.3845725695,8.7677580183\C,0,35.9025926259,6.81047
 5306,5.1232504609\H,0,36.4947542006,5.9984891961,4.7018691115\H,0,36.5
 643122801,7.6635667291,5.2834994745\H,0,35.1414385548,7.0956220702,4.4
 001764549\C,0,32.9178128738,7.3505437051,6.2049135344\H,0,31.918503328
 8,6.9708676614,6.3887588919\C,0,33.0552149167,8.4276995426,5.437929060
 2\H,0,34.0098507999,8.887774504,5.2517468726\H,0,32.2007849332,8.90524
 65818,4.9870427762\C,0,30.3385789469,6.443705561,10.740341804\H,0,29.5
 781432332,5.9220236156,10.156082284\H,0,30.6492768673,7.3242839548,10.
 1799915802\H,0,29.887189063,6.7680646883,11.6761755423\C,0,30.99229340
 06,4.6965949285,13.3563310089\H,0,31.566302939,4.5628026906,14.2661223
 28\C,0,29.6654496139,4.7282964244,13.4338380481\H,0,29.041650571,4.809
 9408288,12.5611428958\H,0,29.1544339623,4.6455890356,14.3790265879\C,0
 ,34.9114406926,1.4981799065,14.9347681871\H,0,33.9674108666,0.99135283
 17,14.7346361225\H,0,34.7031047742,2.3598787517,15.5702509761\H,0,35.5
 574239701,0.8179504716,15.4847145202\C,0,37.8630520061,0.7879667986,13
 .7718850731\H,0,38.1293173316,-0.0236689845,13.0939696351\H,0,37.53605
 12239,0.3539826578,14.7136121196\H,0,38.7608898254,1.377540264,13.9601
 373034\O,0,36.067,6.067,11.194\H,0,35.274,6.492,11.521\H,0,36.903,6.33
 1,11.34\C,0,32.4957279424,0.491678857,7.061650867\H,0,32.925676328,0.1
 379267002,6.1245067901\H,0,31.7058550418,1.2011315571,6.835957044\H,0,
 32.0602187135,-0.3624168503,7.5804248483\N,0,34.6500108716,0.485686994
 2,8.3346924726\H,0,34.8776283139,-0.4751215804,8.1382729572\C,0,33.530
 4463943,1.1471329224,7.9013712673\C,0,35.3815017857,1.3550773547,9.067
 5310056\H,0,36.313636627,1.1082923457,9.5325179632\N,0,34.7943865234,2
 .5251771089,9.1249267234\C,0,33.6423159739,2.4118752502,8.403662796\H,
 0,32.9759371504,3.241525186,8.2942784376\\Version=ES64L-G16RevC.02\Sta
 te=5-A\HF=-2984.0111931\S2=6.145406\S2-1=0.\S2A=6.000629\RMSD=1.416e-0
 9\Dipole=0.3871102,-1.3254326,-0.2889408\Quadrupole=-2.715393,6.790947
 8,-4.0755548,1.0028734,2.5959311,6.0595165\PG=C01 [X(C34H36Fe1N6O1)]\\
 @
 The archive entry for this job was punched.


 THE UNDERLYING PHYSICAL LAWS NECESSARY FOR THE 
 MATHEMATICAL THEORY OF A LARGE PART OF PHYSICS AND THE
 WHOLE OF CHEMISTRY ARE THUS COMPLETELY KNOWN, AND THE
 DIFFICULTY IS ONLY THAT THE EXACT APPLICATION OF THESE
 LAWS LEADS TO EQUATIONS MUCH TOO COMPLICATED 
 TO BE SOLUBLE.

                                        -- P. A. M. DIRAC, 1929
 Job cpu time:       1 days 10 hours 15 minutes  5.7 seconds.
 Elapsed time:       0 days  0 hours 31 minutes 59.1 seconds.
 File lengths (MBytes):  RWF=   2166 Int=      0 D2E=      0 Chk=    197 Scr=      1
 Normal termination of Gaussian 16 at Wed Sep 25 23:19:30 2024.
