 Entering Gaussian System, Link 0=g16
 Input=1ofk16.com
 Output=1ofk16.log
 Initial command:
 /sw/chem/gaussian/g16_C02/a100/g16/l1.exe "/local/bebjones_8030632/Gau-2351279.inp" -scrdir="/local/bebjones_8030632/"
 Entering Link 1 = /sw/chem/gaussian/g16_C02/a100/g16/l1.exe PID=   2351280.
  
 Copyright (c) 1988-2021, Gaussian, Inc.  All Rights Reserved.
  
 This is part of the Gaussian(R) 16 program.  It is based on
 the Gaussian(R) 09 system (copyright 2009, Gaussian, Inc.),
 the Gaussian(R) 03 system (copyright 2003, Gaussian, Inc.),
 the Gaussian(R) 98 system (copyright 1998, Gaussian, Inc.),
 the Gaussian(R) 94 system (copyright 1995, Gaussian, Inc.),
 the Gaussian 92(TM) system (copyright 1992, Gaussian, Inc.),
 the Gaussian 90(TM) system (copyright 1990, Gaussian, Inc.),
 the Gaussian 88(TM) system (copyright 1988, Gaussian, Inc.),
 the Gaussian 86(TM) system (copyright 1986, Carnegie Mellon
 University), and the Gaussian 82(TM) system (copyright 1983,
 Carnegie Mellon University). Gaussian is a federally registered
 trademark of Gaussian, Inc.
  
 This software contains proprietary and confidential information,
 including trade secrets, belonging to Gaussian, Inc.
  
 This software is provided under written license and may be
 used, copied, transmitted, or stored only in accord with that
 written license.
  
 The following legend is applicable only to US Government
 contracts under FAR:
  
                    RESTRICTED RIGHTS LEGEND
  
 Use, reproduction and disclosure by the US Government is
 subject to restrictions as set forth in subparagraphs (a)
 and (c) of the Commercial Computer Software - Restricted
 Rights clause in FAR 52.227-19.
  
 Gaussian, Inc.
 340 Quinnipiac St., Bldg. 40, Wallingford CT 06492
  
  
 ---------------------------------------------------------------
 Warning -- This program may not be used in any manner that
 competes with the business of Gaussian, Inc. or will provide
 assistance to any competitor of Gaussian, Inc.  The licensee
 of this program is prohibited from giving any competitor of
 Gaussian, Inc. access to this program.  By using this program,
 the user acknowledges that Gaussian, Inc. is engaged in the
 business of creating and licensing software in the field of
 computational chemistry and represents and warrants to the
 licensee that it is not a competitor of Gaussian, Inc. and that
 it will not use this program in any manner prohibited above.
 ---------------------------------------------------------------
  

 Cite this work as:
 Gaussian 16, Revision C.02,
 M. J. Frisch, G. W. Trucks, H. B. Schlegel, G. E. Scuseria, 
 M. A. Robb, J. R. Cheeseman, G. Scalmani, V. Barone, 
 G. A. Petersson, H. Nakatsuji, X. Li, M. Caricato, A. V. Marenich, 
 J. Bloino, B. G. Janesko, R. Gomperts, B. Mennucci, H. P. Hratchian, 
 J. V. Ortiz, A. F. Izmaylov, J. L. Sonnenberg, D. Williams-Young, 
 F. Ding, F. Lipparini, F. Egidi, J. Goings, B. Peng, A. Petrone, 
 T. Henderson, D. Ranasinghe, V. G. Zakrzewski, J. Gao, N. Rega, 
 G. Zheng, W. Liang, M. Hada, M. Ehara, K. Toyota, R. Fukuda, 
 J. Hasegawa, M. Ishida, T. Nakajima, Y. Honda, O. Kitao, H. Nakai, 
 T. Vreven, K. Throssell, J. A. Montgomery, Jr., J. E. Peralta, 
 F. Ogliaro, M. J. Bearpark, J. J. Heyd, E. N. Brothers, K. N. Kudin, 
 V. N. Staroverov, T. A. Keith, R. Kobayashi, J. Normand, 
 K. Raghavachari, A. P. Rendell, J. C. Burant, S. S. Iyengar, 
 J. Tomasi, M. Cossi, J. M. Millam, M. Klene, C. Adamo, R. Cammi, 
 J. W. Ochterski, R. L. Martin, K. Morokuma, O. Farkas, 
 J. B. Foresman, and D. J. Fox, Gaussian, Inc., Wallingford CT, 2019.
 
 ******************************************
 Gaussian 16:  ES64L-G16RevC.02  7-Dec-2021
                26-Sep-2024 
 ******************************************
 %mem=16GB
 %CPU=0-71
 SetSPE:  set environment variable "OMP_PROC_BIND" = "true"
 SetSPE:  set environment variable "OMP_PLACES" = "{0},{1},{2},{3},{4},{5},{6},{7},{8},{9},{10},{11},{12},{13},{14},{15},{16},{17},{18},{19},{20},{21},{22},{23},{24},{25},{26},{27},{28},{29},{30},{31},{32},{33},{34},{35},{36},{37},{38},{39},{40},{41},{42},{43},{44},{45},{46},{47},{48},{49},{50},{51},{52},{53},{54},{55},{56},{57},{58},{59},{60},{61},{62},{63},{64},{65},{66},{67},{68},{69},{70},{71}"
 Will use up to   72 processors via shared memory.
 %gpucpu=0,1,2,3=0,1,2,3
 Will use    4 GPUs:
 Thread  CPU   GPU
      0    0     0
      1    1     1
      2    2     2
      3    3     3
      4    4    -1
      5    5    -1
      6    6    -1
      7    7    -1
      8    8    -1
      9    9    -1
     10   10    -1
     11   11    -1
     12   12    -1
     13   13    -1
     14   14    -1
     15   15    -1
     16   16    -1
     17   17    -1
     18   18    -1
     19   19    -1
     20   20    -1
     21   21    -1
     22   22    -1
     23   23    -1
     24   24    -1
     25   25    -1
     26   26    -1
     27   27    -1
     28   28    -1
     29   29    -1
     30   30    -1
     31   31    -1
     32   32    -1
     33   33    -1
     34   34    -1
     35   35    -1
     36   36    -1
     37   37    -1
     38   38    -1
     39   39    -1
     40   40    -1
     41   41    -1
     42   42    -1
     43   43    -1
     44   44    -1
     45   45    -1
     46   46    -1
     47   47    -1
     48   48    -1
     49   49    -1
     50   50    -1
     51   51    -1
     52   52    -1
     53   53    -1
     54   54    -1
     55   55    -1
     56   56    -1
     57   57    -1
     58   58    -1
     59   59    -1
     60   60    -1
     61   61    -1
     62   62    -1
     63   63    -1
     64   64    -1
     65   65    -1
     66   66    -1
     67   67    -1
     68   68    -1
     69   69    -1
     70   70    -1
     71   71    -1
 SetGPE:  set environment variable "OMP_PROC_BIND" = "true"
 SetGPE:  set environment variable "OMP_PLACES" = "{0},{1},{2},{3},{4},{5},{6},{7},{8},{9},{10},{11},{12},{13},{14},{15},{16},{17},{18},{19},{20},{21},{22},{23},{24},{25},{26},{27},{28},{29},{30},{31},{32},{33},{34},{35},{36},{37},{38},{39},{40},{41},{42},{43},{44},{45},{46},{47},{48},{49},{50},{51},{52},{53},{54},{55},{56},{57},{58},{59},{60},{61},{62},{63},{64},{65},{66},{67},{68},{69},{70},{71}"
 %oldchk=1ofk_III_Dre.chk
 %chk=1ofk_III_Hn.chk
 Properties for Device   0
 Minimum vector length:                              32
 Maximum vector length:                            1024
 Number of SMPs:                                    108
 Maximum number of threads per SMP:                2048
 Number of ASync Engines:                             5
 Memory:                                           9207742464
 Properties for Device   1
 Minimum vector length:                              32
 Maximum vector length:                            1024
 Number of SMPs:                                    108
 Maximum number of threads per SMP:                2048
 Number of ASync Engines:                             5
 Memory:                                           9207742464
 Properties for Device   2
 Minimum vector length:                              32
 Maximum vector length:                            1024
 Number of SMPs:                                    108
 Maximum number of threads per SMP:                2048
 Number of ASync Engines:                             5
 Memory:                                           9207742464
 Properties for Device   3
 Minimum vector length:                              32
 Maximum vector length:                            1024
 Number of SMPs:                                    108
 Maximum number of threads per SMP:                2048
 Number of ASync Engines:                             5
 Memory:                                           9207742464
   8286968217 words of memory will be used on each GPU.
 Copying data from "1ofk_III_Dre.chk" to current chk file "1ofk_III_Hn.chk"
 IOpt=  2 FromEx=T IUOpen= 4 IOptOp= 5 NList=   0 IFRang= 0 IUIn= 4 IUOut= 2.
 --------------------------------------------------------------
 # apfd/def2TZVP guess=read scf=maxcycle=999 geom=check pop=nbo
 --------------------------------------------------------------
 1/29=2,38=1,172=1/1;
 2/12=2,40=1/2;
 3/5=44,7=101,11=2,14=-4,25=1,30=1,74=-44,116=-2/1,2,3;
 4/5=1/1;
 5/5=2,7=999,38=6/2;
 6/7=2,8=2,9=2,10=2,28=1,40=1/1,7;
 99/5=1,9=1/99;
 ----------
 1ofk_III_H
 ----------
 Structure from the checkpoint file:  "1ofk_III_Hn.chk"
 Charge =  1 Multiplicity = 6
 Z-Matrix found in chk file.
 Fe,0,35.2278142312,4.0302369093,10.3201042411
 N,0,37.1338988139,3.7804163962,9.7526279744
 N,0,34.920410556,5.218136209,8.7312633019
 N,0,33.3525222181,4.3780148146,10.9464378348
 N,0,35.5610448035,2.8854090127,11.9217795022
 C,0,38.0842053121,3.03859482,10.3799684471
 C,0,39.3146744116,3.0295832204,9.6197031237
 C,0,39.0907797573,3.8042403104,8.5249560938
 C,0,37.7267520609,4.2741859369,8.6329854382
 C,0,35.8263724017,5.5666693183,7.7791338565
 C,0,35.2527729703,6.4906268546,6.8337539814
 C,0,33.9683170794,6.7176670509,7.2495263938
 C,0,33.7858457894,5.9062671876,8.4387587289
 C,0,32.4399781659,5.2120567053,10.3738857434
 C,0,31.2633345362,5.3282808717,11.1945298928
 C,0,31.4791126511,4.5318958748,12.28938594
 C,0,32.7928701975,3.9476076133,12.1063231507
 C,0,34.6796537553,2.6052800322,12.9178261889
 C,0,35.2820718324,1.7352049705,13.9049811997
 C,0,36.5701603431,1.5487881285,13.5125274823
 C,0,36.7243699152,2.2756889945,12.2710501865
 C,0,37.9093005381,2.3441554056,11.5634315753
 H,0,38.7598004642,1.8101561208,11.9594916571
 C,0,37.130656314,5.1098262126,7.7108379027
 H,0,37.7371752956,5.4519017624,6.8862228008
 C,0,32.6273203131,5.9078498444,9.1910794891
 H,0,31.8177230346,6.5377926043,8.8550982074
 C,0,33.3920128023,3.0951232937,13.0155098889
 H,0,32.8230171973,2.818071744,13.889745536
 C,0,40.0122472983,4.1445437307,7.4040077247
 H,0,39.5902175403,3.8261211626,6.4505400765
 H,0,40.9753954312,3.6565293094,7.5325034944
 H,0,40.1775732179,5.2212294138,7.3571840598
 C,0,40.5479466487,2.2951615428,10.0224058724
 H,0,40.3474844474,1.2273719416,10.1155332634
 H,0,40.9112832434,2.6549080969,10.9853466059
 H,0,41.3369639868,2.4318727736,9.2870022867
 C,0,35.9414522033,7.0198636032,5.6244249427
 H,0,36.5584977179,6.249314404,5.1645206001
 H,0,36.5876000764,7.8612730044,5.8804022661
 H,0,35.2078469392,7.3596184342,4.8960285596
 C,0,32.948339789,7.5541067815,6.656779696
 H,0,31.9310526353,7.1911205525,6.7508699485
 C,0,33.1635118752,8.7066730705,6.0306201419
 H,0,34.1452637233,9.1393854186,5.9490394813
 H,0,32.3550524012,9.2732128099,5.5988213169
 C,0,30.0460367189,6.1108544041,10.8434570464
 H,0,29.8346809101,6.0377092576,9.7775796672
 H,0,30.1755230966,7.1664785861,11.0888604308
 H,0,29.1876524158,5.7329452349,11.3951068389
 C,0,30.6126556681,4.2766214818,13.4185518345
 H,0,30.6769133308,3.2806019969,13.8413293278
 C,0,29.7754227651,5.1534420548,13.9634683063
 H,0,29.7039401403,6.1698422414,13.6173401604
 H,0,29.1471039986,4.8890478814,14.797878783
 C,0,34.5770604579,1.2147839411,15.1104871053
 H,0,33.6805323822,0.6660517338,14.8217710306
 H,0,34.2755377045,2.0346836918,15.7631832952
 H,0,35.2207364144,0.5462841796,15.6771896835
 C,0,37.6526450722,0.7581098644,14.164680181
 H,0,38.0121513142,-0.0268977924,13.4985260148
 H,0,37.2941680789,0.2930541538,15.0797097452
 H,0,38.4972538394,1.4002262621,14.4155073623
 O,0,35.766,5.878,11.524
 H,0,34.937,6.284,11.777
 H,0,36.579,6.148,11.763
 C,0,32.4758935467,0.450018693,7.061648216
 H,0,32.9477333377,0.1200332588,6.1364400797
 H,0,31.696690813,1.1653340883,6.8190026553
 H,0,32.017987543,-0.4164125639,7.5384631071
 N,0,34.5737711834,0.4195912281,8.4290430808
 H,0,34.8194018563,-0.5331935194,8.2159629247
 C,0,33.4696046294,1.0849343825,7.9640452601
 C,0,35.2632785687,1.2727799766,9.2204235777
 H,0,36.1749768265,1.0230828411,9.7230766672
 N,0,34.6629385532,2.436492102,9.2840976742
 C,0,33.5460679321,2.335150347,8.5075020632
 H,0,32.8779045177,3.1631645681,8.3932330232
 Recover connectivity data from disk.
 Stoichiometry    C34H36FeN6O(1+,6)
 Framework group  C1[X(C34H36FeN6O)]
 Deg. of freedom   228
 Full point group                 C1      NOp   1
 Largest Abelian subgroup         C1      NOp   1
 Largest concise Abelian subgroup C1      NOp   1
                         Standard orientation:                         
 ---------------------------------------------------------------------
 Center     Atomic      Atomic             Coordinates (Angstroms)
 Number     Number       Type             X           Y           Z
 ---------------------------------------------------------------------
      1         26           0        0.203596   -0.033443   -0.303494
      2          7           0        1.540169   -1.515534   -0.489434
      3          7           0       -1.281287   -1.384401   -0.310704
      4          7           0       -1.144718    1.452276   -0.235270
      5          7           0        1.687581    1.301864   -0.345691
      6          6           0        2.891631   -1.394238   -0.565431
      7          6           0        3.523524   -2.694798   -0.602763
      8          6           0        2.516534   -3.607779   -0.569152
      9          6           0        1.284908   -2.850917   -0.511271
     10          6           0       -1.162193   -2.734846   -0.415143
     11          6           0       -2.456901   -3.366399   -0.451613
     12          6           0       -3.378875   -2.356285   -0.389363
     13          6           0       -2.615159   -1.125608   -0.299291
     14          6           0       -2.501009    1.328832   -0.272871
     15          6           0       -3.132433    2.618577   -0.369405
     16          6           0       -2.118971    3.541726   -0.383198
     17          6           0       -0.886490    2.784004   -0.295375
     18          6           0        1.563575    2.655254   -0.325981
     19          6           0        2.863998    3.289229   -0.363270
     20          6           0        3.773986    2.285060   -0.470555
     21          6           0        3.018609    1.051093   -0.457730
     22          6           0        3.592053   -0.201413   -0.566636
     23          1           0        4.666964   -0.253557   -0.651586
     24          6           0        0.032555   -3.429509   -0.482572
     25          1           0       -0.018215   -4.505985   -0.541682
     26          6           0       -3.192819    0.128985   -0.277450
     27          1           0       -4.270441    0.180352   -0.312831
     28          6           0        0.372977    3.354938   -0.305319
     29          1           0        0.432373    4.432131   -0.335783
     30          6           0        2.589997   -5.096318   -0.586093
     31          1           0        2.112778   -5.513924    0.300739
     32          1           0        3.623661   -5.432933   -0.609646
     33          1           0        2.079995   -5.495256   -1.463318
     34          6           0        4.996684   -2.913627   -0.669235
     35          1           0        5.492706   -2.460584    0.189688
     36          1           0        5.410628   -2.464936   -1.572569
     37          1           0        5.229917   -3.975506   -0.677670
     38          6           0       -2.694737   -4.835711   -0.489051
     39          1           0       -1.969462   -5.359137    0.132242
     40          1           0       -2.606219   -5.219346   -1.506887
     41          1           0       -3.694363   -5.061275   -0.122935
     42          6           0       -4.822911   -2.433836   -0.380594
     43          1           0       -5.329347   -1.682017    0.214197
     44          6           0       -5.551396   -3.330535   -1.037881
     45          1           0       -5.106306   -4.069352   -1.681136
     46          1           0       -6.627033   -3.338554   -0.974918
     47          6           0       -4.602448    2.856338   -0.372726
     48          1           0       -5.105840    2.168675    0.305383
     49          1           0       -5.019933    2.710402   -1.370595
     50          1           0       -4.816227    3.875385   -0.056816
     51          6           0       -2.197506    4.983737   -0.456441
     52          1           0       -1.427266    5.521901    0.083961
     53          6           0       -3.114243    5.674300   -1.126831
     54          1           0       -3.873399    5.194816   -1.719925
     55          1           0       -3.120251    6.751747   -1.125866
     56          6           0        3.083396    4.762838   -0.325013
     57          1           0        2.631784    5.193396    0.568795
     58          1           0        2.632447    5.241212   -1.195052
     59          1           0        4.145385    4.996308   -0.319170
     60          6           0        5.259589    2.361248   -0.567646
     61          1           0        5.728339    1.830212    0.261521
     62          1           0        5.595980    3.394900   -0.546094
     63          1           0        5.605880    1.908153   -1.496828
     64          8           0       -0.014974    0.132426   -2.556925
     65          1           0       -0.763707    0.708128   -2.712013
     66          1           0        0.516110   -0.219327   -3.177577
     67          6           0       -0.968098   -0.084963    5.140130
     68          1           0       -0.771144   -0.995064    5.706221
     69          1           0       -2.037964    0.000167    4.979355
     70          1           0       -0.635988    0.765260    5.735577
     71          7           0        1.091763   -0.229173    3.723104
     72          1           0        1.738193   -0.300710    4.491575
     73          6           0       -0.269825   -0.116339    3.830042
     74          6           0        1.401206   -0.224850    2.406343
     75          1           0        2.397844   -0.300066    2.022601
     76          7           0        0.318966   -0.116390    1.674441
     77          6           0       -0.728365   -0.048255    2.545777
     78          1           0       -1.733962    0.044417    2.191808
 ---------------------------------------------------------------------
 Rotational constants (GHZ):           0.0923437           0.0913397           0.0593898
 Standard basis: def2TZVP (5D, 7F)
 There are  1744 symmetry adapted cartesian basis functions of A   symmetry.
 There are  1532 symmetry adapted basis functions of A   symmetry.
  1532 basis functions,  2481 primitive gaussians,  1744 cartesian basis functions
   160 alpha electrons      155 beta electrons
       nuclear repulsion energy      5964.2002796259 Hartrees.
 NAtoms=   78 NActive=   78 NUniq=   78 SFac= 1.00D+00 NAtFMM=   60 NAOKFM=T Big=T
 Integral buffers will be    131072 words long.
 Raffenetti 2 integral format.
 Two-electron integral symmetry is turned on.
 R6APFD:  NTU= -4 IXU= 1 FactS= 1.050
 Nuclear repulsion after empirical dispersion term =     5964.0477288584 Hartrees.
 One-electron integrals computed using PRISM.
   1 Symmetry operations used in ECPInt.
 ECPInt:  NShTT=  186355 NPrTT=  576197 LenC2=  147096 LenP2D=  300955.
 LDataN:  DoStor=T MaxTD1= 6 Len=  172
 Number of processors reduced to  23 by ecpmxn.
 NBasis=  1532 RedAO= T EigKep=  3.14D-06  NBF=  1532
 NBsUse=  1532 1.00D-06 EigRej= -1.00D+00 NBFU=  1532
 Initial guess from the checkpoint file:  "1ofk_III_Hn.chk"
 B after Tr=    -0.000000    0.000000    0.000000
         Rot=    1.000000   -0.000000    0.000000    0.000000 Ang=   0.00 deg.
 Initial guess <Sx>= 0.0000 <Sy>= 0.0000 <Sz>= 2.5000 <S**2>= 8.7584 S= 2.5014
 Requested convergence on RMS density matrix=1.00D-08 within 999 cycles.
 Requested convergence on MAX density matrix=1.00D-06.
 Requested convergence on             energy=1.00D-06.
 No special actions if energy rises.
 SCF Done:  E(UAPFD) =  -2983.83649368     A.U. after   16 cycles
            NFock= 16  Conv=0.90D-08     -V/T= 2.0031
 <Sx>= 0.0000 <Sy>= 0.0000 <Sz>= 2.5000 <S**2>= 8.7588 S= 2.5015
 <L.S>=  0.00000000000    
 Annihilation of the first spin contaminant:
 S**2 before annihilation     8.7588,   after     8.7500

 **********************************************************************

            Population analysis using the SCF Density.

 **********************************************************************

 Orbital symmetries:
 Alpha Orbitals:
       Occupied  (A) (A) (A) (A) (A) (A) (A) (A) (A) (A) (A) (A)
                 (A) (A) (A) (A) (A) (A) (A) (A) (A) (A) (A) (A)
                 (A) (A) (A) (A) (A) (A) (A) (A) (A) (A) (A) (A)
                 (A) (A) (A) (A) (A) (A) (A) (A) (A) (A) (A) (A)
                 (A) (A) (A) (A) (A) (A) (A) (A) (A) (A) (A) (A)
                 (A) (A) (A) (A) (A) (A) (A) (A) (A) (A) (A) (A)
                 (A) (A) (A) (A) (A) (A) (A) (A) (A) (A) (A) (A)
                 (A) (A) (A) (A) (A) (A) (A) (A) (A) (A) (A) (A)
                 (A) (A) (A) (A) (A) (A) (A) (A) (A) (A) (A) (A)
                 (A) (A) (A) (A) (A) (A) (A) (A) (A) (A) (A) (A)
                 (A) (A) (A) (A) (A) (A) (A) (A) (A) (A) (A) (A)
                 (A) (A) (A) (A) (A) (A) (A) (A) (A) (A) (A) (A)
                 (A) (A) (A) (A) (A) (A) (A) (A) (A) (A) (A) (A)
                 (A) (A) (A) (A)
       Virtual   (A) (A) (A) (A) (A) (A) (A) (A) (A) (A) (A) (A)
                 (A) (A) (A) (A) (A) (A) (A) (A) (A) (A) (A) (A)
                 (A) (A) (A) (A) (A) (A) (A) (A) (A) (A) (A) (A)
                 (A) (A) (A) (A) (A) (A) (A) (A) (A) (A) (A) (A)
                 (A) (A) (A) (A) (A) (A) (A) (A) (A) (A) (A) (A)
                 (A) (A) (A) (A) (A) (A) (A) (A) (A) (A) (A) (A)
                 (A) (A) (A) (A) (A) (A) (A) (A) (A) (A) (A) (A)
                 (A) (A) (A) (A) (A) (A) (A) (A) (A) (A) (A) (A)
                 (A) (A) (A) (A) (A) (A) (A) (A) (A) (A) (A) (A)
                 (A) (A) (A) (A) (A) (A) (A) (A) (A) (A) (A) (A)
                 (A) (A) (A) (A) (A) (A) (A) (A) (A) (A) (A) (A)
                 (A) (A) (A) (A) (A) (A) (A) (A) (A) (A) (A) (A)
                 (A) (A) (A) (A) (A) (A) (A) (A) (A) (A) (A) (A)
                 (A) (A) (A) (A) (A) (A) (A) (A) (A) (A) (A) (A)
                 (A) (A) (A) (A) (A) (A) (A) (A) (A) (A) (A) (A)
                 (A) (A) (A) (A) (A) (A) (A) (A) (A) (A) (A) (A)
                 (A) (A) (A) (A) (A) (A) (A) (A) (A) (A) (A) (A)
                 (A) (A) (A) (A) (A) (A) (A) (A) (A) (A) (A) (A)
                 (A) (A) (A) (A) (A) (A) (A) (A) (A) (A) (A) (A)
                 (A) (A) (A) (A) (A) (A) (A) (A) (A) (A) (A) (A)
                 (A) (A) (A) (A) (A) (A) (A) (A) (A) (A) (A) (A)
                 (A) (A) (A) (A) (A) (A) (A) (A) (A) (A) (A) (A)
                 (A) (A) (A) (A) (A) (A) (A) (A) (A) (A) (A) (A)
                 (A) (A) (A) (A) (A) (A) (A) (A) (A) (A) (A) (A)
                 (A) (A) (A) (A) (A) (A) (A) (A) (A) (A) (A) (A)
                 (A) (A) (A) (A) (A) (A) (A) (A) (A) (A) (A) (A)
                 (A) (A) (A) (A) (A) (A) (A) (A) (A) (A) (A) (A)
                 (A) (A) (A) (A) (A) (A) (A) (A) (A) (A) (A) (A)
                 (A) (A) (A) (A) (A) (A) (A) (A) (A) (A) (A) (A)
                 (A) (A) (A) (A) (A) (A) (A) (A) (A) (A) (A) (A)
                 (A) (A) (A) (A) (A) (A) (A) (A) (A) (A) (A) (A)
                 (A) (A) (A) (A) (A) (A) (A) (A) (A) (A) (A) (A)
                 (A) (A) (A) (A) (A) (A) (A) (A) (A) (A) (A) (A)
                 (A) (A) (A) (A) (A) (A) (A) (A) (A) (A) (A) (A)
                 (A) (A) (A) (A) (A) (A) (A) (A) (A) (A) (A) (A)
                 (A) (A) (A) (A) (A) (A) (A) (A) (A) (A) (A) (A)
                 (A) (A) (A) (A) (A) (A) (A) (A) (A) (A) (A) (A)
                 (A) (A) (A) (A) (A) (A) (A) (A) (A) (A) (A) (A)
                 (A) (A) (A) (A) (A) (A) (A) (A) (A) (A) (A) (A)
                 (A) (A) (A) (A) (A) (A) (A) (A) (A) (A) (A) (A)
                 (A) (A) (A) (A) (A) (A) (A) (A) (A) (A) (A) (A)
                 (A) (A) (A) (A) (A) (A) (A) (A) (A) (A) (A) (A)
                 (A) (A) (A) (A) (A) (A) (A) (A) (A) (A) (A) (A)
                 (A) (A) (A) (A) (A) (A) (A) (A) (A) (A) (A) (A)
                 (A) (A) (A) (A) (A) (A) (A) (A) (A) (A) (A) (A)
                 (A) (A) (A) (A) (A) (A) (A) (A) (A) (A) (A) (A)
                 (A) (A) (A) (A) (A) (A) (A) (A) (A) (A) (A) (A)
                 (A) (A) (A) (A) (A) (A) (A) (A) (A) (A) (A) (A)
                 (A) (A) (A) (A) (A) (A) (A) (A) (A) (A) (A) (A)
                 (A) (A) (A) (A) (A) (A) (A) (A) (A) (A) (A) (A)
                 (A) (A) (A) (A) (A) (A) (A) (A) (A) (A) (A) (A)
                 (A) (A) (A) (A) (A) (A) (A) (A) (A) (A) (A) (A)
                 (A) (A) (A) (A) (A) (A) (A) (A) (A) (A) (A) (A)
                 (A) (A) (A) (A) (A) (A) (A) (A) (A) (A) (A) (A)
                 (A) (A) (A) (A) (A) (A) (A) (A) (A) (A) (A) (A)
                 (A) (A) (A) (A) (A) (A) (A) (A) (A) (A) (A) (A)
                 (A) (A) (A) (A) (A) (A) (A) (A) (A) (A) (A) (A)
                 (A) (A) (A) (A) (A) (A) (A) (A) (A) (A) (A) (A)
                 (A) (A) (A) (A) (A) (A) (A) (A) (A) (A) (A) (A)
                 (A) (A) (A) (A) (A) (A) (A) (A) (A) (A) (A) (A)
                 (A) (A) (A) (A) (A) (A) (A) (A) (A) (A) (A) (A)
                 (A) (A) (A) (A) (A) (A) (A) (A) (A) (A) (A) (A)
                 (A) (A) (A) (A) (A) (A) (A) (A) (A) (A) (A) (A)
                 (A) (A) (A) (A) (A) (A) (A) (A) (A) (A) (A) (A)
                 (A) (A) (A) (A) (A) (A) (A) (A) (A) (A) (A) (A)
                 (A) (A) (A) (A) (A) (A) (A) (A) (A) (A) (A) (A)
                 (A) (A) (A) (A) (A) (A) (A) (A) (A) (A) (A) (A)
                 (A) (A) (A) (A) (A) (A) (A) (A) (A) (A) (A) (A)
                 (A) (A) (A) (A) (A) (A) (A) (A) (A) (A) (A) (A)
                 (A) (A) (A) (A) (A) (A) (A) (A) (A) (A) (A) (A)
                 (A) (A) (A) (A) (A) (A) (A) (A) (A) (A) (A) (A)
                 (A) (A) (A) (A) (A) (A) (A) (A) (A) (A) (A) (A)
                 (A) (A) (A) (A) (A) (A) (A) (A) (A) (A) (A) (A)
                 (A) (A) (A) (A) (A) (A) (A) (A) (A) (A) (A) (A)
                 (A) (A) (A) (A) (A) (A) (A) (A) (A) (A) (A) (A)
                 (A) (A) (A) (A) (A) (A) (A) (A) (A) (A) (A) (A)
                 (A) (A) (A) (A) (A) (A) (A) (A) (A) (A) (A) (A)
                 (A) (A) (A) (A) (A) (A) (A) (A) (A) (A) (A) (A)
                 (A) (A) (A) (A) (A) (A) (A) (A) (A) (A) (A) (A)
                 (A) (A) (A) (A) (A) (A) (A) (A) (A) (A) (A) (A)
                 (A) (A) (A) (A) (A) (A) (A) (A) (A) (A) (A) (A)
                 (A) (A) (A) (A) (A) (A) (A) (A) (A) (A) (A) (A)
                 (A) (A) (A) (A) (A) (A) (A) (A) (A) (A) (A) (A)
                 (A) (A) (A) (A) (A) (A) (A) (A) (A) (A) (A) (A)
                 (A) (A) (A) (A) (A) (A) (A) (A) (A) (A) (A) (A)
                 (A) (A) (A) (A) (A) (A) (A) (A) (A) (A) (A) (A)
                 (A) (A) (A) (A) (A) (A) (A) (A) (A) (A) (A) (A)
                 (A) (A) (A) (A) (A) (A) (A) (A) (A) (A) (A) (A)
                 (A) (A) (A) (A) (A) (A) (A) (A) (A) (A) (A) (A)
                 (A) (A) (A) (A) (A) (A) (A) (A) (A) (A) (A) (A)
                 (A) (A) (A) (A) (A) (A) (A) (A) (A) (A) (A) (A)
                 (A) (A) (A) (A) (A) (A) (A) (A) (A) (A) (A) (A)
                 (A) (A) (A) (A) (A) (A) (A) (A) (A) (A) (A) (A)
                 (A) (A) (A) (A) (A) (A) (A) (A) (A) (A) (A) (A)
                 (A) (A) (A) (A) (A) (A) (A) (A) (A) (A) (A) (A)
                 (A) (A) (A) (A) (A) (A) (A) (A) (A) (A) (A) (A)
                 (A) (A) (A) (A) (A) (A) (A) (A) (A) (A) (A) (A)
                 (A) (A) (A) (A) (A) (A) (A) (A) (A) (A) (A) (A)
                 (A) (A) (A) (A) (A) (A) (A) (A) (A) (A) (A) (A)
                 (A) (A) (A) (A) (A) (A) (A) (A) (A) (A) (A) (A)
                 (A) (A) (A) (A) (A) (A) (A) (A) (A) (A) (A) (A)
                 (A) (A) (A) (A) (A) (A) (A) (A) (A) (A) (A) (A)
                 (A) (A) (A) (A) (A) (A) (A) (A) (A) (A) (A) (A)
                 (A) (A) (A) (A) (A) (A) (A) (A) (A) (A) (A) (A)
                 (A) (A) (A) (A) (A) (A) (A) (A) (A) (A) (A) (A)
                 (A) (A) (A) (A) (A) (A) (A) (A) (A) (A) (A) (A)
                 (A) (A) (A) (A) (A) (A) (A) (A) (A) (A) (A) (A)
                 (A) (A) (A) (A) (A) (A) (A) (A) (A) (A) (A) (A)
                 (A) (A) (A) (A) (A) (A) (A) (A) (A) (A) (A) (A)
                 (A) (A) (A) (A) (A) (A) (A) (A) (A) (A) (A) (A)
                 (A) (A) (A) (A) (A) (A) (A) (A) (A) (A) (A) (A)
                 (A) (A) (A) (A) (A) (A) (A) (A) (A) (A) (A) (A)
                 (A) (A) (A) (A) (A) (A) (A) (A) (A) (A) (A) (A)
                 (A) (A) (A) (A) (A) (A) (A) (A) (A) (A) (A) (A)
                 (A) (A) (A) (A)
 Beta  Orbitals:
       Occupied  (A) (A) (A) (A) (A) (A) (A) (A) (A) (A) (A) (A)
                 (A) (A) (A) (A) (A) (A) (A) (A) (A) (A) (A) (A)
                 (A) (A) (A) (A) (A) (A) (A) (A) (A) (A) (A) (A)
                 (A) (A) (A) (A) (A) (A) (A) (A) (A) (A) (A) (A)
                 (A) (A) (A) (A) (A) (A) (A) (A) (A) (A) (A) (A)
                 (A) (A) (A) (A) (A) (A) (A) (A) (A) (A) (A) (A)
                 (A) (A) (A) (A) (A) (A) (A) (A) (A) (A) (A) (A)
                 (A) (A) (A) (A) (A) (A) (A) (A) (A) (A) (A) (A)
                 (A) (A) (A) (A) (A) (A) (A) (A) (A) (A) (A) (A)
                 (A) (A) (A) (A) (A) (A) (A) (A) (A) (A) (A) (A)
                 (A) (A) (A) (A) (A) (A) (A) (A) (A) (A) (A) (A)
                 (A) (A) (A) (A) (A) (A) (A) (A) (A) (A) (A) (A)
                 (A) (A) (A) (A) (A) (A) (A) (A) (A) (A) (A)
       Virtual   (A) (A) (A) (A) (A) (A) (A) (A) (A) (A) (A) (A)
                 (A) (A) (A) (A) (A) (A) (A) (A) (A) (A) (A) (A)
                 (A) (A) (A) (A) (A) (A) (A) (A) (A) (A) (A) (A)
                 (A) (A) (A) (A) (A) (A) (A) (A) (A) (A) (A) (A)
                 (A) (A) (A) (A) (A) (A) (A) (A) (A) (A) (A) (A)
                 (A) (A) (A) (A) (A) (A) (A) (A) (A) (A) (A) (A)
                 (A) (A) (A) (A) (A) (A) (A) (A) (A) (A) (A) (A)
                 (A) (A) (A) (A) (A) (A) (A) (A) (A) (A) (A) (A)
                 (A) (A) (A) (A) (A) (A) (A) (A) (A) (A) (A) (A)
                 (A) (A) (A) (A) (A) (A) (A) (A) (A) (A) (A) (A)
                 (A) (A) (A) (A) (A) (A) (A) (A) (A) (A) (A) (A)
                 (A) (A) (A) (A) (A) (A) (A) (A) (A) (A) (A) (A)
                 (A) (A) (A) (A) (A) (A) (A) (A) (A) (A) (A) (A)
                 (A) (A) (A) (A) (A) (A) (A) (A) (A) (A) (A) (A)
                 (A) (A) (A) (A) (A) (A) (A) (A) (A) (A) (A) (A)
                 (A) (A) (A) (A) (A) (A) (A) (A) (A) (A) (A) (A)
                 (A) (A) (A) (A) (A) (A) (A) (A) (A) (A) (A) (A)
                 (A) (A) (A) (A) (A) (A) (A) (A) (A) (A) (A) (A)
                 (A) (A) (A) (A) (A) (A) (A) (A) (A) (A) (A) (A)
                 (A) (A) (A) (A) (A) (A) (A) (A) (A) (A) (A) (A)
                 (A) (A) (A) (A) (A) (A) (A) (A) (A) (A) (A) (A)
                 (A) (A) (A) (A) (A) (A) (A) (A) (A) (A) (A) (A)
                 (A) (A) (A) (A) (A) (A) (A) (A) (A) (A) (A) (A)
                 (A) (A) (A) (A) (A) (A) (A) (A) (A) (A) (A) (A)
                 (A) (A) (A) (A) (A) (A) (A) (A) (A) (A) (A) (A)
                 (A) (A) (A) (A) (A) (A) (A) (A) (A) (A) (A) (A)
                 (A) (A) (A) (A) (A) (A) (A) (A) (A) (A) (A) (A)
                 (A) (A) (A) (A) (A) (A) (A) (A) (A) (A) (A) (A)
                 (A) (A) (A) (A) (A) (A) (A) (A) (A) (A) (A) (A)
                 (A) (A) (A) (A) (A) (A) (A) (A) (A) (A) (A) (A)
                 (A) (A) (A) (A) (A) (A) (A) (A) (A) (A) (A) (A)
                 (A) (A) (A) (A) (A) (A) (A) (A) (A) (A) (A) (A)
                 (A) (A) (A) (A) (A) (A) (A) (A) (A) (A) (A) (A)
                 (A) (A) (A) (A) (A) (A) (A) (A) (A) (A) (A) (A)
                 (A) (A) (A) (A) (A) (A) (A) (A) (A) (A) (A) (A)
                 (A) (A) (A) (A) (A) (A) (A) (A) (A) (A) (A) (A)
                 (A) (A) (A) (A) (A) (A) (A) (A) (A) (A) (A) (A)
                 (A) (A) (A) (A) (A) (A) (A) (A) (A) (A) (A) (A)
                 (A) (A) (A) (A) (A) (A) (A) (A) (A) (A) (A) (A)
                 (A) (A) (A) (A) (A) (A) (A) (A) (A) (A) (A) (A)
                 (A) (A) (A) (A) (A) (A) (A) (A) (A) (A) (A) (A)
                 (A) (A) (A) (A) (A) (A) (A) (A) (A) (A) (A) (A)
                 (A) (A) (A) (A) (A) (A) (A) (A) (A) (A) (A) (A)
                 (A) (A) (A) (A) (A) (A) (A) (A) (A) (A) (A) (A)
                 (A) (A) (A) (A) (A) (A) (A) (A) (A) (A) (A) (A)
                 (A) (A) (A) (A) (A) (A) (A) (A) (A) (A) (A) (A)
                 (A) (A) (A) (A) (A) (A) (A) (A) (A) (A) (A) (A)
                 (A) (A) (A) (A) (A) (A) (A) (A) (A) (A) (A) (A)
                 (A) (A) (A) (A) (A) (A) (A) (A) (A) (A) (A) (A)
                 (A) (A) (A) (A) (A) (A) (A) (A) (A) (A) (A) (A)
                 (A) (A) (A) (A) (A) (A) (A) (A) (A) (A) (A) (A)
                 (A) (A) (A) (A) (A) (A) (A) (A) (A) (A) (A) (A)
                 (A) (A) (A) (A) (A) (A) (A) (A) (A) (A) (A) (A)
                 (A) (A) (A) (A) (A) (A) (A) (A) (A) (A) (A) (A)
                 (A) (A) (A) (A) (A) (A) (A) (A) (A) (A) (A) (A)
                 (A) (A) (A) (A) (A) (A) (A) (A) (A) (A) (A) (A)
                 (A) (A) (A) (A) (A) (A) (A) (A) (A) (A) (A) (A)
                 (A) (A) (A) (A) (A) (A) (A) (A) (A) (A) (A) (A)
                 (A) (A) (A) (A) (A) (A) (A) (A) (A) (A) (A) (A)
                 (A) (A) (A) (A) (A) (A) (A) (A) (A) (A) (A) (A)
                 (A) (A) (A) (A) (A) (A) (A) (A) (A) (A) (A) (A)
                 (A) (A) (A) (A) (A) (A) (A) (A) (A) (A) (A) (A)
                 (A) (A) (A) (A) (A) (A) (A) (A) (A) (A) (A) (A)
                 (A) (A) (A) (A) (A) (A) (A) (A) (A) (A) (A) (A)
                 (A) (A) (A) (A) (A) (A) (A) (A) (A) (A) (A) (A)
                 (A) (A) (A) (A) (A) (A) (A) (A) (A) (A) (A) (A)
                 (A) (A) (A) (A) (A) (A) (A) (A) (A) (A) (A) (A)
                 (A) (A) (A) (A) (A) (A) (A) (A) (A) (A) (A) (A)
                 (A) (A) (A) (A) (A) (A) (A) (A) (A) (A) (A) (A)
                 (A) (A) (A) (A) (A) (A) (A) (A) (A) (A) (A) (A)
                 (A) (A) (A) (A) (A) (A) (A) (A) (A) (A) (A) (A)
                 (A) (A) (A) (A) (A) (A) (A) (A) (A) (A) (A) (A)
                 (A) (A) (A) (A) (A) (A) (A) (A) (A) (A) (A) (A)
                 (A) (A) (A) (A) (A) (A) (A) (A) (A) (A) (A) (A)
                 (A) (A) (A) (A) (A) (A) (A) (A) (A) (A) (A) (A)
                 (A) (A) (A) (A) (A) (A) (A) (A) (A) (A) (A) (A)
                 (A) (A) (A) (A) (A) (A) (A) (A) (A) (A) (A) (A)
                 (A) (A) (A) (A) (A) (A) (A) (A) (A) (A) (A) (A)
                 (A) (A) (A) (A) (A) (A) (A) (A) (A) (A) (A) (A)
                 (A) (A) (A) (A) (A) (A) (A) (A) (A) (A) (A) (A)
                 (A) (A) (A) (A) (A) (A) (A) (A) (A) (A) (A) (A)
                 (A) (A) (A) (A) (A) (A) (A) (A) (A) (A) (A) (A)
                 (A) (A) (A) (A) (A) (A) (A) (A) (A) (A) (A) (A)
                 (A) (A) (A) (A) (A) (A) (A) (A) (A) (A) (A) (A)
                 (A) (A) (A) (A) (A) (A) (A) (A) (A) (A) (A) (A)
                 (A) (A) (A) (A) (A) (A) (A) (A) (A) (A) (A) (A)
                 (A) (A) (A) (A) (A) (A) (A) (A) (A) (A) (A) (A)
                 (A) (A) (A) (A) (A) (A) (A) (A) (A) (A) (A) (A)
                 (A) (A) (A) (A) (A) (A) (A) (A) (A) (A) (A) (A)
                 (A) (A) (A) (A) (A) (A) (A) (A) (A) (A) (A) (A)
                 (A) (A) (A) (A) (A) (A) (A) (A) (A) (A) (A) (A)
                 (A) (A) (A) (A) (A) (A) (A) (A) (A) (A) (A) (A)
                 (A) (A) (A) (A) (A) (A) (A) (A) (A) (A) (A) (A)
                 (A) (A) (A) (A) (A) (A) (A) (A) (A) (A) (A) (A)
                 (A) (A) (A) (A) (A) (A) (A) (A) (A) (A) (A) (A)
                 (A) (A) (A) (A) (A) (A) (A) (A) (A) (A) (A) (A)
                 (A) (A) (A) (A) (A) (A) (A) (A) (A) (A) (A) (A)
                 (A) (A) (A) (A) (A) (A) (A) (A) (A) (A) (A) (A)
                 (A) (A) (A) (A) (A) (A) (A) (A) (A) (A) (A) (A)
                 (A) (A) (A) (A) (A) (A) (A) (A) (A) (A) (A) (A)
                 (A) (A) (A) (A) (A) (A) (A) (A) (A) (A) (A) (A)
                 (A) (A) (A) (A) (A) (A) (A) (A) (A) (A) (A) (A)
                 (A) (A) (A) (A) (A) (A) (A) (A) (A) (A) (A) (A)
                 (A) (A) (A) (A) (A) (A) (A) (A) (A) (A) (A) (A)
                 (A) (A) (A) (A) (A) (A) (A) (A) (A) (A) (A) (A)
                 (A) (A) (A) (A) (A) (A) (A) (A) (A) (A) (A) (A)
                 (A) (A) (A) (A) (A) (A) (A) (A) (A) (A) (A) (A)
                 (A) (A) (A) (A) (A) (A) (A) (A) (A) (A) (A) (A)
                 (A) (A) (A) (A) (A) (A) (A) (A) (A) (A) (A) (A)
                 (A) (A) (A) (A) (A) (A) (A) (A) (A) (A) (A) (A)
                 (A) (A) (A) (A) (A) (A) (A) (A) (A) (A) (A) (A)
                 (A) (A) (A) (A) (A) (A) (A) (A) (A) (A) (A) (A)
                 (A) (A) (A) (A) (A) (A) (A) (A) (A) (A) (A) (A)
                 (A) (A) (A) (A) (A) (A) (A) (A) (A) (A) (A) (A)
                 (A) (A) (A) (A) (A) (A) (A) (A) (A)
 The electronic state is 6-A.
 Alpha  occ. eigenvalues -- -256.42396 -30.33322 -26.16348 -26.16217 -26.16190
 Alpha  occ. eigenvalues --  -19.29227 -14.52655 -14.47828 -14.45096 -14.44883
 Alpha  occ. eigenvalues --  -14.44756 -14.44689 -10.37212 -10.34434 -10.32878
 Alpha  occ. eigenvalues --  -10.32735 -10.32728 -10.32681 -10.32599 -10.32527
 Alpha  occ. eigenvalues --  -10.32526 -10.32497 -10.31880 -10.30026 -10.29980
 Alpha  occ. eigenvalues --  -10.29760 -10.29706 -10.29666 -10.29662 -10.29630
 Alpha  occ. eigenvalues --  -10.29588 -10.29526 -10.29512 -10.29485 -10.29466
 Alpha  occ. eigenvalues --  -10.29418 -10.28869 -10.28797 -10.28061 -10.27964
 Alpha  occ. eigenvalues --  -10.27942 -10.27833 -10.27785 -10.27589 -10.27557
 Alpha  occ. eigenvalues --  -10.27493  -3.78645  -2.55313  -2.55180  -2.55128
 Alpha  occ. eigenvalues --   -1.17233  -1.16635  -1.09076  -1.08151  -1.07919
 Alpha  occ. eigenvalues --   -1.07053  -1.02576  -0.93597  -0.92440  -0.92106
 Alpha  occ. eigenvalues --   -0.91576  -0.91229  -0.90831  -0.90713  -0.90517
 Alpha  occ. eigenvalues --   -0.86860  -0.85677  -0.85307  -0.84413  -0.83036
 Alpha  occ. eigenvalues --   -0.82110  -0.81342  -0.80377  -0.78733  -0.78466
 Alpha  occ. eigenvalues --   -0.78342  -0.76027  -0.75244  -0.75167  -0.72721
 Alpha  occ. eigenvalues --   -0.72327  -0.70902  -0.70266  -0.69045  -0.68448
 Alpha  occ. eigenvalues --   -0.67001  -0.65268  -0.64682  -0.64120  -0.63875
 Alpha  occ. eigenvalues --   -0.62239  -0.62064  -0.61967  -0.61592  -0.60460
 Alpha  occ. eigenvalues --   -0.58904  -0.58618  -0.58587  -0.58272  -0.56685
 Alpha  occ. eigenvalues --   -0.56439  -0.56327  -0.56088  -0.55463  -0.55137
 Alpha  occ. eigenvalues --   -0.54794  -0.54473  -0.53934  -0.53820  -0.53741
 Alpha  occ. eigenvalues --   -0.53484  -0.53336  -0.53202  -0.52956  -0.52531
 Alpha  occ. eigenvalues --   -0.52394  -0.51969  -0.51868  -0.51821  -0.51334
 Alpha  occ. eigenvalues --   -0.50790  -0.50662  -0.50279  -0.50110  -0.49946
 Alpha  occ. eigenvalues --   -0.49807  -0.49465  -0.49342  -0.49042  -0.48913
 Alpha  occ. eigenvalues --   -0.48803  -0.48387  -0.48222  -0.47805  -0.47176
 Alpha  occ. eigenvalues --   -0.47061  -0.46542  -0.46021  -0.45810  -0.45324
 Alpha  occ. eigenvalues --   -0.45028  -0.43919  -0.43651  -0.43273  -0.42902
 Alpha  occ. eigenvalues --   -0.42495  -0.41440  -0.40038  -0.39622  -0.38060
 Alpha  occ. eigenvalues --   -0.37777  -0.37616  -0.34962  -0.34149  -0.33647
 Alpha  occ. eigenvalues --   -0.32857  -0.32759  -0.32432  -0.29917  -0.29015
 Alpha virt. eigenvalues --   -0.17990  -0.17870  -0.12209  -0.09828  -0.09085
 Alpha virt. eigenvalues --   -0.07858  -0.07671  -0.06009  -0.05933  -0.05466
 Alpha virt. eigenvalues --   -0.04564  -0.03583  -0.03298  -0.02899  -0.02714
 Alpha virt. eigenvalues --   -0.02358  -0.01951  -0.01171  -0.00779  -0.00671
 Alpha virt. eigenvalues --   -0.00180   0.00183   0.00362   0.00677   0.01211
 Alpha virt. eigenvalues --    0.01505   0.01723   0.01957   0.02380   0.02724
 Alpha virt. eigenvalues --    0.02811   0.03196   0.03320   0.03543   0.03586
 Alpha virt. eigenvalues --    0.04049   0.04175   0.04211   0.04422   0.04465
 Alpha virt. eigenvalues --    0.04764   0.04960   0.05416   0.05487   0.05711
 Alpha virt. eigenvalues --    0.05802   0.05926   0.06344   0.06837   0.07082
 Alpha virt. eigenvalues --    0.07404   0.07606   0.07689   0.07790   0.07940
 Alpha virt. eigenvalues --    0.08216   0.08671   0.08793   0.08899   0.09166
 Alpha virt. eigenvalues --    0.09411   0.09794   0.09989   0.10290   0.10624
 Alpha virt. eigenvalues --    0.10729   0.11105   0.11188   0.11441   0.11749
 Alpha virt. eigenvalues --    0.12206   0.12390   0.12806   0.12961   0.13046
 Alpha virt. eigenvalues --    0.13182   0.13322   0.13485   0.13742   0.14308
 Alpha virt. eigenvalues --    0.14395   0.14612   0.15239   0.15601   0.15980
 Alpha virt. eigenvalues --    0.16189   0.16725   0.16882   0.17096   0.17260
 Alpha virt. eigenvalues --    0.17543   0.17795   0.17870   0.17954   0.18397
 Alpha virt. eigenvalues --    0.18806   0.19030   0.19447   0.19680   0.19833
 Alpha virt. eigenvalues --    0.20242   0.20448   0.20835   0.20964   0.21233
 Alpha virt. eigenvalues --    0.21427   0.21538   0.21760   0.22166   0.22372
 Alpha virt. eigenvalues --    0.22623   0.22893   0.23448   0.23525   0.23865
 Alpha virt. eigenvalues --    0.23899   0.24060   0.24318   0.24812   0.25080
 Alpha virt. eigenvalues --    0.25161   0.25635   0.25647   0.25995   0.26370
 Alpha virt. eigenvalues --    0.26902   0.27228   0.27438   0.27535   0.27742
 Alpha virt. eigenvalues --    0.28093   0.28602   0.28881   0.29143   0.29407
 Alpha virt. eigenvalues --    0.29564   0.29715   0.30032   0.30255   0.30350
 Alpha virt. eigenvalues --    0.30630   0.30864   0.31057   0.31211   0.31538
 Alpha virt. eigenvalues --    0.31716   0.31972   0.32404   0.32535   0.32679
 Alpha virt. eigenvalues --    0.32833   0.33002   0.33197   0.33385   0.33643
 Alpha virt. eigenvalues --    0.33813   0.33933   0.34315   0.34824   0.34932
 Alpha virt. eigenvalues --    0.35391   0.35512   0.35692   0.35822   0.36197
 Alpha virt. eigenvalues --    0.36371   0.36645   0.37166   0.37413   0.37570
 Alpha virt. eigenvalues --    0.37743   0.37810   0.38170   0.38196   0.38428
 Alpha virt. eigenvalues --    0.38595   0.38849   0.39056   0.39365   0.39591
 Alpha virt. eigenvalues --    0.39878   0.40049   0.40399   0.40523   0.40606
 Alpha virt. eigenvalues --    0.40964   0.41141   0.41441   0.41690   0.41856
 Alpha virt. eigenvalues --    0.41956   0.42101   0.42380   0.42489   0.42836
 Alpha virt. eigenvalues --    0.42922   0.43193   0.43436   0.43765   0.43911
 Alpha virt. eigenvalues --    0.44190   0.44480   0.44669   0.44774   0.45107
 Alpha virt. eigenvalues --    0.45233   0.45545   0.45778   0.45963   0.46162
 Alpha virt. eigenvalues --    0.46399   0.46591   0.46801   0.47365   0.47663
 Alpha virt. eigenvalues --    0.47847   0.48136   0.48206   0.48373   0.48944
 Alpha virt. eigenvalues --    0.49090   0.49471   0.49858   0.50066   0.50213
 Alpha virt. eigenvalues --    0.50717   0.50801   0.51438   0.51566   0.51921
 Alpha virt. eigenvalues --    0.52194   0.52491   0.53059   0.53346   0.53476
 Alpha virt. eigenvalues --    0.53819   0.54228   0.54280   0.54667   0.55058
 Alpha virt. eigenvalues --    0.55190   0.55449   0.55781   0.56057   0.56319
 Alpha virt. eigenvalues --    0.56697   0.56799   0.57119   0.57370   0.57431
 Alpha virt. eigenvalues --    0.58019   0.58445   0.58769   0.59093   0.59408
 Alpha virt. eigenvalues --    0.59809   0.59996   0.60685   0.60907   0.61111
 Alpha virt. eigenvalues --    0.61529   0.61663   0.62256   0.62503   0.62713
 Alpha virt. eigenvalues --    0.62817   0.63055   0.63132   0.63787   0.63942
 Alpha virt. eigenvalues --    0.64256   0.65010   0.65143   0.65764   0.66052
 Alpha virt. eigenvalues --    0.66337   0.66712   0.67106   0.67413   0.67711
 Alpha virt. eigenvalues --    0.68011   0.68331   0.68609   0.69134   0.69427
 Alpha virt. eigenvalues --    0.69718   0.69883   0.70262   0.70753   0.71057
 Alpha virt. eigenvalues --    0.71633   0.71742   0.71918   0.72922   0.73095
 Alpha virt. eigenvalues --    0.73705   0.73889   0.73991   0.74486   0.74773
 Alpha virt. eigenvalues --    0.75217   0.75735   0.75998   0.76554   0.76944
 Alpha virt. eigenvalues --    0.77390   0.77488   0.78203   0.78486   0.78909
 Alpha virt. eigenvalues --    0.79318   0.79541   0.79782   0.80389   0.80865
 Alpha virt. eigenvalues --    0.81303   0.81508   0.81610   0.82102   0.82755
 Alpha virt. eigenvalues --    0.82977   0.83598   0.83668   0.83921   0.84581
 Alpha virt. eigenvalues --    0.85104   0.85340   0.85833   0.86078   0.86517
 Alpha virt. eigenvalues --    0.87017   0.87117   0.87565   0.87780   0.88285
 Alpha virt. eigenvalues --    0.88657   0.88948   0.89240   0.89338   0.90012
 Alpha virt. eigenvalues --    0.90364   0.90489   0.90864   0.91379   0.91625
 Alpha virt. eigenvalues --    0.91936   0.92234   0.92343   0.92602   0.92921
 Alpha virt. eigenvalues --    0.93119   0.93552   0.93755   0.94021   0.94386
 Alpha virt. eigenvalues --    0.94548   0.94754   0.94959   0.95194   0.95725
 Alpha virt. eigenvalues --    0.96010   0.96279   0.97027   0.97303   0.97536
 Alpha virt. eigenvalues --    0.97861   0.98561   0.99371   0.99781   1.00242
 Alpha virt. eigenvalues --    1.00282   1.00809   1.01058   1.01509   1.02217
 Alpha virt. eigenvalues --    1.02540   1.02862   1.03420   1.03842   1.04159
 Alpha virt. eigenvalues --    1.05480   1.05907   1.06238   1.06720   1.07245
 Alpha virt. eigenvalues --    1.07792   1.07951   1.08224   1.08444   1.08629
 Alpha virt. eigenvalues --    1.09272   1.09338   1.09863   1.10026   1.10504
 Alpha virt. eigenvalues --    1.10667   1.10838   1.11292   1.11962   1.12495
 Alpha virt. eigenvalues --    1.12685   1.12783   1.13094   1.14090   1.14517
 Alpha virt. eigenvalues --    1.14982   1.15808   1.16259   1.16430   1.16970
 Alpha virt. eigenvalues --    1.16985   1.17475   1.17961   1.18393   1.18645
 Alpha virt. eigenvalues --    1.19007   1.19402   1.19594   1.20029   1.20291
 Alpha virt. eigenvalues --    1.20421   1.21009   1.21415   1.21814   1.21995
 Alpha virt. eigenvalues --    1.22596   1.23058   1.23544   1.24395   1.24460
 Alpha virt. eigenvalues --    1.25638   1.26241   1.26681   1.27176   1.27714
 Alpha virt. eigenvalues --    1.27996   1.28567   1.28911   1.29362   1.30586
 Alpha virt. eigenvalues --    1.30933   1.31744   1.32436   1.32714   1.33154
 Alpha virt. eigenvalues --    1.33506   1.34200   1.34852   1.34982   1.35791
 Alpha virt. eigenvalues --    1.36115   1.36751   1.37162   1.37425   1.37973
 Alpha virt. eigenvalues --    1.38009   1.38343   1.38636   1.38778   1.39326
 Alpha virt. eigenvalues --    1.39472   1.39815   1.40188   1.40460   1.40927
 Alpha virt. eigenvalues --    1.41417   1.41607   1.42085   1.42247   1.42619
 Alpha virt. eigenvalues --    1.42892   1.43169   1.43237   1.43404   1.43562
 Alpha virt. eigenvalues --    1.43767   1.44105   1.44733   1.45005   1.45136
 Alpha virt. eigenvalues --    1.45304   1.45478   1.45625   1.46105   1.46373
 Alpha virt. eigenvalues --    1.46684   1.46993   1.47081   1.47378   1.47702
 Alpha virt. eigenvalues --    1.48077   1.48285   1.48446   1.48730   1.48919
 Alpha virt. eigenvalues --    1.49227   1.49413   1.49703   1.49860   1.50439
 Alpha virt. eigenvalues --    1.50860   1.51120   1.51513   1.51757   1.52032
 Alpha virt. eigenvalues --    1.52903   1.53010   1.53068   1.53309   1.53597
 Alpha virt. eigenvalues --    1.53884   1.54468   1.54556   1.54793   1.55231
 Alpha virt. eigenvalues --    1.55780   1.56060   1.56211   1.56797   1.57140
 Alpha virt. eigenvalues --    1.57271   1.57435   1.57534   1.58223   1.58345
 Alpha virt. eigenvalues --    1.58861   1.59112   1.59645   1.59870   1.60329
 Alpha virt. eigenvalues --    1.60416   1.60657   1.61177   1.61310   1.61719
 Alpha virt. eigenvalues --    1.62409   1.62833   1.63057   1.63723   1.64317
 Alpha virt. eigenvalues --    1.64507   1.64884   1.64994   1.66341   1.67140
 Alpha virt. eigenvalues --    1.67223   1.68284   1.68771   1.69537   1.69812
 Alpha virt. eigenvalues --    1.70509   1.71251   1.71965   1.72335   1.72586
 Alpha virt. eigenvalues --    1.73095   1.73578   1.73978   1.74392   1.74852
 Alpha virt. eigenvalues --    1.75205   1.75625   1.76045   1.76186   1.76395
 Alpha virt. eigenvalues --    1.77075   1.77273   1.77392   1.77704   1.78112
 Alpha virt. eigenvalues --    1.78494   1.79094   1.79156   1.79535   1.80558
 Alpha virt. eigenvalues --    1.81154   1.81433   1.82103   1.82666   1.82966
 Alpha virt. eigenvalues --    1.83614   1.84013   1.84651   1.85619   1.85704
 Alpha virt. eigenvalues --    1.86514   1.86903   1.87285   1.87630   1.87995
 Alpha virt. eigenvalues --    1.88372   1.88719   1.88888   1.89483   1.89563
 Alpha virt. eigenvalues --    1.89976   1.90178   1.91633   1.91755   1.91872
 Alpha virt. eigenvalues --    1.92492   1.93317   1.93434   1.93953   1.94184
 Alpha virt. eigenvalues --    1.94802   1.96177   1.96297   1.96727   1.96906
 Alpha virt. eigenvalues --    1.98364   1.98561   1.98721   1.99134   1.99370
 Alpha virt. eigenvalues --    1.99958   2.00603   2.00811   2.01279   2.01402
 Alpha virt. eigenvalues --    2.01997   2.02247   2.02500   2.03296   2.03579
 Alpha virt. eigenvalues --    2.04091   2.04310   2.04766   2.05074   2.05506
 Alpha virt. eigenvalues --    2.05671   2.07084   2.07444   2.07974   2.08461
 Alpha virt. eigenvalues --    2.08983   2.09224   2.09454   2.09934   2.10114
 Alpha virt. eigenvalues --    2.10463   2.10636   2.12152   2.12425   2.13211
 Alpha virt. eigenvalues --    2.13465   2.14267   2.14782   2.15430   2.15999
 Alpha virt. eigenvalues --    2.16128   2.16608   2.17238   2.17418   2.17619
 Alpha virt. eigenvalues --    2.17939   2.18472   2.18868   2.19083   2.20353
 Alpha virt. eigenvalues --    2.20564   2.20809   2.21432   2.21688   2.22157
 Alpha virt. eigenvalues --    2.22600   2.23310   2.23590   2.23786   2.24809
 Alpha virt. eigenvalues --    2.25654   2.25834   2.26204   2.26531   2.27043
 Alpha virt. eigenvalues --    2.27380   2.27852   2.28058   2.28132   2.28813
 Alpha virt. eigenvalues --    2.29076   2.29609   2.30043   2.30389   2.30622
 Alpha virt. eigenvalues --    2.30862   2.31531   2.31878   2.32250   2.32543
 Alpha virt. eigenvalues --    2.33320   2.33594   2.34070   2.34813   2.34982
 Alpha virt. eigenvalues --    2.35147   2.35612   2.36123   2.36536   2.36834
 Alpha virt. eigenvalues --    2.37719   2.37842   2.38089   2.38677   2.38994
 Alpha virt. eigenvalues --    2.39628   2.39785   2.40432   2.41128   2.42091
 Alpha virt. eigenvalues --    2.42311   2.42829   2.43278   2.43372   2.43675
 Alpha virt. eigenvalues --    2.44022   2.44619   2.45189   2.45451   2.45828
 Alpha virt. eigenvalues --    2.46358   2.46463   2.46738   2.47120   2.47475
 Alpha virt. eigenvalues --    2.47921   2.48139   2.48602   2.49192   2.49448
 Alpha virt. eigenvalues --    2.49755   2.50170   2.50492   2.50862   2.51142
 Alpha virt. eigenvalues --    2.51438   2.51610   2.52182   2.52487   2.53402
 Alpha virt. eigenvalues --    2.53954   2.54608   2.54813   2.55249   2.55392
 Alpha virt. eigenvalues --    2.55727   2.55867   2.56370   2.56828   2.57341
 Alpha virt. eigenvalues --    2.57734   2.57798   2.58428   2.59037   2.59223
 Alpha virt. eigenvalues --    2.59519   2.59786   2.60109   2.60401   2.60913
 Alpha virt. eigenvalues --    2.61496   2.61699   2.62034   2.62475   2.63317
 Alpha virt. eigenvalues --    2.63877   2.64266   2.64424   2.64934   2.65314
 Alpha virt. eigenvalues --    2.65783   2.65878   2.66371   2.66908   2.67754
 Alpha virt. eigenvalues --    2.67789   2.68092   2.68719   2.68922   2.69711
 Alpha virt. eigenvalues --    2.69951   2.70707   2.71292   2.71464   2.71782
 Alpha virt. eigenvalues --    2.72192   2.72827   2.73038   2.73536   2.74068
 Alpha virt. eigenvalues --    2.74430   2.75081   2.75282   2.75701   2.75946
 Alpha virt. eigenvalues --    2.76181   2.76589   2.76991   2.77574   2.78033
 Alpha virt. eigenvalues --    2.78408   2.78801   2.78838   2.79534   2.79743
 Alpha virt. eigenvalues --    2.80076   2.80374   2.80610   2.80889   2.81538
 Alpha virt. eigenvalues --    2.81805   2.82561   2.82783   2.83241   2.83787
 Alpha virt. eigenvalues --    2.84253   2.84437   2.84589   2.85048   2.85537
 Alpha virt. eigenvalues --    2.85774   2.86422   2.86496   2.86652   2.87218
 Alpha virt. eigenvalues --    2.87288   2.87380   2.87767   2.88331   2.88970
 Alpha virt. eigenvalues --    2.89059   2.89783   2.90026   2.90763   2.90997
 Alpha virt. eigenvalues --    2.91156   2.91346   2.91733   2.91958   2.92801
 Alpha virt. eigenvalues --    2.93110   2.93636   2.94170   2.94570   2.95067
 Alpha virt. eigenvalues --    2.95345   2.95596   2.96023   2.96145   2.96962
 Alpha virt. eigenvalues --    2.97087   2.97440   2.97795   2.98160   2.98233
 Alpha virt. eigenvalues --    2.98745   2.98843   2.99355   2.99857   3.00293
 Alpha virt. eigenvalues --    3.00692   3.01026   3.01274   3.01374   3.01803
 Alpha virt. eigenvalues --    3.01890   3.02210   3.02574   3.03041   3.03545
 Alpha virt. eigenvalues --    3.03765   3.03842   3.04133   3.04910   3.05481
 Alpha virt. eigenvalues --    3.05700   3.05835   3.05953   3.06657   3.06867
 Alpha virt. eigenvalues --    3.07269   3.07890   3.08334   3.08761   3.08917
 Alpha virt. eigenvalues --    3.09267   3.09463   3.09758   3.10011   3.10528
 Alpha virt. eigenvalues --    3.11046   3.11409   3.11637   3.11826   3.12135
 Alpha virt. eigenvalues --    3.12293   3.12886   3.13219   3.13549   3.13944
 Alpha virt. eigenvalues --    3.14380   3.14585   3.14784   3.14828   3.15120
 Alpha virt. eigenvalues --    3.15691   3.15860   3.16109   3.16431   3.16518
 Alpha virt. eigenvalues --    3.16760   3.16901   3.17275   3.17664   3.17993
 Alpha virt. eigenvalues --    3.18383   3.18915   3.19077   3.19305   3.19425
 Alpha virt. eigenvalues --    3.19800   3.20058   3.20455   3.20628   3.20868
 Alpha virt. eigenvalues --    3.21092   3.21313   3.21663   3.21731   3.22174
 Alpha virt. eigenvalues --    3.22709   3.22915   3.23301   3.23515   3.23891
 Alpha virt. eigenvalues --    3.23939   3.24383   3.24520   3.24983   3.25019
 Alpha virt. eigenvalues --    3.25108   3.25678   3.25905   3.26205   3.26300
 Alpha virt. eigenvalues --    3.26390   3.27325   3.27465   3.27837   3.27903
 Alpha virt. eigenvalues --    3.28127   3.28689   3.28779   3.28929   3.29059
 Alpha virt. eigenvalues --    3.29213   3.29845   3.30142   3.30579   3.30731
 Alpha virt. eigenvalues --    3.31318   3.31723   3.31976   3.32530   3.32971
 Alpha virt. eigenvalues --    3.33143   3.33625   3.33851   3.34541   3.34735
 Alpha virt. eigenvalues --    3.35097   3.35496   3.35929   3.36570   3.36923
 Alpha virt. eigenvalues --    3.37138   3.37392   3.38525   3.38721   3.39105
 Alpha virt. eigenvalues --    3.39792   3.40119   3.40603   3.40962   3.42130
 Alpha virt. eigenvalues --    3.42388   3.42899   3.42909   3.43409   3.43762
 Alpha virt. eigenvalues --    3.44010   3.44481   3.45068   3.45193   3.45706
 Alpha virt. eigenvalues --    3.46140   3.46701   3.47298   3.47641   3.48078
 Alpha virt. eigenvalues --    3.48707   3.49097   3.49466   3.49694   3.50068
 Alpha virt. eigenvalues --    3.50445   3.51421   3.51897   3.52184   3.52752
 Alpha virt. eigenvalues --    3.53271   3.54045   3.54716   3.55014   3.55507
 Alpha virt. eigenvalues --    3.55718   3.56223   3.56749   3.57117   3.57628
 Alpha virt. eigenvalues --    3.58117   3.58660   3.59131   3.59656   3.59975
 Alpha virt. eigenvalues --    3.60462   3.61023   3.61124   3.61430   3.62265
 Alpha virt. eigenvalues --    3.62331   3.62845   3.63248   3.63941   3.64081
 Alpha virt. eigenvalues --    3.64325   3.64545   3.64741   3.65342   3.65674
 Alpha virt. eigenvalues --    3.66208   3.66665   3.67262   3.67463   3.68150
 Alpha virt. eigenvalues --    3.69048   3.69575   3.70259   3.70310   3.70939
 Alpha virt. eigenvalues --    3.71190   3.72161   3.72242   3.73300   3.74095
 Alpha virt. eigenvalues --    3.74231   3.74657   3.75900   3.76330   3.76753
 Alpha virt. eigenvalues --    3.77235   3.78005   3.78484   3.79473   3.79946
 Alpha virt. eigenvalues --    3.80011   3.80319   3.80408   3.81379   3.81649
 Alpha virt. eigenvalues --    3.81943   3.82688   3.83105   3.83889   3.84348
 Alpha virt. eigenvalues --    3.84932   3.86055   3.86687   3.87019   3.87737
 Alpha virt. eigenvalues --    3.88282   3.88630   3.88998   3.89666   3.89901
 Alpha virt. eigenvalues --    3.90477   3.90764   3.91064   3.91783   3.92482
 Alpha virt. eigenvalues --    3.93063   3.94041   3.94590   3.94803   3.95503
 Alpha virt. eigenvalues --    3.97051   3.97542   3.97971   3.98554   3.98975
 Alpha virt. eigenvalues --    3.99551   4.00354   4.00548   4.01232   4.02348
 Alpha virt. eigenvalues --    4.02847   4.03170   4.03998   4.04943   4.05375
 Alpha virt. eigenvalues --    4.05482   4.05969   4.06875   4.07638   4.08234
 Alpha virt. eigenvalues --    4.08614   4.09150   4.09445   4.10563   4.10586
 Alpha virt. eigenvalues --    4.11168   4.11566   4.11902   4.12532   4.13138
 Alpha virt. eigenvalues --    4.13335   4.13711   4.14371   4.15803   4.16228
 Alpha virt. eigenvalues --    4.16304   4.17267   4.18924   4.19186   4.20035
 Alpha virt. eigenvalues --    4.20759   4.21437   4.21963   4.22846   4.23061
 Alpha virt. eigenvalues --    4.23155   4.24031   4.24413   4.24763   4.25537
 Alpha virt. eigenvalues --    4.26155   4.26936   4.28499   4.29427   4.29692
 Alpha virt. eigenvalues --    4.30208   4.30402   4.31166   4.31248   4.31904
 Alpha virt. eigenvalues --    4.32153   4.32651   4.32882   4.33651   4.34088
 Alpha virt. eigenvalues --    4.34832   4.35010   4.35395   4.36101   4.36245
 Alpha virt. eigenvalues --    4.37388   4.37805   4.38431   4.39839   4.40548
 Alpha virt. eigenvalues --    4.41439   4.41758   4.43003   4.44123   4.44746
 Alpha virt. eigenvalues --    4.45585   4.46087   4.47020   4.47886   4.48439
 Alpha virt. eigenvalues --    4.48785   4.51451   4.51997   4.53101   4.53509
 Alpha virt. eigenvalues --    4.54806   4.55299   4.57748   4.58152   4.58533
 Alpha virt. eigenvalues --    4.59103   4.59278   4.60589   4.60990   4.61520
 Alpha virt. eigenvalues --    4.62054   4.63480   4.63566   4.64677   4.65024
 Alpha virt. eigenvalues --    4.66117   4.67045   4.68280   4.69201   4.70467
 Alpha virt. eigenvalues --    4.70833   4.72102   4.72671   4.73234   4.73682
 Alpha virt. eigenvalues --    4.74081   4.74466   4.74555   4.75134   4.76187
 Alpha virt. eigenvalues --    4.76756   4.77859   4.79049   4.79096   4.79887
 Alpha virt. eigenvalues --    4.81074   4.81823   4.82961   4.83319   4.83676
 Alpha virt. eigenvalues --    4.84627   4.84890   4.86257   4.87331   4.88759
 Alpha virt. eigenvalues --    4.89412   4.90616   4.91115   4.91188   4.91822
 Alpha virt. eigenvalues --    4.93083   4.93380   4.95203   4.95703   4.96511
 Alpha virt. eigenvalues --    4.97164   4.97406   4.98858   4.99186   5.00213
 Alpha virt. eigenvalues --    5.02908   5.03618   5.04541   5.07275   5.07883
 Alpha virt. eigenvalues --    5.08490   5.09178   5.09544   5.10392   5.11355
 Alpha virt. eigenvalues --    5.12308   5.12820   5.14384   5.15177   5.16250
 Alpha virt. eigenvalues --    5.17905   5.18155   5.18808   5.21296   5.24140
 Alpha virt. eigenvalues --    5.25184   5.25515   5.26827   5.27199   5.27726
 Alpha virt. eigenvalues --    5.27954   5.28718   5.29448   5.29995   5.31659
 Alpha virt. eigenvalues --    5.32110   5.33076   5.35547   5.37285   5.38390
 Alpha virt. eigenvalues --    5.38953   5.39178   5.40722   5.40945   5.41303
 Alpha virt. eigenvalues --    5.44447   5.45148   5.48884   5.50419   5.51001
 Alpha virt. eigenvalues --    5.51326   5.52523   5.53190   5.53581   5.54730
 Alpha virt. eigenvalues --    5.56196   5.56822   5.58019   5.59172   5.62898
 Alpha virt. eigenvalues --    5.65832   5.66341   5.67004   5.70049   5.71676
 Alpha virt. eigenvalues --    5.78653   5.80852   5.81519   5.83498   5.84949
 Alpha virt. eigenvalues --    5.90172   5.91455   5.91527   5.97886   5.99456
 Alpha virt. eigenvalues --    6.00420   6.01313   6.02390   6.06032   6.07697
 Alpha virt. eigenvalues --    6.12345   6.15681   6.22905   6.24075   6.30217
 Alpha virt. eigenvalues --    6.35126   6.39393   6.41659   6.55250   6.84891
 Alpha virt. eigenvalues --    7.15909  22.27079  22.27464  22.35203  22.36811
 Alpha virt. eigenvalues --   22.37682  22.43569  22.44073  22.53453  22.53968
 Alpha virt. eigenvalues --   22.67096  22.75720  22.78249  22.80997  22.83902
 Alpha virt. eigenvalues --   22.84550  22.85732  22.87244  22.93775  22.94474
 Alpha virt. eigenvalues --   22.97977  23.05606  23.16683  23.17990  23.20515
 Alpha virt. eigenvalues --   23.21025  23.30827  23.31430  23.40322  23.40969
 Alpha virt. eigenvalues --   23.45507  23.63907  23.68880  23.69508  23.79024
 Alpha virt. eigenvalues --   32.30063  32.64175  32.79251  32.86349  32.92990
 Alpha virt. eigenvalues --   33.01959  43.95358
  Beta  occ. eigenvalues -- -256.42240 -30.23628 -26.08248 -26.08115 -26.08093
  Beta  occ. eigenvalues --  -19.29078 -14.52637 -14.47481 -14.44802 -14.44575
  Beta  occ. eigenvalues --  -14.44461 -14.44384 -10.37192 -10.34419 -10.32857
  Beta  occ. eigenvalues --  -10.32716 -10.32709 -10.32659 -10.32577 -10.32503
  Beta  occ. eigenvalues --  -10.32501 -10.32474 -10.31877 -10.29990 -10.29978
  Beta  occ. eigenvalues --  -10.29731 -10.29672 -10.29663 -10.29633 -10.29597
  Beta  occ. eigenvalues --  -10.29555 -10.29532 -10.29480 -10.29470 -10.29447
  Beta  occ. eigenvalues --  -10.29424 -10.28874 -10.28805 -10.28060 -10.27964
  Beta  occ. eigenvalues --  -10.27941 -10.27833 -10.27785 -10.27589 -10.27543
  Beta  occ. eigenvalues --  -10.27476  -3.55823  -2.31088  -2.30746  -2.30678
  Beta  occ. eigenvalues --   -1.16981  -1.16440  -1.08708  -1.07788  -1.07561
  Beta  occ. eigenvalues --   -1.06666  -1.02225  -0.93539  -0.92272  -0.91951
  Beta  occ. eigenvalues --   -0.91403  -0.91044  -0.90726  -0.90613  -0.90465
  Beta  occ. eigenvalues --   -0.86798  -0.85602  -0.85253  -0.84355  -0.83004
  Beta  occ. eigenvalues --   -0.82015  -0.81240  -0.80238  -0.78570  -0.78347
  Beta  occ. eigenvalues --   -0.78131  -0.75647  -0.75155  -0.75076  -0.72554
  Beta  occ. eigenvalues --   -0.72218  -0.70725  -0.70107  -0.68902  -0.68038
  Beta  occ. eigenvalues --   -0.66800  -0.65140  -0.64444  -0.63669  -0.63436
  Beta  occ. eigenvalues --   -0.61889  -0.61826  -0.61406  -0.59304  -0.58827
  Beta  occ. eigenvalues --   -0.58421  -0.58218  -0.57979  -0.56151  -0.55383
  Beta  occ. eigenvalues --   -0.54912  -0.54579  -0.54464  -0.54114  -0.53858
  Beta  occ. eigenvalues --   -0.53584  -0.53422  -0.53274  -0.53150  -0.52806
  Beta  occ. eigenvalues --   -0.52725  -0.52231  -0.52121  -0.51996  -0.51353
  Beta  occ. eigenvalues --   -0.50766  -0.50667  -0.50414  -0.50318  -0.50205
  Beta  occ. eigenvalues --   -0.49830  -0.49674  -0.49613  -0.49356  -0.49154
  Beta  occ. eigenvalues --   -0.48641  -0.48284  -0.48009  -0.47710  -0.47635
  Beta  occ. eigenvalues --   -0.47203  -0.47075  -0.46673  -0.46131  -0.45807
  Beta  occ. eigenvalues --   -0.45742  -0.44936  -0.44450  -0.43724  -0.43363
  Beta  occ. eigenvalues --   -0.42947  -0.42604  -0.41815  -0.40981  -0.39928
  Beta  occ. eigenvalues --   -0.39434  -0.37853  -0.37579  -0.35035  -0.34389
  Beta  occ. eigenvalues --   -0.33599  -0.32936  -0.32326  -0.29857  -0.28898
  Beta virt. eigenvalues --   -0.21108  -0.20935  -0.19570  -0.16707  -0.16626
  Beta virt. eigenvalues --   -0.14276  -0.12084  -0.11460  -0.09266  -0.08935
  Beta virt. eigenvalues --   -0.07699  -0.07351  -0.05913  -0.05626  -0.05212
  Beta virt. eigenvalues --   -0.04533  -0.03553  -0.03239  -0.02872  -0.02344
  Beta virt. eigenvalues --   -0.01984  -0.01918  -0.01111  -0.00717  -0.00557
  Beta virt. eigenvalues --   -0.00135   0.00228   0.00419   0.00725   0.01253
  Beta virt. eigenvalues --    0.01527   0.01756   0.02033   0.02498   0.02760
  Beta virt. eigenvalues --    0.02852   0.03344   0.03473   0.03621   0.03672
  Beta virt. eigenvalues --    0.04089   0.04251   0.04283   0.04463   0.04524
  Beta virt. eigenvalues --    0.04795   0.05066   0.05476   0.05585   0.05742
  Beta virt. eigenvalues --    0.05878   0.05994   0.06380   0.06904   0.07111
  Beta virt. eigenvalues --    0.07445   0.07674   0.07741   0.07871   0.07993
  Beta virt. eigenvalues --    0.08293   0.08766   0.08849   0.08995   0.09315
  Beta virt. eigenvalues --    0.09474   0.09868   0.10116   0.10458   0.10670
  Beta virt. eigenvalues --    0.10776   0.11147   0.11273   0.11549   0.11854
  Beta virt. eigenvalues --    0.12302   0.12542   0.12902   0.13028   0.13268
  Beta virt. eigenvalues --    0.13332   0.13399   0.13828   0.14279   0.14529
  Beta virt. eigenvalues --    0.14648   0.14895   0.15445   0.15836   0.16194
  Beta virt. eigenvalues --    0.16663   0.16897   0.16954   0.17186   0.17450
  Beta virt. eigenvalues --    0.17617   0.17897   0.18026   0.18140   0.18829
  Beta virt. eigenvalues --    0.19145   0.19311   0.19642   0.19841   0.20077
  Beta virt. eigenvalues --    0.20363   0.20556   0.21022   0.21129   0.21360
  Beta virt. eigenvalues --    0.21585   0.21905   0.21933   0.22498   0.22588
  Beta virt. eigenvalues --    0.22861   0.23077   0.23567   0.23923   0.23951
  Beta virt. eigenvalues --    0.24068   0.24271   0.24530   0.24910   0.25185
  Beta virt. eigenvalues --    0.25366   0.25784   0.25981   0.26201   0.26481
  Beta virt. eigenvalues --    0.27019   0.27396   0.27618   0.27734   0.28023
  Beta virt. eigenvalues --    0.28233   0.28735   0.29009   0.29304   0.29528
  Beta virt. eigenvalues --    0.29634   0.29893   0.30259   0.30433   0.30631
  Beta virt. eigenvalues --    0.30861   0.30980   0.31180   0.31416   0.31656
  Beta virt. eigenvalues --    0.31819   0.32107   0.32508   0.32744   0.32816
  Beta virt. eigenvalues --    0.32984   0.33278   0.33517   0.33607   0.33800
  Beta virt. eigenvalues --    0.33911   0.34362   0.34513   0.34962   0.35148
  Beta virt. eigenvalues --    0.35494   0.35621   0.35803   0.35921   0.36270
  Beta virt. eigenvalues --    0.36493   0.36735   0.37241   0.37502   0.37691
  Beta virt. eigenvalues --    0.37825   0.38025   0.38250   0.38371   0.38549
  Beta virt. eigenvalues --    0.38664   0.38938   0.39136   0.39453   0.39676
  Beta virt. eigenvalues --    0.39975   0.40128   0.40472   0.40622   0.40660
  Beta virt. eigenvalues --    0.41071   0.41291   0.41587   0.41789   0.41985
  Beta virt. eigenvalues --    0.42051   0.42218   0.42506   0.42574   0.42934
  Beta virt. eigenvalues --    0.43037   0.43323   0.43520   0.43839   0.44047
  Beta virt. eigenvalues --    0.44286   0.44737   0.44897   0.44961   0.45180
  Beta virt. eigenvalues --    0.45370   0.45717   0.45963   0.46170   0.46276
  Beta virt. eigenvalues --    0.46477   0.46718   0.46888   0.47433   0.47744
  Beta virt. eigenvalues --    0.47920   0.48229   0.48303   0.48488   0.49111
  Beta virt. eigenvalues --    0.49252   0.49634   0.49990   0.50190   0.50368
  Beta virt. eigenvalues --    0.50815   0.51008   0.51636   0.51659   0.52142
  Beta virt. eigenvalues --    0.52306   0.52596   0.53199   0.53437   0.53623
  Beta virt. eigenvalues --    0.53984   0.54315   0.54481   0.54770   0.55268
  Beta virt. eigenvalues --    0.55353   0.55630   0.55946   0.56208   0.56421
  Beta virt. eigenvalues --    0.56793   0.56916   0.57222   0.57510   0.57624
  Beta virt. eigenvalues --    0.58245   0.58627   0.58964   0.59281   0.59614
  Beta virt. eigenvalues --    0.60042   0.60090   0.60857   0.61206   0.61354
  Beta virt. eigenvalues --    0.61781   0.61880   0.62459   0.62629   0.62788
  Beta virt. eigenvalues --    0.63015   0.63175   0.63366   0.64014   0.64104
  Beta virt. eigenvalues --    0.64389   0.65183   0.65264   0.65906   0.66234
  Beta virt. eigenvalues --    0.66452   0.66872   0.67199   0.67561   0.67924
  Beta virt. eigenvalues --    0.68069   0.68419   0.68698   0.69242   0.69561
  Beta virt. eigenvalues --    0.69798   0.70121   0.70377   0.70873   0.71152
  Beta virt. eigenvalues --    0.71707   0.71902   0.72052   0.73065   0.73231
  Beta virt. eigenvalues --    0.73907   0.73987   0.74093   0.74542   0.74887
  Beta virt. eigenvalues --    0.75372   0.75830   0.76159   0.76785   0.77046
  Beta virt. eigenvalues --    0.77574   0.77700   0.78403   0.78634   0.79054
  Beta virt. eigenvalues --    0.79432   0.79776   0.79973   0.80459   0.80948
  Beta virt. eigenvalues --    0.81512   0.81622   0.81835   0.82268   0.82974
  Beta virt. eigenvalues --    0.83094   0.83769   0.83922   0.84062   0.84908
  Beta virt. eigenvalues --    0.85226   0.85422   0.85997   0.86258   0.86644
  Beta virt. eigenvalues --    0.87075   0.87193   0.87675   0.87998   0.88500
  Beta virt. eigenvalues --    0.88823   0.89098   0.89411   0.89485   0.90186
  Beta virt. eigenvalues --    0.90558   0.90796   0.91053   0.91529   0.91818
  Beta virt. eigenvalues --    0.92211   0.92417   0.92649   0.92809   0.93076
  Beta virt. eigenvalues --    0.93300   0.93658   0.93927   0.94158   0.94502
  Beta virt. eigenvalues --    0.94629   0.95067   0.95218   0.95466   0.95978
  Beta virt. eigenvalues --    0.96225   0.96565   0.97464   0.97626   0.97928
  Beta virt. eigenvalues --    0.98147   0.98752   0.99767   1.00201   1.00338
  Beta virt. eigenvalues --    1.00632   1.01125   1.01421   1.01814   1.02534
  Beta virt. eigenvalues --    1.02888   1.03239   1.03592   1.04233   1.04385
  Beta virt. eigenvalues --    1.05797   1.06126   1.06426   1.06852   1.07548
  Beta virt. eigenvalues --    1.07955   1.08048   1.08422   1.08606   1.08771
  Beta virt. eigenvalues --    1.09424   1.09695   1.10001   1.10335   1.10634
  Beta virt. eigenvalues --    1.10898   1.11059   1.11686   1.12153   1.12794
  Beta virt. eigenvalues --    1.13026   1.13158   1.13397   1.14574   1.14795
  Beta virt. eigenvalues --    1.15230   1.16043   1.16505   1.16789   1.17111
  Beta virt. eigenvalues --    1.17204   1.17767   1.18215   1.18760   1.18852
  Beta virt. eigenvalues --    1.19202   1.19623   1.19857   1.20239   1.20572
  Beta virt. eigenvalues --    1.20664   1.21212   1.21591   1.21940   1.22224
  Beta virt. eigenvalues --    1.22796   1.23293   1.23826   1.24565   1.24812
  Beta virt. eigenvalues --    1.25930   1.26432   1.26840   1.27386   1.27919
  Beta virt. eigenvalues --    1.28266   1.28838   1.29108   1.29502   1.30829
  Beta virt. eigenvalues --    1.31057   1.31952   1.32633   1.32863   1.33244
  Beta virt. eigenvalues --    1.33689   1.34364   1.35157   1.35402   1.35984
  Beta virt. eigenvalues --    1.36362   1.36913   1.37271   1.37652   1.38130
  Beta virt. eigenvalues --    1.38265   1.38527   1.38761   1.38940   1.39521
  Beta virt. eigenvalues --    1.39730   1.39933   1.40287   1.40598   1.41067
  Beta virt. eigenvalues --    1.41543   1.41700   1.42239   1.42549   1.42818
  Beta virt. eigenvalues --    1.43055   1.43336   1.43384   1.43619   1.43838
  Beta virt. eigenvalues --    1.44063   1.44306   1.45049   1.45197   1.45265
  Beta virt. eigenvalues --    1.45449   1.45616   1.45781   1.46171   1.46460
  Beta virt. eigenvalues --    1.46867   1.47108   1.47174   1.47504   1.47812
  Beta virt. eigenvalues --    1.48149   1.48379   1.48540   1.48851   1.49036
  Beta virt. eigenvalues --    1.49307   1.49553   1.49785   1.49946   1.50529
  Beta virt. eigenvalues --    1.50947   1.51242   1.51639   1.51865   1.52150
  Beta virt. eigenvalues --    1.53003   1.53133   1.53190   1.53445   1.53687
  Beta virt. eigenvalues --    1.53992   1.54551   1.54638   1.54876   1.55326
  Beta virt. eigenvalues --    1.55904   1.56147   1.56315   1.56889   1.57291
  Beta virt. eigenvalues --    1.57337   1.57553   1.57626   1.58400   1.58464
  Beta virt. eigenvalues --    1.58983   1.59318   1.59785   1.60005   1.60392
  Beta virt. eigenvalues --    1.60545   1.60845   1.61304   1.61427   1.61791
  Beta virt. eigenvalues --    1.62541   1.62891   1.63185   1.63801   1.64530
  Beta virt. eigenvalues --    1.64646   1.65020   1.65314   1.66433   1.67253
  Beta virt. eigenvalues --    1.67350   1.68429   1.68891   1.69610   1.69988
  Beta virt. eigenvalues --    1.70603   1.71341   1.72118   1.72453   1.72674
  Beta virt. eigenvalues --    1.73341   1.73727   1.74045   1.74500   1.75003
  Beta virt. eigenvalues --    1.75315   1.75781   1.76208   1.76267   1.76549
  Beta virt. eigenvalues --    1.77196   1.77392   1.77532   1.77882   1.78217
  Beta virt. eigenvalues --    1.78616   1.79201   1.79277   1.79713   1.80682
  Beta virt. eigenvalues --    1.81360   1.81559   1.82524   1.82875   1.83513
  Beta virt. eigenvalues --    1.83888   1.84292   1.84863   1.85783   1.85859
  Beta virt. eigenvalues --    1.86601   1.87035   1.87762   1.87888   1.88226
  Beta virt. eigenvalues --    1.88532   1.88814   1.89172   1.89595   1.89676
  Beta virt. eigenvalues --    1.90140   1.90400   1.91746   1.91880   1.92016
  Beta virt. eigenvalues --    1.92725   1.93568   1.93608   1.94266   1.94865
  Beta virt. eigenvalues --    1.95103   1.96295   1.96624   1.96967   1.97177
  Beta virt. eigenvalues --    1.98573   1.98753   1.98860   1.99237   1.99555
  Beta virt. eigenvalues --    2.00034   2.00747   2.01002   2.01398   2.01934
  Beta virt. eigenvalues --    2.02252   2.02483   2.02742   2.03566   2.03735
  Beta virt. eigenvalues --    2.04314   2.04762   2.04959   2.05372   2.05735
  Beta virt. eigenvalues --    2.05983   2.07203   2.07591   2.08189   2.08580
  Beta virt. eigenvalues --    2.09127   2.09379   2.09744   2.10049   2.10288
  Beta virt. eigenvalues --    2.10607   2.10948   2.12277   2.12632   2.13377
  Beta virt. eigenvalues --    2.13805   2.14439   2.14936   2.15543   2.16056
  Beta virt. eigenvalues --    2.16295   2.16761   2.17435   2.17505   2.17897
  Beta virt. eigenvalues --    2.18155   2.18545   2.19035   2.19167   2.20532
  Beta virt. eigenvalues --    2.20646   2.21399   2.21622   2.21793   2.22404
  Beta virt. eigenvalues --    2.22751   2.23539   2.23722   2.23867   2.24917
  Beta virt. eigenvalues --    2.25733   2.25910   2.26273   2.26702   2.27215
  Beta virt. eigenvalues --    2.27486   2.27998   2.28156   2.28190   2.28963
  Beta virt. eigenvalues --    2.29334   2.29758   2.30180   2.30539   2.30759
  Beta virt. eigenvalues --    2.31043   2.31729   2.32136   2.32467   2.32820
  Beta virt. eigenvalues --    2.33595   2.33802   2.34556   2.34956   2.35364
  Beta virt. eigenvalues --    2.35617   2.35767   2.36426   2.36674   2.37133
  Beta virt. eigenvalues --    2.37911   2.38048   2.38379   2.39023   2.39352
  Beta virt. eigenvalues --    2.39912   2.40010   2.40623   2.41571   2.42358
  Beta virt. eigenvalues --    2.42743   2.43030   2.43467   2.43726   2.43781
  Beta virt. eigenvalues --    2.44130   2.44855   2.45524   2.45680   2.46038
  Beta virt. eigenvalues --    2.46458   2.46547   2.46920   2.47328   2.47605
  Beta virt. eigenvalues --    2.48054   2.48287   2.48771   2.49421   2.49754
  Beta virt. eigenvalues --    2.50040   2.50285   2.50749   2.50992   2.51218
  Beta virt. eigenvalues --    2.51645   2.51787   2.52461   2.52640   2.53568
  Beta virt. eigenvalues --    2.54161   2.54725   2.54973   2.55520   2.55793
  Beta virt. eigenvalues --    2.55921   2.56025   2.56592   2.56983   2.57511
  Beta virt. eigenvalues --    2.57862   2.57944   2.58604   2.59151   2.59390
  Beta virt. eigenvalues --    2.59692   2.59946   2.60234   2.60513   2.61108
  Beta virt. eigenvalues --    2.61747   2.61846   2.62219   2.62743   2.63524
  Beta virt. eigenvalues --    2.64210   2.64421   2.64654   2.65292   2.65697
  Beta virt. eigenvalues --    2.65943   2.66200   2.66506   2.67046   2.67867
  Beta virt. eigenvalues --    2.67940   2.68292   2.68885   2.69144   2.69897
  Beta virt. eigenvalues --    2.70042   2.70856   2.71621   2.71708   2.71965
  Beta virt. eigenvalues --    2.72642   2.73043   2.73135   2.73611   2.74250
  Beta virt. eigenvalues --    2.74545   2.75251   2.75420   2.75856   2.76154
  Beta virt. eigenvalues --    2.76349   2.76874   2.77245   2.77698   2.78242
  Beta virt. eigenvalues --    2.78697   2.78997   2.79379   2.79698   2.79947
  Beta virt. eigenvalues --    2.80496   2.80507   2.80811   2.81259   2.81704
  Beta virt. eigenvalues --    2.81941   2.82673   2.83175   2.83439   2.84168
  Beta virt. eigenvalues --    2.84361   2.84716   2.84782   2.85158   2.85665
  Beta virt. eigenvalues --    2.85971   2.86504   2.86624   2.87058   2.87333
  Beta virt. eigenvalues --    2.87387   2.87757   2.88053   2.88514   2.89071
  Beta virt. eigenvalues --    2.89223   2.90055   2.90240   2.90936   2.91215
  Beta virt. eigenvalues --    2.91460   2.91497   2.91861   2.92129   2.93087
  Beta virt. eigenvalues --    2.93447   2.93775   2.94308   2.94747   2.95207
  Beta virt. eigenvalues --    2.95565   2.95676   2.96234   2.96271   2.97078
  Beta virt. eigenvalues --    2.97237   2.97539   2.97934   2.98239   2.98473
  Beta virt. eigenvalues --    2.98927   2.99025   2.99440   2.99950   3.00417
  Beta virt. eigenvalues --    3.00847   3.01112   3.01392   3.01540   3.01909
  Beta virt. eigenvalues --    3.01967   3.02390   3.02743   3.03152   3.03638
  Beta virt. eigenvalues --    3.03889   3.03925   3.04250   3.05007   3.05587
  Beta virt. eigenvalues --    3.05888   3.05942   3.06099   3.06758   3.06995
  Beta virt. eigenvalues --    3.07365   3.08024   3.08436   3.08865   3.09046
  Beta virt. eigenvalues --    3.09419   3.09591   3.09886   3.10132   3.10642
  Beta virt. eigenvalues --    3.11148   3.11494   3.11748   3.11928   3.12274
  Beta virt. eigenvalues --    3.12410   3.13015   3.13342   3.13704   3.14059
  Beta virt. eigenvalues --    3.14463   3.14809   3.14927   3.14944   3.15214
  Beta virt. eigenvalues --    3.15804   3.15979   3.16231   3.16593   3.16659
  Beta virt. eigenvalues --    3.16902   3.17027   3.17456   3.17872   3.18113
  Beta virt. eigenvalues --    3.18491   3.19026   3.19141   3.19426   3.19522
  Beta virt. eigenvalues --    3.19877   3.20164   3.20547   3.20760   3.20986
  Beta virt. eigenvalues --    3.21149   3.21373   3.21790   3.21863   3.22263
  Beta virt. eigenvalues --    3.22880   3.23032   3.23364   3.23687   3.24033
  Beta virt. eigenvalues --    3.24067   3.24525   3.24656   3.25096   3.25160
  Beta virt. eigenvalues --    3.25281   3.25769   3.26040   3.26326   3.26523
  Beta virt. eigenvalues --    3.26565   3.27417   3.27576   3.27954   3.28043
  Beta virt. eigenvalues --    3.28231   3.28818   3.28883   3.29055   3.29181
  Beta virt. eigenvalues --    3.29581   3.29940   3.30424   3.30773   3.30909
  Beta virt. eigenvalues --    3.31416   3.31851   3.32108   3.32666   3.33136
  Beta virt. eigenvalues --    3.33324   3.33778   3.34332   3.34718   3.34990
  Beta virt. eigenvalues --    3.35268   3.35832   3.36131   3.36657   3.37129
  Beta virt. eigenvalues --    3.37381   3.37874   3.38645   3.39002   3.39375
  Beta virt. eigenvalues --    3.39996   3.40240   3.40753   3.41174   3.42266
  Beta virt. eigenvalues --    3.42546   3.43234   3.43365   3.43748   3.43980
  Beta virt. eigenvalues --    3.44298   3.44712   3.45362   3.45600   3.45951
  Beta virt. eigenvalues --    3.46482   3.46983   3.47472   3.47823   3.48674
  Beta virt. eigenvalues --    3.49033   3.49207   3.49717   3.50042   3.50449
  Beta virt. eigenvalues --    3.50981   3.51584   3.52183   3.52663   3.53073
  Beta virt. eigenvalues --    3.53592   3.54659   3.54973   3.55260   3.55868
  Beta virt. eigenvalues --    3.56235   3.56549   3.57240   3.57375   3.58070
  Beta virt. eigenvalues --    3.58556   3.58936   3.59478   3.59900   3.60519
[...]
  1443. BD*(   1) N   4 - C  17          0.01351     0.40055   
  1444. BD*(   1) N   5 - C  18          0.01384     0.40115   
  1445. BD*(   2) N   5 - C  18          0.32500    -0.09544  1481(v),1476(v),1439(r)
                                                    151(v),604(g),267(g),153(v)
                                                    797(v),152(v),603(g),1514(r)
  1446. BD*(   1) N   5 - C  21          0.01388     0.40261   
  1447. BD*(   1) C   6 - C   7          0.01771     0.37587   
  1448. BD*(   1) C   6 - C  22          0.01027     0.46624   
  1449. BD*(   1) C   7 - C   8          0.01163     0.49582   
  1450. BD*(   2) C   7 - C   8          0.11873    -0.03107  1455(v),1436(v),1488(v)
                                                    1490(v),1486(v),1489(v)
  1451. BD*(   1) C   7 - C  34          0.00831     0.31471   
  1452. BD*(   1) C   8 - C   9          0.01725     0.38427   
  1453. BD*(   1) C   8 - C  30          0.00810     0.31921   
  1454. BD*(   1) C   9 - C  24          0.00999     0.47273   
  1455. BD*(   2) C   9 - C  24          0.19119    -0.05626  1439(v),1450(v),1436(v)
                                                    736(g),1464(r),372(g)
                                                    1481(r)
  1456. BD*(   1) C  10 - C  11          0.01678     0.39284   
  1457. BD*(   1) C  10 - C  24          0.01018     0.46699   
  1458. BD*(   1) C  11 - C  12          0.01253     0.49322   
  1459. BD*(   2) C  11 - C  12          0.13636    -0.03331  1497(v),1464(v),1439(v)
                                                    1493(v),1492(v)
  1460. BD*(   1) C  11 - C  38          0.00767     0.32273   
  1461. BD*(   1) C  12 - C  13          0.01712     0.38203   
  1462. BD*(   1) C  12 - C  42          0.01326     0.40140   
  1463. BD*(   1) C  13 - C  26          0.01018     0.46255   
  1464. BD*(   2) C  13 - C  26          0.19716    -0.05913  1442(v),1459(v),1439(v)
                                                    767(g),1455(r)
  1465. BD*(   1) C  14 - C  15          0.01700     0.41692   
  1466. BD*(   1) C  14 - C  26          0.01056     0.45785   
  1467. BD*(   1) C  15 - C  16          0.01258     0.48853   
  1468. BD*(   2) C  15 - C  16          0.14052    -0.03739  1505(v),1442(v),155(v)
                                                    1501(v),1500(v)
  1469. BD*(   1) C  15 - C  47          0.00768     0.32019   
  1470. BD*(   1) C  16 - C  17          0.01675     0.38192   
  1471. BD*(   1) C  16 - C  51          0.01321     0.40047   
  1472. BD*(   1) C  17 - C  28          0.01010     0.46743   
  1473. BD*(   1) C  18 - C  19          0.01725     0.38425   
  1474. BD*(   1) C  18 - C  28          0.01013     0.47040   
  1475. BD*(   1) C  19 - C  20          0.01161     0.49712   
  1476. BD*(   2) C  19 - C  20          0.11777    -0.03092  1481(v),1445(v),1511(v)
                                                    1509(v),1508(v),1513(v)
  1477. BD*(   1) C  19 - C  56          0.00809     0.31964   
  1478. BD*(   1) C  20 - C  21          0.01768     0.37760   
  1479. BD*(   1) C  20 - C  60          0.00830     0.32310   
  1480. BD*(   1) C  21 - C  22          0.01024     0.46679   
  1481. BD*(   2) C  21 - C  22          0.20293    -0.06048  1436(v),1476(v),1445(v)
                                                    705(g),683(g),1455(r)
  1482. BD*(   1) C  22 - H  23          0.00617     0.33153   
  1483. BD*(   1) C  24 - H  25          0.00619     0.33323   
  1484. BD*(   1) C  26 - H  27          0.00657     0.33392   
  1485. BD*(   1) C  28 - H  29          0.00627     0.33124   
  1486. BD*(   1) C  30 - H  31          0.00445     0.29513   
  1487. BD*(   1) C  30 - H  32          0.00302     0.30912   
  1488. BD*(   1) C  30 - H  33          0.00455     0.29269   
  1489. BD*(   1) C  34 - H  35          0.00454     0.29044   
  1490. BD*(   1) C  34 - H  36          0.00455     0.29171   
  1491. BD*(   1) C  34 - H  37          0.00302     0.30637   
  1492. BD*(   1) C  38 - H  39          0.00436     0.29904   
  1493. BD*(   1) C  38 - H  40          0.00531     0.29308   
  1494. BD*(   1) C  38 - H  41          0.00370     0.30790   
  1495. BD*(   1) C  42 - H  43          0.01031     0.33301   
  1496. BD*(   1) C  42 - C  44          0.00367     0.54375   
  1497. BD*(   2) C  42 - C  44          0.02902    -0.01922   
  1498. BD*(   1) C  44 - H  45          0.00513     0.35082   
  1499. BD*(   1) C  44 - H  46          0.00385     0.35458   
  1500. BD*(   1) C  47 - H  48          0.00431     0.29673   
  1501. BD*(   1) C  47 - H  49          0.00525     0.29101   
  1502. BD*(   1) C  47 - H  50          0.00370     0.30651   
  1503. BD*(   1) C  51 - H  52          0.01026     0.33345   
  1504. BD*(   1) C  51 - C  53          0.00366     0.54239   
  1505. BD*(   2) C  51 - C  53          0.02909    -0.02880   
  1506. BD*(   1) C  53 - H  54          0.00514     0.34956   
  1507. BD*(   1) C  53 - H  55          0.00384     0.35835   
  1508. BD*(   1) C  56 - H  57          0.00434     0.30326   
  1509. BD*(   1) C  56 - H  58          0.00467     0.33563   
  1510. BD*(   1) C  56 - H  59          0.00302     0.40207   
  1511. BD*(   1) C  60 - H  61          0.00457     0.29116   
  1512. BD*(   1) C  60 - H  62          0.00301     0.30670   
  1513. BD*(   1) C  60 - H  63          0.00456     0.38902   
  1516. BD*(   1) C  67 - H  68          0.00497     0.33000   
  1517. BD*(   1) C  67 - H  69          0.00155     0.38564   
  1518. BD*(   1) C  67 - H  70          0.00503     0.36954   
  1519. BD*(   1) C  67 - C  73          0.00615     0.30434   
  1520. BD*(   1) N  71 - H  72          0.00649     0.47566   
  1521. BD*(   1) N  71 - C  73          0.01358     0.35867   
  1522. BD*(   2) N  71 - C  73          0.37182     0.05703  1527(v),1429(r),1520(g)
                                                    1514(r),1516(v),1529(v)
                                                    1513(r),1423(v),1517(v)
                                                    1510(r),1497(r),1528(v)
                                                    1399(v),1421(v),1428(r)
                                                    1509(r),1419(v),1409(v)
                                                    1405(v),1418(v),1515(r)
                                                    1403(v),1413(v),1407(v)
                                                    1285(g),1317(g),1427(r)
                                                    1479(r),1508(r),1442(r)
                                                    1426(r),1425(r),1412(v)
                                                    1410(v),1523(g),1320(g)
                                                    1415(v),1487(r),1518(v)
                                                    1261(v),1450(r),1277(r)
                                                    1411(v),1318(g),1380(r)
                                                    1507(r),1416(v),1446(r)
                                                    1245(v),1375(r),1424(v)
                                                    1334(g),1321(g),1329(g)
                                                    1406(v),1322(g)
  1523. BD*(   1) N  71 - C  74          0.01021     0.43853   
  1524. BD*(   1) C  73 - C  77          0.01039     0.45921   
  1525. BD*(   1) C  74 - H  75          0.00817     0.27531   
  1526. BD*(   1) C  74 - N  76          0.00900     0.42028   
  1527. BD*(   2) C  74 - N  76          0.21902     7.28309  1429(r),1423(v),1529(v)
                                                    1421(v),1418(v),1419(v)
                                                    1409(v),1514(r),1520(v)
                                                    1522(v),1413(v),1399(v)
                                                    1412(v),1405(v),1424(v)
                                                    1415(v),1517(r),1513(r)
                                                    1510(r),1407(v),1380(g)
                                                    1327(r),1528(g),1426(r)
                                                    1403(v),1422(v),1428(r)
                                                    1509(r),1516(r),1523(g)
                                                    1320(r),1515(r),1401(v)
                                                    167(v),1425(r),1364(g)
                                                    1311(r),1386(g),1360(g)
                                                    1261(r),1414(v),1329(r)
                                                    1048(r),1375(g),1518(r)
                                                    1381(g),1402(v),1326(r)
                                                    166(v),1307(v),1416(v)
                                                    1508(r),507(r),1277(r)
                                                    1340(r),1318(r),1497(r)
                                                    1410(v),771(r),1315(r)
                                                    773(r),1334(r),786(r)
                                                    1025(r),1304(v),1351(g)
                                                    168(v),1373(g),1305(v)
                                                    1301(v),1352(g),1398(g)
                                                    1383(g),481(r),1411(v)
                                                    1338(r),1479(r),1298(v)
                                                    1521(v),1355(g),1358(g)
                                                    1362(g),1487(r),971(r)
                                                    1331(r),1395(g),1507(r)
                                                    1446(r),510(r),1408(v)
                                                    1382(g),1293(v),494(r)
                                                    1090(r),959(r),1314(r)
                                                    961(r),790(r),1302(v)
                                                    1300(v),182(v),1075(r)
                                                    1325(r),1442(r),1344(g)
                                                    1309(v),1374(g),796(r)
                                                    1264(r),1051(r),1370(v)
                                                    1295(v),1083(r),1448(r)
                                                    1294(v),1224(r),1223(r)
                                                    1208(r),1237(r),1220(r)
                                                    1241(r)
  1528. BD*(   1) N  76 - C  77          0.00876     3.09349   
  1529. BD*(   1) C  77 - H  78          0.00656     4.53045   
       -------------------------------
              Total Lewis  145.48718  ( 96.9182%)
        Valence non-Lewis    4.35528  (  2.9013%)
        Rydberg non-Lewis    0.27097  (  0.1805%)
       -------------------------------
            Total unit  1  150.11344  (100.0000%)
           Charge unit  1    2.88656
 
 Molecular unit  2  (H2O)
    85. BD (   1) O  64 - H  65          0.99301    -0.93289  153(r),152(r),1434(r)
                                                    1240(v),1241(v),160(r)
                                                    1374(r),1430(r),151(r)
                                                    189(r),166(r),1433(r),162(r)
                                                    190(r)
    86. BD (   1) O  64 - H  66          0.99604    -0.99660  153(r),1434(r),1236(v)
                                                    160(r),152(r),1376(r),242(r)
                                                    243(r),165(r),1374(r),162(r)
                                                    166(r),217(r),240(r),247(r)
   144. CR (   1) O  64                  0.99991   -19.07811  153(r),1434(r),1240(v)
                                                    1236(v),163(r),1430(r)
                                                    1433(r),1431(r),1432(r)
   157. LP (   1) O  64                  0.98255    -0.45034  151(r),1239(v),1431(r)
                                                    1234(v),1433(r),152(r)
                                                    1375(r),267(r),1432(r)
                                                    215(r)
   158. LP (   2) O  64                  0.90786    -0.60829  153(r),1434(r),1241(v)
                                                    1514(g),1515(g),1236(v)
                                                    166(r),216(r),268(r),242(r)
                                                    1376(r),213(r),265(r)
                                                    1381(r),239(r),190(r),267(r)
                                                    187(r),165(r),1441(r)
  1208. RY*(   1) O  64                  0.00097     1.14356   
  1209. RY*(   2) O  64                  0.00035     0.51898   
  1210. RY*(   3) O  64                  0.00019     1.16284   
  1211. RY*(   4) O  64                  0.00010     0.81822   
  1212. RY*(   5) O  64                  0.00003     2.19100   
  1213. RY*(   6) O  64                  0.00002     2.08821   
  1214. RY*(   7) O  64                  0.00000     2.80001   
  1215. RY*(   8) O  64                  0.00001     4.74710   
  1216. RY*(   9) O  64                  0.00001     2.99366   
  1217. RY*(  10) O  64                  0.00001     2.61225   
  1218. RY*(  11) O  64                  0.00000     6.27145   
  1219. RY*(  12) O  64                  0.00000     3.03211   
  1220. RY*(  13) O  64                  0.00000     6.38983   
  1221. RY*(  14) O  64                  0.00000    42.46630   
  1222. RY*(  15) O  64                  0.00000     6.33647   
  1223. RY*(  16) O  64                  0.00000     2.11750   
  1224. RY*(  17) O  64                  0.00000     6.11585   
  1225. RY*(  18) O  64                  0.00000     2.28577   
  1226. RY*(  19) O  64                  0.00000     6.34056   
  1227. RY*(  20) O  64                  0.00000     5.23658   
  1228. RY*(  21) O  64                  0.00000     5.45935   
  1229. RY*(  22) O  64                  0.00000     5.22707   
  1230. RY*(  23) O  64                  0.00000     5.20759   
  1231. RY*(  24) O  64                  0.00000     5.52723   
  1232. RY*(  25) O  64                  0.00000     5.26344   
  1233. RY*(  26) O  64                  0.00000     5.48727   
  1234. RY*(   1) H  65                  0.00039     1.88967   
  1235. RY*(   2) H  65                  0.00035     0.69495   
  1236. RY*(   3) H  65                  0.00028     2.26844   
  1237. RY*(   4) H  65                  0.00008     1.86707   
  1238. RY*(   5) H  65                  0.00001     2.78468   
  1239. RY*(   1) H  66                  0.00042     1.91933   
  1240. RY*(   2) H  66                  0.00040     1.57297   
  1241. RY*(   3) H  66                  0.00031     1.22530   
  1242. RY*(   4) H  66                  0.00011     1.93822   
  1243. RY*(   5) H  66                  0.00000     2.90741   
  1514. BD*(   1) O  64 - H  65          0.00170     0.53264   
  1515. BD*(   1) O  64 - H  66          0.00130     0.49912   
       -------------------------------
              Total Lewis    4.87937  ( 99.8559%)
        Valence non-Lewis    0.00300  (  0.0614%)
        Rydberg non-Lewis    0.00404  (  0.0827%)
       -------------------------------
            Total unit  2    4.88641  (100.0000%)
           Charge unit  2    0.11359
 Unable to Open any file for archive entry.
 1\1\GINC-BGN1026\SP\UAPFD\def2TZVP\C34H36Fe1N6O1(1+,6)\BEBJONES\26-Sep
 -2024\0\\# apfd/def2TZVP guess=read scf=maxcycle=999 geom=check pop=nb
 o\\1ofk_III_H\\1,6\Fe,0,35.2278142312,4.0302369093,10.3201042411\N,0,3
 7.1338988139,3.7804163962,9.7526279744\N,0,34.920410556,5.218136209,8.
 7312633019\N,0,33.3525222181,4.3780148146,10.9464378348\N,0,35.5610448
 035,2.8854090127,11.9217795022\C,0,38.0842053121,3.03859482,10.3799684
 471\C,0,39.3146744116,3.0295832204,9.6197031237\C,0,39.0907797573,3.80
 42403104,8.5249560938\C,0,37.7267520609,4.2741859369,8.6329854382\C,0,
 35.8263724017,5.5666693183,7.7791338565\C,0,35.2527729703,6.4906268546
 ,6.8337539814\C,0,33.9683170794,6.7176670509,7.2495263938\C,0,33.78584
 57894,5.9062671876,8.4387587289\C,0,32.4399781659,5.2120567053,10.3738
 857434\C,0,31.2633345362,5.3282808717,11.1945298928\C,0,31.4791126511,
 4.5318958748,12.28938594\C,0,32.7928701975,3.9476076133,12.1063231507\
 C,0,34.6796537553,2.6052800322,12.9178261889\C,0,35.2820718324,1.73520
 49705,13.9049811997\C,0,36.5701603431,1.5487881285,13.5125274823\C,0,3
 6.7243699152,2.2756889945,12.2710501865\C,0,37.9093005381,2.3441554056
 ,11.5634315753\H,0,38.7598004642,1.8101561208,11.9594916571\C,0,37.130
 656314,5.1098262126,7.7108379027\H,0,37.7371752956,5.4519017624,6.8862
 228008\C,0,32.6273203131,5.9078498444,9.1910794891\H,0,31.8177230346,6
 .5377926043,8.8550982074\C,0,33.3920128023,3.0951232937,13.0155098889\
 H,0,32.8230171973,2.818071744,13.889745536\C,0,40.0122472983,4.1445437
 307,7.4040077247\H,0,39.5902175403,3.8261211626,6.4505400765\H,0,40.97
 53954312,3.6565293094,7.5325034944\H,0,40.1775732179,5.2212294138,7.35
 71840598\C,0,40.5479466487,2.2951615428,10.0224058724\H,0,40.347484447
 4,1.2273719416,10.1155332634\H,0,40.9112832434,2.6549080969,10.9853466
 059\H,0,41.3369639868,2.4318727736,9.2870022867\C,0,35.9414522033,7.01
 98636032,5.6244249427\H,0,36.5584977179,6.249314404,5.1645206001\H,0,3
 6.5876000764,7.8612730044,5.8804022661\H,0,35.2078469392,7.3596184342,
 4.8960285596\C,0,32.948339789,7.5541067815,6.656779696\H,0,31.93105263
 53,7.1911205525,6.7508699485\C,0,33.1635118752,8.7066730705,6.03062014
 19\H,0,34.1452637233,9.1393854186,5.9490394813\H,0,32.3550524012,9.273
 2128099,5.5988213169\C,0,30.0460367189,6.1108544041,10.8434570464\H,0,
 29.8346809101,6.0377092576,9.7775796672\H,0,30.1755230966,7.1664785861
 ,11.0888604308\H,0,29.1876524158,5.7329452349,11.3951068389\C,0,30.612
 6556681,4.2766214818,13.4185518345\H,0,30.6769133308,3.2806019969,13.8
 413293278\C,0,29.7754227651,5.1534420548,13.9634683063\H,0,29.70394014
 03,6.1698422414,13.6173401604\H,0,29.1471039986,4.8890478814,14.797878
 783\C,0,34.5770604579,1.2147839411,15.1104871053\H,0,33.6805323822,0.6
 660517338,14.8217710306\H,0,34.2755377045,2.0346836918,15.7631832952\H
 ,0,35.2207364144,0.5462841796,15.6771896835\C,0,37.6526450722,0.758109
 8644,14.164680181\H,0,38.0121513142,-0.0268977924,13.4985260148\H,0,37
 .2941680789,0.2930541538,15.0797097452\H,0,38.4972538394,1.4002262621,
 14.4155073623\O,0,35.766,5.878,11.524\H,0,34.937,6.284,11.777\H,0,36.5
 79,6.148,11.763\C,0,32.4758935467,0.450018693,7.061648216\H,0,32.94773
 33377,0.1200332588,6.1364400797\H,0,31.696690813,1.1653340883,6.819002
 6553\H,0,32.017987543,-0.4164125639,7.5384631071\N,0,34.5737711834,0.4
 195912281,8.4290430808\H,0,34.8194018563,-0.5331935194,8.2159629247\C,
 0,33.4696046294,1.0849343825,7.9640452601\C,0,35.2632785687,1.27277997
 66,9.2204235777\H,0,36.1749768265,1.0230828411,9.7230766672\N,0,34.662
 9385532,2.436492102,9.2840976742\C,0,33.5460679321,2.335150347,8.50750
 20632\H,0,32.8779045177,3.1631645681,8.3932330232\\Version=ES64L-G16Re
 vC.02\State=6-A\HF=-2983.8364937\S2=8.758793\S2-1=0.\S2A=8.750023\RMSD
 =8.993e-09\Dipole=0.2907292,-1.2925167,-0.4107277\Quadrupole=1.6792555
 ,1.6180736,-3.2973291,-7.300525,-2.8871235,-3.5567488\PG=C01 [X(C34H36
 Fe1N6O1)]\\@
 The archive entry for this job was punched.


 I am not a vegetarian because I love animals;
 I am a vegetarian because I hate plants.
                               -- A. Whitney Brown
 Job cpu time:       0 days 12 hours 10 minutes 58.3 seconds.
 Elapsed time:       0 days  0 hours 11 minutes 39.7 seconds.
 File lengths (MBytes):  RWF=   2166 Int=      0 D2E=      0 Chk=    197 Scr=      1
 Normal termination of Gaussian 16 at Thu Sep 26 09:11:23 2024.
