 Entering Gaussian System, Link 0=g16
 Input=1qo412re.com
 Output=1qo412re.log
 Initial command:
 /sw/chem/gaussian/g16_C02/a100/g16/l1.exe "/local/bebjones_8030172/Gau-2371272.inp" -scrdir="/local/bebjones_8030172/"
 Entering Link 1 = /sw/chem/gaussian/g16_C02/a100/g16/l1.exe PID=   2371273.
  
 Copyright (c) 1988-2021, Gaussian, Inc.  All Rights Reserved.
  
 This is part of the Gaussian(R) 16 program.  It is based on
 the Gaussian(R) 09 system (copyright 2009, Gaussian, Inc.),
 the Gaussian(R) 03 system (copyright 2003, Gaussian, Inc.),
 the Gaussian(R) 98 system (copyright 1998, Gaussian, Inc.),
 the Gaussian(R) 94 system (copyright 1995, Gaussian, Inc.),
 the Gaussian 92(TM) system (copyright 1992, Gaussian, Inc.),
 the Gaussian 90(TM) system (copyright 1990, Gaussian, Inc.),
 the Gaussian 88(TM) system (copyright 1988, Gaussian, Inc.),
 the Gaussian 86(TM) system (copyright 1986, Carnegie Mellon
 University), and the Gaussian 82(TM) system (copyright 1983,
 Carnegie Mellon University). Gaussian is a federally registered
 trademark of Gaussian, Inc.
  
 This software contains proprietary and confidential information,
 including trade secrets, belonging to Gaussian, Inc.
  
 This software is provided under written license and may be
 used, copied, transmitted, or stored only in accord with that
 written license.
  
 The following legend is applicable only to US Government
 contracts under FAR:
  
                    RESTRICTED RIGHTS LEGEND
  
 Use, reproduction and disclosure by the US Government is
 subject to restrictions as set forth in subparagraphs (a)
 and (c) of the Commercial Computer Software - Restricted
 Rights clause in FAR 52.227-19.
  
 Gaussian, Inc.
 340 Quinnipiac St., Bldg. 40, Wallingford CT 06492
  
  
 ---------------------------------------------------------------
 Warning -- This program may not be used in any manner that
 competes with the business of Gaussian, Inc. or will provide
 assistance to any competitor of Gaussian, Inc.  The licensee
 of this program is prohibited from giving any competitor of
 Gaussian, Inc. access to this program.  By using this program,
 the user acknowledges that Gaussian, Inc. is engaged in the
 business of creating and licensing software in the field of
 computational chemistry and represents and warrants to the
 licensee that it is not a competitor of Gaussian, Inc. and that
 it will not use this program in any manner prohibited above.
 ---------------------------------------------------------------
  

 Cite this work as:
 Gaussian 16, Revision C.02,
 M. J. Frisch, G. W. Trucks, H. B. Schlegel, G. E. Scuseria, 
 M. A. Robb, J. R. Cheeseman, G. Scalmani, V. Barone, 
 G. A. Petersson, H. Nakatsuji, X. Li, M. Caricato, A. V. Marenich, 
 J. Bloino, B. G. Janesko, R. Gomperts, B. Mennucci, H. P. Hratchian, 
 J. V. Ortiz, A. F. Izmaylov, J. L. Sonnenberg, D. Williams-Young, 
 F. Ding, F. Lipparini, F. Egidi, J. Goings, B. Peng, A. Petrone, 
 T. Henderson, D. Ranasinghe, V. G. Zakrzewski, J. Gao, N. Rega, 
 G. Zheng, W. Liang, M. Hada, M. Ehara, K. Toyota, R. Fukuda, 
 J. Hasegawa, M. Ishida, T. Nakajima, Y. Honda, O. Kitao, H. Nakai, 
 T. Vreven, K. Throssell, J. A. Montgomery, Jr., J. E. Peralta, 
 F. Ogliaro, M. J. Bearpark, J. J. Heyd, E. N. Brothers, K. N. Kudin, 
 V. N. Staroverov, T. A. Keith, R. Kobayashi, J. Normand, 
 K. Raghavachari, A. P. Rendell, J. C. Burant, S. S. Iyengar, 
 J. Tomasi, M. Cossi, J. M. Millam, M. Klene, C. Adamo, R. Cammi, 
 J. W. Ochterski, R. L. Martin, K. Morokuma, O. Farkas, 
 J. B. Foresman, and D. J. Fox, Gaussian, Inc., Wallingford CT, 2019.
 
 ******************************************
 Gaussian 16:  ES64L-G16RevC.02  7-Dec-2021
                25-Sep-2024 
 ******************************************
 %mem=16GB
 %CPU=0-71
 SetSPE:  set environment variable "OMP_PROC_BIND" = "true"
 SetSPE:  set environment variable "OMP_PLACES" = "{0},{1},{2},{3},{4},{5},{6},{7},{8},{9},{10},{11},{12},{13},{14},{15},{16},{17},{18},{19},{20},{21},{22},{23},{24},{25},{26},{27},{28},{29},{30},{31},{32},{33},{34},{35},{36},{37},{38},{39},{40},{41},{42},{43},{44},{45},{46},{47},{48},{49},{50},{51},{52},{53},{54},{55},{56},{57},{58},{59},{60},{61},{62},{63},{64},{65},{66},{67},{68},{69},{70},{71}"
 Will use up to   72 processors via shared memory.
 %gpucpu=0,1,2,3=0,1,2,3
 Will use    4 GPUs:
 Thread  CPU   GPU
      0    0     0
      1    1     1
      2    2     2
      3    3     3
      4    4    -1
      5    5    -1
      6    6    -1
      7    7    -1
      8    8    -1
      9    9    -1
     10   10    -1
     11   11    -1
     12   12    -1
     13   13    -1
     14   14    -1
     15   15    -1
     16   16    -1
     17   17    -1
     18   18    -1
     19   19    -1
     20   20    -1
     21   21    -1
     22   22    -1
     23   23    -1
     24   24    -1
     25   25    -1
     26   26    -1
     27   27    -1
     28   28    -1
     29   29    -1
     30   30    -1
     31   31    -1
     32   32    -1
     33   33    -1
     34   34    -1
     35   35    -1
     36   36    -1
     37   37    -1
     38   38    -1
     39   39    -1
     40   40    -1
     41   41    -1
     42   42    -1
     43   43    -1
     44   44    -1
     45   45    -1
     46   46    -1
     47   47    -1
     48   48    -1
     49   49    -1
     50   50    -1
     51   51    -1
     52   52    -1
     53   53    -1
     54   54    -1
     55   55    -1
     56   56    -1
     57   57    -1
     58   58    -1
     59   59    -1
     60   60    -1
     61   61    -1
     62   62    -1
     63   63    -1
     64   64    -1
     65   65    -1
     66   66    -1
     67   67    -1
     68   68    -1
     69   69    -1
     70   70    -1
     71   71    -1
 SetGPE:  set environment variable "OMP_PROC_BIND" = "true"
 SetGPE:  set environment variable "OMP_PLACES" = "{0},{1},{2},{3},{4},{5},{6},{7},{8},{9},{10},{11},{12},{13},{14},{15},{16},{17},{18},{19},{20},{21},{22},{23},{24},{25},{26},{27},{28},{29},{30},{31},{32},{33},{34},{35},{36},{37},{38},{39},{40},{41},{42},{43},{44},{45},{46},{47},{48},{49},{50},{51},{52},{53},{54},{55},{56},{57},{58},{59},{60},{61},{62},{63},{64},{65},{66},{67},{68},{69},{70},{71}"
 %oldchk=1qo4_II_S.chk
 %chk=1qo4_II_Sre.chk
 Properties for Device   0
 Minimum vector length:                              32
 Maximum vector length:                            1024
 Number of SMPs:                                    108
 Maximum number of threads per SMP:                2048
 Number of ASync Engines:                             5
 Memory:                                           9207742464
 Properties for Device   1
 Minimum vector length:                              32
 Maximum vector length:                            1024
 Number of SMPs:                                    108
 Maximum number of threads per SMP:                2048
 Number of ASync Engines:                             5
 Memory:                                           9207742464
 Properties for Device   2
 Minimum vector length:                              32
 Maximum vector length:                            1024
 Number of SMPs:                                    108
 Maximum number of threads per SMP:                2048
 Number of ASync Engines:                             5
 Memory:                                           9207742464
 Properties for Device   3
 Minimum vector length:                              32
 Maximum vector length:                            1024
 Number of SMPs:                                    108
 Maximum number of threads per SMP:                2048
 Number of ASync Engines:                             5
 Memory:                                           9207742464
   8286968217 words of memory will be used on each GPU.
 Copying data from "1qo4_II_S.chk" to current chk file "1qo4_II_Sre.chk"
 IOpt=  2 FromEx=T IUOpen= 4 IOptOp= 5 NList=   0 IFRang= 0 IUIn= 4 IUOut= 2.
 --------------------------------------
 # apfd/gen scf=maxcycle=999 geom=check
 --------------------------------------
 1/29=2,38=1,172=1/1;
 2/12=2,40=1/2;
 3/5=7,11=2,14=-4,25=1,30=1,74=-44/1,2,3;
 4//1;
 5/5=2,7=999,38=5/2;
 6/7=2,8=2,9=2,10=2,28=1/1;
 99/5=1,9=1/99;
 ----------
 1qo4_III_D
 ----------
 Structure from the checkpoint file:  "1qo4_II_Sre.chk"
 Charge =  1 Multiplicity = 2
 Z-Matrix found in chk file.
 Fe,0,1.3458528888,2.8554125058,5.3796380003
 N,0,1.064456639,1.6767772575,6.9569876093
 N,0,1.6748291917,4.3952263357,6.5717665018
 N,0,1.8574268224,3.9173138094,3.7923557961
 N,0,0.9722612492,1.2938937885,4.1842867034
 C,0,0.7024011118,0.3649187427,6.9636116528
 C,0,0.6816098078,-0.1568283488,8.3113783131
 C,0,1.0200302446,0.8765346519,9.1278392649
 C,0,1.2318121329,2.019635303,8.2683667421
 C,0,1.6641652804,4.4075406909,7.9334648095
 C,0,1.8223438467,5.7465640659,8.4328342668
 C,0,1.9799171014,6.5532688799,7.3374450681
 C,0,1.9128011109,5.6785591751,6.1843106414
 C,0,2.2000054827,5.2390912256,3.7880698086
 C,0,2.6270364103,5.6541400274,2.4763483027
 C,0,2.4907674101,4.5606230143,1.6626072239
 C,0,1.984438871,3.496040813,2.5056429901
 C,0,1.0528947456,1.259780076,2.8259718106
 C,0,0.4274385038,0.0651078668,2.3043925196
 C,0,0.0863086409,-0.6861375159,3.3857001738
 C,0,0.4537867366,0.088790381,4.5497154646
 C,0,0.3507018749,-0.3693015847,5.8474680705
 H,0,-0.0029784985,-1.3774188914,5.9993671699
 C,0,1.4832491107,3.2935283324,8.7358579568
 H,0,1.5425290163,3.4332652179,9.8045818723
 C,0,2.1691569539,6.0775166543,4.8876593386
 H,0,2.4299848692,7.1127287034,4.7327939898
 C,0,1.5791798651,2.2625825577,2.0339447831
 H,0,1.6449091171,2.0814093986,0.9720071506
 C,0,1.1588387033,0.9036765385,10.611361891
 H,0,1.0198337848,-0.0897095128,11.030533781
 H,0,0.4178405328,1.5692547281,11.0559242588
 H,0,2.1480860701,1.2616975868,10.8956458354
 C,0,0.3498756167,-1.5671158172,8.6594365108
 H,0,1.0168527052,-2.2552826353,8.1405960908
 H,0,-0.6737126502,-1.8037237503,8.3671703584
 H,0,0.4472467949,-1.7350389624,9.7291266465
 C,0,1.8097950914,6.1278261835,9.8729277766
 H,0,2.5987199379,5.604869832,10.4144280756
 H,0,0.8563465856,5.8657201091,10.332860225
 H,0,1.9604109897,7.1982477729,9.9866230359
 C,0,2.150395542,7.992023052,7.3351210425
 H,0,2.7579668746,8.3879145922,8.1417847831
 C,0,1.6008794428,8.8345827497,6.4678745905
 H,0,0.9475448029,8.4984463774,5.6805473692
 H,0,1.7686398512,9.8970568944,6.5306472056
 C,0,3.167116827,6.9994846227,2.1386335337
 H,0,3.7694171875,7.3886104288,2.9578358646
 H,0,2.3586188758,7.7072706841,1.9478210962
 H,0,3.7878279164,6.938635567,1.2470187557
 C,0,2.7997587278,4.4121874339,0.2576709023
 H,0,3.1446444963,3.4288774751,-0.0407325091
 C,0,2.6878005056,5.3637126187,-0.6635569601
 H,0,2.3070693726,6.3432704778,-0.4329468197
 H,0,2.9521442133,5.1846425479,-1.6925618596
 C,0,0.2846782926,-0.2435993228,0.8537462456
 H,0,1.2640177823,-0.3573001362,0.3878150884
 H,0,-0.241597228,0.561195922,0.3406036209
 H,0,-0.2712842845,-1.1664635074,0.7079529555
 C,0,-0.5611610208,-2.0269646622,3.4402232081
 H,0,-0.8125347591,-2.375955654,2.4417361874
 H,0,-1.4745051246,-1.9894943232,4.0339153588
 H,0,0.109477976,-2.7550792782,3.8973822949
 C,0,-3.8111393045,4.1651205688,3.6429298468
 H,0,-3.5638445209,4.0430863231,2.5932165618
 H,0,-4.1626987519,5.1841010492,3.8032127181
 H,0,-4.6223049303,3.4814595572,3.8925884357
 N,0,-2.625095043,3.9692481845,5.8393139461
 H,0,-3.4185716312,4.2227759537,6.4050100759
 C,0,-2.6119424563,3.8849328923,4.4720754005
 C,0,-1.3875838549,3.6554884569,6.2824700938
 H,0,-1.1064245865,3.6393849542,7.316048313
 N,0,-0.5882318334,3.3766481759,5.278671912
 C,0,-1.3386208612,3.5159200819,4.1449754694
 H,0,-0.9149091955,3.3417940357,3.1769067914
 Recover connectivity data from disk.
 Stoichiometry    C34H34FeN6(1+,2)
 Framework group  C1[X(C34H34FeN6)]
 Deg. of freedom   219
 Full point group                 C1      NOp   1
 Largest Abelian subgroup         C1      NOp   1
 Largest concise Abelian subgroup C1      NOp   1
                         Standard orientation:                         
 ---------------------------------------------------------------------
 Center     Atomic      Atomic             Coordinates (Angstroms)
 Number     Number       Type             X           Y           Z
 ---------------------------------------------------------------------
      1         26           0        0.220861   -0.024185   -0.507789
      2          7           0        2.206861    0.029148   -0.604503
      3          7           0        0.157226    1.948797   -0.446838
      4          7           0       -1.747318   -0.127863   -0.663771
      5          7           0        0.303670   -2.024023   -0.531551
      6          6           0        3.069963   -1.023053   -0.609964
      7          6           0        4.432890   -0.570361   -0.773141
      8          6           0        4.380146    0.786432   -0.845982
      9          6           0        2.985878    1.145530   -0.714492
     10          6           0        1.208266    2.814211   -0.476204
     11          6           0        0.760872    4.166965   -0.283156
     12          6           0       -0.603891    4.113849   -0.182754
     13          6           0       -0.960153    2.715913   -0.317632
     14          6           0       -2.610791    0.929573   -0.636964
     15          6           0       -3.960352    0.496559   -0.894677
     16          6           0       -3.908522   -0.865347   -1.032701
     17          6           0       -2.517117   -1.231730   -0.859016
     18          6           0       -0.745204   -2.890404   -0.575512
     19          6           0       -0.311234   -4.237384   -0.279207
     20          6           0        1.044847   -4.186313   -0.187549
     21          6           0        1.411304   -2.799493   -0.369000
     22          6           0        2.713141   -2.346059   -0.434233
     23          1           0        3.504908   -3.076470   -0.370440
     24          6           0        2.534807    2.446908   -0.627757
     25          1           0        3.268494    3.236905   -0.680843
     26          6           0       -2.255305    2.247816   -0.415894
     27          1           0       -3.047662    2.979090   -0.382922
     28          6           0       -2.063801   -2.534582   -0.786670
     29          1           0       -2.791550   -3.327714   -0.865286
     30          6           0        5.487842    1.768217   -1.019052
     31          1           0        6.436529    1.258174   -1.166332
     32          1           0        5.576512    2.408446   -0.140444
     33          1           0        5.301785    2.405061   -1.883586
     34          6           0        5.614108   -1.475707   -0.845093
     35          1           0        5.495716   -2.193833   -1.656207
     36          1           0        5.727707   -2.032721    0.085480
     37          1           0        6.525935   -0.909447   -1.017823
     38          6           0        1.651520    5.359152   -0.213703
     39          1           0        2.232877    5.456837   -1.131084
     40          1           0        2.350385    5.270339    0.618765
     41          1           0        1.067704    6.265217   -0.073634
     42          6           0       -1.502763    5.227837    0.041170
     43          1           0       -1.232396    6.149799   -0.462286
     44          6           0       -2.575131    5.210984    0.824581
     45          1           0       -2.857521    4.337484    1.387583
     46          1           0       -3.196999    6.082236    0.947612
     47          6           0       -5.134894    1.399170   -1.041084
     48          1           0       -4.849715    2.322939   -1.541687
     49          1           0       -5.551407    1.657905   -0.066090
     50          1           0       -5.910253    0.909527   -1.626770
     51          6           0       -4.969133   -1.803725   -1.325798
     52          1           0       -4.676887   -2.666366   -1.913447
     53          6           0       -6.233559   -1.689339   -0.932431
     54          1           0       -6.569202   -0.879066   -0.309155
     55          1           0       -6.975488   -2.422351   -1.202674
     56          6           0       -1.223563   -5.411149   -0.179288
     57          1           0       -1.706403   -5.604081   -1.137813
     58          1           0       -2.003049   -5.228845    0.560404
     59          1           0       -0.674763   -6.303478    0.111566
     60          6           0        2.017781   -5.284426    0.072365
     61          1           0        1.501452   -6.224216    0.251695
     62          1           0        2.632733   -5.055805    0.942789
     63          1           0        2.679826   -5.416829   -0.783829
     64          6           0       -0.914245   -1.113813    4.863459
     65          1           0       -1.703190   -1.820185    4.625656
     66          1           0       -1.333771   -0.312637    5.471505
     67          1           0       -0.152893   -1.625405    5.451956
     68          7           0        0.677587    0.348572    3.599864
     69          1           0        1.117852    0.744988    4.414059
     70          6           0       -0.334992   -0.574059    3.607596
     71          6           0        0.970141    0.627084    2.310248
     72          1           0        1.727184    1.319830    2.002704
     73          7           0        0.204071   -0.063371    1.497391
     74          6           0       -0.613736   -0.815759    2.292911
     75          1           0       -1.342225   -1.476329    1.868695
 ---------------------------------------------------------------------
 Rotational constants (GHZ):           0.0979747           0.0938130           0.0607849
 General basis read from cards:  (5D, 7F)
 There are   704 symmetry adapted cartesian basis functions of A   symmetry.
 There are   661 symmetry adapted basis functions of A   symmetry.
   661 basis functions,  1342 primitive gaussians,   704 cartesian basis functions
   153 alpha electrons      152 beta electrons
       nuclear repulsion energy      5607.6540326355 Hartrees.
 NAtoms=   75 NActive=   75 NUniq=   75 SFac= 1.00D+00 NAtFMM=   60 NAOKFM=T Big=T
 Integral buffers will be    131072 words long.
 Raffenetti 2 integral format.
 Two-electron integral symmetry is turned on.
 R6APFD:  NTU= -4 IXU= 1 FactS= 1.050
 Nuclear repulsion after empirical dispersion term =     5607.5184574056 Hartrees.
 One-electron integrals computed using PRISM.
 NBasis=   661 RedAO= T EigKep=  2.68D-04  NBF=   661
 NBsUse=   661 1.00D-06 EigRej= -1.00D+00 NBFU=   661
 ExpMin= 4.20D-02 ExpMax= 3.01D+05 ExpMxC= 2.91D+03 IAcc=3 IRadAn=         5 AccDes= 0.00D+00
 Harris functional with IExCor= 3731 and IRadAn=       5 diagonalized for initial guess.
 HarFok:  IExCor= 3731 AccDes= 0.00D+00 IRadAn=         5 IDoV= 1 UseB2=F ITyADJ=14
 ICtDFT=  3500011 ScaDFX=  1.000000  1.000000  1.000000  1.000000
 FoFCou: FMM=F IPFlag=           0 FMFlag=      100000 FMFlg1=        2001
         NFxFlg=           0 DoJE=T BraDBF=F KetDBF=T FulRan=T
         wScrn=  0.000000 ICntrl=       500 IOpCl=  0 I1Cent=   200000004 NGrid=           0
         NMat0=    1 NMatS0=      1 NMatT0=    0 NMatD0=    1 NMtDS0=    0 NMtDT0=    0
 Petite list used in FoFCou.
 Initial guess <Sx>= 0.0000 <Sy>= 0.0000 <Sz>= 0.5000 <S**2>= 0.7500 S= 0.5000
 Requested convergence on RMS density matrix=1.00D-08 within 999 cycles.
 Requested convergence on MAX density matrix=1.00D-06.
 Requested convergence on             energy=1.00D-06.
 No special actions if energy rises.
 EnCoef did   100 forward-backward iterations
 EnCoef did   100 forward-backward iterations
 EnCoef did   100 forward-backward iterations
 EnCoef did   100 forward-backward iterations
 EnCoef did     9 forward-backward iterations
 EnCoef did     9 forward-backward iterations
 EnCoef did     7 forward-backward iterations
 EnCoef did     2 forward-backward iterations
 EnCoef did     2 forward-backward iterations
 EnCoef did     1 forward-backward iterations
 Rare condition: small coef for last iteration:  0.000D+00
 EnCoef did     1 forward-backward iterations
 Rare condition: small coef for last iteration:  0.116D-15
 Rare condition: small coef for last iteration:  0.000D+00
 Restarting incremental Fock formation.
 Rare condition: small coef for last iteration:  0.000D+00
 Rare condition: small coef for last iteration:  0.000D+00
 Rare condition: small coef for last iteration:  0.000D+00
 Rare condition: small coef for last iteration:  0.000D+00
 Rare condition: small coef for last iteration:  0.000D+00
 Rare condition: small coef for last iteration:  0.000D+00
 Rare condition: small coef for last iteration:  0.000D+00
 Rare condition: small coef for last iteration:  0.000D+00
 Rare condition: small coef for last iteration:  0.000D+00
 Rare condition: small coef for last iteration:  0.000D+00
 Rare condition: small coef for last iteration:  0.000D+00
 Rare condition: small coef for last iteration:  0.000D+00
 Restarting incremental Fock formation.
 Restarting incremental Fock formation.
 Restarting incremental Fock formation.
 Restarting incremental Fock formation.
 Restarting incremental Fock formation.
 Restarting incremental Fock formation.
 Restarting incremental Fock formation.
 Restarting incremental Fock formation.
 Restarting incremental Fock formation.
 Restarting incremental Fock formation.
 Restarting incremental Fock formation.
 Restarting incremental Fock formation.
 Restarting incremental Fock formation.
 Restarting incremental Fock formation.
 Restarting incremental Fock formation.
 Restarting incremental Fock formation.
 Restarting incremental Fock formation.
 Restarting incremental Fock formation.
 SCF Done:  E(UAPFD) =  -2906.81099093     A.U. after  383 cycles
            NFock=383  Conv=0.32D-08     -V/T= 2.0037
 <Sx>= 0.0000 <Sy>= 0.0000 <Sz>= 0.5000 <S**2>= 0.7898 S= 0.5197
 <L.S>=  0.00000000000    
 Annihilation of the first spin contaminant:
 S**2 before annihilation     0.7898,   after     0.7514

 **********************************************************************

            Population analysis using the SCF Density.

 **********************************************************************

 Orbital symmetries:
 Alpha Orbitals:
       Occupied  (A) (A) (A) (A) (A) (A) (A) (A) (A) (A) (A) (A)
                 (A) (A) (A) (A) (A) (A) (A) (A) (A) (A) (A) (A)
                 (A) (A) (A) (A) (A) (A) (A) (A) (A) (A) (A) (A)
                 (A) (A) (A) (A) (A) (A) (A) (A) (A) (A) (A) (A)
                 (A) (A) (A) (A) (A) (A) (A) (A) (A) (A) (A) (A)
                 (A) (A) (A) (A) (A) (A) (A) (A) (A) (A) (A) (A)
                 (A) (A) (A) (A) (A) (A) (A) (A) (A) (A) (A) (A)
                 (A) (A) (A) (A) (A) (A) (A) (A) (A) (A) (A) (A)
                 (A) (A) (A) (A) (A) (A) (A) (A) (A) (A) (A) (A)
                 (A) (A) (A) (A) (A) (A) (A) (A) (A) (A) (A) (A)
                 (A) (A) (A) (A) (A) (A) (A) (A) (A) (A) (A) (A)
                 (A) (A) (A) (A) (A) (A) (A) (A) (A) (A) (A) (A)
                 (A) (A) (A) (A) (A) (A) (A) (A) (A)
       Virtual   (A) (A) (A) (A) (A) (A) (A) (A) (A) (A) (A) (A)
                 (A) (A) (A) (A) (A) (A) (A) (A) (A) (A) (A) (A)
                 (A) (A) (A) (A) (A) (A) (A) (A) (A) (A) (A) (A)
                 (A) (A) (A) (A) (A) (A) (A) (A) (A) (A) (A) (A)
                 (A) (A) (A) (A) (A) (A) (A) (A) (A) (A) (A) (A)
                 (A) (A) (A) (A) (A) (A) (A) (A) (A) (A) (A) (A)
                 (A) (A) (A) (A) (A) (A) (A) (A) (A) (A) (A) (A)
                 (A) (A) (A) (A) (A) (A) (A) (A) (A) (A) (A) (A)
                 (A) (A) (A) (A) (A) (A) (A) (A) (A) (A) (A) (A)
                 (A) (A) (A) (A) (A) (A) (A) (A) (A) (A) (A) (A)
                 (A) (A) (A) (A) (A) (A) (A) (A) (A) (A) (A) (A)
                 (A) (A) (A) (A) (A) (A) (A) (A) (A) (A) (A) (A)
                 (A) (A) (A) (A) (A) (A) (A) (A) (A) (A) (A) (A)
                 (A) (A) (A) (A) (A) (A) (A) (A) (A) (A) (A) (A)
                 (A) (A) (A) (A) (A) (A) (A) (A) (A) (A) (A) (A)
                 (A) (A) (A) (A) (A) (A) (A) (A) (A) (A) (A) (A)
                 (A) (A) (A) (A) (A) (A) (A) (A) (A) (A) (A) (A)
                 (A) (A) (A) (A) (A) (A) (A) (A) (A) (A) (A) (A)
                 (A) (A) (A) (A) (A) (A) (A) (A) (A) (A) (A) (A)
                 (A) (A) (A) (A) (A) (A) (A) (A) (A) (A) (A) (A)
                 (A) (A) (A) (A) (A) (A) (A) (A) (A) (A) (A) (A)
                 (A) (A) (A) (A) (A) (A) (A) (A) (A) (A) (A) (A)
                 (A) (A) (A) (A) (A) (A) (A) (A) (A) (A) (A) (A)
                 (A) (A) (A) (A) (A) (A) (A) (A) (A) (A) (A) (A)
                 (A) (A) (A) (A) (A) (A) (A) (A) (A) (A) (A) (A)
                 (A) (A) (A) (A) (A) (A) (A) (A) (A) (A) (A) (A)
                 (A) (A) (A) (A) (A) (A) (A) (A) (A) (A) (A) (A)
                 (A) (A) (A) (A) (A) (A) (A) (A) (A) (A) (A) (A)
                 (A) (A) (A) (A) (A) (A) (A) (A) (A) (A) (A) (A)
                 (A) (A) (A) (A) (A) (A) (A) (A) (A) (A) (A) (A)
                 (A) (A) (A) (A) (A) (A) (A) (A) (A) (A) (A) (A)
                 (A) (A) (A) (A) (A) (A) (A) (A) (A) (A) (A) (A)
                 (A) (A) (A) (A) (A) (A) (A) (A) (A) (A) (A) (A)
                 (A) (A) (A) (A) (A) (A) (A) (A) (A) (A) (A) (A)
                 (A) (A) (A) (A) (A) (A) (A) (A) (A) (A) (A) (A)
                 (A) (A) (A) (A) (A) (A) (A) (A) (A) (A) (A) (A)
                 (A) (A) (A) (A) (A) (A) (A) (A) (A) (A) (A) (A)
                 (A) (A) (A) (A) (A) (A) (A) (A) (A) (A) (A) (A)
                 (A) (A) (A) (A) (A) (A) (A) (A) (A) (A) (A) (A)
                 (A) (A) (A) (A) (A) (A) (A) (A) (A) (A) (A) (A)
                 (A) (A) (A) (A) (A) (A) (A) (A) (A) (A) (A) (A)
                 (A) (A) (A) (A) (A) (A) (A) (A) (A) (A) (A) (A)
                 (A) (A) (A) (A)
 Beta  Orbitals:
       Occupied  (A) (A) (A) (A) (A) (A) (A) (A) (A) (A) (A) (A)
                 (A) (A) (A) (A) (A) (A) (A) (A) (A) (A) (A) (A)
                 (A) (A) (A) (A) (A) (A) (A) (A) (A) (A) (A) (A)
                 (A) (A) (A) (A) (A) (A) (A) (A) (A) (A) (A) (A)
                 (A) (A) (A) (A) (A) (A) (A) (A) (A) (A) (A) (A)
                 (A) (A) (A) (A) (A) (A) (A) (A) (A) (A) (A) (A)
                 (A) (A) (A) (A) (A) (A) (A) (A) (A) (A) (A) (A)
                 (A) (A) (A) (A) (A) (A) (A) (A) (A) (A) (A) (A)
                 (A) (A) (A) (A) (A) (A) (A) (A) (A) (A) (A) (A)
                 (A) (A) (A) (A) (A) (A) (A) (A) (A) (A) (A) (A)
                 (A) (A) (A) (A) (A) (A) (A) (A) (A) (A) (A) (A)
                 (A) (A) (A) (A) (A) (A) (A) (A) (A) (A) (A) (A)
                 (A) (A) (A) (A) (A) (A) (A) (A)
       Virtual   (A) (A) (A) (A) (A) (A) (A) (A) (A) (A) (A) (A)
                 (A) (A) (A) (A) (A) (A) (A) (A) (A) (A) (A) (A)
                 (A) (A) (A) (A) (A) (A) (A) (A) (A) (A) (A) (A)
                 (A) (A) (A) (A) (A) (A) (A) (A) (A) (A) (A) (A)
                 (A) (A) (A) (A) (A) (A) (A) (A) (A) (A) (A) (A)
                 (A) (A) (A) (A) (A) (A) (A) (A) (A) (A) (A) (A)
                 (A) (A) (A) (A) (A) (A) (A) (A) (A) (A) (A) (A)
                 (A) (A) (A) (A) (A) (A) (A) (A) (A) (A) (A) (A)
                 (A) (A) (A) (A) (A) (A) (A) (A) (A) (A) (A) (A)
                 (A) (A) (A) (A) (A) (A) (A) (A) (A) (A) (A) (A)
                 (A) (A) (A) (A) (A) (A) (A) (A) (A) (A) (A) (A)
                 (A) (A) (A) (A) (A) (A) (A) (A) (A) (A) (A) (A)
                 (A) (A) (A) (A) (A) (A) (A) (A) (A) (A) (A) (A)
                 (A) (A) (A) (A) (A) (A) (A) (A) (A) (A) (A) (A)
                 (A) (A) (A) (A) (A) (A) (A) (A) (A) (A) (A) (A)
                 (A) (A) (A) (A) (A) (A) (A) (A) (A) (A) (A) (A)
                 (A) (A) (A) (A) (A) (A) (A) (A) (A) (A) (A) (A)
                 (A) (A) (A) (A) (A) (A) (A) (A) (A) (A) (A) (A)
                 (A) (A) (A) (A) (A) (A) (A) (A) (A) (A) (A) (A)
                 (A) (A) (A) (A) (A) (A) (A) (A) (A) (A) (A) (A)
                 (A) (A) (A) (A) (A) (A) (A) (A) (A) (A) (A) (A)
                 (A) (A) (A) (A) (A) (A) (A) (A) (A) (A) (A) (A)
                 (A) (A) (A) (A) (A) (A) (A) (A) (A) (A) (A) (A)
                 (A) (A) (A) (A) (A) (A) (A) (A) (A) (A) (A) (A)
                 (A) (A) (A) (A) (A) (A) (A) (A) (A) (A) (A) (A)
                 (A) (A) (A) (A) (A) (A) (A) (A) (A) (A) (A) (A)
                 (A) (A) (A) (A) (A) (A) (A) (A) (A) (A) (A) (A)
                 (A) (A) (A) (A) (A) (A) (A) (A) (A) (A) (A) (A)
                 (A) (A) (A) (A) (A) (A) (A) (A) (A) (A) (A) (A)
                 (A) (A) (A) (A) (A) (A) (A) (A) (A) (A) (A) (A)
                 (A) (A) (A) (A) (A) (A) (A) (A) (A) (A) (A) (A)
                 (A) (A) (A) (A) (A) (A) (A) (A) (A) (A) (A) (A)
                 (A) (A) (A) (A) (A) (A) (A) (A) (A) (A) (A) (A)
                 (A) (A) (A) (A) (A) (A) (A) (A) (A) (A) (A) (A)
                 (A) (A) (A) (A) (A) (A) (A) (A) (A) (A) (A) (A)
                 (A) (A) (A) (A) (A) (A) (A) (A) (A) (A) (A) (A)
                 (A) (A) (A) (A) (A) (A) (A) (A) (A) (A) (A) (A)
                 (A) (A) (A) (A) (A) (A) (A) (A) (A) (A) (A) (A)
                 (A) (A) (A) (A) (A) (A) (A) (A) (A) (A) (A) (A)
                 (A) (A) (A) (A) (A) (A) (A) (A) (A) (A) (A) (A)
                 (A) (A) (A) (A) (A) (A) (A) (A) (A) (A) (A) (A)
                 (A) (A) (A) (A) (A) (A) (A) (A) (A) (A) (A) (A)
                 (A) (A) (A) (A) (A)
 The electronic state is 2-A.
 Alpha  occ. eigenvalues -- -256.29714 -30.14971 -25.99184 -25.98743 -25.98546
 Alpha  occ. eigenvalues --  -14.52905 -14.48792 -14.46895 -14.46830 -14.46714
 Alpha  occ. eigenvalues --  -14.46348 -10.36702 -10.35020 -10.34919 -10.34695
 Alpha  occ. eigenvalues --  -10.34441 -10.34382 -10.34274 -10.34116 -10.34091
 Alpha  occ. eigenvalues --  -10.33827 -10.31586 -10.31264 -10.31005 -10.30985
 Alpha  occ. eigenvalues --  -10.30885 -10.30788 -10.30652 -10.30527 -10.30475
 Alpha  occ. eigenvalues --  -10.30454 -10.30409 -10.30387 -10.30269 -10.30186
 Alpha  occ. eigenvalues --  -10.29922 -10.29856 -10.29084 -10.28866 -10.28777
 Alpha  occ. eigenvalues --  -10.28721 -10.28683 -10.28439 -10.28323 -10.28129
 Alpha  occ. eigenvalues --   -3.53007  -2.29942  -2.29016  -2.28451  -1.15491
 Alpha  occ. eigenvalues --   -1.09218  -1.08192  -1.08136  -1.07107  -1.01125
 Alpha  occ. eigenvalues --   -0.94186  -0.92719  -0.92280  -0.91691  -0.91480
 Alpha  occ. eigenvalues --   -0.91247  -0.90910  -0.89679  -0.87513  -0.86132
 Alpha  occ. eigenvalues --   -0.85616  -0.84865  -0.83244  -0.81537  -0.81198
 Alpha  occ. eigenvalues --   -0.80602  -0.78981  -0.78707  -0.78231  -0.75841
 Alpha  occ. eigenvalues --   -0.75612  -0.74530  -0.71437  -0.71190  -0.70755
 Alpha  occ. eigenvalues --   -0.69145  -0.68309  -0.65757  -0.65474  -0.65163
 Alpha  occ. eigenvalues --   -0.64378  -0.62815  -0.62213  -0.61827  -0.61412
 Alpha  occ. eigenvalues --   -0.59133  -0.58771  -0.58035  -0.57750  -0.56879
 Alpha  occ. eigenvalues --   -0.56663  -0.55703  -0.55276  -0.54945  -0.54537
 Alpha  occ. eigenvalues --   -0.54363  -0.53720  -0.53534  -0.53193  -0.53046
 Alpha  occ. eigenvalues --   -0.52836  -0.52625  -0.52316  -0.51619  -0.51339
 Alpha  occ. eigenvalues --   -0.51034  -0.50897  -0.50689  -0.50595  -0.50384
 Alpha  occ. eigenvalues --   -0.50260  -0.50133  -0.49944  -0.49739  -0.49694
 Alpha  occ. eigenvalues --   -0.49414  -0.48759  -0.48355  -0.48122  -0.47883
 Alpha  occ. eigenvalues --   -0.47421  -0.47299  -0.46835  -0.46552  -0.45875
 Alpha  occ. eigenvalues --   -0.45095  -0.44847  -0.44528  -0.44205  -0.43323
 Alpha  occ. eigenvalues --   -0.42838  -0.42098  -0.41383  -0.40663  -0.39889
 Alpha  occ. eigenvalues --   -0.39698  -0.38167  -0.37886  -0.35357  -0.34962
 Alpha  occ. eigenvalues --   -0.33690  -0.33317  -0.32677  -0.31727  -0.30289
 Alpha  occ. eigenvalues --   -0.30014  -0.29983  -0.29417
 Alpha virt. eigenvalues --   -0.17611  -0.17449  -0.13167  -0.12197  -0.08793
 Alpha virt. eigenvalues --   -0.07704  -0.07326  -0.06582  -0.05400  -0.03419
 Alpha virt. eigenvalues --   -0.02359  -0.01620  -0.01236  -0.00791   0.00285
 Alpha virt. eigenvalues --    0.01091   0.01752   0.02671   0.03141   0.03285
 Alpha virt. eigenvalues --    0.03590   0.03808   0.04228   0.04487   0.04674
 Alpha virt. eigenvalues --    0.05018   0.05644   0.06011   0.06379   0.06572
 Alpha virt. eigenvalues --    0.06924   0.07161   0.07392   0.07598   0.07983
 Alpha virt. eigenvalues --    0.08406   0.08560   0.09028   0.09174   0.09298
 Alpha virt. eigenvalues --    0.09492   0.09970   0.10011   0.10166   0.10794
 Alpha virt. eigenvalues --    0.11722   0.11832   0.11921   0.12567   0.12747
 Alpha virt. eigenvalues --    0.12874   0.13203   0.13817   0.13894   0.14212
 Alpha virt. eigenvalues --    0.14524   0.14982   0.15416   0.16164   0.16310
 Alpha virt. eigenvalues --    0.16692   0.17171   0.17370   0.17802   0.17975
 Alpha virt. eigenvalues --    0.18888   0.19720   0.20346   0.21168   0.22148
 Alpha virt. eigenvalues --    0.22540   0.23015   0.23741   0.24494   0.25392
 Alpha virt. eigenvalues --    0.25651   0.26021   0.26384   0.26720   0.27902
 Alpha virt. eigenvalues --    0.28438   0.29810   0.31500   0.32259   0.32733
 Alpha virt. eigenvalues --    0.32977   0.33339   0.33929   0.34101   0.37173
 Alpha virt. eigenvalues --    0.37299   0.37829   0.38119   0.38544   0.39268
 Alpha virt. eigenvalues --    0.39466   0.40115   0.40399   0.40582   0.41355
 Alpha virt. eigenvalues --    0.41817   0.42222   0.42502   0.42808   0.42963
 Alpha virt. eigenvalues --    0.43321   0.43800   0.44124   0.44576   0.45105
 Alpha virt. eigenvalues --    0.45413   0.45443   0.45879   0.46853   0.46902
 Alpha virt. eigenvalues --    0.47778   0.48022   0.48096   0.48500   0.49116
 Alpha virt. eigenvalues --    0.49528   0.49880   0.50140   0.50402   0.51343
 Alpha virt. eigenvalues --    0.51742   0.51794   0.52115   0.52530   0.52983
 Alpha virt. eigenvalues --    0.53482   0.54281   0.55078   0.55258   0.55433
 Alpha virt. eigenvalues --    0.55734   0.56084   0.56396   0.56767   0.57037
 Alpha virt. eigenvalues --    0.57365   0.57794   0.58096   0.58178   0.58640
 Alpha virt. eigenvalues --    0.59751   0.60094   0.60733   0.60968   0.61668
 Alpha virt. eigenvalues --    0.61879   0.62167   0.62815   0.63091   0.63559
 Alpha virt. eigenvalues --    0.63751   0.64034   0.64882   0.65342   0.65894
 Alpha virt. eigenvalues --    0.66634   0.66971   0.67360   0.67787   0.68200
 Alpha virt. eigenvalues --    0.68420   0.68604   0.69064   0.69176   0.69798
 Alpha virt. eigenvalues --    0.70225   0.70684   0.71184   0.71295   0.71946
 Alpha virt. eigenvalues --    0.72260   0.72918   0.73626   0.74817   0.75419
 Alpha virt. eigenvalues --    0.76133   0.76869   0.77849   0.77939   0.78146
 Alpha virt. eigenvalues --    0.78405   0.78454   0.79187   0.79469   0.79911
 Alpha virt. eigenvalues --    0.80071   0.80552   0.80979   0.81274   0.81641
 Alpha virt. eigenvalues --    0.81876   0.82005   0.82644   0.82982   0.83471
 Alpha virt. eigenvalues --    0.83702   0.84062   0.84378   0.84430   0.84727
 Alpha virt. eigenvalues --    0.85273   0.85896   0.86658   0.86728   0.87568
 Alpha virt. eigenvalues --    0.87831   0.88109   0.88550   0.88631   0.89061
 Alpha virt. eigenvalues --    0.89317   0.89760   0.90179   0.90650   0.90709
 Alpha virt. eigenvalues --    0.90912   0.91736   0.92058   0.92833   0.93416
 Alpha virt. eigenvalues --    0.93945   0.94263   0.94957   0.95644   0.95949
 Alpha virt. eigenvalues --    0.96275   0.96955   0.97418   0.98227   0.98972
 Alpha virt. eigenvalues --    0.99866   1.00698   1.01315   1.03994   1.04302
 Alpha virt. eigenvalues --    1.05166   1.05461   1.06241   1.06669   1.07365
 Alpha virt. eigenvalues --    1.07848   1.08047   1.08280   1.08895   1.09289
 Alpha virt. eigenvalues --    1.10145   1.10411   1.10632   1.11054   1.11622
 Alpha virt. eigenvalues --    1.12082   1.13799   1.14543   1.15142   1.15668
 Alpha virt. eigenvalues --    1.16043   1.16786   1.18658   1.19430   1.19790
 Alpha virt. eigenvalues --    1.20551   1.21724   1.22033   1.22628   1.23189
 Alpha virt. eigenvalues --    1.23909   1.24949   1.25417   1.26019   1.26491
 Alpha virt. eigenvalues --    1.26664   1.26976   1.27289   1.27805   1.27953
 Alpha virt. eigenvalues --    1.28370   1.28765   1.30710   1.31467   1.32157
 Alpha virt. eigenvalues --    1.32519   1.33366   1.34216   1.34598   1.35620
 Alpha virt. eigenvalues --    1.36514   1.37223   1.38356   1.38803   1.39585
 Alpha virt. eigenvalues --    1.40736   1.42698   1.42911   1.43494   1.43935
 Alpha virt. eigenvalues --    1.44544   1.44962   1.45242   1.45981   1.47645
 Alpha virt. eigenvalues --    1.47673   1.48565   1.50701   1.51012   1.51945
 Alpha virt. eigenvalues --    1.52701   1.54016   1.54053   1.55205   1.56026
 Alpha virt. eigenvalues --    1.57203   1.58227   1.59103   1.60071   1.61455
 Alpha virt. eigenvalues --    1.62012   1.63692   1.65537   1.67875   1.68267
 Alpha virt. eigenvalues --    1.68951   1.69713   1.70163   1.70575   1.70819
 Alpha virt. eigenvalues --    1.71161   1.71600   1.71900   1.72738   1.72826
 Alpha virt. eigenvalues --    1.73610   1.73720   1.74353   1.74755   1.74940
 Alpha virt. eigenvalues --    1.75477   1.76349   1.76977   1.77532   1.78220
 Alpha virt. eigenvalues --    1.79594   1.80529   1.80660   1.81010   1.81636
 Alpha virt. eigenvalues --    1.82107   1.82765   1.83178   1.83910   1.85050
 Alpha virt. eigenvalues --    1.85256   1.85922   1.86253   1.88114   1.89013
 Alpha virt. eigenvalues --    1.89422   1.89662   1.90748   1.91024   1.91988
 Alpha virt. eigenvalues --    1.92554   1.93003   1.93385   1.93927   1.95139
 Alpha virt. eigenvalues --    1.95887   1.96368   1.96763   1.97386   1.98567
 Alpha virt. eigenvalues --    1.98776   1.99469   2.01062   2.02550   2.02836
 Alpha virt. eigenvalues --    2.03265   2.03590   2.05119   2.05302   2.05918
 Alpha virt. eigenvalues --    2.06443   2.08021   2.08965   2.09490   2.10028
 Alpha virt. eigenvalues --    2.10176   2.12172   2.12377   2.12759   2.13440
 Alpha virt. eigenvalues --    2.13854   2.14458   2.15341   2.15406   2.16370
 Alpha virt. eigenvalues --    2.16788   2.17086   2.18055   2.18157   2.18417
 Alpha virt. eigenvalues --    2.18883   2.19316   2.19934   2.20417   2.20710
 Alpha virt. eigenvalues --    2.21355   2.21732   2.22296   2.22727   2.22978
 Alpha virt. eigenvalues --    2.23923   2.24413   2.24865   2.25311   2.26005
 Alpha virt. eigenvalues --    2.27088   2.27627   2.28108   2.28888   2.29846
 Alpha virt. eigenvalues --    2.30424   2.31223   2.31650   2.32079   2.32107
 Alpha virt. eigenvalues --    2.32564   2.33351   2.33627   2.34971   2.35707
 Alpha virt. eigenvalues --    2.38510   2.38640   2.38882   2.39682   2.40839
 Alpha virt. eigenvalues --    2.41653   2.42353   2.43029   2.43192   2.43618
 Alpha virt. eigenvalues --    2.44451   2.44832   2.46364   2.47068   2.48371
 Alpha virt. eigenvalues --    2.49717   2.49878   2.51120   2.51323   2.52542
 Alpha virt. eigenvalues --    2.54690   2.55723   2.57396   2.57767   2.59074
 Alpha virt. eigenvalues --    2.59254   2.61051   2.61749   2.64522   2.65862
 Alpha virt. eigenvalues --    2.66181   2.67611   2.68400   2.69030   2.70537
 Alpha virt. eigenvalues --    2.71542   2.76136   2.77247   2.77934   2.79535
 Alpha virt. eigenvalues --    2.80232   2.81544   2.82355   2.84894   2.86294
 Alpha virt. eigenvalues --    2.86727   2.88286   2.88814   2.89070   2.90012
 Alpha virt. eigenvalues --    2.91943   2.93749   2.95964   2.96931   3.02228
 Alpha virt. eigenvalues --    3.03651   3.06046   3.08258   3.12725   3.15522
 Alpha virt. eigenvalues --    3.18179   3.19439   3.27493   3.28531   3.30545
 Alpha virt. eigenvalues --    3.35598   3.35945   3.51437   3.54747   3.60124
 Alpha virt. eigenvalues --    3.84644   4.00599   4.19800
  Beta  occ. eigenvalues -- -256.29710 -30.14778 -25.98965 -25.98613 -25.98408
  Beta  occ. eigenvalues --  -14.52905 -14.48797 -14.47022 -14.46933 -14.46791
  Beta  occ. eigenvalues --  -14.46415 -10.36702 -10.34691 -10.34599 -10.34464
  Beta  occ. eigenvalues --  -10.34274 -10.34163 -10.34155 -10.33958 -10.33883
  Beta  occ. eigenvalues --  -10.33671 -10.31587 -10.31150 -10.31041 -10.31034
  Beta  occ. eigenvalues --  -10.30912 -10.30684 -10.30665 -10.30602 -10.30576
  Beta  occ. eigenvalues --  -10.30499 -10.30477 -10.30406 -10.30309 -10.30215
  Beta  occ. eigenvalues --  -10.29922 -10.29905 -10.29006 -10.28862 -10.28726
  Beta  occ. eigenvalues --  -10.28681 -10.28676 -10.28442 -10.28321 -10.28123
  Beta  occ. eigenvalues --   -3.52547  -2.29271  -2.28619  -2.28042  -1.15492
  Beta  occ. eigenvalues --   -1.09013  -1.07982  -1.07949  -1.06917  -1.01126
  Beta  occ. eigenvalues --   -0.93901  -0.92630  -0.92192  -0.91614  -0.91297
  Beta  occ. eigenvalues --   -0.91070  -0.90848  -0.89680  -0.87371  -0.86077
  Beta  occ. eigenvalues --   -0.85696  -0.84689  -0.83219  -0.81339  -0.81191
  Beta  occ. eigenvalues --   -0.80483  -0.78735  -0.78593  -0.78179  -0.75578
  Beta  occ. eigenvalues --   -0.75310  -0.74532  -0.71308  -0.71175  -0.70632
  Beta  occ. eigenvalues --   -0.68890  -0.68274  -0.65751  -0.65304  -0.65066
  Beta  occ. eigenvalues --   -0.64287  -0.62761  -0.62095  -0.61712  -0.61291
  Beta  occ. eigenvalues --   -0.59075  -0.58692  -0.57991  -0.57705  -0.56849
  Beta  occ. eigenvalues --   -0.56571  -0.55559  -0.54836  -0.54658  -0.54288
  Beta  occ. eigenvalues --   -0.53970  -0.53586  -0.53470  -0.53113  -0.52955
  Beta  occ. eigenvalues --   -0.52760  -0.52555  -0.52298  -0.51564  -0.51326
  Beta  occ. eigenvalues --   -0.50921  -0.50855  -0.50611  -0.50538  -0.50323
  Beta  occ. eigenvalues --   -0.50222  -0.49991  -0.49900  -0.49532  -0.49443
  Beta  occ. eigenvalues --   -0.49342  -0.48740  -0.48187  -0.48062  -0.47566
  Beta  occ. eigenvalues --   -0.47351  -0.47271  -0.46757  -0.46478  -0.45813
  Beta  occ. eigenvalues --   -0.45005  -0.44760  -0.44460  -0.44120  -0.42759
  Beta  occ. eigenvalues --   -0.42453  -0.42022  -0.41299  -0.40562  -0.39422
  Beta  occ. eigenvalues --   -0.39211  -0.37525  -0.37164  -0.35017  -0.34619
  Beta  occ. eigenvalues --   -0.33559  -0.33023  -0.32498  -0.31498  -0.30092
  Beta  occ. eigenvalues --   -0.29826  -0.28615
  Beta virt. eigenvalues --   -0.24889  -0.16745  -0.16578  -0.12931  -0.11747
  Beta virt. eigenvalues --   -0.08331  -0.07565  -0.06911  -0.06323  -0.04426
  Beta virt. eigenvalues --   -0.03376  -0.01628  -0.01169  -0.00947  -0.00710
  Beta virt. eigenvalues --    0.00808   0.01114   0.01748   0.02722   0.03286
  Beta virt. eigenvalues --    0.03717   0.03833   0.03988   0.04521   0.04764
  Beta virt. eigenvalues --    0.05036   0.05266   0.05744   0.06072   0.06452
  Beta virt. eigenvalues --    0.06664   0.06983   0.07292   0.07430   0.07680
  Beta virt. eigenvalues --    0.08061   0.08501   0.08664   0.09073   0.09239
  Beta virt. eigenvalues --    0.09333   0.09656   0.09978   0.10083   0.10274
  Beta virt. eigenvalues --    0.10911   0.11808   0.11918   0.12028   0.12630
  Beta virt. eigenvalues --    0.12809   0.12959   0.13306   0.13865   0.13919
  Beta virt. eigenvalues --    0.14326   0.14694   0.15025   0.15461   0.16240
  Beta virt. eigenvalues --    0.16400   0.16805   0.17268   0.17482   0.17875
  Beta virt. eigenvalues --    0.18024   0.19088   0.19855   0.20466   0.21415
  Beta virt. eigenvalues --    0.22284   0.22681   0.23172   0.23960   0.24729
  Beta virt. eigenvalues --    0.25639   0.25850   0.26154   0.26520   0.26867
  Beta virt. eigenvalues --    0.28100   0.28628   0.29942   0.31591   0.32348
  Beta virt. eigenvalues --    0.32920   0.33034   0.33509   0.34021   0.34246
  Beta virt. eigenvalues --    0.37256   0.37441   0.37897   0.38195   0.38685
  Beta virt. eigenvalues --    0.39417   0.39591   0.40322   0.40628   0.40759
  Beta virt. eigenvalues --    0.41530   0.42009   0.42354   0.42684   0.42917
  Beta virt. eigenvalues --    0.43132   0.43374   0.43885   0.44218   0.44645
  Beta virt. eigenvalues --    0.45221   0.45496   0.45613   0.46029   0.46964
  Beta virt. eigenvalues --    0.47063   0.47889   0.48244   0.48326   0.48733
  Beta virt. eigenvalues --    0.49188   0.49704   0.50008   0.50213   0.50512
  Beta virt. eigenvalues --    0.51470   0.51895   0.51986   0.52275   0.52813
  Beta virt. eigenvalues --    0.53137   0.53833   0.54449   0.55257   0.55368
  Beta virt. eigenvalues --    0.55561   0.55805   0.56239   0.56549   0.56792
  Beta virt. eigenvalues --    0.57083   0.57408   0.57824   0.58129   0.58207
  Beta virt. eigenvalues --    0.58793   0.59834   0.60167   0.60843   0.61186
  Beta virt. eigenvalues --    0.61825   0.61965   0.62277   0.62971   0.63332
  Beta virt. eigenvalues --    0.63659   0.63901   0.64179   0.65048   0.65448
  Beta virt. eigenvalues --    0.66128   0.66765   0.67081   0.67531   0.67988
  Beta virt. eigenvalues --    0.68246   0.68503   0.68778   0.69167   0.69323
  Beta virt. eigenvalues --    0.70044   0.70301   0.70895   0.71368   0.71510
  Beta virt. eigenvalues --    0.72250   0.72479   0.73156   0.73848   0.74990
  Beta virt. eigenvalues --    0.75574   0.76347   0.76972   0.77857   0.77985
  Beta virt. eigenvalues --    0.78185   0.78399   0.78568   0.79208   0.79507
  Beta virt. eigenvalues --    0.79919   0.80129   0.80601   0.81026   0.81296
  Beta virt. eigenvalues --    0.81686   0.81902   0.82039   0.82663   0.83013
  Beta virt. eigenvalues --    0.83512   0.83746   0.84142   0.84423   0.84497
  Beta virt. eigenvalues --    0.84817   0.85353   0.85977   0.86747   0.86821
  Beta virt. eigenvalues --    0.87581   0.87858   0.88196   0.88630   0.88760
  Beta virt. eigenvalues --    0.89154   0.89450   0.89835   0.90312   0.90727
  Beta virt. eigenvalues --    0.90835   0.91001   0.91819   0.92157   0.92970
  Beta virt. eigenvalues --    0.93567   0.94017   0.94365   0.95003   0.95744
  Beta virt. eigenvalues --    0.96010   0.96336   0.97036   0.97470   0.98339
  Beta virt. eigenvalues --    0.99134   0.99903   1.00764   1.01413   1.04062
  Beta virt. eigenvalues --    1.04395   1.05252   1.05523   1.06336   1.06789
  Beta virt. eigenvalues --    1.07446   1.07934   1.08100   1.08419   1.08993
  Beta virt. eigenvalues --    1.09467   1.10277   1.10479   1.10758   1.11127
  Beta virt. eigenvalues --    1.11725   1.12226   1.13914   1.14662   1.15295
  Beta virt. eigenvalues --    1.15822   1.16235   1.16973   1.18895   1.19507
  Beta virt. eigenvalues --    1.20030   1.20677   1.21840   1.22140   1.22751
  Beta virt. eigenvalues --    1.23348   1.24056   1.25112   1.25559   1.26168
  Beta virt. eigenvalues --    1.26638   1.26938   1.27413   1.27524   1.27972
  Beta virt. eigenvalues --    1.28128   1.28506   1.28979   1.30778   1.31622
  Beta virt. eigenvalues --    1.32300   1.32686   1.33580   1.34352   1.34797
  Beta virt. eigenvalues --    1.35765   1.36658   1.37343   1.38532   1.38908
  Beta virt. eigenvalues --    1.39703   1.40816   1.42805   1.42961   1.43639
  Beta virt. eigenvalues --    1.44115   1.44684   1.45136   1.45366   1.46108
  Beta virt. eigenvalues --    1.47802   1.47825   1.48740   1.50798   1.51159
  Beta virt. eigenvalues --    1.52101   1.52793   1.54154   1.54177   1.55336
  Beta virt. eigenvalues --    1.56234   1.57402   1.58315   1.59406   1.60363
  Beta virt. eigenvalues --    1.61664   1.62220   1.63764   1.65838   1.67966
  Beta virt. eigenvalues --    1.68338   1.69075   1.69809   1.70372   1.70685
  Beta virt. eigenvalues --    1.70932   1.71267   1.71729   1.71975   1.72796
  Beta virt. eigenvalues --    1.72930   1.73652   1.73823   1.74442   1.74817
  Beta virt. eigenvalues --    1.75009   1.75552   1.76438   1.77067   1.77598
  Beta virt. eigenvalues --    1.78295   1.79701   1.80578   1.80755   1.81104
  Beta virt. eigenvalues --    1.81715   1.82223   1.82939   1.83382   1.84056
  Beta virt. eigenvalues --    1.85198   1.85429   1.86008   1.86311   1.88218
  Beta virt. eigenvalues --    1.89081   1.89531   1.89818   1.90841   1.91096
  Beta virt. eigenvalues --    1.92064   1.92659   1.93105   1.93492   1.94016
  Beta virt. eigenvalues --    1.95334   1.95964   1.96482   1.96857   1.97488
  Beta virt. eigenvalues --    1.98688   1.98948   1.99534   2.01140   2.02584
  Beta virt. eigenvalues --    2.02928   2.03323   2.03701   2.05248   2.05561
  Beta virt. eigenvalues --    2.05983   2.06679   2.08210   2.09156   2.09649
  Beta virt. eigenvalues --    2.10213   2.10278   2.12388   2.12595   2.12808
  Beta virt. eigenvalues --    2.13648   2.13974   2.14647   2.15492   2.15507
  Beta virt. eigenvalues --    2.16551   2.16971   2.17238   2.18094   2.18392
  Beta virt. eigenvalues --    2.18542   2.19203   2.19483   2.20088   2.20642
  Beta virt. eigenvalues --    2.20964   2.21435   2.21952   2.22528   2.22976
  Beta virt. eigenvalues --    2.23335   2.24230   2.24867   2.25015   2.25523
  Beta virt. eigenvalues --    2.26228   2.27237   2.27794   2.28269   2.28965
  Beta virt. eigenvalues --    2.29881   2.30541   2.31387   2.31905   2.32159
  Beta virt. eigenvalues --    2.32399   2.32677   2.33557   2.33875   2.35178
  Beta virt. eigenvalues --    2.35841   2.38716   2.38790   2.39014   2.39702
  Beta virt. eigenvalues --    2.40988   2.41818   2.42573   2.43162   2.43345
  Beta virt. eigenvalues --    2.43754   2.44529   2.44951   2.46626   2.47315
  Beta virt. eigenvalues --    2.48464   2.50017   2.50208   2.51215   2.51549
  Beta virt. eigenvalues --    2.52561   2.54791   2.55977   2.57612   2.58107
  Beta virt. eigenvalues --    2.59146   2.59468   2.61083   2.61833   2.64560
  Beta virt. eigenvalues --    2.65894   2.66207   2.67709   2.68492   2.69217
  Beta virt. eigenvalues --    2.70593   2.71599   2.76261   2.77356   2.78007
  Beta virt. eigenvalues --    2.79618   2.80471   2.81822   2.82545   2.84984
  Beta virt. eigenvalues --    2.86391   2.86793   2.88386   2.88983   2.89222
  Beta virt. eigenvalues --    2.90194   2.91953   2.93833   2.96039   2.96988
  Beta virt. eigenvalues --    3.02351   3.03774   3.06047   3.08343   3.12843
  Beta virt. eigenvalues --    3.15600   3.18285   3.19528   3.27578   3.28616
  Beta virt. eigenvalues --    3.30622   3.35678   3.36024   3.51685   3.55471
  Beta virt. eigenvalues --    3.60213   3.84768   4.00728   4.19962
          Condensed to atoms (all electrons):
          Atomic-Atomic Spin Densities.
 Mulliken charges and spin densities:
               1          2
     1  Fe   0.767083   0.102215
     2  N   -0.671723  -0.059669
     3  N   -0.668718  -0.070140
     4  N   -0.678408  -0.044975
     5  N   -0.652163  -0.039168
     6  C    0.343982   0.151198
     7  C    0.044668   0.066092
     8  C    0.038962  -0.030124
     9  C    0.339190   0.215938
    10  C    0.335384   0.222954
    11  C    0.036229  -0.044861
    12  C    0.005025   0.083150
    13  C    0.351952   0.153456
    14  C    0.344761   0.188292
    15  C    0.039956  -0.071899
    16  C    0.014269   0.100616
    17  C    0.327014   0.088784
    18  C    0.320235   0.105074
    19  C    0.046035   0.049583
    20  C    0.038668  -0.025822
    21  C    0.349708   0.157304
    22  C   -0.302408  -0.089437
    23  H    0.194511   0.003368
    24  C   -0.315579  -0.125539
    25  H    0.196080   0.004613
    26  C   -0.301015  -0.098536
    27  H    0.200388   0.003842
    28  C   -0.303078  -0.056514
    29  H    0.194818   0.002025
    30  C   -0.610843   0.001771
    31  H    0.206832  -0.000316
    32  H    0.200542  -0.000153
    33  H    0.208246  -0.000188
    34  C   -0.612109  -0.004479
    35  H    0.210695   0.003404
    36  H    0.205146   0.003693
    37  H    0.206960  -0.000170
    38  C   -0.603561   0.002940
    39  H    0.208211  -0.000728
    40  H    0.201769  -0.000545
    41  H    0.206124  -0.000343
    42  C   -0.156099  -0.030602
    43  H    0.194370   0.002793
    44  C   -0.390624   0.055546
    45  H    0.186460  -0.002802
    46  H    0.200039  -0.002524
    47  C   -0.615320   0.005046
    48  H    0.202001  -0.001172
    49  H    0.203929  -0.002165
    50  H    0.213058  -0.000788
    51  C   -0.153357  -0.037818
    52  H    0.186852   0.002990
    53  C   -0.384779   0.072528
    54  H    0.192271  -0.003464
    55  H    0.198591  -0.003642
    56  C   -0.611056  -0.003293
    57  H    0.209729   0.002903
    58  H    0.200688   0.002348
    59  H    0.205468  -0.000111
    60  C   -0.611341   0.001663
    61  H    0.204432  -0.000248
    62  H    0.201062  -0.000297
    63  H    0.206810  -0.000300
    64  C   -0.601823  -0.000039
    65  H    0.217516  -0.000002
    66  H    0.209958   0.000018
    67  H    0.210408   0.000017
    68  N   -0.630929   0.000299
    69  H    0.381571  -0.000012
    70  C    0.279729   0.000257
    71  C    0.244853   0.000004
    72  H    0.217791  -0.000545
    73  N   -0.427430  -0.002504
    74  C   -0.048584  -0.000563
    75  H    0.199918  -0.000227
 Sum of Mulliken charges =   1.00000   1.00000
 Mulliken charges and spin densities with hydrogens summed into heavy atoms:
               1          2
     1  Fe   0.767083   0.102215
     2  N   -0.671723  -0.059669
     3  N   -0.668718  -0.070140
     4  N   -0.678408  -0.044975
     5  N   -0.652163  -0.039168
     6  C    0.343982   0.151198
     7  C    0.044668   0.066092
     8  C    0.038962  -0.030124
     9  C    0.339190   0.215938
    10  C    0.335384   0.222954
    11  C    0.036229  -0.044861
    12  C    0.005025   0.083150
    13  C    0.351952   0.153456
    14  C    0.344761   0.188292
    15  C    0.039956  -0.071899
    16  C    0.014269   0.100616
    17  C    0.327014   0.088784
    18  C    0.320235   0.105074
    19  C    0.046035   0.049583
    20  C    0.038668  -0.025822
    21  C    0.349708   0.157304
    22  C   -0.107897  -0.086069
    24  C   -0.119498  -0.120926
    26  C   -0.100626  -0.094694
    28  C   -0.108260  -0.054489
    30  C    0.004777   0.001114
    34  C    0.010691   0.002448
    38  C    0.012544   0.001324
    42  C    0.038270  -0.027809
    44  C   -0.004125   0.050220
    47  C    0.003668   0.000921
    51  C    0.033495  -0.034828
    53  C    0.006083   0.065422
    56  C    0.004829   0.001847
    60  C    0.000963   0.000819
    64  C    0.036058  -0.000006
    68  N   -0.249358   0.000287
    70  C    0.279729   0.000257
    71  C    0.462644  -0.000541
    73  N   -0.427430  -0.002504
    74  C    0.151335  -0.000790
 Electronic spatial extent (au):  <R**2>=          19244.2442
 Charge=              1.0000 electrons
 Dipole moment (field-independent basis, Debye):
    X=              1.3346    Y=              0.5222    Z=              4.7864  Tot=              4.9964
 Quadrupole moment (field-independent basis, Debye-Ang):
   XX=           -165.9656   YY=           -171.3878   ZZ=           -209.4275
   XY=              3.6483   XZ=              1.6435   YZ=              2.6700
 Traceless Quadrupole moment (field-independent basis, Debye-Ang):
   XX=             16.2947   YY=             10.8725   ZZ=            -27.1672
   XY=              3.6483   XZ=              1.6435   YZ=              2.6700
 Octapole moment (field-independent basis, Debye-Ang**2):
  XXX=              5.6405  YYY=             18.7279  ZZZ=            167.9122  XYY=             -3.4962
  XXY=             -9.5259  XXZ=            -41.4003  XZZ=             20.1532  YZZ=             -0.6775
  YYZ=            -12.5819  XYZ=            -10.8825
 Hexadecapole moment (field-independent basis, Debye-Ang**3):
 XXXX=          -9631.3025 YYYY=          -9284.7469 ZZZZ=          -2414.2945 XXXY=            112.8942
 XXXZ=            -40.0818 YYYX=           -101.6750 YYYZ=             -7.6196 ZZZX=             45.2694
 ZZZY=              8.1948 XXYY=          -3285.2155 XXZZ=          -2426.8662 YYZZ=          -2373.7659
 XXYZ=             92.2219 YYXZ=            -13.3516 ZZXY=             65.7327
 N-N= 5.607518457406D+03 E-N=-1.801146038921D+04  KE= 2.896045600574D+03
                          Isotropic Fermi Contact Couplings
        Atom                 a.u.       MegaHertz       Gauss      10(-4) cm-1
     1  Fe(57)             0.01570       2.27724       0.81258       0.75961
     2  N(14)             -0.01465      -4.73335      -1.68898      -1.57887
     3  N(14)             -0.01697      -5.48351      -1.95665      -1.82910
     4  N(14)             -0.01083      -3.49816      -1.24823      -1.16686
     5  N(14)             -0.00996      -3.21951      -1.14880      -1.07391
     6  C(13)              0.02051      23.05665       8.22719       7.69087
     7  C(13)              0.00705       7.92328       2.82722       2.64292
     8  C(13)             -0.00700      -7.87459      -2.80985      -2.62668
     9  C(13)              0.03112      34.98706      12.48425      11.67043
    10  C(13)              0.03225      36.25408      12.93636      12.09306
    11  C(13)             -0.00951     -10.68606      -3.81305      -3.56448
    12  C(13)              0.00960      10.78893       3.84976       3.59880
    13  C(13)              0.02100      23.60340       8.42228       7.87325
    14  C(13)              0.02692      30.25823      10.79689      10.09306
    15  C(13)             -0.01292     -14.52606      -5.18326      -4.84537
    16  C(13)              0.01307      14.68788       5.24100       4.89935
    17  C(13)              0.01134      12.75360       4.55080       4.25414
    18  C(13)              0.01440      16.18542       5.77536       5.39888
    19  C(13)              0.00539       6.05457       2.16042       2.01959
    20  C(13)             -0.00568      -6.38346      -2.27778      -2.12929
    21  C(13)              0.02219      24.94471       8.90089       8.32066
    22  C(13)             -0.01565     -17.59148      -6.27708      -5.86789
    23  H(1)               0.00106       4.75833       1.69789       1.58721
    24  C(13)             -0.02185     -24.56116      -8.76403      -8.19272
    25  H(1)               0.00146       6.53004       2.33008       2.17819
    26  C(13)             -0.01724     -19.37910      -6.91495      -6.46417
    27  H(1)               0.00113       5.05019       1.80203       1.68456
    28  C(13)             -0.00986     -11.08815      -3.95653      -3.69861
    29  H(1)               0.00068       3.05315       1.08944       1.01842
    30  C(13)              0.00013       0.14590       0.05206       0.04867
    31  H(1)              -0.00013      -0.56797      -0.20266      -0.18945
    32  H(1)               0.00010       0.45939       0.16392       0.15323
    33  H(1)               0.00013       0.57322       0.20454       0.19121
    34  C(13)             -0.00236      -2.64847      -0.94504      -0.88343
    35  H(1)               0.00213       9.50337       3.39104       3.16998
    36  H(1)               0.00220       9.82353       3.50528       3.27678
    37  H(1)              -0.00006      -0.25196      -0.08990      -0.08404
    38  C(13)              0.00051       0.57104       0.20376       0.19048
    39  H(1)              -0.00019      -0.83804      -0.29903      -0.27954
    40  H(1)              -0.00003      -0.15133      -0.05400      -0.05048
    41  H(1)              -0.00013      -0.56417      -0.20131      -0.18819
    42  C(13)             -0.00636      -7.14778      -2.55050      -2.38424
    43  H(1)               0.00119       5.33138       1.90237       1.77836
    44  C(13)              0.00842       9.46893       3.37875       3.15849
    45  H(1)              -0.00085      -3.80302      -1.35701      -1.26855
    46  H(1)              -0.00080      -3.58958      -1.28085      -1.19736
    47  C(13)              0.00164       1.84721       0.65913       0.61616
    48  H(1)              -0.00050      -2.22382      -0.79352      -0.74179
    49  H(1)              -0.00109      -4.86528      -1.73605      -1.62288
    50  H(1)              -0.00029      -1.27903      -0.45639      -0.42664
    51  C(13)             -0.00758      -8.52650      -3.04247      -2.84413
    52  H(1)               0.00131       5.85918       2.09070       1.95441
    53  C(13)              0.01014      11.39498       4.06601       3.80096
    54  H(1)              -0.00110      -4.90486      -1.75018      -1.63609
    55  H(1)              -0.00114      -5.08059      -1.81288      -1.69470
    56  C(13)             -0.00170      -1.91537      -0.68345      -0.63890
    57  H(1)               0.00170       7.58285       2.70575       2.52937
    58  H(1)               0.00147       6.57773       2.34710       2.19409
    59  H(1)              -0.00004      -0.15798      -0.05637      -0.05270
    60  C(13)              0.00021       0.23897       0.08527       0.07971
    61  H(1)              -0.00010      -0.44092      -0.15733      -0.14707
    62  H(1)               0.00002       0.09199       0.03282       0.03068
    63  H(1)              -0.00002      -0.09832      -0.03508      -0.03280
    64  C(13)             -0.00002      -0.02392      -0.00853      -0.00798
    65  H(1)              -0.00000      -0.00715      -0.00255      -0.00238
    66  H(1)               0.00001       0.04985       0.01779       0.01663
    67  H(1)               0.00001       0.03850       0.01374       0.01284
    68  N(14)             -0.00007      -0.02173      -0.00775      -0.00725
    69  H(1)              -0.00001      -0.02907      -0.01037      -0.00970
    70  C(13)             -0.00008      -0.08585      -0.03063      -0.02864
    71  C(13)             -0.00005      -0.06064      -0.02164      -0.02023
    72  H(1)               0.00000       0.00891       0.00318       0.00297
    73  N(14)             -0.00289      -0.93281      -0.33285      -0.31115
    74  C(13)             -0.00022      -0.24596      -0.08777      -0.08204
    75  H(1)               0.00000       0.01499       0.00535       0.00500
 --------------------------------------------------------
       Center         ----  Spin Dipole Couplings  ----
                      3XX-RR        3YY-RR        3ZZ-RR
 --------------------------------------------------------
     1   Atom        0.025725     -0.156583      0.130858
     2   Atom        0.040584      0.037494     -0.078079
     3   Atom        0.048854      0.050821     -0.099675
     4   Atom        0.030414      0.027111     -0.057524
     5   Atom        0.022404      0.024415     -0.046819
     6   Atom       -0.075270     -0.078926      0.154196
     7   Atom       -0.033882     -0.039167      0.073048
     8   Atom        0.006365      0.004424     -0.010789
     9   Atom       -0.102611     -0.110437      0.213048
    10   Atom       -0.108942     -0.108107      0.217049
    11   Atom        0.011746      0.013038     -0.024784
    12   Atom       -0.046275     -0.041266      0.087541
    13   Atom       -0.083509     -0.074550      0.158059
    14   Atom       -0.088831     -0.088046      0.176877
    15   Atom        0.025168      0.026205     -0.051373
    16   Atom       -0.044861     -0.051791      0.096652
    17   Atom       -0.042178     -0.049058      0.091236
    18   Atom       -0.051999     -0.050436      0.102435
    19   Atom       -0.028309     -0.022411      0.050720
    20   Atom        0.005312      0.006295     -0.011607
    21   Atom       -0.080716     -0.072522      0.153238
    22   Atom        0.033377      0.031929     -0.065306
    23   Atom        0.000715      0.002111     -0.002826
    24   Atom        0.045277      0.045961     -0.091238
    25   Atom        0.002148      0.001098     -0.003246
    26   Atom        0.034769      0.036190     -0.070959
    27   Atom        0.000591      0.002452     -0.003043
    28   Atom        0.019914      0.019745     -0.039659
    29   Atom        0.001644      0.000745     -0.002389
    30   Atom        0.001398     -0.001247     -0.000151
    31   Atom        0.001438     -0.000462     -0.000976
    32   Atom        0.001100      0.000035     -0.001135
    33   Atom        0.000893      0.000003     -0.000896
    34   Atom        0.000565     -0.003042      0.002477
    35   Atom        0.000827      0.000337     -0.001163
    36   Atom        0.001145     -0.000067     -0.001078
    37   Atom        0.002274     -0.001149     -0.001125
    38   Atom       -0.001303      0.001479     -0.000176
    39   Atom       -0.000266      0.001353     -0.001086
    40   Atom       -0.000141      0.001080     -0.000939
    41   Atom       -0.000460      0.001415     -0.000954
    42   Atom       -0.000145      0.008177     -0.008032
    43   Atom        0.000041      0.001365     -0.001407
    44   Atom        0.008492     -0.020689      0.012197
    45   Atom       -0.000704      0.001554     -0.000851
    46   Atom        0.000038      0.001989     -0.002026
    47   Atom        0.001397     -0.000244     -0.001153
    48   Atom        0.001080     -0.000090     -0.000990
    49   Atom        0.001010     -0.000013     -0.000997
    50   Atom        0.000558      0.000532     -0.001090
    51   Atom        0.015728     -0.001328     -0.014400
    52   Atom        0.002321     -0.000305     -0.002016
    53   Atom       -0.023546     -0.006438      0.029984
    54   Atom       -0.001930      0.001583      0.000346
    55   Atom        0.000785      0.000784     -0.001569
    56   Atom       -0.002233      0.000788      0.001445
    57   Atom       -0.000255      0.001109     -0.000854
    58   Atom        0.000383      0.000653     -0.001036
    59   Atom       -0.000868      0.001724     -0.000856
    60   Atom       -0.000974      0.001141     -0.000167
    61   Atom       -0.000345      0.001095     -0.000750
    62   Atom       -0.000121      0.000780     -0.000659
    63   Atom       -0.000043      0.001035     -0.000992
    64   Atom       -0.000317     -0.000278      0.000595
    65   Atom       -0.000294     -0.000289      0.000583
    66   Atom       -0.000279     -0.000275      0.000554
    67   Atom       -0.000302     -0.000256      0.000558
    68   Atom       -0.000128     -0.000442      0.000570
    69   Atom       -0.000428     -0.000425      0.000853
    70   Atom       -0.000386     -0.000178      0.000564
    71   Atom       -0.001090     -0.000293      0.001384
    72   Atom       -0.000919     -0.000658      0.001577
    73   Atom        0.001215      0.000952     -0.002167
    74   Atom       -0.000680     -0.000448      0.001128
    75   Atom       -0.000423     -0.000344      0.000767
 --------------------------------------------------------
                        XY            XZ            YZ
 --------------------------------------------------------
     1   Atom       -0.444993     -0.010542     -0.064148
     2   Atom       -0.000318     -0.006428     -0.004535
     3   Atom        0.000818     -0.012209      0.012835
     4   Atom        0.000374      0.007939      0.009987
     5   Atom        0.001623      0.005405     -0.006897
     6   Atom        0.004649      0.023971      0.022183
     7   Atom       -0.000851      0.008935      0.006876
     8   Atom        0.001473     -0.002322     -0.000944
     9   Atom       -0.001891      0.035806     -0.001684
    10   Atom       -0.005510      0.036079     -0.027554
    11   Atom        0.001281      0.000934      0.004220
    12   Atom       -0.003164      0.013174     -0.014531
    13   Atom        0.002060      0.000650     -0.031261
    14   Atom        0.007449     -0.035712     -0.043678
    15   Atom       -0.001573      0.013346      0.004409
    16   Atom        0.003318     -0.019583     -0.017296
    17   Atom        0.000042     -0.025262     -0.007497
    18   Atom       -0.004812     -0.023857      0.023630
    19   Atom       -0.000521     -0.007839      0.015016
    20   Atom       -0.000786      0.001399     -0.004434
    21   Atom       -0.000021     -0.009080      0.035826
    22   Atom        0.005026     -0.002885     -0.012654
    23   Atom        0.003352     -0.000402     -0.000715
    24   Atom       -0.006083     -0.015245      0.005970
    25   Atom       -0.004333     -0.000711      0.000544
    26   Atom        0.004531      0.006769      0.016263
    27   Atom        0.003555      0.000442      0.001279
    28   Atom       -0.003981      0.009036     -0.002757
    29   Atom       -0.002341      0.000799     -0.000179
    30   Atom        0.001296      0.000011     -0.000200
    31   Atom        0.000653     -0.000332     -0.000115
    32   Atom        0.001396      0.000308      0.000392
    33   Atom        0.001334     -0.000793     -0.000795
    34   Atom       -0.001320      0.000240      0.000858
    35   Atom       -0.001686     -0.000770      0.001288
    36   Atom       -0.001856      0.000717     -0.001032
    37   Atom       -0.000266     -0.000361      0.000065
    38   Atom        0.001028      0.000397      0.000081
    39   Atom        0.001228     -0.000402     -0.000431
    40   Atom        0.001154      0.000589      0.000707
    41   Atom        0.000494      0.000005      0.000246
    42   Atom       -0.006990     -0.015581     -0.006395
    43   Atom       -0.000966     -0.000844      0.000354
    44   Atom        0.011650      0.036894      0.015137
    45   Atom        0.001308     -0.000830     -0.001296
    46   Atom       -0.003414      0.000725      0.001669
    47   Atom       -0.000260      0.000546     -0.000046
    48   Atom       -0.000721      0.000541     -0.000207
    49   Atom       -0.000257     -0.000115      0.000212
    50   Atom       -0.000022      0.000354     -0.000258
    51   Atom        0.006070     -0.008224      0.017601
    52   Atom        0.001456      0.000410      0.000410
    53   Atom       -0.016394      0.026499     -0.043131
    54   Atom       -0.002720     -0.000819      0.002219
    55   Atom        0.004117      0.002668     -0.000095
    56   Atom        0.000839     -0.000656      0.000690
    57   Atom        0.001294      0.000682      0.000489
    58   Atom        0.001173     -0.000914     -0.000691
    59   Atom        0.000180     -0.000035     -0.000450
    60   Atom       -0.000838      0.000225     -0.000164
    61   Atom       -0.000444      0.000123     -0.000350
    62   Atom       -0.000878      0.000605     -0.000737
    63   Atom       -0.000990     -0.000192      0.000125
    64   Atom       -0.000001     -0.000139     -0.000144
    65   Atom        0.000037     -0.000228     -0.000213
    66   Atom        0.000013     -0.000157     -0.000073
    67   Atom        0.000010     -0.000054     -0.000168
    68   Atom       -0.000584     -0.000315      0.000269
    69   Atom       -0.000054      0.000109      0.000036
    70   Atom       -0.000330     -0.000279     -0.000132
    71   Atom       -0.000087     -0.000234      0.000150
    72   Atom       -0.000881      0.000149     -0.000169
    73   Atom       -0.001036     -0.000061      0.000218
    74   Atom        0.000347     -0.000468      0.000113
    75   Atom       -0.000387     -0.000405     -0.000173
 --------------------------------------------------------


 ---------------------------------------------------------------------------------
              Anisotropic Spin Dipole Couplings in Principal Axis System
 ---------------------------------------------------------------------------------

       Atom             a.u.   MegaHertz   Gauss  10(-4) cm-1        Axes

              Baa    -0.5245    -9.081    -3.240    -3.029  0.6275  0.7739  0.0858
     1 Fe(57) Bbb     0.1317     2.279     0.813     0.760 -0.1505  0.0124  0.9885
              Bcc     0.3929     6.802     2.427     2.269  0.7639 -0.6332  0.1243
 
              Baa    -0.0786    -3.032    -1.082    -1.011  0.0539  0.0391  0.9978
     2 N(14)  Bbb     0.0377     1.453     0.518     0.485  0.0202  0.9990 -0.0403
              Bcc     0.0409     1.579     0.563     0.527  0.9983 -0.0223 -0.0531
 
              Baa    -0.1018    -3.924    -1.400    -1.309  0.0810 -0.0840  0.9932
     3 N(14)  Bbb     0.0498     1.922     0.686     0.641  0.9915  0.1087 -0.0716
              Bcc     0.0519     2.003     0.715     0.668 -0.1019  0.9905  0.0921
 
              Baa    -0.0594    -2.290    -0.817    -0.764 -0.0870 -0.1139  0.9897
     4 N(14)  Bbb     0.0278     1.071     0.382     0.357 -0.3592  0.9302  0.0755
              Bcc     0.0316     1.219     0.435     0.406  0.9292  0.3489  0.1219
 
              Baa    -0.0479    -1.848    -0.659    -0.616 -0.0785  0.0964  0.9922
     5 N(14)  Bbb     0.0224     0.864     0.308     0.288  0.9229 -0.3693  0.1089
              Bcc     0.0255     0.984     0.351     0.328  0.3770  0.9243 -0.0599
 
              Baa    -0.0823   -11.040    -3.939    -3.682 -0.4648  0.8847 -0.0359
     6 C(13)  Bbb    -0.0765   -10.271    -3.665    -3.426  0.8794  0.4565 -0.1352
              Bcc     0.1588    21.311     7.604     7.109  0.1033  0.0944  0.9902
 
              Baa    -0.0399    -5.361    -1.913    -1.788  0.2511  0.9648 -0.0786
     7 C(13)  Bbb    -0.0342    -4.596    -1.640    -1.533  0.9645 -0.2562 -0.0639
              Bcc     0.0742     9.956     3.553     3.321  0.0818  0.0597  0.9949
 
              Baa    -0.0111    -1.494    -0.533    -0.498  0.1274  0.0481  0.9907
     8 C(13)  Bbb     0.0036     0.488     0.174     0.163 -0.4639  0.8858  0.0167
              Bcc     0.0075     1.006     0.359     0.336  0.8767  0.4617 -0.1351
 
              Baa    -0.1111   -14.907    -5.319    -4.972  0.3525  0.9352 -0.0341
     9 C(13)  Bbb    -0.1060   -14.222    -5.075    -4.744  0.9292 -0.3541 -0.1062
              Bcc     0.2171    29.129    10.394     9.716  0.1113 -0.0058  0.9938
 
              Baa    -0.1144   -15.356    -5.479    -5.122  0.8480  0.5278 -0.0484
    10 C(13)  Bbb    -0.1089   -14.617    -5.216    -4.876 -0.5187  0.8452  0.1289
              Bcc     0.2234    29.973    10.695     9.998  0.1089 -0.0841  0.9905
 
              Baa    -0.0253    -3.390    -1.210    -1.131 -0.0213 -0.1088  0.9938
    11 C(13)  Bbb     0.0110     1.477     0.527     0.493  0.8758 -0.4816 -0.0339
              Bcc     0.0143     1.914     0.683     0.638  0.4823  0.8696  0.1055
 
              Baa    -0.0481    -6.459    -2.305    -2.154  0.9480  0.3130 -0.0585
    12 C(13)  Bbb    -0.0423    -5.683    -2.028    -1.896 -0.3030  0.9432  0.1363
              Bcc     0.0905    12.142     4.332     4.050  0.0978 -0.1114  0.9889
 
              Baa    -0.0843   -11.314    -4.037    -3.774  0.9355 -0.3500 -0.0477
    13 C(13)  Bbb    -0.0779   -10.450    -3.729    -3.486  0.3533  0.9275  0.1219
              Bcc     0.1622    21.764     7.766     7.260  0.0015 -0.1309  0.9914
 
              Baa    -0.0962   -12.904    -4.605    -4.304 -0.5451  0.8361  0.0625
    14 C(13)  Bbb    -0.0925   -12.414    -4.430    -4.141  0.8282  0.5254  0.1950
              Bcc     0.1887    25.319     9.034     8.445 -0.1302 -0.1580  0.9788
 
              Baa    -0.0539    -7.233    -2.581    -2.413 -0.1673 -0.0575  0.9842
    15 C(13)  Bbb     0.0260     3.490     1.245     1.164  0.4810  0.8667  0.1323
              Bcc     0.0279     3.743     1.336     1.249  0.8606 -0.4955  0.1173
 
              Baa    -0.0540    -7.240    -2.583    -2.415 -0.1605  0.9827  0.0920
    16 C(13)  Bbb    -0.0474    -6.358    -2.269    -2.121  0.9778  0.1456  0.1504
              Bcc     0.1013    13.598     4.852     4.536 -0.1344 -0.1141  0.9843
 
              Baa    -0.0500    -6.706    -2.393    -2.237  0.3663  0.9234  0.1146
    17 C(13)  Bbb    -0.0463    -6.208    -2.215    -2.071  0.9130 -0.3805  0.1470
              Bcc     0.0962    12.914     4.608     4.308 -0.1793 -0.0507  0.9825
 
              Baa    -0.0563    -7.551    -2.694    -2.519  0.8768  0.4769  0.0608
    18 C(13)  Bbb    -0.0534    -7.164    -2.556    -2.390 -0.4572  0.8663 -0.2014
              Bcc     0.1097    14.715     5.251     4.908 -0.1487  0.1488  0.9776
 
              Baa    -0.0293    -3.932    -1.403    -1.311  0.9647 -0.2252  0.1368
    19 C(13)  Bbb    -0.0251    -3.371    -1.203    -1.124  0.2462  0.9553 -0.1637
              Bcc     0.0544     7.302     2.606     2.436 -0.0938  0.1916  0.9770
 
              Baa    -0.0127    -1.707    -0.609    -0.569 -0.0657  0.2240  0.9724
    20 C(13)  Bbb     0.0049     0.658     0.235     0.220  0.9112  0.4106 -0.0330
              Bcc     0.0078     1.049     0.374     0.350 -0.4067  0.8839 -0.2311
 
              Baa    -0.0816   -10.948    -3.906    -3.652  0.9312 -0.3533  0.0899
    21 C(13)  Bbb    -0.0775   -10.405    -3.713    -3.471  0.3626  0.9230 -0.1290
              Bcc     0.1591    21.353     7.619     7.123 -0.0374  0.1527  0.9876
 
              Baa    -0.0670    -8.987    -3.207    -2.998  0.0222  0.1258  0.9918
    22 C(13)  Bbb     0.0281     3.776     1.347     1.259  0.7109 -0.6995  0.0728
              Bcc     0.0388     5.212     1.860     1.738  0.7029  0.7035 -0.1050
 
              Baa    -0.0029    -1.564    -0.558    -0.522 -0.0509  0.1734  0.9835
    23 H(1)   Bbb    -0.0020    -1.062    -0.379    -0.354  0.7783 -0.6103  0.1479
              Bcc     0.0049     2.626     0.937     0.876  0.6259  0.7730 -0.1039
 
              Baa    -0.0931   -12.496    -4.459    -4.168  0.1078 -0.0379  0.9935
    24 C(13)  Bbb     0.0399     5.348     1.908     1.784  0.6848  0.7273 -0.0465
              Bcc     0.0533     7.148     2.551     2.384  0.7208 -0.6853 -0.1043
 
              Baa    -0.0033    -1.781    -0.636    -0.594  0.1419  0.0172  0.9897
    25 H(1)   Bbb    -0.0027    -1.459    -0.521    -0.487  0.6513  0.7513 -0.1064
              Bcc     0.0061     3.240     1.156     1.081  0.7454 -0.6597 -0.0954
 
              Baa    -0.0737    -9.891    -3.529    -3.299 -0.0556 -0.1439  0.9880
    26 C(13)  Bbb     0.0311     4.175     1.490     1.393  0.8064 -0.5900 -0.0405
              Bcc     0.0426     5.716     2.040     1.907  0.5887  0.7945  0.1489
 
              Baa    -0.0034    -1.807    -0.645    -0.603  0.1738 -0.3105  0.9346
    27 H(1)   Bbb    -0.0020    -1.070    -0.382    -0.357  0.7830 -0.5320 -0.3223
              Bcc     0.0054     2.877     1.027     0.960  0.5972  0.7878  0.1507
 
              Baa    -0.0411    -5.512    -1.967    -1.839 -0.1442  0.0354  0.9889
    28 C(13)  Bbb     0.0161     2.166     0.773     0.722  0.6441  0.7620  0.0666
              Bcc     0.0249     3.346     1.194     1.116  0.7512 -0.6466  0.1327
 
              Baa    -0.0026    -1.374    -0.490    -0.458 -0.2512 -0.1253  0.9598
    29 H(1)   Bbb    -0.0011    -0.583    -0.208    -0.194  0.5851  0.7703  0.2537
              Bcc     0.0037     1.956     0.698     0.653  0.7711 -0.6253  0.1202
 
              Baa    -0.0018    -0.241    -0.086    -0.080 -0.3737  0.9205  0.1139
    30 C(13)  Bbb    -0.0001    -0.018    -0.006    -0.006  0.0724 -0.0935  0.9930
              Bcc     0.0019     0.259     0.092     0.086  0.9247  0.3793 -0.0317
 
              Baa    -0.0010    -0.546    -0.195    -0.182  0.1153  0.0688  0.9909
    31 H(1)   Bbb    -0.0007    -0.355    -0.127    -0.118 -0.3009  0.9531 -0.0312
              Bcc     0.0017     0.900     0.321     0.300  0.9466  0.2946 -0.1306
 
              Baa    -0.0013    -0.676    -0.241    -0.226  0.1162 -0.3982  0.9099
    32 H(1)   Bbb    -0.0009    -0.461    -0.164    -0.154 -0.5735  0.7211  0.3888
              Bcc     0.0021     1.137     0.406     0.379  0.8109  0.5670  0.1445
 
              Baa    -0.0014    -0.726    -0.259    -0.242  0.0135  0.4941  0.8693
    33 H(1)   Bbb    -0.0009    -0.473    -0.169    -0.158 -0.6571  0.6597 -0.3647
              Bcc     0.0022     1.198     0.428     0.400  0.7536  0.5663 -0.3336
 
              Baa    -0.0036    -0.484    -0.173    -0.161  0.3062  0.9409 -0.1448
    34 C(13)  Bbb     0.0010     0.134     0.048     0.045  0.9517 -0.3062  0.0231
              Bcc     0.0026     0.350     0.125     0.117  0.0226  0.1449  0.9892
 
              Baa    -0.0019    -1.026    -0.366    -0.342 -0.1063 -0.5512  0.8276
    35 H(1)   Bbb    -0.0009    -0.471    -0.168    -0.157  0.7225  0.5290  0.4451
              Bcc     0.0028     1.496     0.534     0.499  0.6832 -0.6452 -0.3420
 
              Baa    -0.0018    -0.973    -0.347    -0.325  0.2564  0.6767  0.6901
    36 H(1)   Bbb    -0.0010    -0.550    -0.196    -0.183 -0.6007 -0.4478  0.6623
              Bcc     0.0029     1.522     0.543     0.508  0.7573 -0.5844  0.2917
 
              Baa    -0.0012    -0.642    -0.229    -0.214 -0.0135  0.7390 -0.6735
    37 H(1)   Bbb    -0.0011    -0.603    -0.215    -0.201  0.1299  0.6692  0.7316
              Bcc     0.0023     1.245     0.444     0.415  0.9914 -0.0776 -0.1051
 
              Baa    -0.0017    -0.231    -0.082    -0.077  0.9297 -0.2931 -0.2232
    38 C(13)  Bbb    -0.0001    -0.016    -0.006    -0.005  0.1806 -0.1655  0.9695
              Bcc     0.0018     0.247     0.088     0.082  0.3211  0.9417  0.1010
 
              Baa    -0.0013    -0.669    -0.239    -0.223  0.4362 -0.0568  0.8981
    39 H(1)   Bbb    -0.0009    -0.460    -0.164    -0.153  0.7647 -0.5026 -0.4032
              Bcc     0.0021     1.129     0.403     0.376  0.4743  0.8626 -0.1758
 
              Baa    -0.0013    -0.671    -0.239    -0.224 -0.4008 -0.0783  0.9128
    40 H(1)   Bbb    -0.0008    -0.424    -0.151    -0.141  0.7641 -0.5783  0.2859
              Bcc     0.0021     1.095     0.391     0.365  0.5055  0.8120  0.2916
 
              Baa    -0.0010    -0.525    -0.187    -0.175  0.1056 -0.1228  0.9868
    41 H(1)   Bbb    -0.0006    -0.307    -0.110    -0.102  0.9659 -0.2235 -0.1311
              Bcc     0.0016     0.832     0.297     0.278  0.2366  0.9669  0.0950
 
              Baa    -0.0230    -3.082    -1.100    -1.028  0.5985  0.2878  0.7476
    42 C(13)  Bbb     0.0099     1.326     0.473     0.442  0.3136  0.7745 -0.5493
              Bcc     0.0131     1.756     0.627     0.586  0.7372 -0.5632 -0.3733
 
              Baa    -0.0018    -0.959    -0.342    -0.320  0.4302  0.0304  0.9022
    43 H(1)   Bbb    -0.0002    -0.122    -0.043    -0.041  0.7526  0.5398 -0.3771
              Bcc     0.0020     1.081     0.386     0.360 -0.4985  0.8413  0.2093
 
              Baa    -0.0281    -3.771    -1.346    -1.258 -0.4674 -0.5969  0.6521
    44 C(13)  Bbb    -0.0241    -3.239    -1.156    -1.080 -0.5856  0.7616  0.2774
              Bcc     0.0522     7.010     2.501     2.338  0.6622  0.2522  0.7056
 
              Baa    -0.0016    -0.862    -0.307    -0.287  0.6206  0.0634  0.7816
    45 H(1)   Bbb    -0.0012    -0.628    -0.224    -0.210  0.6731 -0.5544 -0.4895
              Bcc     0.0028     1.490     0.532     0.497  0.4023  0.8299 -0.3867
 
              Baa    -0.0039    -2.095    -0.748    -0.699 -0.5570 -0.5070  0.6578
    46 H(1)   Bbb    -0.0008    -0.407    -0.145    -0.136  0.6025  0.2985  0.7402
              Bcc     0.0047     2.502     0.893     0.835 -0.5717  0.8086  0.1393
 
              Baa    -0.0013    -0.170    -0.061    -0.057 -0.2014 -0.0068  0.9795
    47 C(13)  Bbb    -0.0003    -0.038    -0.014    -0.013  0.1413  0.9893  0.0359
              Bcc     0.0015     0.208     0.074     0.069  0.9693 -0.1456  0.1983
 
              Baa    -0.0011    -0.600    -0.214    -0.200 -0.2268  0.0366  0.9733
    48 H(1)   Bbb    -0.0004    -0.230    -0.082    -0.077  0.4117  0.9092  0.0617
              Bcc     0.0016     0.829     0.296     0.277  0.8826 -0.4147  0.2213
 
              Baa    -0.0010    -0.556    -0.199    -0.186  0.0307 -0.1938  0.9806
    49 H(1)   Bbb    -0.0000    -0.022    -0.008    -0.007  0.2523  0.9508  0.1800
              Bcc     0.0011     0.578     0.206     0.193  0.9672 -0.2418 -0.0781
 
              Baa    -0.0012    -0.640    -0.228    -0.213 -0.1940  0.1421  0.9707
    50 H(1)   Bbb     0.0005     0.278     0.099     0.093  0.5610  0.8278 -0.0091
              Bcc     0.0007     0.362     0.129     0.121  0.8048 -0.5427  0.2403
 
              Baa    -0.0290    -3.888    -1.387    -1.297  0.2228 -0.5579  0.7994
    51 C(13)  Bbb     0.0109     1.463     0.522     0.488 -0.0378  0.8145  0.5789
              Bcc     0.0181     2.425     0.865     0.809  0.9741  0.1592 -0.1604
 
              Baa    -0.0021    -1.127    -0.402    -0.376 -0.0237 -0.2033  0.9788
    52 H(1)   Bbb    -0.0009    -0.489    -0.174    -0.163 -0.4223  0.8895  0.1745
              Bcc     0.0030     1.615     0.576     0.539  0.9061  0.4092  0.1070
 
              Baa    -0.0356    -4.777    -1.705    -1.593 -0.4836  0.6288  0.6089
    53 C(13)  Bbb    -0.0335    -4.491    -1.603    -1.498  0.8152  0.5769  0.0517
              Bcc     0.0691     9.268     3.307     3.091  0.3188 -0.5214  0.7915
 
              Baa    -0.0035    -1.841    -0.657    -0.614  0.8519  0.5110 -0.1150
    54 H(1)   Bbb    -0.0010    -0.515    -0.184    -0.172  0.3440 -0.3804  0.8584
              Bcc     0.0044     2.356     0.841     0.786 -0.3949  0.7708  0.4998
 
              Baa    -0.0047    -2.509    -0.895    -0.837  0.6521 -0.4993 -0.5705
    55 H(1)   Bbb    -0.0007    -0.377    -0.134    -0.126  0.2302 -0.5866  0.7765
              Bcc     0.0054     2.886     1.030     0.963  0.7224  0.6377  0.2676
 
              Baa    -0.0026    -0.351    -0.125    -0.117  0.9415 -0.2724  0.1984
    56 C(13)  Bbb     0.0007     0.098     0.035     0.033  0.3355  0.8129 -0.4761
              Bcc     0.0019     0.253     0.090     0.084 -0.0316  0.5149  0.8567
 
              Baa    -0.0014    -0.730    -0.260    -0.243 -0.6821  0.2186  0.6978
    57 H(1)   Bbb    -0.0007    -0.387    -0.138    -0.129  0.5117 -0.5390  0.6690
              Bcc     0.0021     1.117     0.399     0.373  0.5224  0.8134  0.2558
 
              Baa    -0.0015    -0.796    -0.284    -0.266  0.3973  0.0774  0.9144
    58 H(1)   Bbb    -0.0006    -0.326    -0.117    -0.109 -0.6516  0.7254  0.2217
              Bcc     0.0021     1.123     0.401     0.374  0.6462  0.6839 -0.3386
 
              Baa    -0.0009    -0.498    -0.178    -0.166  0.0867  0.1605  0.9832
    59 H(1)   Bbb    -0.0009    -0.470    -0.168    -0.157  0.9939 -0.0814 -0.0744
              Bcc     0.0018     0.967     0.345     0.323  0.0681  0.9837 -0.1666
 
              Baa    -0.0013    -0.173    -0.062    -0.058  0.9386  0.3141 -0.1427
    60 C(13)  Bbb    -0.0002    -0.024    -0.008    -0.008  0.0893  0.1786  0.9799
              Bcc     0.0015     0.197     0.070     0.066 -0.3332  0.9325 -0.1396
 
              Baa    -0.0008    -0.437    -0.156    -0.146 -0.1098  0.1541  0.9819
    61 H(1)   Bbb    -0.0005    -0.251    -0.089    -0.084  0.9565  0.2852  0.0622
              Bcc     0.0013     0.687     0.245     0.229 -0.2704  0.9460 -0.1787
 
              Baa    -0.0011    -0.573    -0.205    -0.191 -0.4255  0.1529  0.8919
    62 H(1)   Bbb    -0.0006    -0.332    -0.118    -0.111  0.7534  0.6059  0.2556
              Bcc     0.0017     0.905     0.323     0.302 -0.5014  0.7807 -0.3730
 
              Baa    -0.0010    -0.551    -0.197    -0.184  0.2477  0.0601  0.9670
    63 H(1)   Bbb    -0.0006    -0.323    -0.115    -0.108  0.8224  0.5146 -0.2426
              Bcc     0.0016     0.874     0.312     0.292 -0.5122  0.8553  0.0780
 
              Baa    -0.0003    -0.047    -0.017    -0.016  0.8873  0.4182  0.1945
    64 C(13)  Bbb    -0.0003    -0.039    -0.014    -0.013 -0.4387  0.8954  0.0764
              Bcc     0.0006     0.086     0.031     0.029 -0.1422 -0.1531  0.9779
 
              Baa    -0.0004    -0.191    -0.068    -0.064  0.7881  0.5313  0.3108
    65 H(1)   Bbb    -0.0003    -0.175    -0.062    -0.058 -0.5714  0.8192  0.0486
              Bcc     0.0007     0.366     0.131     0.122 -0.2288 -0.2159  0.9492
 
              Baa    -0.0003    -0.164    -0.058    -0.055  0.9835  0.0127  0.1802
    66 H(1)   Bbb    -0.0003    -0.150    -0.054    -0.050 -0.0278  0.9963  0.0815
              Bcc     0.0006     0.314     0.112     0.105 -0.1785 -0.0852  0.9802
 
              Baa    -0.0003    -0.163    -0.058    -0.054  0.9973  0.0264  0.0678
    67 H(1)   Bbb    -0.0003    -0.155    -0.055    -0.052 -0.0390  0.9807  0.1917
              Bcc     0.0006     0.317     0.113     0.106 -0.0614 -0.1938  0.9791
 
              Baa    -0.0009    -0.034    -0.012    -0.011  0.6039  0.7969 -0.0165
    68 N(14)  Bbb     0.0000     0.000     0.000     0.000  0.6459 -0.4772  0.5959
              Bcc     0.0009     0.034     0.012     0.011 -0.4670  0.3705  0.8029
 
              Baa    -0.0005    -0.261    -0.093    -0.087  0.7399  0.6681 -0.0779
    69 H(1)   Bbb    -0.0004    -0.200    -0.071    -0.067 -0.6675  0.7436  0.0376
              Bcc     0.0009     0.460     0.164     0.154  0.0830  0.0242  0.9963
 
              Baa    -0.0007    -0.094    -0.034    -0.031  0.7943  0.5607  0.2338
    70 C(13)  Bbb     0.0001     0.008     0.003     0.003 -0.5564  0.8260 -0.0904
              Bcc     0.0006     0.086     0.031     0.029 -0.2438 -0.0583  0.9681
 
              Baa    -0.0011    -0.150    -0.054    -0.050  0.9922  0.0882  0.0877
    71 C(13)  Bbb    -0.0003    -0.040    -0.014    -0.013 -0.0794  0.9919 -0.0992
              Bcc     0.0014     0.191     0.068     0.064 -0.0957  0.0914  0.9912
 
              Baa    -0.0017    -0.896    -0.320    -0.299  0.7573  0.6531 -0.0008
    72 H(1)   Bbb     0.0001     0.036     0.013     0.012 -0.6459  0.7490  0.1478
              Bcc     0.0016     0.859     0.307     0.287  0.0971 -0.1114  0.9890
 
              Baa    -0.0022    -0.084    -0.030    -0.028 -0.0036 -0.0705  0.9975
    73 N(14)  Bbb     0.0000     0.002     0.001     0.001  0.6638  0.7459  0.0551
              Bcc     0.0021     0.082     0.029     0.027  0.7479 -0.6624 -0.0441
 
              Baa    -0.0010    -0.137    -0.049    -0.046  0.8200 -0.5339  0.2062
    74 C(13)  Bbb    -0.0002    -0.029    -0.010    -0.010  0.5225  0.8454  0.1108
              Bcc     0.0012     0.167     0.059     0.056 -0.2335  0.0169  0.9722
 
              Baa    -0.0009    -0.469    -0.167    -0.156  0.7450  0.6191  0.2485
    75 H(1)   Bbb    -0.0000    -0.008    -0.003    -0.003 -0.6048  0.7840 -0.1398
              Bcc     0.0009     0.477     0.170     0.159 -0.2814 -0.0461  0.9585
 

 ---------------------------------------------------------------------------------

 Unable to Open any file for archive entry.
 1\1\GINC-BGN1024\SP\UAPFD\Gen\C34H34Fe1N6(1+,2)\BEBJONES\25-Sep-2024\0
 \\# apfd/gen scf=maxcycle=999 geom=check\\1qo4_III_D\\1,2\Fe,0,1.34585
 28888,2.8554125058,5.3796380003\N,0,1.064456639,1.6767772575,6.9569876
 093\N,0,1.6748291917,4.3952263357,6.5717665018\N,0,1.8574268224,3.9173
 138094,3.7923557961\N,0,0.9722612492,1.2938937885,4.1842867034\C,0,0.7
 024011118,0.3649187427,6.9636116528\C,0,0.6816098078,-0.1568283488,8.3
 113783131\C,0,1.0200302446,0.8765346519,9.1278392649\C,0,1.2318121329,
 2.019635303,8.2683667421\C,0,1.6641652804,4.4075406909,7.9334648095\C,
 0,1.8223438467,5.7465640659,8.4328342668\C,0,1.9799171014,6.5532688799
 ,7.3374450681\C,0,1.9128011109,5.6785591751,6.1843106414\C,0,2.2000054
 827,5.2390912256,3.7880698086\C,0,2.6270364103,5.6541400274,2.47634830
 27\C,0,2.4907674101,4.5606230143,1.6626072239\C,0,1.984438871,3.496040
 813,2.5056429901\C,0,1.0528947456,1.259780076,2.8259718106\C,0,0.42743
 85038,0.0651078668,2.3043925196\C,0,0.0863086409,-0.6861375159,3.38570
 01738\C,0,0.4537867366,0.088790381,4.5497154646\C,0,0.3507018749,-0.36
 93015847,5.8474680705\H,0,-0.0029784985,-1.3774188914,5.9993671699\C,0
 ,1.4832491107,3.2935283324,8.7358579568\H,0,1.5425290163,3.4332652179,
 9.8045818723\C,0,2.1691569539,6.0775166543,4.8876593386\H,0,2.42998486
 92,7.1127287034,4.7327939898\C,0,1.5791798651,2.2625825577,2.033944783
 1\H,0,1.6449091171,2.0814093986,0.9720071506\C,0,1.1588387033,0.903676
 5385,10.611361891\H,0,1.0198337848,-0.0897095128,11.030533781\H,0,0.41
 78405328,1.5692547281,11.0559242588\H,0,2.1480860701,1.2616975868,10.8
 956458354\C,0,0.3498756167,-1.5671158172,8.6594365108\H,0,1.0168527052
 ,-2.2552826353,8.1405960908\H,0,-0.6737126502,-1.8037237503,8.36717035
 84\H,0,0.4472467949,-1.7350389624,9.7291266465\C,0,1.8097950914,6.1278
 261835,9.8729277766\H,0,2.5987199379,5.604869832,10.4144280756\H,0,0.8
 563465856,5.8657201091,10.332860225\H,0,1.9604109897,7.1982477729,9.98
 66230359\C,0,2.150395542,7.992023052,7.3351210425\H,0,2.7579668746,8.3
 879145922,8.1417847831\C,0,1.6008794428,8.8345827497,6.4678745905\H,0,
 0.9475448029,8.4984463774,5.6805473692\H,0,1.7686398512,9.8970568944,6
 .5306472056\C,0,3.167116827,6.9994846227,2.1386335337\H,0,3.7694171875
 ,7.3886104288,2.9578358646\H,0,2.3586188758,7.7072706841,1.9478210962\
 H,0,3.7878279164,6.938635567,1.2470187557\C,0,2.7997587278,4.412187433
 9,0.2576709023\H,0,3.1446444963,3.4288774751,-0.0407325091\C,0,2.68780
 05056,5.3637126187,-0.6635569601\H,0,2.3070693726,6.3432704778,-0.4329
 468197\H,0,2.9521442133,5.1846425479,-1.6925618596\C,0,0.2846782926,-0
 .2435993228,0.8537462456\H,0,1.2640177823,-0.3573001362,0.3878150884\H
 ,0,-0.241597228,0.561195922,0.3406036209\H,0,-0.2712842845,-1.16646350
 74,0.7079529555\C,0,-0.5611610208,-2.0269646622,3.4402232081\H,0,-0.81
 25347591,-2.375955654,2.4417361874\H,0,-1.4745051246,-1.9894943232,4.0
 339153588\H,0,0.109477976,-2.7550792782,3.8973822949\C,0,-3.8111393045
 ,4.1651205688,3.6429298468\H,0,-3.5638445209,4.0430863231,2.5932165618
 \H,0,-4.1626987519,5.1841010492,3.8032127181\H,0,-4.6223049303,3.48145
 95572,3.8925884357\N,0,-2.625095043,3.9692481845,5.8393139461\H,0,-3.4
 185716312,4.2227759537,6.4050100759\C,0,-2.6119424563,3.8849328923,4.4
 720754005\C,0,-1.3875838549,3.6554884569,6.2824700938\H,0,-1.106424586
 5,3.6393849542,7.316048313\N,0,-0.5882318334,3.3766481759,5.278671912\
 C,0,-1.3386208612,3.5159200819,4.1449754694\H,0,-0.9149091955,3.341794
 0357,3.1769067914\\Version=ES64L-G16RevC.02\State=2-A\HF=-2906.8109909
 \S2=0.789755\S2-1=0.\S2A=0.751421\RMSD=3.179e-09\Dipole=-1.8750285,0.3
 470497,0.477432\Quadrupole=-18.4339826,5.4390121,12.9949706,6.4088308,
 -3.515801,-0.5113854\PG=C01 [X(C34H34Fe1N6)]\\@
 The archive entry for this job was punched.


 SEEN ON A WALL AT THE UNIVERSITY OF ILLINOIS AT CHICAGO CIRCLE:

 TO DO IS TO BE  -- SOCRATES
 TO BE IS TO DO  -- SARTRE
 OO BE DO BE DO  -- SINATRA
 Job cpu time:       0 days 19 hours 24 minutes 24.9 seconds.
 Elapsed time:       0 days  0 hours 20 minutes 25.1 seconds.
 File lengths (MBytes):  RWF=    408 Int=      0 D2E=      0 Chk=    150 Scr=      1
 Normal termination of Gaussian 16 at Wed Sep 25 23:40:31 2024.
      0 Chk=    150 Scr=      1
 Normal termination of Gaussian 16 at Wed Sep 25 23:26:38 2024.
