 Entering Gaussian System, Link 0=g16
 Input=1r9o01.com
 Output=1r9o01.log
 Initial command:
 /sw/chem/gaussian/g16_C02/a100/g16/l1.exe "/local/bebjones_8029054/Gau-1329927.inp" -scrdir="/local/bebjones_8029054/"
 Entering Link 1 = /sw/chem/gaussian/g16_C02/a100/g16/l1.exe PID=   1329928.
  
 Copyright (c) 1988-2021, Gaussian, Inc.  All Rights Reserved.
  
 This is part of the Gaussian(R) 16 program.  It is based on
 the Gaussian(R) 09 system (copyright 2009, Gaussian, Inc.),
 the Gaussian(R) 03 system (copyright 2003, Gaussian, Inc.),
 the Gaussian(R) 98 system (copyright 1998, Gaussian, Inc.),
 the Gaussian(R) 94 system (copyright 1995, Gaussian, Inc.),
 the Gaussian 92(TM) system (copyright 1992, Gaussian, Inc.),
 the Gaussian 90(TM) system (copyright 1990, Gaussian, Inc.),
 the Gaussian 88(TM) system (copyright 1988, Gaussian, Inc.),
 the Gaussian 86(TM) system (copyright 1986, Carnegie Mellon
 University), and the Gaussian 82(TM) system (copyright 1983,
 Carnegie Mellon University). Gaussian is a federally registered
 trademark of Gaussian, Inc.
  
 This software contains proprietary and confidential information,
 including trade secrets, belonging to Gaussian, Inc.
  
 This software is provided under written license and may be
 used, copied, transmitted, or stored only in accord with that
 written license.
  
 The following legend is applicable only to US Government
 contracts under FAR:
  
                    RESTRICTED RIGHTS LEGEND
  
 Use, reproduction and disclosure by the US Government is
 subject to restrictions as set forth in subparagraphs (a)
 and (c) of the Commercial Computer Software - Restricted
 Rights clause in FAR 52.227-19.
  
 Gaussian, Inc.
 340 Quinnipiac St., Bldg. 40, Wallingford CT 06492
  
  
 ---------------------------------------------------------------
 Warning -- This program may not be used in any manner that
 competes with the business of Gaussian, Inc. or will provide
 assistance to any competitor of Gaussian, Inc.  The licensee
 of this program is prohibited from giving any competitor of
 Gaussian, Inc. access to this program.  By using this program,
 the user acknowledges that Gaussian, Inc. is engaged in the
 business of creating and licensing software in the field of
 computational chemistry and represents and warrants to the
 licensee that it is not a competitor of Gaussian, Inc. and that
 it will not use this program in any manner prohibited above.
 ---------------------------------------------------------------
  

 Cite this work as:
 Gaussian 16, Revision C.02,
 M. J. Frisch, G. W. Trucks, H. B. Schlegel, G. E. Scuseria, 
 M. A. Robb, J. R. Cheeseman, G. Scalmani, V. Barone, 
 G. A. Petersson, H. Nakatsuji, X. Li, M. Caricato, A. V. Marenich, 
 J. Bloino, B. G. Janesko, R. Gomperts, B. Mennucci, H. P. Hratchian, 
 J. V. Ortiz, A. F. Izmaylov, J. L. Sonnenberg, D. Williams-Young, 
 F. Ding, F. Lipparini, F. Egidi, J. Goings, B. Peng, A. Petrone, 
 T. Henderson, D. Ranasinghe, V. G. Zakrzewski, J. Gao, N. Rega, 
 G. Zheng, W. Liang, M. Hada, M. Ehara, K. Toyota, R. Fukuda, 
 J. Hasegawa, M. Ishida, T. Nakajima, Y. Honda, O. Kitao, H. Nakai, 
 T. Vreven, K. Throssell, J. A. Montgomery, Jr., J. E. Peralta, 
 F. Ogliaro, M. J. Bearpark, J. J. Heyd, E. N. Brothers, K. N. Kudin, 
 V. N. Staroverov, T. A. Keith, R. Kobayashi, J. Normand, 
 K. Raghavachari, A. P. Rendell, J. C. Burant, S. S. Iyengar, 
 J. Tomasi, M. Cossi, J. M. Millam, M. Klene, C. Adamo, R. Cammi, 
 J. W. Ochterski, R. L. Martin, K. Morokuma, O. Farkas, 
 J. B. Foresman, and D. J. Fox, Gaussian, Inc., Wallingford CT, 2019.
 
 ******************************************
 Gaussian 16:  ES64L-G16RevC.02  7-Dec-2021
                25-Sep-2024 
 ******************************************
 %mem=16GB
 %CPU=0-71
 SetSPE:  set environment variable "OMP_PROC_BIND" = "true"
 SetSPE:  set environment variable "OMP_PLACES" = "{0},{1},{2},{3},{4},{5},{6},{7},{8},{9},{10},{11},{12},{13},{14},{15},{16},{17},{18},{19},{20},{21},{22},{23},{24},{25},{26},{27},{28},{29},{30},{31},{32},{33},{34},{35},{36},{37},{38},{39},{40},{41},{42},{43},{44},{45},{46},{47},{48},{49},{50},{51},{52},{53},{54},{55},{56},{57},{58},{59},{60},{61},{62},{63},{64},{65},{66},{67},{68},{69},{70},{71}"
 Will use up to   72 processors via shared memory.
 %gpucpu=0,1,2,3=0,1,2,3
 Will use    4 GPUs:
 Thread  CPU   GPU
      0    0     0
      1    1     1
      2    2     2
      3    3     3
      4    4    -1
      5    5    -1
      6    6    -1
      7    7    -1
      8    8    -1
      9    9    -1
     10   10    -1
     11   11    -1
     12   12    -1
     13   13    -1
     14   14    -1
     15   15    -1
     16   16    -1
     17   17    -1
     18   18    -1
     19   19    -1
     20   20    -1
     21   21    -1
     22   22    -1
     23   23    -1
     24   24    -1
     25   25    -1
     26   26    -1
     27   27    -1
     28   28    -1
     29   29    -1
     30   30    -1
     31   31    -1
     32   32    -1
     33   33    -1
     34   34    -1
     35   35    -1
     36   36    -1
     37   37    -1
     38   38    -1
     39   39    -1
     40   40    -1
     41   41    -1
     42   42    -1
     43   43    -1
     44   44    -1
     45   45    -1
     46   46    -1
     47   47    -1
     48   48    -1
     49   49    -1
     50   50    -1
     51   51    -1
     52   52    -1
     53   53    -1
     54   54    -1
     55   55    -1
     56   56    -1
     57   57    -1
     58   58    -1
     59   59    -1
     60   60    -1
     61   61    -1
     62   62    -1
     63   63    -1
     64   64    -1
     65   65    -1
     66   66    -1
     67   67    -1
     68   68    -1
     69   69    -1
     70   70    -1
     71   71    -1
 SetGPE:  set environment variable "OMP_PROC_BIND" = "true"
 SetGPE:  set environment variable "OMP_PLACES" = "{0},{1},{2},{3},{4},{5},{6},{7},{8},{9},{10},{11},{12},{13},{14},{15},{16},{17},{18},{19},{20},{21},{22},{23},{24},{25},{26},{27},{28},{29},{30},{31},{32},{33},{34},{35},{36},{37},{38},{39},{40},{41},{42},{43},{44},{45},{46},{47},{48},{49},{50},{51},{52},{53},{54},{55},{56},{57},{58},{59},{60},{61},{62},{63},{64},{65},{66},{67},{68},{69},{70},{71}"
 %chk=1r9o_II_O.chk
 Properties for Device   0
 Minimum vector length:                              32
 Maximum vector length:                            1024
 Number of SMPs:                                    108
 Maximum number of threads per SMP:                2048
 Number of ASync Engines:                             5
 Memory:                                           9207742464
 Properties for Device   1
 Minimum vector length:                              32
 Maximum vector length:                            1024
 Number of SMPs:                                    108
 Maximum number of threads per SMP:                2048
 Number of ASync Engines:                             5
 Memory:                                           9207742464
 Properties for Device   2
 Minimum vector length:                              32
 Maximum vector length:                            1024
 Number of SMPs:                                    108
 Maximum number of threads per SMP:                2048
 Number of ASync Engines:                             5
 Memory:                                           9207742464
 Properties for Device   3
 Minimum vector length:                              32
 Maximum vector length:                            1024
 Number of SMPs:                                    108
 Maximum number of threads per SMP:                2048
 Number of ASync Engines:                             5
 Memory:                                           9207742464
   8286968217 words of memory will be used on each GPU.
 ------------------------------------------
 # polar def2tzvp apfd int=(grid=ultrafine)
 ------------------------------------------
 1/38=1,172=1/1;
 2/12=2,17=6,18=5,40=1/2;
 3/5=44,7=101,11=2,25=1,30=1,74=-44,75=-5/1,2,3;
 4//1;
 5/5=2,38=5,98=1/2;
 8/6=4,10=90,11=11/1;
 10/6=1,13=10/2;
 6/7=2,8=2,9=2,10=2,28=1/1;
 99/5=1,9=1/99;
 ---------
 1r9o_II_S
 ---------
 Symbolic Z-matrix:
 Charge =  0 Multiplicity = 1
 Fe                    5.65072   24.71194  -1.12027 
 N                     5.27609   24.56646  -3.07994 
 N                     3.65762   24.50891  -0.76683 
 N                     5.95515   24.87449   0.84687 
 N                     7.56151   25.04563  -1.47854 
 C                     6.18188   24.72772  -4.08006 
 C                     5.54694   24.59843  -5.37272 
 C                     4.2375    24.32575  -5.12914 
 C                     4.08322   24.33138  -3.69075 
 C                     2.67583   24.27046  -1.68318 
 C                     1.39155   24.16339  -1.04394 
 C                     1.6135    24.34099   0.29713 
 C                     3.04109   24.52996   0.44536 
 C                     5.04587   24.71013   1.84338 
 C                     5.68829   24.74391   3.13166 
 C                     7.0217    24.93117   2.89288 
 C                     7.15934   25.03029   1.45254 
 C                     8.51906   25.34174  -0.56377 
 C                     9.79426   25.55825  -1.21195 
 C                     9.5733    25.41323  -2.54526 
 C                     8.17202   25.08022  -2.69189 
 C                     7.52614   25.00251  -3.91064 
 H                     8.12615   25.11225  -4.80077 
 C                     2.86693   24.19773  -3.05247 
 H                     2.00067   24.01144  -3.66776 
 C                     3.67465   24.66453   1.6658 
 H                     3.061     24.62941   2.55252 
 C                     8.34395   25.32826   0.80664 
 H                     9.19818   25.56026   1.42308 
 C                     3.12538   24.08752  -6.09185 
 H                     3.49652   24.06942  -7.11348 
 H                     2.37484   24.87497  -6.01444 
 H                     2.63723   23.1344  -5.88743 
 C                     6.25776   24.7276  -6.67559 
 H                     7.0438    23.9767  -6.76055 
 H                     6.71928   25.71119  -6.76303 
 H                     5.56868   24.59819  -7.50644 
 C                     0.09302   23.97741  -1.74776 
 H                    -0.08873   22.92191  -1.95705 
 H                     0.08451   24.51447  -2.69479 
 H                    -0.72163   24.34912  -1.12954 
 C                     0.66425   24.35965   1.38849 
 H                     0.90432   25.03228   2.20387 
 C                    -0.4434    23.62913   1.45977 
 H                    -0.70701   22.91134   0.70273 
 H                    -1.11513   23.70591   2.2985 
 C                     4.99298   24.56123   4.43573 
 H                     4.4706    23.60476   4.46029 
 H                     4.25676   25.35068   4.59256 
 H                     5.70619   24.58346   5.2556 
 C                     8.08419   24.98916   3.87654 
 H                     7.83462   25.50192   4.79924 
 C                     9.28558   24.43904   3.74557 
 H                     9.56027   23.87175   2.87257 
 H                     10.0277   24.51362   4.5232 
 C                     11.05471   25.89047  -0.491 
 H                     11.33614   25.07761   0.17873 
 H                     10.92763   26.79171   0.10855 
 H                     11.86982   26.05514  -1.19131 
 C                     10.53217   25.52548  -3.68041 
 H                     11.53804   25.72214  -3.31813 
 H                     10.2433   26.33824  -4.34756 
 H                     10.54989   24.60262  -4.26016 
 O                     5.174     26.888   -1.24 
 H                     4.217     26.872   -1.209 
 H                     5.686     27.611   -1.319 
 C                     5.84168   21.54615  -2.48951 
 H                     6.73448   21.79533  -3.05341 
 H                     4.96442   21.9128  -3.01041 
 H                     5.78557   20.47395  -2.32836 
 S                     5.99881   22.38522  -0.87257 
 H                     4.77322   22.05935  -0.44724 
 
 Stoichiometry    C31H34FeN4OS
 Framework group  C1[X(C31H34FeN4OS)]
 Deg. of freedom   210
 Full point group                 C1      NOp   1
 Largest Abelian subgroup         C1      NOp   1
 Largest concise Abelian subgroup C1      NOp   1
                         Standard orientation:                         
 ---------------------------------------------------------------------
 Center     Atomic      Atomic             Coordinates (Angstroms)
 Number     Number       Type             X           Y           Z
 ---------------------------------------------------------------------
      1         26           0       -0.088699    0.122078   -0.141543
      2          7           0        0.504054    2.032218   -0.098630
      3          7           0        1.864907   -0.438408   -0.230204
      4          7           0       -0.615785   -1.803024   -0.211641
      5          7           0       -1.980599    0.677744   -0.194437
      6          6           0       -0.307450    3.121227   -0.145798
      7          6           0        0.469850    4.340492   -0.142435
      8          6           0        1.773180    3.961939   -0.062724
      9          6           0        1.775385    2.515303   -0.058296
     10          6           0        2.960801    0.370809   -0.162058
     11          6           0        4.173529   -0.399695   -0.233221
     12          6           0        3.789961   -1.711063   -0.344873
     13          6           0        2.342615   -1.709049   -0.315207
     14          6           0        0.199993   -2.888783   -0.162003
     15          6           0       -0.569809   -4.102220   -0.069945
     16          6           0       -1.884313   -3.725306   -0.061518
     17          6           0       -1.885754   -2.279228   -0.172024
     18          6           0       -3.061193   -0.132875   -0.323237
     19          6           0       -4.280574    0.644791   -0.361818
     20          6           0       -3.903699    1.948307   -0.282044
     21          6           0       -2.460659    1.948507   -0.165366
     22          6           0       -1.688010    3.092757   -0.212915
     23          1           0       -2.202478    4.040467   -0.252273
     24          6           0        2.925384    1.753109   -0.093066
     25          1           0        3.868712    2.274789   -0.052326
     26          6           0        1.573324   -2.856684   -0.325661
     27          1           0        2.090308   -3.802985   -0.362180
     28          6           0       -3.028605   -1.513986   -0.304593
     29          1           0       -3.967125   -2.038406   -0.392288
     30          6           0        3.001969    4.803501   -0.015316
     31          1           0        2.745382    5.858714    0.034522
     32          1           0        3.613079    4.641639   -0.903979
     33          1           0        3.604531    4.555483    0.858710
     34          6           0       -0.113837    5.710190   -0.193934
     35          1           0       -0.764592    5.883050    0.663723
     36          1           0       -0.706910    5.838848   -1.099371
     37          1           0        0.668995    6.464524   -0.187925
     38          6           0        5.550947    0.164364   -0.259342
     39          1           0        5.910467    0.360818    0.752123
     40          1           0        5.576163    1.101332   -0.813254
     41          1           0        6.231914   -0.539070   -0.734188
     42          6           0        4.607619   -2.896680   -0.479953
     43          1           0        4.185889   -3.686927   -1.090323
     44          6           0        5.799426   -3.079316    0.078512
     45          1           0        6.245088   -2.349232    0.731343
     46          1           0        6.361587   -3.984819   -0.078399
     47          6           0        0.006582   -5.471092    0.036803
     48          1           0        0.661894   -5.543851    0.904902
     49          1           0        0.595108   -5.710433   -0.849881
     50          1           0       -0.782670   -6.211194    0.140097
     51          6           0       -3.039286   -4.591645    0.062317
     52          1           0       -2.966614   -5.539182   -0.460634
     53          6           0       -4.123916   -4.330609    0.782431
     54          1           0       -4.218197   -3.429445    1.364173
     55          1           0       -4.945126   -5.026026    0.837320
     56          6           0       -5.644391    0.058628   -0.485553
     57          1           0       -5.867664   -0.571817    0.375367
     58          1           0       -5.717346   -0.557419   -1.381659
     59          1           0       -6.398234    0.839911   -0.542753
     60          6           0       -4.746046    3.177542   -0.275951
     61          1           0       -5.802057    2.922119   -0.311908
     62          1           0       -4.515699    3.804632   -1.137814
     63          1           0       -4.564356    3.762496    0.625670
     64          8           0        0.064121    0.175247   -2.366548
     65          1           0        1.004199    0.043469   -2.492855
     66          1           0       -0.540142    0.302709   -3.006653
     67          6           0        0.342563    1.526409    2.985018
     68          1           0       -0.514507    2.179648    2.859000
     69          1           0        1.203551    1.949119    2.479680
     70          1           0        0.542805    1.367900    4.040242
     71         16           0       -0.105555   -0.070847    2.216137
     72          1           0        1.104572   -0.620889    2.365110
 ---------------------------------------------------------------------
 Rotational constants (GHZ):           0.1121364           0.1057920           0.0603020
 Standard basis: def2TZVP (5D, 7F)
 There are  1594 symmetry adapted cartesian basis functions of A   symmetry.
 There are  1402 symmetry adapted basis functions of A   symmetry.
  1402 basis functions,  2279 primitive gaussians,  1594 cartesian basis functions
   149 alpha electrons      149 beta electrons
       nuclear repulsion energy      5419.5056678522 Hartrees.
 NAtoms=   72 NActive=   72 NUniq=   72 SFac= 1.00D+00 NAtFMM=   60 NAOKFM=T Big=T
 Integral buffers will be    131072 words long.
 Raffenetti 2 integral format.
 Two-electron integral symmetry is turned on.
 R6APFD:  NTU= -4 IXU= 1 FactS= 1.050
 Nuclear repulsion after empirical dispersion term =     5419.3533018678 Hartrees.
 One-electron integrals computed using PRISM.
   1 Symmetry operations used in ECPInt.
 ECPInt:  NShTT=  157080 NPrTT=  488567 LenC2=  124998 LenP2D=  259314.
 LDataN:  DoStor=T MaxTD1= 6 Len=  172
 Number of processors reduced to  25 by ecpmxn.
 NBasis=  1402 RedAO= T EigKep=  3.49D-06  NBF=  1402
 NBsUse=  1402 1.00D-06 EigRej= -1.00D+00 NBFU=  1402
 ExpMin= 4.20D-02 ExpMax= 3.01D+05 ExpMxC= 2.91D+03 IAcc=3 IRadAn=         5 AccDes= 0.00D+00
 Harris functional with IExCor= 3731 and IRadAn=       5 diagonalized for initial guess.
 HarFok:  IExCor= 3731 AccDes= 0.00D+00 IRadAn=         5 IDoV= 1 UseB2=F ITyADJ=14
 ICtDFT=  3500011 ScaDFX=  1.000000  1.000000  1.000000  1.000000
 FoFCou: FMM=F IPFlag=           0 FMFlag=      100000 FMFlg1=        2001
         NFxFlg=           0 DoJE=T BraDBF=F KetDBF=T FulRan=T
         wScrn=  0.000000 ICntrl=       500 IOpCl=  0 I1Cent=   200000004 NGrid=           0
         NMat0=    1 NMatS0=      1 NMatT0=    0 NMatD0=    1 NMtDS0=    0 NMtDT0=    0
 Petite list used in FoFCou.
 Requested convergence on RMS density matrix=1.00D-08 within 128 cycles.
 Requested convergence on MAX density matrix=1.00D-06.
 Requested convergence on             energy=1.00D-06.
 No special actions if energy rises.
 EnCoef did     5 forward-backward iterations
 EnCoef did   100 forward-backward iterations
 EnCoef did   100 forward-backward iterations
 EnCoef did   100 forward-backward iterations
 EnCoef did     5 forward-backward iterations
 EnCoef did     3 forward-backward iterations
 Restarting incremental Fock formation.
 SCF Done:  E(RAPFD) =  -3157.19263343     A.U. after   27 cycles
            NFock= 27  Conv=0.32D-08     -V/T= 2.0031
 DoSCS=F DFT=T ScalE2(SS,OS)=  1.000000  1.000000
 Range of M.O.s used for correlation:     1  1402
 NBasis=  1402 NAE=   149 NBE=   149 NFC=     0 NFV=     0
 NROrb=   1402 NOA=   149 NOB=   149 NVA=  1253 NVB=  1253

 **** Warning!!: The largest alpha MO coefficient is  0.50313004D+02

          Differentiating once with respect to electric field.
                with respect to dipole field.
          Electric field/nuclear overlap derivatives assumed to be zero.
          There are     3 degrees of freedom in the 1st order CPHF.  IDoFFX=0 NUNeed=     3.
      3 vectors produced by pass  0 Test12= 6.22D-12 3.33D-08 XBig12= 1.87D+03 2.91D+01.
 AX will form     3 AO Fock derivatives at one time.
      3 vectors produced by pass  1 Test12= 6.22D-12 3.33D-08 XBig12= 1.19D+03 9.38D+00.
      3 vectors produced by pass  2 Test12= 6.22D-12 3.33D-08 XBig12= 4.45D+02 4.38D+00.
      3 vectors produced by pass  3 Test12= 6.22D-12 3.33D-08 XBig12= 1.84D+02 3.14D+00.
      3 vectors produced by pass  4 Test12= 6.22D-12 3.33D-08 XBig12= 8.16D+01 2.08D+00.
      3 vectors produced by pass  5 Test12= 6.22D-12 3.33D-08 XBig12= 4.02D+01 1.62D+00.
      3 vectors produced by pass  6 Test12= 6.22D-12 3.33D-08 XBig12= 2.13D+01 1.41D+00.
      3 vectors produced by pass  7 Test12= 6.22D-12 3.33D-08 XBig12= 1.56D+01 1.17D+00.
      3 vectors produced by pass  8 Test12= 6.22D-12 3.33D-08 XBig12= 8.73D+00 8.08D-01.
      3 vectors produced by pass  9 Test12= 6.22D-12 3.33D-08 XBig12= 3.78D+00 4.22D-01.
      3 vectors produced by pass 10 Test12= 6.22D-12 3.33D-08 XBig12= 1.90D+00 2.97D-01.
      3 vectors produced by pass 11 Test12= 6.22D-12 3.33D-08 XBig12= 9.50D-01 1.65D-01.
      3 vectors produced by pass 12 Test12= 6.22D-12 3.33D-08 XBig12= 3.60D-01 7.44D-02.
      3 vectors produced by pass 13 Test12= 6.22D-12 3.33D-08 XBig12= 1.08D-01 4.73D-02.
      3 vectors produced by pass 14 Test12= 6.22D-12 3.33D-08 XBig12= 3.41D-02 2.82D-02.
      3 vectors produced by pass 15 Test12= 6.22D-12 3.33D-08 XBig12= 8.12D-03 2.33D-02.
      3 vectors produced by pass 16 Test12= 6.22D-12 3.33D-08 XBig12= 2.40D-03 1.93D-02.
      3 vectors produced by pass 17 Test12= 6.22D-12 3.33D-08 XBig12= 5.77D-04 8.30D-03.
      3 vectors produced by pass 18 Test12= 6.22D-12 3.33D-08 XBig12= 1.03D-04 1.50D-03.
      3 vectors produced by pass 19 Test12= 6.22D-12 3.33D-08 XBig12= 1.96D-05 8.70D-04.
      3 vectors produced by pass 20 Test12= 6.22D-12 3.33D-08 XBig12= 5.08D-06 5.08D-04.
      3 vectors produced by pass 21 Test12= 6.22D-12 3.33D-08 XBig12= 9.32D-07 2.41D-04.
      3 vectors produced by pass 22 Test12= 6.22D-12 3.33D-08 XBig12= 1.98D-07 8.44D-05.
      3 vectors produced by pass 23 Test12= 6.22D-12 3.33D-08 XBig12= 4.14D-08 4.99D-05.
      3 vectors produced by pass 24 Test12= 6.22D-12 3.33D-08 XBig12= 8.82D-09 2.07D-05.
      3 vectors produced by pass 25 Test12= 6.22D-12 3.33D-08 XBig12= 1.29D-09 7.50D-06.
      3 vectors produced by pass 26 Test12= 6.22D-12 3.33D-08 XBig12= 2.12D-10 3.40D-06.
      3 vectors produced by pass 27 Test12= 6.22D-12 3.33D-08 XBig12= 3.26D-11 8.63D-07.
      3 vectors produced by pass 28 Test12= 6.22D-12 3.33D-08 XBig12= 3.34D-12 2.68D-07.
      3 vectors produced by pass 29 Test12= 6.22D-12 3.33D-08 XBig12= 3.27D-13 1.25D-07.
      1 vectors produced by pass 30 Test12= 6.22D-12 3.33D-08 XBig12= 1.86D-14 3.94D-08.
 InvSVY:  IOpt=1 It=  1 EMax= 1.42D-14
 Solved reduced A of dimension    91 with     3 vectors.
 Isotropic polarizability for W=    0.000000      543.80 Bohr**3.
 End of Minotr F.D. properties file   721 does not exist.
 End of Minotr F.D. properties file   722 does not exist.
 End of Minotr F.D. properties file   788 does not exist.

 **********************************************************************

            Population analysis using the SCF Density.

 **********************************************************************

 Orbital symmetries:
       Occupied  (A) (A) (A) (A) (A) (A) (A) (A) (A) (A) (A) (A)
                 (A) (A) (A) (A) (A) (A) (A) (A) (A) (A) (A) (A)
                 (A) (A) (A) (A) (A) (A) (A) (A) (A) (A) (A) (A)
                 (A) (A) (A) (A) (A) (A) (A) (A) (A) (A) (A) (A)
                 (A) (A) (A) (A) (A) (A) (A) (A) (A) (A) (A) (A)
                 (A) (A) (A) (A) (A) (A) (A) (A) (A) (A) (A) (A)
                 (A) (A) (A) (A) (A) (A) (A) (A) (A) (A) (A) (A)
                 (A) (A) (A) (A) (A) (A) (A) (A) (A) (A) (A) (A)
                 (A) (A) (A) (A) (A) (A) (A) (A) (A) (A) (A) (A)
                 (A) (A) (A) (A) (A) (A) (A) (A) (A) (A) (A) (A)
                 (A) (A) (A) (A) (A) (A) (A) (A) (A) (A) (A) (A)
                 (A) (A) (A) (A) (A) (A) (A) (A) (A) (A) (A) (A)
                 (A) (A) (A) (A) (A)
       Virtual   (A) (A) (A) (A) (A) (A) (A) (A) (A) (A) (A) (A)
                 (A) (A) (A) (A) (A) (A) (A) (A) (A) (A) (A) (A)
                 (A) (A) (A) (A) (A) (A) (A) (A) (A) (A) (A) (A)
                 (A) (A) (A) (A) (A) (A) (A) (A) (A) (A) (A) (A)
                 (A) (A) (A) (A) (A) (A) (A) (A) (A) (A) (A) (A)
                 (A) (A) (A) (A) (A) (A) (A) (A) (A) (A) (A) (A)
                 (A) (A) (A) (A) (A) (A) (A) (A) (A) (A) (A) (A)
                 (A) (A) (A) (A) (A) (A) (A) (A) (A) (A) (A) (A)
                 (A) (A) (A) (A) (A) (A) (A) (A) (A) (A) (A) (A)
                 (A) (A) (A) (A) (A) (A) (A) (A) (A) (A) (A) (A)
                 (A) (A) (A) (A) (A) (A) (A) (A) (A) (A) (A) (A)
                 (A) (A) (A) (A) (A) (A) (A) (A) (A) (A) (A) (A)
                 (A) (A) (A) (A) (A) (A) (A) (A) (A) (A) (A) (A)
                 (A) (A) (A) (A) (A) (A) (A) (A) (A) (A) (A) (A)
                 (A) (A) (A) (A) (A) (A) (A) (A) (A) (A) (A) (A)
                 (A) (A) (A) (A) (A) (A) (A) (A) (A) (A) (A) (A)
                 (A) (A) (A) (A) (A) (A) (A) (A) (A) (A) (A) (A)
                 (A) (A) (A) (A) (A) (A) (A) (A) (A) (A) (A) (A)
                 (A) (A) (A) (A) (A) (A) (A) (A) (A) (A) (A) (A)
                 (A) (A) (A) (A) (A) (A) (A) (A) (A) (A) (A) (A)
                 (A) (A) (A) (A) (A) (A) (A) (A) (A) (A) (A) (A)
                 (A) (A) (A) (A) (A) (A) (A) (A) (A) (A) (A) (A)
                 (A) (A) (A) (A) (A) (A) (A) (A) (A) (A) (A) (A)
                 (A) (A) (A) (A) (A) (A) (A) (A) (A) (A) (A) (A)
                 (A) (A) (A) (A) (A) (A) (A) (A) (A) (A) (A) (A)
                 (A) (A) (A) (A) (A) (A) (A) (A) (A) (A) (A) (A)
                 (A) (A) (A) (A) (A) (A) (A) (A) (A) (A) (A) (A)
                 (A) (A) (A) (A) (A) (A) (A) (A) (A) (A) (A) (A)
                 (A) (A) (A) (A) (A) (A) (A) (A) (A) (A) (A) (A)
                 (A) (A) (A) (A) (A) (A) (A) (A) (A) (A) (A) (A)
                 (A) (A) (A) (A) (A) (A) (A) (A) (A) (A) (A) (A)
                 (A) (A) (A) (A) (A) (A) (A) (A) (A) (A) (A) (A)
                 (A) (A) (A) (A) (A) (A) (A) (A) (A) (A) (A) (A)
                 (A) (A) (A) (A) (A) (A) (A) (A) (A) (A) (A) (A)
                 (A) (A) (A) (A) (A) (A) (A) (A) (A) (A) (A) (A)
                 (A) (A) (A) (A) (A) (A) (A) (A) (A) (A) (A) (A)
                 (A) (A) (A) (A) (A) (A) (A) (A) (A) (A) (A) (A)
                 (A) (A) (A) (A) (A) (A) (A) (A) (A) (A) (A) (A)
                 (A) (A) (A) (A) (A) (A) (A) (A) (A) (A) (A) (A)
                 (A) (A) (A) (A) (A) (A) (A) (A) (A) (A) (A) (A)
                 (A) (A) (A) (A) (A) (A) (A) (A) (A) (A) (A) (A)
                 (A) (A) (A) (A) (A) (A) (A) (A) (A) (A) (A) (A)
                 (A) (A) (A) (A) (A) (A) (A) (A) (A) (A) (A) (A)
                 (A) (A) (A) (A) (A) (A) (A) (A) (A) (A) (A) (A)
                 (A) (A) (A) (A) (A) (A) (A) (A) (A) (A) (A) (A)
                 (A) (A) (A) (A) (A) (A) (A) (A) (A) (A) (A) (A)
                 (A) (A) (A) (A) (A) (A) (A) (A) (A) (A) (A) (A)
                 (A) (A) (A) (A) (A) (A) (A) (A) (A) (A) (A) (A)
                 (A) (A) (A) (A) (A) (A) (A) (A) (A) (A) (A) (A)
                 (A) (A) (A) (A) (A) (A) (A) (A) (A) (A) (A) (A)
                 (A) (A) (A) (A) (A) (A) (A) (A) (A) (A) (A) (A)
                 (A) (A) (A) (A) (A) (A) (A) (A) (A) (A) (A) (A)
                 (A) (A) (A) (A) (A) (A) (A) (A) (A) (A) (A) (A)
                 (A) (A) (A) (A) (A) (A) (A) (A) (A) (A) (A) (A)
                 (A) (A) (A) (A) (A) (A) (A) (A) (A) (A) (A) (A)
                 (A) (A) (A) (A) (A) (A) (A) (A) (A) (A) (A) (A)
                 (A) (A) (A) (A) (A) (A) (A) (A) (A) (A) (A) (A)
                 (A) (A) (A) (A) (A) (A) (A) (A) (A) (A) (A) (A)
                 (A) (A) (A) (A) (A) (A) (A) (A) (A) (A) (A) (A)
                 (A) (A) (A) (A) (A) (A) (A) (A) (A) (A) (A) (A)
                 (A) (A) (A) (A) (A) (A) (A) (A) (A) (A) (A) (A)
                 (A) (A) (A) (A) (A) (A) (A) (A) (A) (A) (A) (A)
                 (A) (A) (A) (A) (A) (A) (A) (A) (A) (A) (A) (A)
                 (A) (A) (A) (A) (A) (A) (A) (A) (A) (A) (A) (A)
                 (A) (A) (A) (A) (A) (A) (A) (A) (A) (A) (A) (A)
                 (A) (A) (A) (A) (A) (A) (A) (A) (A) (A) (A) (A)
                 (A) (A) (A) (A) (A) (A) (A) (A) (A) (A) (A) (A)
                 (A) (A) (A) (A) (A) (A) (A) (A) (A) (A) (A) (A)
                 (A) (A) (A) (A) (A) (A) (A) (A) (A) (A) (A) (A)
                 (A) (A) (A) (A) (A) (A) (A) (A) (A) (A) (A) (A)
                 (A) (A) (A) (A) (A) (A) (A) (A) (A) (A) (A) (A)
                 (A) (A) (A) (A) (A) (A) (A) (A) (A) (A) (A) (A)
                 (A) (A) (A) (A) (A) (A) (A) (A) (A) (A) (A) (A)
                 (A) (A) (A) (A) (A) (A) (A) (A) (A) (A) (A) (A)
                 (A) (A) (A) (A) (A) (A) (A) (A) (A) (A) (A) (A)
                 (A) (A) (A) (A) (A) (A) (A) (A) (A) (A) (A) (A)
                 (A) (A) (A) (A) (A) (A) (A) (A) (A) (A) (A) (A)
                 (A) (A) (A) (A) (A) (A) (A) (A) (A) (A) (A) (A)
                 (A) (A) (A) (A) (A) (A) (A) (A) (A) (A) (A) (A)
                 (A) (A) (A) (A) (A) (A) (A) (A) (A) (A) (A) (A)
                 (A) (A) (A) (A) (A) (A) (A) (A) (A) (A) (A) (A)
                 (A) (A) (A) (A) (A) (A) (A) (A) (A) (A) (A) (A)
                 (A) (A) (A) (A) (A) (A) (A) (A) (A) (A) (A) (A)
                 (A) (A) (A) (A) (A) (A) (A) (A) (A) (A) (A) (A)
                 (A) (A) (A) (A) (A) (A) (A) (A) (A) (A) (A) (A)
                 (A) (A) (A) (A) (A) (A) (A) (A) (A) (A) (A) (A)
                 (A) (A) (A) (A) (A) (A) (A) (A) (A) (A) (A) (A)
                 (A) (A) (A) (A) (A) (A) (A) (A) (A) (A) (A) (A)
                 (A) (A) (A) (A) (A) (A) (A) (A) (A) (A) (A) (A)
                 (A) (A) (A) (A) (A) (A) (A) (A) (A) (A) (A) (A)
                 (A) (A) (A) (A) (A) (A) (A) (A) (A) (A) (A) (A)
                 (A) (A) (A) (A) (A) (A) (A) (A) (A) (A) (A) (A)
                 (A) (A) (A) (A) (A) (A) (A) (A) (A) (A) (A) (A)
                 (A) (A) (A) (A) (A) (A) (A) (A) (A) (A) (A) (A)
                 (A) (A) (A) (A) (A) (A) (A) (A) (A) (A) (A) (A)
                 (A) (A) (A) (A) (A) (A) (A) (A) (A) (A) (A) (A)
                 (A) (A) (A) (A) (A) (A) (A) (A) (A) (A) (A) (A)
                 (A) (A) (A) (A) (A) (A) (A) (A) (A) (A) (A) (A)
                 (A) (A) (A) (A) (A) (A) (A) (A) (A) (A) (A) (A)
                 (A) (A) (A) (A) (A) (A) (A) (A) (A) (A) (A) (A)
                 (A) (A) (A) (A) (A) (A) (A) (A) (A) (A) (A) (A)
                 (A) (A) (A) (A) (A) (A) (A) (A) (A) (A) (A) (A)
                 (A) (A) (A) (A) (A) (A) (A) (A) (A) (A) (A) (A)
                 (A) (A) (A) (A) (A) (A) (A) (A) (A) (A) (A) (A)
                 (A) (A) (A) (A) (A)
 The electronic state is 1-A.
 Alpha  occ. eigenvalues -- -256.18817 -88.96201 -30.03732 -25.87920 -25.87497
 Alpha  occ. eigenvalues --  -25.87472 -19.17928 -14.34111 -14.33813 -14.33760
 Alpha  occ. eigenvalues --  -14.33683 -10.21984 -10.21613 -10.21540 -10.21338
 Alpha  occ. eigenvalues --  -10.21265 -10.21190 -10.21161 -10.21159 -10.20998
 Alpha  occ. eigenvalues --  -10.20043 -10.19834 -10.19582 -10.19174 -10.19113
 Alpha  occ. eigenvalues --  -10.19086 -10.19061 -10.19016 -10.18990 -10.18924
 Alpha  occ. eigenvalues --  -10.18904 -10.18879 -10.18869 -10.18865 -10.18863
 Alpha  occ. eigenvalues --  -10.18823 -10.18793 -10.18719 -10.18718 -10.18652
 Alpha  occ. eigenvalues --  -10.18459 -10.18370  -7.98965  -5.93534  -5.93247
 Alpha  occ. eigenvalues --   -5.92750  -3.41372  -2.18108  -2.17187  -2.17131
 Alpha  occ. eigenvalues --   -1.05728  -0.97467  -0.96555  -0.96435  -0.95522
 Alpha  occ. eigenvalues --   -0.82732  -0.82345  -0.81836  -0.81118  -0.80758
 Alpha  occ. eigenvalues --   -0.80202  -0.80037  -0.79990  -0.77241  -0.76251
 Alpha  occ. eigenvalues --   -0.74593  -0.74362  -0.73455  -0.71365  -0.70317
 Alpha  occ. eigenvalues --   -0.68575  -0.68293  -0.68209  -0.66387  -0.64682
 Alpha  occ. eigenvalues --   -0.64452  -0.61441  -0.61230  -0.60346  -0.58012
 Alpha  occ. eigenvalues --   -0.57080  -0.54940  -0.54501  -0.53829  -0.52482
 Alpha  occ. eigenvalues --   -0.51544  -0.51241  -0.50799  -0.48979  -0.48147
 Alpha  occ. eigenvalues --   -0.47762  -0.46494  -0.46433  -0.45744  -0.45269
 Alpha  occ. eigenvalues --   -0.45029  -0.44416  -0.44111  -0.43783  -0.43657
 Alpha  occ. eigenvalues --   -0.43607  -0.43322  -0.43085  -0.42461  -0.41954
 Alpha  occ. eigenvalues --   -0.41811  -0.41752  -0.41551  -0.41160  -0.40591
 Alpha  occ. eigenvalues --   -0.40491  -0.40190  -0.39960  -0.39786  -0.39675
 Alpha  occ. eigenvalues --   -0.39276  -0.39082  -0.38814  -0.38163  -0.37914
 Alpha  occ. eigenvalues --   -0.37643  -0.37439  -0.36707  -0.36455  -0.36256
 Alpha  occ. eigenvalues --   -0.35793  -0.35004  -0.34830  -0.34529  -0.34306
 Alpha  occ. eigenvalues --   -0.34147  -0.32277  -0.31800  -0.30709  -0.30301
 Alpha  occ. eigenvalues --   -0.29751  -0.29054  -0.28150  -0.27169  -0.26971
 Alpha  occ. eigenvalues --   -0.24704  -0.24336  -0.23105  -0.22611  -0.20268
 Alpha  occ. eigenvalues --   -0.19129  -0.18860  -0.18706  -0.18317
 Alpha virt. eigenvalues --   -0.07016  -0.06815  -0.02240  -0.00929   0.00111
 Alpha virt. eigenvalues --    0.01234   0.01649   0.03257   0.04083   0.04293
 Alpha virt. eigenvalues --    0.04667   0.05241   0.05311   0.05751   0.06222
 Alpha virt. eigenvalues --    0.06855   0.07344   0.07799   0.08105   0.08352
 Alpha virt. eigenvalues --    0.08599   0.08953   0.09360   0.10121   0.10254
 Alpha virt. eigenvalues --    0.10379   0.10513   0.10731   0.11268   0.11526
 Alpha virt. eigenvalues --    0.11939   0.12022   0.12484   0.12598   0.12848
 Alpha virt. eigenvalues --    0.13122   0.13287   0.13587   0.13913   0.14193
 Alpha virt. eigenvalues --    0.14392   0.14631   0.14970   0.15011   0.15176
 Alpha virt. eigenvalues --    0.15401   0.15623   0.15738   0.15992   0.16228
 Alpha virt. eigenvalues --    0.16467   0.16781   0.16936   0.17066   0.17597
 Alpha virt. eigenvalues --    0.17836   0.17919   0.18361   0.19103   0.19153
 Alpha virt. eigenvalues --    0.19311   0.19613   0.19805   0.20407   0.20538
 Alpha virt. eigenvalues --    0.20687   0.21326   0.21463   0.21671   0.22157
 Alpha virt. eigenvalues --    0.22313   0.22409   0.22722   0.23151   0.23468
 Alpha virt. eigenvalues --    0.23831   0.24169   0.24337   0.24805   0.25428
 Alpha virt. eigenvalues --    0.25617   0.25746   0.26097   0.26319   0.26659
 Alpha virt. eigenvalues --    0.26964   0.27193   0.27505   0.28106   0.28284
 Alpha virt. eigenvalues --    0.28465   0.28690   0.29041   0.29184   0.29360
 Alpha virt. eigenvalues --    0.29598   0.29782   0.30186   0.30592   0.30665
 Alpha virt. eigenvalues --    0.30807   0.30988   0.31430   0.32032   0.32188
 Alpha virt. eigenvalues --    0.32474   0.32951   0.33157   0.33365   0.33859
 Alpha virt. eigenvalues --    0.34039   0.34295   0.34661   0.35128   0.35173
 Alpha virt. eigenvalues --    0.35808   0.36205   0.36299   0.36536   0.36892
 Alpha virt. eigenvalues --    0.36969   0.37226   0.37443   0.37896   0.38334
 Alpha virt. eigenvalues --    0.38719   0.38957   0.39385   0.39638   0.39693
 Alpha virt. eigenvalues --    0.39851   0.40028   0.40342   0.40523   0.40734
 Alpha virt. eigenvalues --    0.41027   0.41396   0.41792   0.41977   0.42013
 Alpha virt. eigenvalues --    0.42207   0.42345   0.42720   0.42849   0.43172
 Alpha virt. eigenvalues --    0.43507   0.43694   0.43911   0.44091   0.44434
 Alpha virt. eigenvalues --    0.44611   0.44913   0.45170   0.45242   0.45464
 Alpha virt. eigenvalues --    0.45572   0.45999   0.46223   0.46531   0.46728
 Alpha virt. eigenvalues --    0.46923   0.47287   0.47533   0.47752   0.48038
 Alpha virt. eigenvalues --    0.48191   0.48466   0.48600   0.48824   0.48986
 Alpha virt. eigenvalues --    0.49350   0.49598   0.49787   0.50036   0.50334
 Alpha virt. eigenvalues --    0.50577   0.50752   0.50925   0.51225   0.51318
 Alpha virt. eigenvalues --    0.51697   0.51871   0.51946   0.52064   0.52476
 Alpha virt. eigenvalues --    0.52859   0.53148   0.53333   0.53613   0.53883
 Alpha virt. eigenvalues --    0.54109   0.54528   0.54813   0.55064   0.55612
 Alpha virt. eigenvalues --    0.55799   0.56041   0.56229   0.56335   0.56898
 Alpha virt. eigenvalues --    0.57293   0.57471   0.58135   0.58202   0.58627
 Alpha virt. eigenvalues --    0.58852   0.59357   0.59551   0.60087   0.60456
 Alpha virt. eigenvalues --    0.60620   0.61052   0.61583   0.61792   0.62062
 Alpha virt. eigenvalues --    0.62223   0.62746   0.62949   0.63596   0.64006
 Alpha virt. eigenvalues --    0.64201   0.64800   0.65096   0.65319   0.65374
 Alpha virt. eigenvalues --    0.65730   0.66014   0.66317   0.66371   0.66721
 Alpha virt. eigenvalues --    0.67190   0.67587   0.68232   0.68259   0.68635
 Alpha virt. eigenvalues --    0.69045   0.69398   0.69561   0.70506   0.70841
 Alpha virt. eigenvalues --    0.71044   0.71239   0.71565   0.71860   0.71981
 Alpha virt. eigenvalues --    0.72153   0.72361   0.72915   0.73230   0.73843
 Alpha virt. eigenvalues --    0.73942   0.74172   0.74506   0.74808   0.75068
 Alpha virt. eigenvalues --    0.75449   0.75806   0.76154   0.76592   0.77129
 Alpha virt. eigenvalues --    0.77385   0.77940   0.78037   0.78400   0.78801
 Alpha virt. eigenvalues --    0.79034   0.79235   0.79978   0.80155   0.80664
 Alpha virt. eigenvalues --    0.80998   0.81438   0.81674   0.82666   0.82696
 Alpha virt. eigenvalues --    0.82913   0.83391   0.84055   0.84580   0.85420
 Alpha virt. eigenvalues --    0.85802   0.85890   0.86506   0.87143   0.87240
 Alpha virt. eigenvalues --    0.87405   0.87870   0.87997   0.88149   0.88747
 Alpha virt. eigenvalues --    0.89262   0.90110   0.90395   0.91124   0.91479
 Alpha virt. eigenvalues --    0.91987   0.92196   0.92606   0.92815   0.93163
 Alpha virt. eigenvalues --    0.93495   0.93642   0.94403   0.94621   0.94944
 Alpha virt. eigenvalues --    0.95233   0.95373   0.96223   0.96340   0.96700
 Alpha virt. eigenvalues --    0.96910   0.97392   0.97969   0.98135   0.98719
 Alpha virt. eigenvalues --    0.99042   0.99466   0.99979   1.00256   1.00686
 Alpha virt. eigenvalues --    1.00743   1.01145   1.01350   1.01810   1.02085
 Alpha virt. eigenvalues --    1.02349   1.02437   1.03145   1.03479   1.04012
 Alpha virt. eigenvalues --    1.04313   1.04385   1.04621   1.04886   1.05350
 Alpha virt. eigenvalues --    1.05909   1.06207   1.06566   1.07282   1.07775
 Alpha virt. eigenvalues --    1.08451   1.08933   1.09220   1.09361   1.09451
 Alpha virt. eigenvalues --    1.10572   1.11114   1.11617   1.11765   1.12291
 Alpha virt. eigenvalues --    1.12868   1.13499   1.14275   1.14470   1.15125
 Alpha virt. eigenvalues --    1.15816   1.16457   1.17220   1.17332   1.17569
 Alpha virt. eigenvalues --    1.18480   1.18617   1.18956   1.19206   1.19751
 Alpha virt. eigenvalues --    1.19816   1.20799   1.21230   1.21626   1.21960
 Alpha virt. eigenvalues --    1.22648   1.22795   1.23715   1.24220   1.24568
 Alpha virt. eigenvalues --    1.24874   1.25356   1.25909   1.26217   1.26425
 Alpha virt. eigenvalues --    1.27019   1.27167   1.27591   1.28275   1.28381
 Alpha virt. eigenvalues --    1.29028   1.29451   1.29653   1.30038   1.30180
 Alpha virt. eigenvalues --    1.30847   1.31033   1.31685   1.32392   1.32436
 Alpha virt. eigenvalues --    1.32926   1.33687   1.35134   1.36001   1.36320
 Alpha virt. eigenvalues --    1.37275   1.37573   1.38381   1.38869   1.39098
 Alpha virt. eigenvalues --    1.39924   1.40618   1.41169   1.41478   1.42078
 Alpha virt. eigenvalues --    1.42642   1.42684   1.43589   1.44591   1.44951
 Alpha virt. eigenvalues --    1.45286   1.45948   1.46583   1.46974   1.47271
 Alpha virt. eigenvalues --    1.47431   1.48077   1.48158   1.48491   1.48834
 Alpha virt. eigenvalues --    1.49041   1.49455   1.49636   1.50116   1.50662
 Alpha virt. eigenvalues --    1.51195   1.51598   1.51814   1.52243   1.52457
 Alpha virt. eigenvalues --    1.52749   1.52977   1.53207   1.53635   1.54163
 Alpha virt. eigenvalues --    1.54226   1.54370   1.54471   1.54887   1.55158
 Alpha virt. eigenvalues --    1.55259   1.55525   1.55740   1.56004   1.56064
 Alpha virt. eigenvalues --    1.56668   1.56945   1.57019   1.57343   1.57676
 Alpha virt. eigenvalues --    1.58076   1.58230   1.58338   1.58663   1.59409
 Alpha virt. eigenvalues --    1.59662   1.59919   1.60371   1.60937   1.61039
 Alpha virt. eigenvalues --    1.61613   1.61634   1.61941   1.62474   1.62935
 Alpha virt. eigenvalues --    1.63209   1.63506   1.63543   1.64249   1.64682
 Alpha virt. eigenvalues --    1.65280   1.65347   1.65751   1.66019   1.66352
 Alpha virt. eigenvalues --    1.66553   1.66799   1.67256   1.67537   1.68015
 Alpha virt. eigenvalues --    1.68082   1.68682   1.68951   1.69641   1.69920
 Alpha virt. eigenvalues --    1.70478   1.70625   1.70781   1.71691   1.71968
 Alpha virt. eigenvalues --    1.72159   1.72898   1.73151   1.73292   1.73689
 Alpha virt. eigenvalues --    1.74024   1.74315   1.74776   1.75539   1.76394
 Alpha virt. eigenvalues --    1.76769   1.77141   1.77787   1.78343   1.78410
 Alpha virt. eigenvalues --    1.78714   1.79812   1.80307   1.80446   1.80607
 Alpha virt. eigenvalues --    1.81025   1.81893   1.83048   1.83500   1.83796
 Alpha virt. eigenvalues --    1.84016   1.84916   1.85233   1.85707   1.86470
 Alpha virt. eigenvalues --    1.86721   1.87133   1.87469   1.87648   1.88079
 Alpha virt. eigenvalues --    1.88522   1.88765   1.89064   1.89719   1.90220
 Alpha virt. eigenvalues --    1.90813   1.91370   1.91574   1.92709   1.93364
 Alpha virt. eigenvalues --    1.93821   1.94358   1.95109   1.95843   1.96278
 Alpha virt. eigenvalues --    1.96876   1.97759   1.97985   1.98222   1.98248
 Alpha virt. eigenvalues --    1.98616   1.99271   1.99433   1.99925   2.00194
 Alpha virt. eigenvalues --    2.00659   2.00883   2.01470   2.02392   2.02533
 Alpha virt. eigenvalues --    2.02924   2.03650   2.03660   2.03989   2.04868
 Alpha virt. eigenvalues --    2.05657   2.06465   2.06761   2.07574   2.07907
 Alpha virt. eigenvalues --    2.08158   2.08549   2.09319   2.09969   2.10111
 Alpha virt. eigenvalues --    2.10536   2.11089   2.11809   2.12973   2.13175
 Alpha virt. eigenvalues --    2.13745   2.13924   2.14626   2.14917   2.15624
 Alpha virt. eigenvalues --    2.15902   2.16424   2.16884   2.17329   2.17766
 Alpha virt. eigenvalues --    2.18498   2.18873   2.19332   2.20068   2.20367
 Alpha virt. eigenvalues --    2.20424   2.21255   2.21908   2.22716   2.23016
 Alpha virt. eigenvalues --    2.23842   2.24548   2.25253   2.25712   2.25859
 Alpha virt. eigenvalues --    2.26184   2.26429   2.26854   2.27055   2.27778
 Alpha virt. eigenvalues --    2.28121   2.28623   2.29253   2.29434   2.30030
 Alpha virt. eigenvalues --    2.30714   2.31048   2.31414   2.31823   2.32328
 Alpha virt. eigenvalues --    2.32750   2.33683   2.34132   2.35014   2.35283
 Alpha virt. eigenvalues --    2.35842   2.35980   2.36148   2.36578   2.36851
 Alpha virt. eigenvalues --    2.37288   2.37459   2.37723   2.38272   2.38971
 Alpha virt. eigenvalues --    2.39365   2.39732   2.40584   2.40736   2.41453
 Alpha virt. eigenvalues --    2.41638   2.42053   2.42395   2.43263   2.44107
 Alpha virt. eigenvalues --    2.44232   2.44752   2.44955   2.45750   2.46106
 Alpha virt. eigenvalues --    2.46369   2.46598   2.47203   2.47915   2.48435
 Alpha virt. eigenvalues --    2.48829   2.49367   2.50072   2.50613   2.51040
 Alpha virt. eigenvalues --    2.51500   2.52641   2.52998   2.53143   2.53589
 Alpha virt. eigenvalues --    2.53709   2.54101   2.54484   2.55409   2.55668
 Alpha virt. eigenvalues --    2.55847   2.56422   2.56681   2.56919   2.57217
 Alpha virt. eigenvalues --    2.57462   2.57901   2.58398   2.58425   2.58660
 Alpha virt. eigenvalues --    2.59189   2.60047   2.60160   2.60939   2.61087
 Alpha virt. eigenvalues --    2.61440   2.61740   2.62144   2.62520   2.63023
 Alpha virt. eigenvalues --    2.63774   2.63908   2.64484   2.64848   2.65166
 Alpha virt. eigenvalues --    2.65493   2.66562   2.66779   2.67349   2.67720
 Alpha virt. eigenvalues --    2.68112   2.68422   2.68654   2.68873   2.69472
 Alpha virt. eigenvalues --    2.70235   2.70356   2.71247   2.71615   2.71770
 Alpha virt. eigenvalues --    2.72586   2.73082   2.73822   2.74355   2.74451
 Alpha virt. eigenvalues --    2.75266   2.75811   2.75951   2.76081   2.76621
 Alpha virt. eigenvalues --    2.77073   2.77910   2.78581   2.78761   2.79302
 Alpha virt. eigenvalues --    2.80042   2.80235   2.80579   2.80687   2.81250
 Alpha virt. eigenvalues --    2.81556   2.82194   2.82498   2.82844   2.83513
 Alpha virt. eigenvalues --    2.84002   2.84883   2.85055   2.85295   2.86059
 Alpha virt. eigenvalues --    2.86402   2.86799   2.87292   2.87693   2.88193
 Alpha virt. eigenvalues --    2.88512   2.89014   2.89034   2.89399   2.89678
 Alpha virt. eigenvalues --    2.90223   2.90931   2.91112   2.91275   2.92022
 Alpha virt. eigenvalues --    2.92537   2.92922   2.93519   2.94099   2.94771
 Alpha virt. eigenvalues --    2.95028   2.95220   2.95739   2.95805   2.96782
 Alpha virt. eigenvalues --    2.97113   2.97419   2.97694   2.98341   2.98901
 Alpha virt. eigenvalues --    2.99480   2.99978   3.00294   3.00653   3.00980
 Alpha virt. eigenvalues --    3.01691   3.02320   3.02637   3.03350   3.03714
 Alpha virt. eigenvalues --    3.03946   3.04812   3.04919   3.05429   3.05803
 Alpha virt. eigenvalues --    3.06183   3.06755   3.07156   3.07549   3.07598
 Alpha virt. eigenvalues --    3.07779   3.08343   3.08828   3.09238   3.09504
 Alpha virt. eigenvalues --    3.09837   3.10060   3.10251   3.11031   3.11328
 Alpha virt. eigenvalues --    3.11495   3.11807   3.12218   3.12530   3.12890
 Alpha virt. eigenvalues --    3.13053   3.13460   3.14291   3.14490   3.15252
 Alpha virt. eigenvalues --    3.15380   3.15920   3.16047   3.16365   3.16656
 Alpha virt. eigenvalues --    3.17159   3.17379   3.18161   3.18350   3.18637
 Alpha virt. eigenvalues --    3.18982   3.19582   3.19970   3.20101   3.20390
 Alpha virt. eigenvalues --    3.21135   3.21360   3.21669   3.22052   3.22351
 Alpha virt. eigenvalues --    3.22758   3.23278   3.23413   3.23944   3.24217
 Alpha virt. eigenvalues --    3.24719   3.24829   3.25142   3.25241   3.25865
 Alpha virt. eigenvalues --    3.26160   3.26410   3.26694   3.26848   3.27018
 Alpha virt. eigenvalues --    3.27900   3.28022   3.28656   3.28931   3.29064
 Alpha virt. eigenvalues --    3.29258   3.29826   3.29944   3.30280   3.30574
 Alpha virt. eigenvalues --    3.30693   3.30965   3.31054   3.31719   3.31774
 Alpha virt. eigenvalues --    3.32078   3.32738   3.32904   3.33307   3.33792
 Alpha virt. eigenvalues --    3.33847   3.34296   3.34531   3.34765   3.34992
 Alpha virt. eigenvalues --    3.35423   3.35459   3.36011   3.36406   3.36532
 Alpha virt. eigenvalues --    3.37217   3.37314   3.37564   3.37847   3.37932
 Alpha virt. eigenvalues --    3.38411   3.38552   3.39144   3.39542   3.39828
 Alpha virt. eigenvalues --    3.40158   3.40680   3.41129   3.41281   3.41401
 Alpha virt. eigenvalues --    3.41642   3.41904   3.42790   3.43060   3.43687
 Alpha virt. eigenvalues --    3.44171   3.44358   3.44853   3.45323   3.45371
 Alpha virt. eigenvalues --    3.46017   3.46319   3.46912   3.47204   3.47958
 Alpha virt. eigenvalues --    3.48655   3.48821   3.49231   3.49564   3.49930
 Alpha virt. eigenvalues --    3.51082   3.51110   3.52155   3.52560   3.53175
 Alpha virt. eigenvalues --    3.53752   3.54637   3.54925   3.55065   3.55814
 Alpha virt. eigenvalues --    3.56569   3.56838   3.57727   3.58210   3.58524
 Alpha virt. eigenvalues --    3.58836   3.59203   3.59612   3.60099   3.61290
 Alpha virt. eigenvalues --    3.61370   3.61906   3.62015   3.62788   3.63384
 Alpha virt. eigenvalues --    3.63605   3.64638   3.65017   3.65345   3.66655
 Alpha virt. eigenvalues --    3.67237   3.67246   3.68274   3.68490   3.69550
 Alpha virt. eigenvalues --    3.69706   3.70274   3.70587   3.70871   3.71342
 Alpha virt. eigenvalues --    3.71546   3.72382   3.72638   3.73339   3.73966
 Alpha virt. eigenvalues --    3.74293   3.74448   3.74693   3.75341   3.75540
 Alpha virt. eigenvalues --    3.75852   3.76134   3.76801   3.77598   3.77715
 Alpha virt. eigenvalues --    3.79002   3.79693   3.80110   3.80270   3.80974
 Alpha virt. eigenvalues --    3.82080   3.82936   3.83784   3.84514   3.84553
 Alpha virt. eigenvalues --    3.85560   3.86186   3.86901   3.87712   3.87886
 Alpha virt. eigenvalues --    3.88939   3.89118   3.89441   3.90492   3.91026
 Alpha virt. eigenvalues --    3.91362   3.92935   3.93239   3.93368   3.93804
 Alpha virt. eigenvalues --    3.95505   3.96123   3.97222   3.98046   3.98766
 Alpha virt. eigenvalues --    3.98909   3.99682   4.00087   4.00612   4.00988
 Alpha virt. eigenvalues --    4.01485   4.01700   4.02817   4.03328   4.04275
 Alpha virt. eigenvalues --    4.04538   4.04860   4.05994   4.06155   4.07584
 Alpha virt. eigenvalues --    4.08169   4.08513   4.09963   4.10241   4.10758
 Alpha virt. eigenvalues --    4.12108   4.12907   4.13350   4.14411   4.15598
 Alpha virt. eigenvalues --    4.16314   4.16526   4.16644   4.17444   4.18102
 Alpha virt. eigenvalues --    4.18670   4.18782   4.19335   4.19874   4.20234
 Alpha virt. eigenvalues --    4.20789   4.20852   4.21681   4.22235   4.23020
 Alpha virt. eigenvalues --    4.23303   4.23911   4.24720   4.25518   4.26178
 Alpha virt. eigenvalues --    4.27021   4.27626   4.28678   4.29239   4.29375
 Alpha virt. eigenvalues --    4.29951   4.30472   4.30982   4.31856   4.32154
 Alpha virt. eigenvalues --    4.32979   4.33133   4.33414   4.34265   4.34890
 Alpha virt. eigenvalues --    4.36792   4.37141   4.37638   4.38366   4.39310
 Alpha virt. eigenvalues --    4.39616   4.40099   4.40693   4.41095   4.41811
 Alpha virt. eigenvalues --    4.41934   4.42736   4.43312   4.44187   4.44263
 Alpha virt. eigenvalues --    4.44711   4.45189   4.45926   4.46152   4.46872
 Alpha virt. eigenvalues --    4.47973   4.48254   4.48774   4.49083   4.49881
 Alpha virt. eigenvalues --    4.50785   4.51750   4.52597   4.53915   4.54576
 Alpha virt. eigenvalues --    4.55704   4.55832   4.56340   4.57524   4.58698
 Alpha virt. eigenvalues --    4.61243   4.61619   4.63680   4.65192   4.65904
 Alpha virt. eigenvalues --    4.66949   4.67771   4.68041   4.68559   4.69509
 Alpha virt. eigenvalues --    4.70400   4.71638   4.72577   4.73191   4.74046
 Alpha virt. eigenvalues --    4.74415   4.76446   4.77595   4.78787   4.80225
 Alpha virt. eigenvalues --    4.81668   4.82236   4.82972   4.83574   4.84406
 Alpha virt. eigenvalues --    4.84800   4.85577   4.85979   4.87227   4.87854
 Alpha virt. eigenvalues --    4.89644   4.90008   4.92743   4.93170   4.94104
 Alpha virt. eigenvalues --    4.95563   4.95744   4.96435   4.97343   4.98444
 Alpha virt. eigenvalues --    5.00297   5.00958   5.02052   5.02926   5.03464
 Alpha virt. eigenvalues --    5.04853   5.06256   5.07253   5.07506   5.08472
 Alpha virt. eigenvalues --    5.08961   5.10013   5.11738   5.12988   5.15851
 Alpha virt. eigenvalues --    5.16954   5.18048   5.20582   5.21034   5.21536
 Alpha virt. eigenvalues --    5.21969   5.22703   5.24547   5.25992   5.26608
 Alpha virt. eigenvalues --    5.27855   5.28282   5.30556   5.35495   5.36019
 Alpha virt. eigenvalues --    5.36952   5.38088   5.38980   5.39388   5.40066
 Alpha virt. eigenvalues --    5.40402   5.41493   5.42111   5.48150   5.48463
 Alpha virt. eigenvalues --    5.49490   5.50613   5.51814   5.52526   5.52726
 Alpha virt. eigenvalues --    5.55856   5.59820   5.61079   5.62069   5.62472
 Alpha virt. eigenvalues --    5.64003   5.65112   5.66813   5.67812   5.68592
 Alpha virt. eigenvalues --    5.70407   5.75569   5.76761   5.78052   5.78680
 Alpha virt. eigenvalues --    5.87227   5.88264   5.89501   5.92780   6.00228
 Alpha virt. eigenvalues --    6.01524   6.02537   6.11481   6.12230   6.12856
 Alpha virt. eigenvalues --    6.13747   6.18337   6.23087   6.26809   6.33389
 Alpha virt. eigenvalues --    6.34485   6.41172   6.46181   6.52337   6.52786
 Alpha virt. eigenvalues --    6.63307   6.95531   7.27956   9.07489   9.22948
 Alpha virt. eigenvalues --    9.42044  19.60032  22.32075  22.35255  22.36236
 Alpha virt. eigenvalues --   22.46022  22.46893  22.52344  22.54344  22.62423
 Alpha virt. eigenvalues --   22.62632  22.85010  22.86448  22.90227  22.93399
 Alpha virt. eigenvalues --   22.94435  22.96139  22.97137  23.02480  23.04451
 Alpha virt. eigenvalues --   23.13547  23.26717  23.29507  23.31267  23.40102
 Alpha virt. eigenvalues --   23.42230  23.50559  23.52655  23.56986  23.73751
 Alpha virt. eigenvalues --   23.78351  23.78686  23.87900  32.88563  32.90357
 Alpha virt. eigenvalues --   32.95342  33.03844  43.91937
          Condensed to atoms (all electrons):
 Mulliken charges:
               1
     1  Fe  -0.247063
     2  N    0.020917
     3  N   -0.121390
     4  N   -0.001918
     5  N   -0.005982
     6  C    0.230435
     7  C   -0.043009
     8  C   -0.010580
     9  C    0.105554
    10  C    0.253482
    11  C   -0.056398
    12  C    0.070389
    13  C    0.175592
    14  C    0.171256
    15  C   -0.090810
    16  C    0.097697
    17  C    0.236512
    18  C    0.218599
    19  C   -0.036533
    20  C   -0.048293
    21  C    0.192577
    22  C   -0.407219
    23  H    0.140749
    24  C   -0.430271
    25  H    0.132136
    26  C   -0.367779
    27  H    0.121810
    28  C   -0.454555
    29  H    0.188975
    30  C   -0.411421
    31  H    0.121403
    32  H    0.137511
    33  H    0.132665
    34  C   -0.416408
    35  H    0.135450
    36  H    0.136945
    37  H    0.120464
    38  C   -0.448324
    39  H    0.142158
    40  H    0.127252
    41  H    0.157667
    42  C   -0.210171
    43  H    0.115541
    44  C   -0.283441
    45  H    0.139621
    46  H    0.123777
    47  C   -0.402214
    48  H    0.141458
    49  H    0.134685
    50  H    0.126177
    51  C   -0.243968
    52  H    0.117629
    53  C   -0.312431
    54  H    0.151656
    55  H    0.122971
    56  C   -0.409117
    57  H    0.137920
    58  H    0.135372
    59  H    0.119249
    60  C   -0.413714
    61  H    0.121606
    62  H    0.135522
    63  H    0.133236
    64  O   -0.576689
    65  H    0.362603
    66  H    0.324160
    67  C   -0.343812
    68  H    0.147808
    69  H    0.157874
    70  H    0.154212
    71  S   -0.041853
    72  H    0.164094
 Sum of Mulliken charges =  -0.00000
 Mulliken charges with hydrogens summed into heavy atoms:
               1
     1  Fe  -0.247063
     2  N    0.020917
     3  N   -0.121390
     4  N   -0.001918
     5  N   -0.005982
     6  C    0.230435
     7  C   -0.043009
     8  C   -0.010580
     9  C    0.105554
    10  C    0.253482
    11  C   -0.056398
    12  C    0.070389
    13  C    0.175592
    14  C    0.171256
    15  C   -0.090810
    16  C    0.097697
    17  C    0.236512
    18  C    0.218599
    19  C   -0.036533
    20  C   -0.048293
    21  C    0.192577
    22  C   -0.266470
    24  C   -0.298135
    26  C   -0.245969
    28  C   -0.265581
    30  C   -0.019842
    34  C   -0.023549
    38  C   -0.021248
    42  C   -0.094630
    44  C   -0.020044
    47  C    0.000106
    51  C   -0.126339
    53  C   -0.037805
    56  C   -0.016576
    60  C   -0.023349
    64  O    0.110074
    67  C    0.116082
    71  S    0.122240
 Electronic spatial extent (au):  <R**2>=          18163.1892
 Charge=              0.0000 electrons
 Dipole moment (field-independent basis, Debye):
    X=              0.5361    Y=              1.7475    Z=             -0.3750  Tot=              1.8660
 Quadrupole moment (field-independent basis, Debye-Ang):
   XX=           -224.4347   YY=           -222.7284   ZZ=           -229.0054
   XY=             -0.6271   XZ=              3.0174   YZ=              3.7664
 Traceless Quadrupole moment (field-independent basis, Debye-Ang):
   XX=              0.9548   YY=              2.6611   ZZ=             -3.6159
   XY=             -0.6271   XZ=              3.0174   YZ=              3.7664
 Octapole moment (field-independent basis, Debye-Ang**2):
  XXX=            -24.7795  YYY=             15.1528  ZZZ=            -22.2747  XYY=              0.3245
  XXY=             17.9841  XXZ=              4.5874  XZZ=              4.9426  YZZ=             22.5575
  YYZ=            -13.9768  XYZ=              3.2754
 Hexadecapole moment (field-independent basis, Debye-Ang**3):
 XXXX=         -11903.6913 YYYY=         -11011.0695 ZZZZ=          -1266.2006 XXXY=             17.7689
 XXXZ=             62.9890 YYYX=              0.5688 YYYZ=             80.6417 ZZZX=             44.2878
 ZZZY=             28.1514 XXYY=          -3816.3068 XXZZ=          -2346.9641 YYZZ=          -2234.6473
 XXYZ=            -19.3009 YYXZ=            -12.9789 ZZXY=            -11.2738
 N-N= 5.419353301868D+03 E-N=-1.827446844071D+04  KE= 3.147466117429D+03
  Exact polarizability:     705.728      -8.160     662.106       1.886       0.813     263.580
 Approx polarizability:    1306.522     -19.543    1241.894       5.931      14.189     447.476

 ----------------------------------------------------------------------

 Electric dipole moment (input orientation):
 (Debye = 10**-18 statcoulomb cm , SI units = C m)
                  (au)            (Debye)         (10**-30 SI)
   Tot        0.734122D+00      0.186595D+01      0.622414D+01
   x         -0.156785D+00     -0.398509D+00     -0.132928D+01
   y          0.109122D+00      0.277361D+00      0.925177D+00
   z         -0.708834D+00     -0.180168D+01     -0.600974D+01

 Dipole polarizability, Alpha (input orientation).
 (esu units = cm**3 , SI units = C**2 m**2 J**-1)
 Alpha(0;0):
               (au)            (10**-24 esu)      (10**-40 SI)
   iso        0.543805D+03      0.805836D+02      0.896613D+02
   aniso      0.422283D+03      0.625759D+02      0.696251D+02
   xx         0.696559D+03      0.103219D+03      0.114847D+03
   yx         0.670455D+02      0.993511D+01      0.110543D+02
   yy         0.274216D+03      0.406347D+02      0.452122D+02
   zx        -0.501219D+01     -0.742729D+00     -0.826398D+00
   zy         0.947815D+01      0.140452D+01      0.156274D+01
   zz         0.660639D+03      0.978966D+02      0.108925D+03

 First dipole hyperpolarizability, Beta (input orientation).
 ||, _|_  parallel and perpendicular components, (z) with respect to z axis,
 vector components x,y,z.  Values do not include the 1/n! factor of 1/2.
 (esu units = statvolt**-1 cm**4 , SI units = C**3 m**3 J**-2)
 Beta(0;0,0):
               (au)            (10**-30 esu)      (10**-50 SI)
   || (z)     0.626844D+03      0.541545D+01      0.200989D+01
   _|_(z)     0.208948D+03      0.180515D+01      0.669963D+00
   x         -0.312429D+04     -0.269914D+02     -0.100176D+02
   y         -0.546731D+03     -0.472333D+01     -0.175302D+01
   z          0.313422D+04      0.270772D+02      0.100494D+02
   ||         0.891816D+03      0.770460D+01      0.285949D+01
   xxx       -0.137562D+04     -0.118843D+02     -0.441075D+01
   xxy       -0.949954D+02     -0.820686D+00     -0.304590D+00
   yxy       -0.180951D+02     -0.156328D+00     -0.580195D-01
   yyy       -0.338043D+02     -0.292043D+00     -0.108389D+00
   xxz        0.658619D+03      0.568995D+01      0.211177D+01
   yxz        0.469842D+01      0.405907D-01      0.150648D-01
   yyz       -0.230493D+02     -0.199128D+00     -0.739044D-01
   zxz        0.352292D+03      0.304352D+01      0.112957D+01
   zyz       -0.534438D+02     -0.461713D+00     -0.171360D+00
   zzz        0.409171D+03      0.353492D+01      0.131195D+01

 ----------------------------------------------------------------------

 Dipole orientation:
    26         11.63686501        -46.03164556          6.70498204
     7         11.73180007        -45.19792801         10.39099717
     7          7.80901798        -45.69073427          6.80744715
     7         11.40986295        -46.89722397          3.03846721
     7         15.31873275        -46.61282028          6.68125070
     6         13.81233446        -45.24594190         11.89557915
     6         13.15808141        -44.62190095         14.47413745
     6         10.63438925        -44.14085003         14.48156444
     6          9.76926460        -44.55068821         11.92089152
     6          6.35930247        -44.95783548          8.80869920
     6          3.72743393        -44.89812846          8.13057649
     6          3.60130404        -45.61344115          5.64392463
     6          6.18239807        -46.05174638          4.85038323
     6          9.32425142        -46.84227700          1.54101757
     6          9.99117401        -47.28687612         -1.05939348
     6         12.55456026        -47.61038485         -1.10926329
     6         13.39295340        -47.39521436          1.49112590
     6         16.72609635        -47.45227458          4.70886188
     6         19.34815177        -47.71367300          5.43772674
     6         19.47397428        -47.06144483          7.91895644
     6         16.93640260        -46.35526998          8.65849780
     6         16.23368734        -45.84800356         11.12110785
     1         17.70381645        -45.82132693         12.53393780
     6          7.26245174        -44.44313799         11.20959517
     1          5.90609299        -43.89578881         12.62954981
     6          6.86343302        -46.66534328          2.40563518
     1          5.37175877        -46.83007001          1.02548328
     6         15.84937168        -47.80668851          2.27525035
     1         17.18446470        -48.43940471          0.87089039
     6          8.96281483        -43.39136637         16.62008980
     1         10.05965063        -43.08189896         18.32931359
     1          7.57020847        -44.86153920         17.00294402
     1          7.95016415        -41.65299789         16.17637332
     6         14.99991369        -44.51896929         16.60080960
     1         16.46223054        -43.11605419         16.22766961
     1         15.91713820        -46.34632121         16.85036987
     1         14.05933629        -44.02275417         18.35855256
     6          1.60888806        -44.31330460          9.88661552
     1          1.32565088        -42.27678859         10.04534654
     1          1.99177098        -45.05052308         11.76887901
     1         -0.13300967        -45.15663082          9.19178532
     6          1.40922561        -45.92590807          4.04092761
     1          1.54381159        -47.41906738          2.64521959
     6         -0.68642392        -44.54714799          4.15269983
     1         -0.88939007        -42.98528297          5.43880157
     1         -2.26251200        -44.90571217          2.91500398
     6          8.17584728        -47.29061699         -3.20954834
     1          7.17248778        -45.49442438         -3.31220849
     1          6.77767450        -48.78728223         -2.97682695
     1          9.16212419        -47.58421475         -4.98710280
     6         14.12057121        -48.02746888         -3.31659528
     1         13.30316477        -49.23712174         -4.75543221
     6         16.37425727        -46.99946234         -3.71702180
     1         17.21631560        -45.70265490         -2.39431401
     1         17.43255138        -47.37989306         -5.41446281
     6         21.39396983        -48.57540230          3.70686988
     1         21.61833882        -47.25329198          2.14293949
     1         20.94492911        -50.42387995          2.91734113
     1         23.18621748        -48.71125095          4.70197006
     6         21.70548946        -46.98159483          9.63473042
     1         23.42198907        -47.48150636          8.62298579
     1         21.46632284        -48.30399760         11.19691978
     1         21.94400476        -45.09492672         10.42617404
     8         10.87164420        -50.04939492          7.72709091
     1          9.09214311        -49.99899848          8.05226502
     1         11.87068166        -51.39374461          7.86768771
     6         12.44534294        -39.73763301          8.23701341
     1         14.32852835        -40.07208205          8.97559690
     1         11.04745524        -40.24962409          9.64450377
     1         12.24400658        -37.77780756          7.66444742
    16         12.10841134        -41.76440494          5.45897365
     1          9.66453735        -41.23759026          5.08599689

 Electric dipole moment (dipole orientation):
 (Debye = 10**-18 statcoulomb cm , SI units = C m)
                  (au)            (Debye)         (10**-30 SI)
   Tot        0.734122D+00      0.186595D+01      0.622414D+01
   x          0.000000D+00      0.000000D+00      0.000000D+00
   y          0.000000D+00      0.000000D+00      0.000000D+00
   z          0.734122D+00      0.186595D+01      0.622414D+01

 Dipole polarizability, Alpha (dipole orientation).
 (esu units = cm**3 , SI units = C**2 m**2 J**-1)
 Alpha(0;0):
               (au)            (10**-24 esu)      (10**-40 SI)
   iso        0.543805D+03      0.805836D+02      0.896613D+02
   aniso      0.422283D+03      0.625759D+02      0.696251D+02
   xx         0.698951D+03      0.103574D+03      0.115242D+03
   yx        -0.564775D+02     -0.836911D+01     -0.931189D+01
   yy         0.287768D+03      0.426428D+02      0.474465D+02
   zx         0.513229D+01      0.760527D+00      0.846201D+00
   zy         0.795163D+02      0.117831D+02      0.131105D+02
   zz         0.644695D+03      0.955340D+02      0.106296D+03

 First dipole hyperpolarizability, Beta (dipole orientation).
 ||, _|_  parallel and perpendicular components, (z) with respect to z axis,
 vector components x,y,z.  Values do not include the 1/n! factor of 1/2.
 (esu units = statvolt**-1 cm**4 , SI units = C**3 m**3 J**-2)
 Beta(0;0,0):
               (au)            (10**-30 esu)      (10**-50 SI)
   || (z)    -0.488055D+03     -0.421642D+01     -0.156488D+01
   _|_(z)    -0.162685D+03     -0.140547D+01     -0.521627D+00
   x         -0.372999D+04     -0.322242D+02     -0.119597D+02
   y          0.125164D+03      0.108132D+01      0.401322D+00
   z         -0.244028D+04     -0.210821D+02     -0.782441D+01
   ||         0.891816D+03      0.770460D+01      0.285949D+01
   xxx       -0.164620D+04     -0.142219D+02     -0.527832D+01
   xxy        0.453994D+02      0.392216D+00      0.145567D+00
   yxy       -0.341783D+01     -0.295274D-01     -0.109588D-01
   yyy        0.453003D+02      0.391359D+00      0.145249D+00
   xxz       -0.161324D+03     -0.139371D+01     -0.517262D+00
   yxz        0.553847D+02      0.478481D+00      0.177583D+00
   yyz        0.219418D+02      0.189560D+00      0.703534D-01
   zxz        0.406290D+03      0.351003D+01      0.130271D+01
   zyz       -0.489783D+02     -0.423135D+00     -0.157042D+00
   zzz       -0.674044D+03     -0.582321D+01     -0.216123D+01

 ----------------------------------------------------------------------
 Unable to Open any file for archive entry.
 1\1\GINC-BGN1025\SP\RAPFD\def2TZVP\C31H34Fe1N4O1S1\BEBJONES\25-Sep-202
 4\0\\# polar def2tzvp apfd int=(grid=ultrafine)\\1r9o_II_S\\0,1\Fe,0,5
 .6507164381,24.7119405929,-1.1202669869\N,0,5.2760851876,24.5664637517
 ,-3.0799406701\N,0,3.657618375,24.5089102929,-0.7668304055\N,0,5.95515
 10614,24.8744930757,0.8468748051\N,0,7.5615134964,25.0456290661,-1.478
 5357796\C,0,6.1818770858,24.7277160057,-4.0800614668\C,0,5.5469444338,
 24.5984339036,-5.372718416\C,0,4.2375037149,24.3257491871,-5.129135303
 6\C,0,4.0832219064,24.3313754111,-3.6907522978\C,0,2.6758275062,24.270
 4619614,-1.6831762433\C,0,1.3915496397,24.1633875549,-1.0439443034\C,0
 ,1.6134975696,24.3409851781,0.2971279432\C,0,3.0410870642,24.529960071
 ,0.4453595236\C,0,5.0458694828,24.7101308641,1.8433797916\C,0,5.688287
 0535,24.7439132175,3.1316558865\C,0,7.021695779,24.9311681016,2.892880
 7855\C,0,7.1593353503,25.0302931637,1.4525381571\C,0,8.5190614753,25.3
 417386708,-0.563769641\C,0,9.7942560981,25.5582512475,-1.2119544348\C,
 0,9.5733012386,25.413232129,-2.5452593573\C,0,8.172021784,25.080224562
 ,-2.691888625\C,0,7.5261411515,25.0025077323,-3.9106396332\H,0,8.12614
 71908,25.1122457227,-4.80076953\C,0,2.8669252366,24.1977274901,-3.0524
 668494\H,0,2.0006717794,24.0114379016,-3.6677551043\C,0,3.6746512965,2
 4.6645317692,1.6657979855\H,0,3.0609953673,24.6294118227,2.5525248264\
 C,0,8.3439500217,25.3282606639,0.8066428759\H,0,9.1981784444,25.560261
 6283,1.4230812506\C,0,3.1253787696,24.0875247384,-6.0918518057\H,0,3.4
 965163951,24.0694219618,-7.1134797598\H,0,2.3748407604,24.874973971,-6
 .0144427297\H,0,2.6372318341,23.1344034696,-5.8874275864\C,0,6.2577558
 165,24.7275997278,-6.6755916131\H,0,7.0438039716,23.9767015752,-6.7605
 521458\H,0,6.7192804163,25.7111920563,-6.763027964\H,0,5.5686803224,24
 .5981884659,-7.5064401118\C,0,0.0930205461,23.9774118733,-1.7477631443
 \H,0,-0.0887286127,22.9219130095,-1.9570458345\H,0,0.0845072957,24.514
 4743386,-2.6947868586\H,0,-0.7216275363,24.34912253,-1.1295438448\C,0,
 0.6642522135,24.3596523168,1.3884949346\H,0,0.9043177995,25.0322820022
 ,2.2038699387\C,0,-0.4433994793,23.6291263832,1.4597749091\H,0,-0.7070
 105793,22.9113419881,0.7027268561\H,0,-1.1151317863,23.7059116892,2.29
 85010553\C,0,4.9929824793,24.5612273402,4.4357297955\H,0,4.4705992228,
 23.6047572467,4.4602932396\H,0,4.2567609859,25.3506813571,4.5925620311
 \H,0,5.7061872345,24.5834556143,5.2555986027\C,0,8.0841905441,24.98915
 7059,3.8765381992\H,0,7.8346249101,25.5019191691,4.7992396983\C,0,9.28
 55834396,24.4390391113,3.7455723619\H,0,9.5602710973,23.8717513602,2.8
 72565421\H,0,10.0277017592,24.513618005,4.5231983789\C,0,11.0547130267
 ,25.8904710187,-0.4910020188\H,0,11.3361377015,25.0776059752,0.178734\
 H,0,10.927632539,26.7917065929,0.1085541246\H,0,11.8698203681,26.05514
 1926,-1.191313765\C,0,10.5321738997,25.5254847786,-3.6804092641\H,0,11
 .5380436832,25.7221408604,-3.318128411\H,0,10.2432996342,26.3382394166
 ,-4.3475603379\H,0,10.549891528,24.6026181812,-4.2601551492\O,0,5.174,
 26.888,-1.24\H,0,4.217,26.872,-1.209\H,0,5.686,27.611,-1.319\C,0,5.841
 6799976,21.5461496672,-2.4895055847\H,0,6.734480607,21.7953339785,-3.0
 534061639\H,0,4.9644228562,21.9128019797,-3.0104055936\H,0,5.785568620
 1,20.4739546951,-2.3283565466\S,0,5.998805119,22.3852186211,-0.8725675
 729\H,0,4.7732226512,22.0593491459,-0.4472379872\\Version=ES64L-G16Rev
 C.02\State=1-A\HF=-3157.1926334\RMSD=3.189e-09\Dipole=-0.1567854,0.109
 1222,-0.7088339\Polar=696.5587288,67.0454633,274.2163458,-5.0121855,9.
 4781549,660.6392505\HyperPolar=-1375.6247648,-94.9954055,-18.095113,-3
 3.8042907,658.6186377,4.6984217,-23.0493192,352.2915038,-53.4438282,40
 9.1709648\Quadrupole=0.1750207,-1.9032055,1.7281848,2.3389905,-1.08958
 08,2.9893304\PG=C01 [X(C31H34Fe1N4O1S1)]\\@
 The archive entry for this job was punched.


 IT'S WHAT YOU LEARN AFTER YOU KNOW IT ALL
 THAT COUNTS.
 Job cpu time:       1 days 16 hours 26 minutes 36.1 seconds.
 Elapsed time:       0 days  0 hours 35 minutes  7.7 seconds.
 File lengths (MBytes):  RWF=   1013 Int=      0 D2E=      0 Chk=    130 Scr=      1
 Normal termination of Gaussian 16 at Wed Sep 25 19:50:36 2024.
 Initial command:
 /sw/chem/gaussian/g16_C02/a100/g16/l1.exe "/local/bebjones_8029054/Gau-1329927.inp" -scrdir="/local/bebjones_8029054/"
 Entering Link 1 = /sw/chem/gaussian/g16_C02/a100/g16/l1.exe PID=   1331492.
  
 Copyright (c) 1988-2021, Gaussian, Inc.  All Rights Reserved.
  
 This is part of the Gaussian(R) 16 program.  It is based on
 the Gaussian(R) 09 system (copyright 2009, Gaussian, Inc.),
 the Gaussian(R) 03 system (copyright 2003, Gaussian, Inc.),
 the Gaussian(R) 98 system (copyright 1998, Gaussian, Inc.),
 the Gaussian(R) 94 system (copyright 1995, Gaussian, Inc.),
 the Gaussian 92(TM) system (copyright 1992, Gaussian, Inc.),
 the Gaussian 90(TM) system (copyright 1990, Gaussian, Inc.),
 the Gaussian 88(TM) system (copyright 1988, Gaussian, Inc.),
 the Gaussian 86(TM) system (copyright 1986, Carnegie Mellon
 University), and the Gaussian 82(TM) system (copyright 1983,
 Carnegie Mellon University). Gaussian is a federally registered
 trademark of Gaussian, Inc.
  
 This software contains proprietary and confidential information,
 including trade secrets, belonging to Gaussian, Inc.
  
 This software is provided under written license and may be
 used, copied, transmitted, or stored only in accord with that
 written license.
  
 The following legend is applicable only to US Government
 contracts under FAR:
  
                    RESTRICTED RIGHTS LEGEND
  
 Use, reproduction and disclosure by the US Government is
 subject to restrictions as set forth in subparagraphs (a)
 and (c) of the Commercial Computer Software - Restricted
 Rights clause in FAR 52.227-19.
  
 Gaussian, Inc.
 340 Quinnipiac St., Bldg. 40, Wallingford CT 06492
  
  
 ---------------------------------------------------------------
 Warning -- This program may not be used in any manner that
 competes with the business of Gaussian, Inc. or will provide
 assistance to any competitor of Gaussian, Inc.  The licensee
 of this program is prohibited from giving any competitor of
 Gaussian, Inc. access to this program.  By using this program,
 the user acknowledges that Gaussian, Inc. is engaged in the
 business of creating and licensing software in the field of
 computational chemistry and represents and warrants to the
 licensee that it is not a competitor of Gaussian, Inc. and that
 it will not use this program in any manner prohibited above.
 ---------------------------------------------------------------
  

 Cite this work as:
 Gaussian 16, Revision C.02,
 M. J. Frisch, G. W. Trucks, H. B. Schlegel, G. E. Scuseria, 
 M. A. Robb, J. R. Cheeseman, G. Scalmani, V. Barone, 
 G. A. Petersson, H. Nakatsuji, X. Li, M. Caricato, A. V. Marenich, 
 J. Bloino, B. G. Janesko, R. Gomperts, B. Mennucci, H. P. Hratchian, 
 J. V. Ortiz, A. F. Izmaylov, J. L. Sonnenberg, D. Williams-Young, 
 F. Ding, F. Lipparini, F. Egidi, J. Goings, B. Peng, A. Petrone, 
 T. Henderson, D. Ranasinghe, V. G. Zakrzewski, J. Gao, N. Rega, 
 G. Zheng, W. Liang, M. Hada, M. Ehara, K. Toyota, R. Fukuda, 
 J. Hasegawa, M. Ishida, T. Nakajima, Y. Honda, O. Kitao, H. Nakai, 
 T. Vreven, K. Throssell, J. A. Montgomery, Jr., J. E. Peralta, 
 F. Ogliaro, M. J. Bearpark, J. J. Heyd, E. N. Brothers, K. N. Kudin, 
 V. N. Staroverov, T. A. Keith, R. Kobayashi, J. Normand, 
 K. Raghavachari, A. P. Rendell, J. C. Burant, S. S. Iyengar, 
 J. Tomasi, M. Cossi, J. M. Millam, M. Klene, C. Adamo, R. Cammi, 
 J. W. Ochterski, R. L. Martin, K. Morokuma, O. Farkas, 
 J. B. Foresman, and D. J. Fox, Gaussian, Inc., Wallingford CT, 2019.
 
 ******************************************
 Gaussian 16:  ES64L-G16RevC.02  7-Dec-2021
                25-Sep-2024 
 ******************************************
 %mem=16GB
 %CPU=0-71
 SetSPE:  set environment variable "OMP_PROC_BIND" = "true"
 SetSPE:  set environment variable "OMP_PLACES" = "{0},{1},{2},{3},{4},{5},{6},{7},{8},{9},{10},{11},{12},{13},{14},{15},{16},{17},{18},{19},{20},{21},{22},{23},{24},{25},{26},{27},{28},{29},{30},{31},{32},{33},{34},{35},{36},{37},{38},{39},{40},{41},{42},{43},{44},{45},{46},{47},{48},{49},{50},{51},{52},{53},{54},{55},{56},{57},{58},{59},{60},{61},{62},{63},{64},{65},{66},{67},{68},{69},{70},{71}"
 Will use up to   72 processors via shared memory.
 %gpucpu=0,1,2,3=0,1,2,3
 Will use    4 GPUs:
 Thread  CPU   GPU
      0    0     0
      1    1     1
      2    2     2
      3    3     3
      4    4    -1
      5    5    -1
      6    6    -1
      7    7    -1
      8    8    -1
      9    9    -1
     10   10    -1
     11   11    -1
     12   12    -1
     13   13    -1
     14   14    -1
     15   15    -1
     16   16    -1
     17   17    -1
     18   18    -1
     19   19    -1
     20   20    -1
     21   21    -1
     22   22    -1
     23   23    -1
     24   24    -1
     25   25    -1
     26   26    -1
     27   27    -1
     28   28    -1
     29   29    -1
     30   30    -1
     31   31    -1
     32   32    -1
     33   33    -1
     34   34    -1
     35   35    -1
     36   36    -1
     37   37    -1
     38   38    -1
     39   39    -1
     40   40    -1
     41   41    -1
     42   42    -1
     43   43    -1
     44   44    -1
     45   45    -1
     46   46    -1
     47   47    -1
     48   48    -1
     49   49    -1
     50   50    -1
     51   51    -1
     52   52    -1
     53   53    -1
     54   54    -1
     55   55    -1
     56   56    -1
     57   57    -1
     58   58    -1
     59   59    -1
     60   60    -1
     61   61    -1
     62   62    -1
     63   63    -1
     64   64    -1
     65   65    -1
     66   66    -1
     67   67    -1
     68   68    -1
     69   69    -1
     70   70    -1
     71   71    -1
 SetGPE:  set environment variable "OMP_PROC_BIND" = "true"
 SetGPE:  set environment variable "OMP_PLACES" = "{0},{1},{2},{3},{4},{5},{6},{7},{8},{9},{10},{11},{12},{13},{14},{15},{16},{17},{18},{19},{20},{21},{22},{23},{24},{25},{26},{27},{28},{29},{30},{31},{32},{33},{34},{35},{36},{37},{38},{39},{40},{41},{42},{43},{44},{45},{46},{47},{48},{49},{50},{51},{52},{53},{54},{55},{56},{57},{58},{59},{60},{61},{62},{63},{64},{65},{66},{67},{68},{69},{70},{71}"
 %oldchk=1r9o_II_O.chk
 %chk=1r9o_II_Sn.chk
 Properties for Device   0
 Minimum vector length:                              32
 Maximum vector length:                            1024
 Number of SMPs:                                    108
 Maximum number of threads per SMP:                2048
 Number of ASync Engines:                             5
 Memory:                                           9207742464
 Properties for Device   1
 Minimum vector length:                              32
 Maximum vector length:                            1024
 Number of SMPs:                                    108
 Maximum number of threads per SMP:                2048
 Number of ASync Engines:                             5
 Memory:                                           9207742464
 Properties for Device   2
 Minimum vector length:                              32
 Maximum vector length:                            1024
 Number of SMPs:                                    108
 Maximum number of threads per SMP:                2048
 Number of ASync Engines:                             5
 Memory:                                           9207742464
 Properties for Device   3
 Minimum vector length:                              32
 Maximum vector length:                            1024
 Number of SMPs:                                    108
[...]
  1254. RY*(  14) C  67                  0.00001     2.33730   
  1255. RY*(  15) C  67                  0.00000     3.05569   
  1256. RY*(  16) C  67                  0.00001     2.39136   
  1257. RY*(  17) C  67                  0.00000     2.53901   
  1258. RY*(  18) C  67                  0.00000     1.74256   
  1259. RY*(  19) C  67                  0.00000     2.62117   
  1260. RY*(  20) C  67                  0.00000     3.25948   
  1261. RY*(  21) C  67                  0.00000     3.25664   
  1262. RY*(  22) C  67                  0.00000     3.22446   
  1263. RY*(  23) C  67                  0.00000     3.10469   
  1264. RY*(  24) C  67                  0.00000     3.18017   
  1265. RY*(  25) C  67                  0.00000     3.10274   
  1266. RY*(  26) C  67                  0.00000     3.29643   
  1267. RY*(   1) H  68                  0.00057     1.40902   
  1268. RY*(   2) H  68                  0.00016     1.71989   
  1269. RY*(   3) H  68                  0.00004     2.18551   
  1270. RY*(   4) H  68                  0.00004     1.86644   
  1271. RY*(   5) H  68                  0.00001     2.58538   
  1272. RY*(   1) H  69                  0.00085     1.39829   
  1273. RY*(   2) H  69                  0.00020     2.01306   
  1274. RY*(   3) H  69                  0.00007     2.11706   
  1275. RY*(   4) H  69                  0.00001     2.72982   
  1276. RY*(   5) H  69                  0.00001     1.94548   
  1277. RY*(   1) H  70                  0.00069     1.22668   
  1278. RY*(   2) H  70                  0.00013     1.50914   
  1279. RY*(   3) H  70                  0.00004     2.08467   
  1280. RY*(   4) H  70                  0.00005     2.01247   
  1281. RY*(   5) H  70                  0.00001     2.58948   
  1282. RY*(   1) S  71                  0.00543     0.57194   
  1283. RY*(   2) S  71                  0.00429     0.70221   
  1284. RY*(   3) S  71                  0.00255     0.76731   
  1285. RY*(   4) S  71                  0.00141     0.94498   
  1286. RY*(   5) S  71                  0.00083     0.95330   
  1287. RY*(   6) S  71                  0.00072     1.33780   
  1288. RY*(   7) S  71                  0.00034     1.04815   
  1289. RY*(   8) S  71                  0.00024     2.43690   
  1290. RY*(   9) S  71                  0.00018     1.50715   
  1291. RY*(  10) S  71                  0.00010     1.38567   
  1292. RY*(  11) S  71                  0.00008     1.81177   
  1293. RY*(  12) S  71                  0.00005     1.71685   
  1294. RY*(  13) S  71                  0.00004     2.42391   
  1295. RY*(  14) S  71                  0.00002     2.16789   
  1296. RY*(  15) S  71                  0.00001     2.49675   
  1297. RY*(  16) S  71                  0.00000     8.31427   
  1298. RY*(  17) S  71                  0.00000     8.06022   
  1299. RY*(  18) S  71                  0.00000    17.57310   
  1300. RY*(  19) S  71                  0.00000     1.77604   
  1301. RY*(  20) S  71                  0.00001     2.56855   
  1302. RY*(  21) S  71                  0.00000     8.44465   
  1303. RY*(  22) S  71                  0.00001     2.11549   
  1304. RY*(  23) S  71                  0.00000     2.08414   
  1305. RY*(  24) S  71                  0.00000     2.05133   
  1306. RY*(  25) S  71                  0.00001     2.02784   
  1307. RY*(  26) S  71                  0.00001     1.90665   
  1308. RY*(  27) S  71                  0.00000     2.03524   
  1309. RY*(  28) S  71                  0.00000     2.15166   
  1310. RY*(   1) H  72                  0.00206     0.90195   
  1311. RY*(   2) H  72                  0.00032     1.97839   
  1312. RY*(   3) H  72                  0.00027     2.03797   
  1313. RY*(   4) H  72                  0.00011     1.97001   
  1314. RY*(   5) H  72                  0.00003     2.61387   
  1315. BD*(   1)Fe   1 - N   5          0.14228     0.25902  142(g),1316(g),143(g),145(g)
                                                    261(g),1284(v),262(g),235(r)
                                                    183(r),1402(v),156(g)
                                                    1206(r),234(r),267(g),182(r)
                                                    1231(r),1207(r),1205(r)
                                                    1396(r),1209(r)
  1316. BD*(   1)Fe   1 - S  71          0.06061     0.23843   
  1317. BD*(   1) N   2 - C   6          0.02649     0.51482   
  1318. BD*(   1) N   2 - C   9          0.02681     0.51156   
  1319. BD*(   2) N   2 - C   9          0.63150     0.01159  1338(v),1331(v),150(v)
                                                    365(g),181(g),732(v),145(r)
                                                    1325(r)
  1320. BD*(   1) N   3 - C  10          0.02653     0.49990   
  1321. BD*(   1) N   3 - C  13          0.02585     0.50566   
  1322. BD*(   2) N   3 - C  13          0.62971     0.00563  1347(v),1338(v),1340(v)
                                                    469(g),207(g),763(v),145(r)
  1323. BD*(   1) N   4 - C  14          0.02649     0.50924   
  1324. BD*(   1) N   4 - C  17          0.02584     0.51360   
  1325. BD*(   2) N   4 - C  17          0.60346     0.01361  1356(v),1347(v),1349(v)
                                                    573(g),233(g),142(r),1319(r)
                                                    794(v),575(g),145(r)
  1326. BD*(   1) N   5 - C  18          0.02750     0.52025   
  1327. BD*(   1) N   5 - C  21          0.02713     0.51668   
  1328. BD*(   1) C   6 - C   7          0.03513     0.49339   
  1329. BD*(   1) C   6 - C  22          0.02125     0.57955   
  1330. BD*(   1) C   7 - C   8          0.02268     0.60894   
  1331. BD*(   2) C   7 - C   8          0.24893     0.06998  1319(v),150(v),1369(v)
                                                    1371(v),1372(v),1370(v)
  1332. BD*(   1) C   7 - C  34          0.01735     0.41554   
  1333. BD*(   1) C   8 - C   9          0.03534     0.49195   
  1334. BD*(   1) C   8 - C  30          0.01741     0.41473   
  1335. BD*(   1) C   9 - C  24          0.02122     0.58146   
  1336. BD*(   1) C  10 - C  11          0.03437     0.49883   
  1337. BD*(   1) C  10 - C  24          0.02155     0.57425   
  1338. BD*(   2) C  10 - C  24          0.43802     0.04320  1319(v),1340(v),1322(v)
                                                    732(g),391(g),1347(r),393(g)
  1339. BD*(   1) C  11 - C  12          0.02488     0.58878   
  1340. BD*(   2) C  11 - C  12          0.29475     0.06310  1379(v),1338(v),1322(v)
                                                    1374(v),1375(v)
  1341. BD*(   1) C  11 - C  38          0.01640     0.41562   
  1342. BD*(   1) C  12 - C  13          0.03446     0.48929   
  1343. BD*(   1) C  12 - C  42          0.02669     0.49549   
  1344. BD*(   1) C  13 - C  26          0.02097     0.57785   
  1345. BD*(   1) C  14 - C  15          0.03408     0.49931   
  1346. BD*(   1) C  14 - C  26          0.02133     0.57675   
  1347. BD*(   2) C  14 - C  26          0.42331     0.04687  1322(v),1349(v),1325(v)
                                                    763(g),1338(r),495(g)
                                                    1356(r),497(g),1379(r)
  1348. BD*(   1) C  15 - C  16          0.02215     0.59577   
  1349. BD*(   2) C  15 - C  16          0.27827     0.06770  1387(v),1347(v),1325(v)
                                                    1383(v),1382(v),1385(v)
  1350. BD*(   1) C  15 - C  47          0.01658     0.41726   
  1351. BD*(   1) C  16 - C  17          0.03808     0.48954   
  1352. BD*(   1) C  16 - C  51          0.02666     0.49550   
  1353. BD*(   1) C  17 - C  28          0.02079     0.58083   
  1354. BD*(   1) C  18 - C  19          0.03497     0.49332   
  1355. BD*(   1) C  18 - C  28          0.02120     0.58172   
  1356. BD*(   2) C  18 - C  28          0.40611     0.05192  1325(v),1358(v),149(v)
                                                    1363(r),794(g),1347(r)
                                                    601(g),1387(r)
  1357. BD*(   1) C  19 - C  20          0.02247     0.61135   
  1358. BD*(   2) C  19 - C  20          0.24603     0.07201  1356(v),1363(v),1394(v)
                                                    1390(v),1395(v),1391(v)
  1359. BD*(   1) C  19 - C  56          0.01712     0.41809   
  1360. BD*(   1) C  20 - C  21          0.03498     0.49131   
  1361. BD*(   1) C  20 - C  60          0.01724     0.41642   
  1362. BD*(   1) C  21 - C  22          0.02069     0.57975   
  1363. BD*(   2) C  21 - C  22          0.41709     0.04796  1358(v),150(v),149(v),701(g)
                                                    1356(r),677(g),679(g)
  1364. BD*(   1) C  22 - H  23          0.01260     0.43523   
  1365. BD*(   1) C  24 - H  25          0.01304     0.43435   
  1366. BD*(   1) C  26 - H  27          0.01275     0.43452   
  1367. BD*(   1) C  28 - H  29          0.01411     0.44332   
  1368. BD*(   1) C  30 - H  31          0.00672     0.39000   
  1369. BD*(   1) C  30 - H  32          0.01160     0.37818   
  1370. BD*(   1) C  30 - H  33          0.01041     0.37860   
  1371. BD*(   1) C  34 - H  35          0.01102     0.37867   
  1372. BD*(   1) C  34 - H  36          0.01079     0.37962   
  1373. BD*(   1) C  34 - H  37          0.00674     0.39023   
  1374. BD*(   1) C  38 - H  39          0.01260     0.37631   
  1375. BD*(   1) C  38 - H  40          0.01002     0.38510   
  1376. BD*(   1) C  38 - H  41          0.00828     0.39176   
  1377. BD*(   1) C  42 - H  43          0.02125     0.42234   
  1378. BD*(   1) C  42 - C  44          0.00781     0.63126   
  1379. BD*(   2) C  42 - C  44          0.07557     0.05752   
  1380. BD*(   1) C  44 - H  45          0.01103     0.43408   
  1381. BD*(   1) C  44 - H  46          0.00858     0.43462   
  1382. BD*(   1) C  47 - H  48          0.01041     0.38293   
  1383. BD*(   1) C  47 - H  49          0.01095     0.37969   
  1384. BD*(   1) C  47 - H  50          0.00598     0.39297   
  1385. BD*(   1) C  51 - H  52          0.02183     0.42333   
  1386. BD*(   1) C  51 - C  53          0.00714     0.62558   
  1387. BD*(   2) C  51 - C  53          0.06859     0.06742   
  1388. BD*(   1) C  53 - H  54          0.01139     0.43761   
  1389. BD*(   1) C  53 - H  55          0.00892     0.43710   
  1390. BD*(   1) C  56 - H  57          0.01116     0.38228   
  1391. BD*(   1) C  56 - H  58          0.01038     0.38349   
  1392. BD*(   1) C  56 - H  59          0.00666     0.39276   
  1393. BD*(   1) C  60 - H  61          0.00669     0.39204   
  1394. BD*(   1) C  60 - H  62          0.01138     0.37984   
  1395. BD*(   1) C  60 - H  63          0.01056     0.38127   
  1398. BD*(   1) C  67 - H  68          0.00772     0.36773   
  1399. BD*(   1) C  67 - H  69          0.01257     0.38060   
  1400. BD*(   1) C  67 - H  70          0.01016     0.36611   
  1401. BD*(   1) C  67 - S  71          0.01456     0.14221   
  1402. BD*(   1) S  71 - H  72          0.01578     0.19183   
       -------------------------------
              Total Lewis  280.22740  ( 97.2432%)
        Valence non-Lewis    7.38976  (  2.5644%)
        Rydberg non-Lewis    0.55447  (  0.1924%)
       -------------------------------
            Total unit  1  288.17163  (100.0000%)
           Charge unit  1   -0.17163
 
 Molecular unit  2  (H2O)
    82. BD (   1) O  64 - H  65          1.99024    -0.81725  145(r),155(r),1237(v)
                                                    1316(r),158(r),142(r),162(r)
                                                    157(r),211(r),262(r),234(r)
                                                    261(r),267(r)
    83. BD (   1) O  64 - H  66          1.99506    -0.87898  145(r),155(r),1233(v),211(r)
                                                    1316(r),160(r),158(r),157(r)
                                                    210(r),143(r),156(r),234(r)
                                                    162(r)
   132. CR (   1) O  64                  1.99980   -18.97298  145(r),1237(v),1233(v)
                                                    1238(v),1316(r),143(r)
                                                    142(r),162(r)
   151. LP (   1) O  64                  1.99203    -0.33854  144(r),1236(v),1232(v)
                                                    161(r),156(r),190(r),238(r)
   152. LP (   2) O  64                  1.83346    -0.50183  145(r),1237(v),1396(g)
                                                    1233(v),162(r),1397(g)
                                                    159(r),1316(r),158(r),233(r)
                                                    143(r),184(r),210(r),181(r)
                                                    183(r),207(r),209(r),236(r)
                                                    235(r),156(r),259(r),1289(r)
                                                    142(r),149(r),144(r),262(r)
                                                    261(r),1327(r),1326(r)
  1205. RY*(   1) O  64                  0.00235     0.62549   
  1206. RY*(   2) O  64                  0.00207     1.10167   
  1207. RY*(   3) O  64                  0.00036     1.61397   
  1208. RY*(   4) O  64                  0.00025     0.78701   
  1209. RY*(   5) O  64                  0.00008     2.98682   
  1210. RY*(   6) O  64                  0.00003     3.92228   
  1211. RY*(   7) O  64                  0.00004     2.07746   
  1212. RY*(   8) O  64                  0.00001     3.50027   
  1213. RY*(   9) O  64                  0.00001     3.68889   
  1214. RY*(  10) O  64                  0.00001     2.25875   
  1215. RY*(  11) O  64                  0.00001     3.17746   
  1216. RY*(  12) O  64                  0.00000    41.82609   
  1217. RY*(  13) O  64                  0.00000     6.54136   
  1218. RY*(  14) O  64                  0.00000     2.70110   
  1219. RY*(  15) O  64                  0.00000     6.39819   
  1220. RY*(  16) O  64                  0.00000     6.26088   
  1221. RY*(  17) O  64                  0.00000     6.49068   
  1222. RY*(  18) O  64                  0.00000     2.60357   
  1223. RY*(  19) O  64                  0.00000     6.56127   
  1224. RY*(  20) O  64                  0.00000     5.30597   
  1225. RY*(  21) O  64                  0.00000     5.69221   
  1226. RY*(  22) O  64                  0.00000     5.16285   
  1227. RY*(  23) O  64                  0.00000     5.60199   
  1228. RY*(  24) O  64                  0.00000     5.28978   
  1229. RY*(  25) O  64                  0.00000     5.57892   
  1230. RY*(  26) O  64                  0.00000     5.39162   
  1231. RY*(   1) H  65                  0.00124     0.72621   
  1232. RY*(   2) H  65                  0.00080     2.01776   
  1233. RY*(   3) H  65                  0.00068     2.37728   
  1234. RY*(   4) H  65                  0.00023     2.08635   
  1235. RY*(   5) H  65                  0.00001     2.89301   
  1236. RY*(   1) H  66                  0.00097     2.00105   
  1237. RY*(   2) H  66                  0.00077     1.93626   
  1238. RY*(   3) H  66                  0.00045     1.86064   
  1239. RY*(   4) H  66                  0.00023     1.57117   
  1240. RY*(   5) H  66                  0.00001     3.01193   
  1396. BD*(   1) O  64 - H  65          0.00459     0.42506   
  1397. BD*(   1) O  64 - H  66          0.00250     0.60119   
       -------------------------------
              Total Lewis    9.81059  ( 99.8197%)
        Valence non-Lewis    0.00709  (  0.0722%)
        Rydberg non-Lewis    0.01063  (  0.1081%)
       -------------------------------
            Total unit  2    9.82831  (100.0000%)
           Charge unit  2    0.17169
 Unable to Open any file for archive entry.
 1\1\GINC-BGN1025\SP\RAPFD\def2TZVP\C31H34Fe1N4O1S1\BEBJONES\25-Sep-202
 4\0\\# apfd/def2TZVP int=(grid=ultrafine) geom=check guess=read pop=nb
 o scf=qc\\1r9o_II_S_nbo\\0,1\Fe,0,5.6507164381,24.7119405929,-1.120266
 9869\N,0,5.2760851876,24.5664637517,-3.0799406701\N,0,3.657618375,24.5
 089102929,-0.7668304055\N,0,5.9551510614,24.8744930757,0.8468748051\N,
 0,7.5615134964,25.0456290661,-1.4785357796\C,0,6.1818770858,24.7277160
 057,-4.0800614668\C,0,5.5469444338,24.5984339036,-5.372718416\C,0,4.23
 75037149,24.3257491871,-5.1291353036\C,0,4.0832219064,24.3313754111,-3
 .6907522978\C,0,2.6758275062,24.2704619614,-1.6831762433\C,0,1.3915496
 397,24.1633875549,-1.0439443034\C,0,1.6134975696,24.3409851781,0.29712
 79432\C,0,3.0410870642,24.529960071,0.4453595236\C,0,5.0458694828,24.7
 101308641,1.8433797916\C,0,5.6882870535,24.7439132175,3.1316558865\C,0
 ,7.021695779,24.9311681016,2.8928807855\C,0,7.1593353503,25.0302931637
 ,1.4525381571\C,0,8.5190614753,25.3417386708,-0.563769641\C,0,9.794256
 0981,25.5582512475,-1.2119544348\C,0,9.5733012386,25.413232129,-2.5452
 593573\C,0,8.172021784,25.080224562,-2.691888625\C,0,7.5261411515,25.0
 025077323,-3.9106396332\H,0,8.1261471908,25.1122457227,-4.80076953\C,0
 ,2.8669252366,24.1977274901,-3.0524668494\H,0,2.0006717794,24.01143790
 16,-3.6677551043\C,0,3.6746512965,24.6645317692,1.6657979855\H,0,3.060
 9953673,24.6294118227,2.5525248264\C,0,8.3439500217,25.3282606639,0.80
 66428759\H,0,9.1981784444,25.5602616283,1.4230812506\C,0,3.1253787696,
 24.0875247384,-6.0918518057\H,0,3.4965163951,24.0694219618,-7.11347975
 98\H,0,2.3748407604,24.874973971,-6.0144427297\H,0,2.6372318341,23.134
 4034696,-5.8874275864\C,0,6.2577558165,24.7275997278,-6.6755916131\H,0
 ,7.0438039716,23.9767015752,-6.7605521458\H,0,6.7192804163,25.71119205
 63,-6.763027964\H,0,5.5686803224,24.5981884659,-7.5064401118\C,0,0.093
 0205461,23.9774118733,-1.7477631443\H,0,-0.0887286127,22.9219130095,-1
 .9570458345\H,0,0.0845072957,24.5144743386,-2.6947868586\H,0,-0.721627
 5363,24.34912253,-1.1295438448\C,0,0.6642522135,24.3596523168,1.388494
 9346\H,0,0.9043177995,25.0322820022,2.2038699387\C,0,-0.4433994793,23.
 6291263832,1.4597749091\H,0,-0.7070105793,22.9113419881,0.7027268561\H
 ,0,-1.1151317863,23.7059116892,2.2985010553\C,0,4.9929824793,24.561227
 3402,4.4357297955\H,0,4.4705992228,23.6047572467,4.4602932396\H,0,4.25
 67609859,25.3506813571,4.5925620311\H,0,5.7061872345,24.5834556143,5.2
 555986027\C,0,8.0841905441,24.989157059,3.8765381992\H,0,7.8346249101,
 25.5019191691,4.7992396983\C,0,9.2855834396,24.4390391113,3.7455723619
 \H,0,9.5602710973,23.8717513602,2.872565421\H,0,10.0277017592,24.51361
 8005,4.5231983789\C,0,11.0547130267,25.8904710187,-0.4910020188\H,0,11
 .3361377015,25.0776059752,0.178734\H,0,10.927632539,26.7917065929,0.10
 85541246\H,0,11.8698203681,26.055141926,-1.191313765\C,0,10.5321738997
 ,25.5254847786,-3.6804092641\H,0,11.5380436832,25.7221408604,-3.318128
 411\H,0,10.2432996342,26.3382394166,-4.3475603379\H,0,10.549891528,24.
 6026181812,-4.2601551492\O,0,5.174,26.888,-1.24\H,0,4.217,26.872,-1.20
 9\H,0,5.686,27.611,-1.319\C,0,5.8416799976,21.5461496672,-2.4895055847
 \H,0,6.734480607,21.7953339785,-3.0534061639\H,0,4.9644228562,21.91280
 19797,-3.0104055936\H,0,5.7855686201,20.4739546951,-2.3283565466\S,0,5
 .998805119,22.3852186211,-0.8725675729\H,0,4.7732226512,22.0593491459,
 -0.4472379872\\Version=ES64L-G16RevC.02\State=1-A\HF=-3157.1926334\RMS
 D=1.279e-09\Dipole=-0.1567854,0.1091222,-0.7088339\Quadrupole=0.175020
 7,-1.9032055,1.7281848,2.3389905,-1.0895808,2.9893304\PG=C01 [X(C31H34
 Fe1N4O1S1)]\\@
 The archive entry for this job was punched.


 EXPERIENCE IS THE FRUIT OF THE TREE OF ERRORS.
 Job cpu time:       0 days  0 hours 36 minutes 17.5 seconds.
 Elapsed time:       0 days  0 hours  0 minutes 44.4 seconds.
 File lengths (MBytes):  RWF=    664 Int=      0 D2E=      0 Chk=    156 Scr=      1
 Normal termination of Gaussian 16 at Wed Sep 25 19:51:22 2024.
