 Entering Gaussian System, Link 0=g16
 Input=1rap05re.com
 Output=1rap05re.log
 Initial command:
 /sw/chem/gaussian/g16_C02/a100/g16/l1.exe "/local/bebjones_8030195/Gau-2374401.inp" -scrdir="/local/bebjones_8030195/"
 Entering Link 1 = /sw/chem/gaussian/g16_C02/a100/g16/l1.exe PID=   2374402.
  
 Copyright (c) 1988-2021, Gaussian, Inc.  All Rights Reserved.
  
 This is part of the Gaussian(R) 16 program.  It is based on
 the Gaussian(R) 09 system (copyright 2009, Gaussian, Inc.),
 the Gaussian(R) 03 system (copyright 2003, Gaussian, Inc.),
 the Gaussian(R) 98 system (copyright 1998, Gaussian, Inc.),
 the Gaussian(R) 94 system (copyright 1995, Gaussian, Inc.),
 the Gaussian 92(TM) system (copyright 1992, Gaussian, Inc.),
 the Gaussian 90(TM) system (copyright 1990, Gaussian, Inc.),
 the Gaussian 88(TM) system (copyright 1988, Gaussian, Inc.),
 the Gaussian 86(TM) system (copyright 1986, Carnegie Mellon
 University), and the Gaussian 82(TM) system (copyright 1983,
 Carnegie Mellon University). Gaussian is a federally registered
 trademark of Gaussian, Inc.
  
 This software contains proprietary and confidential information,
 including trade secrets, belonging to Gaussian, Inc.
  
 This software is provided under written license and may be
 used, copied, transmitted, or stored only in accord with that
 written license.
  
 The following legend is applicable only to US Government
 contracts under FAR:
  
                    RESTRICTED RIGHTS LEGEND
  
 Use, reproduction and disclosure by the US Government is
 subject to restrictions as set forth in subparagraphs (a)
 and (c) of the Commercial Computer Software - Restricted
 Rights clause in FAR 52.227-19.
  
 Gaussian, Inc.
 340 Quinnipiac St., Bldg. 40, Wallingford CT 06492
  
  
 ---------------------------------------------------------------
 Warning -- This program may not be used in any manner that
 competes with the business of Gaussian, Inc. or will provide
 assistance to any competitor of Gaussian, Inc.  The licensee
 of this program is prohibited from giving any competitor of
 Gaussian, Inc. access to this program.  By using this program,
 the user acknowledges that Gaussian, Inc. is engaged in the
 business of creating and licensing software in the field of
 computational chemistry and represents and warrants to the
 licensee that it is not a competitor of Gaussian, Inc. and that
 it will not use this program in any manner prohibited above.
 ---------------------------------------------------------------
  

 Cite this work as:
 Gaussian 16, Revision C.02,
 M. J. Frisch, G. W. Trucks, H. B. Schlegel, G. E. Scuseria, 
 M. A. Robb, J. R. Cheeseman, G. Scalmani, V. Barone, 
 G. A. Petersson, H. Nakatsuji, X. Li, M. Caricato, A. V. Marenich, 
 J. Bloino, B. G. Janesko, R. Gomperts, B. Mennucci, H. P. Hratchian, 
 J. V. Ortiz, A. F. Izmaylov, J. L. Sonnenberg, D. Williams-Young, 
 F. Ding, F. Lipparini, F. Egidi, J. Goings, B. Peng, A. Petrone, 
 T. Henderson, D. Ranasinghe, V. G. Zakrzewski, J. Gao, N. Rega, 
 G. Zheng, W. Liang, M. Hada, M. Ehara, K. Toyota, R. Fukuda, 
 J. Hasegawa, M. Ishida, T. Nakajima, Y. Honda, O. Kitao, H. Nakai, 
 T. Vreven, K. Throssell, J. A. Montgomery, Jr., J. E. Peralta, 
 F. Ogliaro, M. J. Bearpark, J. J. Heyd, E. N. Brothers, K. N. Kudin, 
 V. N. Staroverov, T. A. Keith, R. Kobayashi, J. Normand, 
 K. Raghavachari, A. P. Rendell, J. C. Burant, S. S. Iyengar, 
 J. Tomasi, M. Cossi, J. M. Millam, M. Klene, C. Adamo, R. Cammi, 
 J. W. Ochterski, R. L. Martin, K. Morokuma, O. Farkas, 
 J. B. Foresman, and D. J. Fox, Gaussian, Inc., Wallingford CT, 2019.
 
 ******************************************
 Gaussian 16:  ES64L-G16RevC.02  7-Dec-2021
                26-Sep-2024 
 ******************************************
 %mem=16GB
 %CPU=0-71
 SetSPE:  set environment variable "OMP_PROC_BIND" = "true"
 SetSPE:  set environment variable "OMP_PLACES" = "{0},{1},{2},{3},{4},{5},{6},{7},{8},{9},{10},{11},{12},{13},{14},{15},{16},{17},{18},{19},{20},{21},{22},{23},{24},{25},{26},{27},{28},{29},{30},{31},{32},{33},{34},{35},{36},{37},{38},{39},{40},{41},{42},{43},{44},{45},{46},{47},{48},{49},{50},{51},{52},{53},{54},{55},{56},{57},{58},{59},{60},{61},{62},{63},{64},{65},{66},{67},{68},{69},{70},{71}"
 Will use up to   72 processors via shared memory.
 %gpucpu=0,1,2,3=0,1,2,3
 Will use    4 GPUs:
 Thread  CPU   GPU
      0    0     0
      1    1     1
      2    2     2
      3    3     3
      4    4    -1
      5    5    -1
      6    6    -1
      7    7    -1
      8    8    -1
      9    9    -1
     10   10    -1
     11   11    -1
     12   12    -1
     13   13    -1
     14   14    -1
     15   15    -1
     16   16    -1
     17   17    -1
     18   18    -1
     19   19    -1
     20   20    -1
     21   21    -1
     22   22    -1
     23   23    -1
     24   24    -1
     25   25    -1
     26   26    -1
     27   27    -1
     28   28    -1
     29   29    -1
     30   30    -1
     31   31    -1
     32   32    -1
     33   33    -1
     34   34    -1
     35   35    -1
     36   36    -1
     37   37    -1
     38   38    -1
     39   39    -1
     40   40    -1
     41   41    -1
     42   42    -1
     43   43    -1
     44   44    -1
     45   45    -1
     46   46    -1
     47   47    -1
     48   48    -1
     49   49    -1
     50   50    -1
     51   51    -1
     52   52    -1
     53   53    -1
     54   54    -1
     55   55    -1
     56   56    -1
     57   57    -1
     58   58    -1
     59   59    -1
     60   60    -1
     61   61    -1
     62   62    -1
     63   63    -1
     64   64    -1
     65   65    -1
     66   66    -1
     67   67    -1
     68   68    -1
     69   69    -1
     70   70    -1
     71   71    -1
 SetGPE:  set environment variable "OMP_PROC_BIND" = "true"
 SetGPE:  set environment variable "OMP_PLACES" = "{0},{1},{2},{3},{4},{5},{6},{7},{8},{9},{10},{11},{12},{13},{14},{15},{16},{17},{18},{19},{20},{21},{22},{23},{24},{25},{26},{27},{28},{29},{30},{31},{32},{33},{34},{35},{36},{37},{38},{39},{40},{41},{42},{43},{44},{45},{46},{47},{48},{49},{50},{51},{52},{53},{54},{55},{56},{57},{58},{59},{60},{61},{62},{63},{64},{65},{66},{67},{68},{69},{70},{71}"
 %oldchk=1rap_II_S.chk
 %chk=1rap_II_Sre.chk
 Properties for Device   0
 Minimum vector length:                              32
 Maximum vector length:                            1024
 Number of SMPs:                                    108
 Maximum number of threads per SMP:                2048
 Number of ASync Engines:                             5
 Memory:                                           9207742464
 Properties for Device   1
 Minimum vector length:                              32
 Maximum vector length:                            1024
 Number of SMPs:                                    108
 Maximum number of threads per SMP:                2048
 Number of ASync Engines:                             5
 Memory:                                           9207742464
 Properties for Device   2
 Minimum vector length:                              32
 Maximum vector length:                            1024
 Number of SMPs:                                    108
 Maximum number of threads per SMP:                2048
 Number of ASync Engines:                             5
 Memory:                                           9207742464
 Properties for Device   3
 Minimum vector length:                              32
 Maximum vector length:                            1024
 Number of SMPs:                                    108
 Maximum number of threads per SMP:                2048
 Number of ASync Engines:                             5
 Memory:                                           9207742464
   8286968217 words of memory will be used on each GPU.
 Copying data from "1rap_II_S.chk" to current chk file "1rap_II_Sre.chk"
 IOpt=  2 FromEx=T IUOpen= 4 IOptOp= 5 NList=   0 IFRang= 0 IUIn= 4 IUOut= 2.
 --------------------------------------
 # apfd/gen scf=maxcycle=999 geom=check
 --------------------------------------
 1/29=2,38=1,172=1/1;
 2/12=2,40=1/2;
 3/5=7,11=2,14=-4,25=1,30=1,74=-44/1,2,3;
 4//1;
 5/5=2,7=999,38=5/2;
 6/7=2,8=2,9=2,10=2,28=1/1;
 99/5=1,9=1/99;
 ---------
 1rap_II_Q
 ---------
 Structure from the checkpoint file:  "1rap_II_Sre.chk"
 Charge =  0 Multiplicity = 5
 Z-Matrix found in chk file.
 Fe,0,2.675384124,20.7814977248,13.135260255
 N,0,4.1343562409,19.7166466868,12.2696411448
 N,0,2.072161901,21.3868018028,11.3247517956
 N,0,1.2929162334,21.9173565494,14.0034359671
 N,0,3.4280311319,20.2910100193,14.9208586483
 C,0,4.9147712293,18.7786917804,12.8646058639
 C,0,5.6836789989,18.0475005604,11.8830140995
 C,0,5.3664188128,18.5862973917,10.676084169
 C,0,4.3711823827,19.6039480682,10.935583184
 C,0,2.7342161323,21.2417613644,10.1460493111
 C,0,2.0932784385,21.9890157079,9.0977128036
 C,0,1.0157785126,22.6109078393,9.6720808339
 C,0,1.0415789051,22.2348781361,11.0723969681
 C,0,0.3003041362,22.6099331578,13.3805572045
 C,0,-0.4848172394,23.3470304033,14.338138135
 C,0,0.0370903201,23.0536108043,15.5705370479
 C,0,1.1540676747,22.1605644049,15.3307443509
 C,0,2.9581419893,20.7014078444,16.1279113659
 C,0,3.6102547037,19.9831474022,17.2008594757
 C,0,4.4793955894,19.1200644043,16.6080750764
 C,0,4.338836456,19.3175476187,15.1832056781
 C,0,5.0338047543,18.5968558997,14.2296876073
 H,0,5.7115456617,17.8321689523,14.5770423689
 C,0,3.8086066266,20.3906964531,9.9503093111
 H,0,4.1832021009,20.277756999,8.9444209249
 C,0,0.1379480521,22.7060258426,12.0079209084
 H,0,-0.6912000719,23.2958542487,11.6474727832
 C,0,1.9497643784,21.6280191393,16.3272952309
 H,0,1.7077388898,21.8817003405,17.348044483
 C,0,5.8680647559,18.2264421296,9.3196570397
 H,0,6.5984647058,17.4231828666,9.378059061
 H,0,6.3421393501,19.0863643402,8.8452989152
 H,0,5.0469640445,17.8991896694,8.6816836598
 C,0,6.63649963,16.9493494771,12.2097506772
 H,0,6.1307660558,16.1602152044,12.7657298325
 H,0,7.458347022,17.3213324047,12.8229584121
 H,0,7.0546934401,16.5172855591,11.3039046274
 C,0,2.593474153,22.1004272044,7.6998904959
 H,0,2.2543791418,21.256487791,7.0964288615
 H,0,3.6821699637,22.1124706632,7.6812728686
 H,0,2.2252801235,23.0170294442,7.2429869076
 C,0,0.0463912366,23.4981887351,9.0696892681
 H,0,-0.3450228255,24.2754428152,9.7160629227
 C,0,-0.3915285623,23.4256755498,7.8166529883
 H,0,-0.0756313273,22.6483513829,7.1432845642
 H,0,-1.1070792103,24.1314346745,7.4284002754
 C,0,-1.6005759919,24.2747519722,14.0043129752
 H,0,-2.5302055537,23.7265195398,13.8409154428
 H,0,-1.3784642008,24.8361849109,13.0979005277
 H,0,-1.7557320061,24.9786834308,14.8194500223
 C,0,-0.3645636,23.537914779,16.8727087045
 H,0,0.4375972928,23.6772199891,17.5882984075
 C,0,-1.6127881533,23.8035254694,17.2439698173
 H,0,-2.4524384177,23.6380288789,16.591530226
 H,0,-1.8409458126,24.173981973,18.2296667007
 C,0,3.3272416851,20.1928823306,18.6488888828
 H,0,2.2856980155,19.9604015013,18.8731132849
 H,0,3.5094055597,21.2304767741,18.9296481639
 H,0,3.9592466382,19.555644802,19.2626560863
 C,0,5.3965183163,18.1246891314,17.2317691069
 H,0,5.1305750352,17.1137084861,16.9218955571
 H,0,5.3430377464,18.1751703584,18.3165580003
 H,0,6.4275127918,18.3101064086,16.9296484579
 C,0,5.0088741984,25.8363043507,12.628556856
 H,0,5.3703724902,26.3341056107,13.5283393245
 H,0,4.0888935417,26.3167819443,12.3106828728
 H,0,5.756777275,25.9617599679,11.8456175689
 N,0,5.7376338011,23.5341813874,13.2949284535
 H,0,6.7014378791,23.775612919,13.4577976856
 C,0,4.7537852613,24.396713418,12.887259291
 C,0,5.1790686871,22.3116835831,13.4340669871
 H,0,5.7121629348,21.4367184556,13.7426178429
 N,0,3.9032583819,22.3475046911,13.1393563583
 C,0,3.622750005,23.6368170759,12.7991256633
 H,0,2.6344954339,23.9326629952,12.5146420055
 C,0,0.6599269857,18.0699999077,15.6661268671
 H,0,0.8561905797,17.0389168122,15.381840037
 H,0,-0.0599383225,18.079484023,16.4822787722
 H,0,1.5867471628,18.5144165975,16.0159443369
 C,0,0.1148145689,18.8488808839,14.4851482545
 H,0,-0.0787680779,19.8857869676,14.7546061871
 H,0,-0.7974692949,18.3879647828,14.1066995374
 S,0,1.3254910741,18.8362647703,13.0991500473
 C,0,0.1446856852,19.0530247665,11.7322613356
 H,0,0.7299901463,19.1193956563,10.8215956539
 H,0,-0.417951575,19.9703671921,11.873494704
 H,0,-0.5151569295,18.1901930475,11.69152462
 Recover connectivity data from disk.
 Stoichiometry    C37H42FeN6S(5)
 Framework group  C1[X(C37H42FeN6S)]
 Deg. of freedom   255
 Full point group                 C1      NOp   1
 Largest Abelian subgroup         C1      NOp   1
 Largest concise Abelian subgroup C1      NOp   1
                         Standard orientation:                         
 ---------------------------------------------------------------------
 Center     Atomic      Atomic             Coordinates (Angstroms)
 Number     Number       Type             X           Y           Z
 ---------------------------------------------------------------------
      1         26           0       -0.084220   -0.226141   -0.143622
      2          7           0        0.169607   -2.211383   -0.064934
      3          7           0        1.891691   -0.004224   -0.377594
      4          7           0       -0.328445    1.747402   -0.119002
      5          7           0       -2.021158   -0.495030    0.270366
      6          6           0       -0.803203   -3.155697   -0.133503
      7          6           0       -0.233320   -4.474443   -0.293267
      8          6           0        1.115494   -4.306114   -0.294036
      9          6           0        1.346219   -2.881897   -0.185314
     10          6           0        2.851277   -0.953297   -0.212833
     11          6           0        4.166044   -0.372171   -0.256181
     12          6           0        3.985945    0.973261   -0.443351
     13          6           0        2.551099    1.177815   -0.491537
     14          6           0        0.621505    2.688078   -0.375212
     15          6           0        0.078322    4.014449   -0.225607
     16          6           0       -1.244258    3.854456    0.094506
     17          6           0       -1.470562    2.423706    0.160923
     18          6           0       -2.948928    0.484500    0.431499
     19          6           0       -4.278918   -0.079226    0.507045
     20          6           0       -4.129754   -1.425484    0.376460
     21          6           0       -2.713290   -1.662863    0.214323
     22          6           0       -2.155594   -2.912457    0.016678
     23          1           0       -2.825932   -3.756871   -0.031756
     24          6           0        2.603534   -2.313432   -0.138019
     25          1           0        3.453387   -2.978423   -0.117425
     26          6           0        1.959408    2.421873   -0.617852
     27          1           0        2.607127    3.266027   -0.799980
     28          6           0       -2.689616    1.843663    0.456402
     29          1           0       -3.526848    2.502479    0.629215
     30          6           0        2.194730   -5.326215   -0.419278
     31          1           0        1.774455   -6.325442   -0.503151
     32          1           0        2.848661   -5.302015    0.453085
     33          1           0        2.803472   -5.133676   -1.302835
     34          6           0       -1.032130   -5.727690   -0.402066
     35          1           0       -1.734862   -5.659631   -1.232215
     36          1           0       -1.603325   -5.901621    0.510794
     37          1           0       -0.385546   -6.585697   -0.569024
     38          6           0        5.436961   -1.118690   -0.046433
     39          1           0        5.776467   -1.578731   -0.976209
     40          1           0        5.301349   -1.908559    0.690768
     41          1           0        6.214351   -0.442390    0.303955
     42          6           0        4.976510    2.021772   -0.539589
     43          1           0        4.680561    2.986068   -0.142507
     44          6           0        6.187655    1.892101   -1.071985
     45          1           0        6.519704    0.973940   -1.523838
     46          1           0        6.882577    2.715063   -1.097780
     47          6           0        0.851997    5.280437   -0.351012
     48          1           0        0.961041    5.570782   -1.397567
     49          1           0        1.849435    5.167401    0.071438
     50          1           0        0.340440    6.082965    0.176528
     51          6           0       -2.246837    4.859892    0.369209
     52          1           0       -2.986344    4.592128    1.115110
     53          6           0       -2.327928    6.047797   -0.221345
     54          1           0       -1.650550    6.347274   -1.002083
     55          1           0       -3.096531    6.756072    0.040359
     56          6           0       -5.523975    0.720456    0.683728
     57          1           0       -5.658850    1.408620   -0.151362
     58          1           0       -5.476371    1.307987    1.600871
     59          1           0       -6.395488    0.072470    0.736560
     60          6           0       -5.167743   -2.494716    0.362285
     61          1           0       -5.167423   -3.014606   -0.596123
     62          1           0       -6.157897   -2.075537    0.523715
     63          1           0       -4.973774   -3.228874    1.144586
     64          6           0        1.691795    0.980994    5.017927
     65          1           0        0.959807    1.310308    5.755383
     66          1           0        2.277354    1.838549    4.701720
     67          1           0        2.356674    0.261195    5.495334
     68          7           0        0.217447   -0.730272    3.934979
     69          1           0        0.004515   -1.231729    4.781699
     70          6           0        1.020016    0.376506    3.839909
     71          6           0       -0.228428   -1.021072    2.693010
     72          1           0       -0.877385   -1.839773    2.461624
     73          7           0        0.242619   -0.167192    1.818462
     74          6           0        1.019108    0.709082    2.515582
     75          1           0        1.523437    1.515019    2.024439
     76          6           0       -3.038943    0.409570   -3.090664
     77          1           0       -3.135683   -0.450159   -3.749434
     78          1           0       -3.695172    1.201555   -3.446364
     79          1           0       -3.355530    0.118386   -2.093739
     80          6           0       -1.603721    0.897485   -3.066344
     81          1           0       -1.491615    1.754017   -2.403742
     82          1           0       -1.267809    1.158867   -4.069723
     83         16           0       -0.486473   -0.436776   -2.467685
     84          6           0        1.031972    0.112193   -3.305916
     85          1           0        1.820552   -0.566458   -2.999531
     86          1           0        1.278398    1.123062   -2.996977
     87          1           0        0.885463    0.055184   -4.381470
 ---------------------------------------------------------------------
 Rotational constants (GHZ):           0.0840008           0.0815006           0.0579975
 General basis read from cards:  (5D, 7F)
 There are   784 symmetry adapted cartesian basis functions of A   symmetry.
 There are   737 symmetry adapted basis functions of A   symmetry.
   737 basis functions,  1510 primitive gaussians,   784 cartesian basis functions
   176 alpha electrons      172 beta electrons
       nuclear repulsion energy      7163.5018021034 Hartrees.
 NAtoms=   87 NActive=   87 NUniq=   87 SFac= 1.00D+00 NAtFMM=   60 NAOKFM=T Big=T
 Integral buffers will be    131072 words long.
 Raffenetti 2 integral format.
 Two-electron integral symmetry is turned on.
 R6APFD:  NTU= -4 IXU= 1 FactS= 1.050
 Nuclear repulsion after empirical dispersion term =     7163.3185697031 Hartrees.
 One-electron integrals computed using PRISM.
 NBasis=   737 RedAO= T EigKep=  2.61D-04  NBF=   737
 NBsUse=   737 1.00D-06 EigRej= -1.00D+00 NBFU=   737
 ExpMin= 4.20D-02 ExpMax= 3.01D+05 ExpMxC= 3.30D+03 IAcc=3 IRadAn=         5 AccDes= 0.00D+00
 Harris functional with IExCor= 3731 and IRadAn=       5 diagonalized for initial guess.
 HarFok:  IExCor= 3731 AccDes= 0.00D+00 IRadAn=         5 IDoV= 1 UseB2=F ITyADJ=14
 ICtDFT=  3500011 ScaDFX=  1.000000  1.000000  1.000000  1.000000
 FoFCou: FMM=F IPFlag=           0 FMFlag=      100000 FMFlg1=        2001
         NFxFlg=           0 DoJE=T BraDBF=F KetDBF=T FulRan=T
         wScrn=  0.000000 ICntrl=       500 IOpCl=  0 I1Cent=   200000004 NGrid=           0
         NMat0=    1 NMatS0=      1 NMatT0=    0 NMatD0=    1 NMtDS0=    0 NMtDT0=    0
 Petite list used in FoFCou.
 Initial guess <Sx>= 0.0000 <Sy>= 0.0000 <Sz>= 2.0000 <S**2>= 6.0000 S= 2.0000
 Requested convergence on RMS density matrix=1.00D-08 within 999 cycles.
 Requested convergence on MAX density matrix=1.00D-06.
 Requested convergence on             energy=1.00D-06.
 No special actions if energy rises.
 EnCoef did   100 forward-backward iterations
 EnCoef did   100 forward-backward iterations
 EnCoef did   100 forward-backward iterations
 EnCoef did   100 forward-backward iterations
 EnCoef did     3 forward-backward iterations
 EnCoef did     6 forward-backward iterations
 EnCoef did     2 forward-backward iterations
 EnCoef did     5 forward-backward iterations
 Rare condition: small coef for last iteration:  0.000D+00
 Rare condition: small coef for last iteration:  0.000D+00
 Restarting incremental Fock formation.
 Rare condition: small coef for last iteration:  0.000D+00
 Rare condition: small coef for last iteration:  0.000D+00
 Restarting incremental Fock formation.
 Rare condition: small coef for last iteration:  0.000D+00
 Rare condition: small coef for last iteration:  0.000D+00
 Rare condition: small coef for last iteration:  0.000D+00
 Rare condition: small coef for last iteration:  0.000D+00
 Rare condition: small coef for last iteration:  0.000D+00
 Rare condition: small coef for last iteration:  0.000D+00
 Restarting incremental Fock formation.
 Rare condition: small coef for last iteration:  0.000D+00
 Rare condition: small coef for last iteration:  0.000D+00
 Rare condition: small coef for last iteration:  0.000D+00
 EnCoef did   100 forward-backward iterations
 Rare condition: small coef for last iteration:  0.000D+00
 Rare condition: small coef for last iteration:  0.000D+00
 Rare condition: small coef for last iteration:  0.000D+00
 Rare condition: small coef for last iteration:  0.000D+00
 Rare condition: small coef for last iteration:  0.000D+00
 Restarting incremental Fock formation.
 Rare condition: small coef for last iteration:  0.000D+00
 Rare condition: small coef for last iteration:  0.000D+00
 Restarting incremental Fock formation.
 SCF Done:  E(UAPFD) =  -3424.15513580     A.U. after  105 cycles
            NFock=105  Conv=0.52D-08     -V/T= 2.0032
 <Sx>= 0.0000 <Sy>= 0.0000 <Sz>= 2.0000 <S**2>= 6.1529 S= 2.0304
 <L.S>=  0.00000000000    
 Annihilation of the first spin contaminant:
 S**2 before annihilation     6.1529,   after     6.0010

 **********************************************************************

            Population analysis using the SCF Density.

 **********************************************************************

 Orbital symmetries:
 Alpha Orbitals:
       Occupied  (A) (A) (A) (A) (A) (A) (A) (A) (A) (A) (A) (A)
                 (A) (A) (A) (A) (A) (A) (A) (A) (A) (A) (A) (A)
                 (A) (A) (A) (A) (A) (A) (A) (A) (A) (A) (A) (A)
                 (A) (A) (A) (A) (A) (A) (A) (A) (A) (A) (A) (A)
                 (A) (A) (A) (A) (A) (A) (A) (A) (A) (A) (A) (A)
                 (A) (A) (A) (A) (A) (A) (A) (A) (A) (A) (A) (A)
                 (A) (A) (A) (A) (A) (A) (A) (A) (A) (A) (A) (A)
                 (A) (A) (A) (A) (A) (A) (A) (A) (A) (A) (A) (A)
                 (A) (A) (A) (A) (A) (A) (A) (A) (A) (A) (A) (A)
                 (A) (A) (A) (A) (A) (A) (A) (A) (A) (A) (A) (A)
                 (A) (A) (A) (A) (A) (A) (A) (A) (A) (A) (A) (A)
                 (A) (A) (A) (A) (A) (A) (A) (A) (A) (A) (A) (A)
                 (A) (A) (A) (A) (A) (A) (A) (A) (A) (A) (A) (A)
                 (A) (A) (A) (A) (A) (A) (A) (A) (A) (A) (A) (A)
                 (A) (A) (A) (A) (A) (A) (A) (A)
       Virtual   (A) (A) (A) (A) (A) (A) (A) (A) (A) (A) (A) (A)
                 (A) (A) (A) (A) (A) (A) (A) (A) (A) (A) (A) (A)
                 (A) (A) (A) (A) (A) (A) (A) (A) (A) (A) (A) (A)
                 (A) (A) (A) (A) (A) (A) (A) (A) (A) (A) (A) (A)
                 (A) (A) (A) (A) (A) (A) (A) (A) (A) (A) (A) (A)
                 (A) (A) (A) (A) (A) (A) (A) (A) (A) (A) (A) (A)
                 (A) (A) (A) (A) (A) (A) (A) (A) (A) (A) (A) (A)
                 (A) (A) (A) (A) (A) (A) (A) (A) (A) (A) (A) (A)
                 (A) (A) (A) (A) (A) (A) (A) (A) (A) (A) (A) (A)
                 (A) (A) (A) (A) (A) (A) (A) (A) (A) (A) (A) (A)
                 (A) (A) (A) (A) (A) (A) (A) (A) (A) (A) (A) (A)
                 (A) (A) (A) (A) (A) (A) (A) (A) (A) (A) (A) (A)
                 (A) (A) (A) (A) (A) (A) (A) (A) (A) (A) (A) (A)
                 (A) (A) (A) (A) (A) (A) (A) (A) (A) (A) (A) (A)
                 (A) (A) (A) (A) (A) (A) (A) (A) (A) (A) (A) (A)
                 (A) (A) (A) (A) (A) (A) (A) (A) (A) (A) (A) (A)
                 (A) (A) (A) (A) (A) (A) (A) (A) (A) (A) (A) (A)
                 (A) (A) (A) (A) (A) (A) (A) (A) (A) (A) (A) (A)
                 (A) (A) (A) (A) (A) (A) (A) (A) (A) (A) (A) (A)
                 (A) (A) (A) (A) (A) (A) (A) (A) (A) (A) (A) (A)
                 (A) (A) (A) (A) (A) (A) (A) (A) (A) (A) (A) (A)
                 (A) (A) (A) (A) (A) (A) (A) (A) (A) (A) (A) (A)
                 (A) (A) (A) (A) (A) (A) (A) (A) (A) (A) (A) (A)
                 (A) (A) (A) (A) (A) (A) (A) (A) (A) (A) (A) (A)
                 (A) (A) (A) (A) (A) (A) (A) (A) (A) (A) (A) (A)
                 (A) (A) (A) (A) (A) (A) (A) (A) (A) (A) (A) (A)
                 (A) (A) (A) (A) (A) (A) (A) (A) (A) (A) (A) (A)
                 (A) (A) (A) (A) (A) (A) (A) (A) (A) (A) (A) (A)
                 (A) (A) (A) (A) (A) (A) (A) (A) (A) (A) (A) (A)
                 (A) (A) (A) (A) (A) (A) (A) (A) (A) (A) (A) (A)
                 (A) (A) (A) (A) (A) (A) (A) (A) (A) (A) (A) (A)
                 (A) (A) (A) (A) (A) (A) (A) (A) (A) (A) (A) (A)
                 (A) (A) (A) (A) (A) (A) (A) (A) (A) (A) (A) (A)
                 (A) (A) (A) (A) (A) (A) (A) (A) (A) (A) (A) (A)
                 (A) (A) (A) (A) (A) (A) (A) (A) (A) (A) (A) (A)
                 (A) (A) (A) (A) (A) (A) (A) (A) (A) (A) (A) (A)
                 (A) (A) (A) (A) (A) (A) (A) (A) (A) (A) (A) (A)
                 (A) (A) (A) (A) (A) (A) (A) (A) (A) (A) (A) (A)
                 (A) (A) (A) (A) (A) (A) (A) (A) (A) (A) (A) (A)
                 (A) (A) (A) (A) (A) (A) (A) (A) (A) (A) (A) (A)
                 (A) (A) (A) (A) (A) (A) (A) (A) (A) (A) (A) (A)
                 (A) (A) (A) (A) (A) (A) (A) (A) (A) (A) (A) (A)
                 (A) (A) (A) (A) (A) (A) (A) (A) (A) (A) (A) (A)
                 (A) (A) (A) (A) (A) (A) (A) (A) (A) (A) (A) (A)
                 (A) (A) (A) (A) (A) (A) (A) (A) (A) (A) (A) (A)
                 (A) (A) (A) (A) (A) (A) (A) (A) (A) (A) (A) (A)
                 (A) (A) (A) (A) (A) (A) (A) (A) (A)
 Beta  Orbitals:
       Occupied  (A) (A) (A) (A) (A) (A) (A) (A) (A) (A) (A) (A)
                 (A) (A) (A) (A) (A) (A) (A) (A) (A) (A) (A) (A)
                 (A) (A) (A) (A) (A) (A) (A) (A) (A) (A) (A) (A)
                 (A) (A) (A) (A) (A) (A) (A) (A) (A) (A) (A) (A)
                 (A) (A) (A) (A) (A) (A) (A) (A) (A) (A) (A) (A)
                 (A) (A) (A) (A) (A) (A) (A) (A) (A) (A) (A) (A)
                 (A) (A) (A) (A) (A) (A) (A) (A) (A) (A) (A) (A)
                 (A) (A) (A) (A) (A) (A) (A) (A) (A) (A) (A) (A)
                 (A) (A) (A) (A) (A) (A) (A) (A) (A) (A) (A) (A)
                 (A) (A) (A) (A) (A) (A) (A) (A) (A) (A) (A) (A)
                 (A) (A) (A) (A) (A) (A) (A) (A) (A) (A) (A) (A)
                 (A) (A) (A) (A) (A) (A) (A) (A) (A) (A) (A) (A)
                 (A) (A) (A) (A) (A) (A) (A) (A) (A) (A) (A) (A)
                 (A) (A) (A) (A) (A) (A) (A) (A) (A) (A) (A) (A)
                 (A) (A) (A) (A)
       Virtual   (A) (A) (A) (A) (A) (A) (A) (A) (A) (A) (A) (A)
                 (A) (A) (A) (A) (A) (A) (A) (A) (A) (A) (A) (A)
                 (A) (A) (A) (A) (A) (A) (A) (A) (A) (A) (A) (A)
                 (A) (A) (A) (A) (A) (A) (A) (A) (A) (A) (A) (A)
                 (A) (A) (A) (A) (A) (A) (A) (A) (A) (A) (A) (A)
                 (A) (A) (A) (A) (A) (A) (A) (A) (A) (A) (A) (A)
                 (A) (A) (A) (A) (A) (A) (A) (A) (A) (A) (A) (A)
                 (A) (A) (A) (A) (A) (A) (A) (A) (A) (A) (A) (A)
                 (A) (A) (A) (A) (A) (A) (A) (A) (A) (A) (A) (A)
                 (A) (A) (A) (A) (A) (A) (A) (A) (A) (A) (A) (A)
                 (A) (A) (A) (A) (A) (A) (A) (A) (A) (A) (A) (A)
                 (A) (A) (A) (A) (A) (A) (A) (A) (A) (A) (A) (A)
                 (A) (A) (A) (A) (A) (A) (A) (A) (A) (A) (A) (A)
                 (A) (A) (A) (A) (A) (A) (A) (A) (A) (A) (A) (A)
                 (A) (A) (A) (A) (A) (A) (A) (A) (A) (A) (A) (A)
                 (A) (A) (A) (A) (A) (A) (A) (A) (A) (A) (A) (A)
                 (A) (A) (A) (A) (A) (A) (A) (A) (A) (A) (A) (A)
                 (A) (A) (A) (A) (A) (A) (A) (A) (A) (A) (A) (A)
                 (A) (A) (A) (A) (A) (A) (A) (A) (A) (A) (A) (A)
                 (A) (A) (A) (A) (A) (A) (A) (A) (A) (A) (A) (A)
                 (A) (A) (A) (A) (A) (A) (A) (A) (A) (A) (A) (A)
                 (A) (A) (A) (A) (A) (A) (A) (A) (A) (A) (A) (A)
                 (A) (A) (A) (A) (A) (A) (A) (A) (A) (A) (A) (A)
                 (A) (A) (A) (A) (A) (A) (A) (A) (A) (A) (A) (A)
                 (A) (A) (A) (A) (A) (A) (A) (A) (A) (A) (A) (A)
                 (A) (A) (A) (A) (A) (A) (A) (A) (A) (A) (A) (A)
                 (A) (A) (A) (A) (A) (A) (A) (A) (A) (A) (A) (A)
                 (A) (A) (A) (A) (A) (A) (A) (A) (A) (A) (A) (A)
                 (A) (A) (A) (A) (A) (A) (A) (A) (A) (A) (A) (A)
                 (A) (A) (A) (A) (A) (A) (A) (A) (A) (A) (A) (A)
                 (A) (A) (A) (A) (A) (A) (A) (A) (A) (A) (A) (A)
                 (A) (A) (A) (A) (A) (A) (A) (A) (A) (A) (A) (A)
                 (A) (A) (A) (A) (A) (A) (A) (A) (A) (A) (A) (A)
                 (A) (A) (A) (A) (A) (A) (A) (A) (A) (A) (A) (A)
                 (A) (A) (A) (A) (A) (A) (A) (A) (A) (A) (A) (A)
                 (A) (A) (A) (A) (A) (A) (A) (A) (A) (A) (A) (A)
                 (A) (A) (A) (A) (A) (A) (A) (A) (A) (A) (A) (A)
                 (A) (A) (A) (A) (A) (A) (A) (A) (A) (A) (A) (A)
                 (A) (A) (A) (A) (A) (A) (A) (A) (A) (A) (A) (A)
                 (A) (A) (A) (A) (A) (A) (A) (A) (A) (A) (A) (A)
                 (A) (A) (A) (A) (A) (A) (A) (A) (A) (A) (A) (A)
                 (A) (A) (A) (A) (A) (A) (A) (A) (A) (A) (A) (A)
                 (A) (A) (A) (A) (A) (A) (A) (A) (A) (A) (A) (A)
                 (A) (A) (A) (A) (A) (A) (A) (A) (A) (A) (A) (A)
                 (A) (A) (A) (A) (A) (A) (A) (A) (A) (A) (A) (A)
                 (A) (A) (A) (A) (A) (A) (A) (A) (A) (A) (A) (A)
                 (A) (A) (A) (A) (A) (A) (A) (A) (A) (A) (A) (A)
                 (A)
 The electronic state is 5-A.
 Alpha  occ. eigenvalues -- -256.17294 -88.92847 -30.06864 -25.91354 -25.89384
 Alpha  occ. eigenvalues --  -25.89186 -14.41952 -14.35224 -14.33237 -14.33209
 Alpha  occ. eigenvalues --  -14.33025 -14.32910 -10.25015 -10.23393 -10.21577
 Alpha  occ. eigenvalues --  -10.21254 -10.21245 -10.21172 -10.21089 -10.21079
 Alpha  occ. eigenvalues --  -10.20968 -10.20831 -10.20730 -10.20706 -10.20388
 Alpha  occ. eigenvalues --  -10.20140 -10.19910 -10.19843 -10.19412 -10.19054
 Alpha  occ. eigenvalues --  -10.18981 -10.18884 -10.18840 -10.18831 -10.18795
 Alpha  occ. eigenvalues --  -10.18782 -10.18729 -10.18707 -10.18707 -10.18681
 Alpha  occ. eigenvalues --  -10.18638 -10.18582 -10.18562 -10.18554 -10.18484
 Alpha  occ. eigenvalues --  -10.18454 -10.18446 -10.18438 -10.17468  -7.95797
 Alpha  occ. eigenvalues --   -5.90433  -5.90128  -5.89532  -3.52743  -2.32486
 Alpha  occ. eigenvalues --   -2.28219  -2.27855  -1.04269  -0.96608  -0.95593
 Alpha  occ. eigenvalues --   -0.95586  -0.94599  -0.89836  -0.81752  -0.81505
 Alpha  occ. eigenvalues --   -0.81113  -0.81050  -0.80272  -0.79955  -0.79322
 Alpha  occ. eigenvalues --   -0.79069  -0.79016  -0.76300  -0.75277  -0.74228
 Alpha  occ. eigenvalues --   -0.73858  -0.73387  -0.72766  -0.70921  -0.70589
 Alpha  occ. eigenvalues --   -0.69777  -0.67890  -0.67554  -0.67400  -0.64560
 Alpha  occ. eigenvalues --   -0.63729  -0.63610  -0.63445  -0.60322  -0.60157
 Alpha  occ. eigenvalues --   -0.59651  -0.58428  -0.57151  -0.56240  -0.55015
 Alpha  occ. eigenvalues --   -0.53950  -0.53170  -0.52896  -0.52271  -0.50574
 Alpha  occ. eigenvalues --   -0.50548  -0.50062  -0.48477  -0.47368  -0.47158
 Alpha  occ. eigenvalues --   -0.46992  -0.46424  -0.46243  -0.44730  -0.44384
 Alpha  occ. eigenvalues --   -0.44229  -0.44102  -0.43869  -0.43235  -0.43121
 Alpha  occ. eigenvalues --   -0.43046  -0.42938  -0.42575  -0.42537  -0.42454
 Alpha  occ. eigenvalues --   -0.42112  -0.41898  -0.41719  -0.41574  -0.41524
 Alpha  occ. eigenvalues --   -0.41149  -0.41061  -0.41006  -0.40959  -0.40290
 Alpha  occ. eigenvalues --   -0.39939  -0.39715  -0.39077  -0.39039  -0.38950
 Alpha  occ. eigenvalues --   -0.38583  -0.38252  -0.38060  -0.37935  -0.37899
 Alpha  occ. eigenvalues --   -0.37517  -0.37169  -0.36820  -0.36635  -0.36443
 Alpha  occ. eigenvalues --   -0.36019  -0.35581  -0.35283  -0.34979  -0.34116
 Alpha  occ. eigenvalues --   -0.33801  -0.33466  -0.33195  -0.32799  -0.32523
 Alpha  occ. eigenvalues --   -0.31580  -0.31046  -0.30716  -0.30253  -0.29585
 Alpha  occ. eigenvalues --   -0.28819  -0.28634  -0.28460  -0.26584  -0.25665
 Alpha  occ. eigenvalues --   -0.25339  -0.25157  -0.22545  -0.21975  -0.21362
 Alpha  occ. eigenvalues --   -0.20930  -0.20493  -0.17212  -0.16906  -0.15851
 Alpha  occ. eigenvalues --   -0.15227
 Alpha virt. eigenvalues --   -0.05912  -0.05419  -0.00865   0.02049   0.03485
 Alpha virt. eigenvalues --    0.03912   0.05757   0.07332   0.07605   0.08341
 Alpha virt. eigenvalues --    0.09504   0.09685   0.10023   0.10839   0.10991
 Alpha virt. eigenvalues --    0.11121   0.11477   0.11851   0.12578   0.12902
 Alpha virt. eigenvalues --    0.13244   0.14033   0.14225   0.14738   0.14989
 Alpha virt. eigenvalues --    0.15237   0.15567   0.15923   0.15971   0.16030
 Alpha virt. eigenvalues --    0.16521   0.16622   0.17155   0.17373   0.17549
 Alpha virt. eigenvalues --    0.17731   0.18033   0.18123   0.18163   0.18506
 Alpha virt. eigenvalues --    0.18672   0.19149   0.19314   0.19446   0.19536
 Alpha virt. eigenvalues --    0.19773   0.20039   0.20147   0.20518   0.20975
 Alpha virt. eigenvalues --    0.21299   0.21384   0.21566   0.22047   0.22204
 Alpha virt. eigenvalues --    0.22260   0.22821   0.23073   0.23487   0.23674
 Alpha virt. eigenvalues --    0.24120   0.24650   0.24806   0.25014   0.25368
 Alpha virt. eigenvalues --    0.25929   0.26267   0.27252   0.27569   0.27689
 Alpha virt. eigenvalues --    0.28223   0.28358   0.28439   0.29410   0.30244
 Alpha virt. eigenvalues --    0.30928   0.31529   0.32417   0.33559   0.33692
 Alpha virt. eigenvalues --    0.34181   0.35250   0.35484   0.36357   0.36746
 Alpha virt. eigenvalues --    0.37306   0.37660   0.38056   0.38851   0.39249
 Alpha virt. eigenvalues --    0.40179   0.40961   0.41851   0.42760   0.43493
 Alpha virt. eigenvalues --    0.43838   0.44328   0.44523   0.44855   0.45224
 Alpha virt. eigenvalues --    0.46632   0.47315   0.48280   0.48414   0.48723
 Alpha virt. eigenvalues --    0.49189   0.49650   0.50333   0.50448   0.51028
 Alpha virt. eigenvalues --    0.51779   0.52495   0.52555   0.53080   0.53517
 Alpha virt. eigenvalues --    0.53690   0.53916   0.53976   0.54160   0.54603
 Alpha virt. eigenvalues --    0.54992   0.55388   0.55665   0.56006   0.56390
 Alpha virt. eigenvalues --    0.56756   0.56970   0.57123   0.58093   0.58767
 Alpha virt. eigenvalues --    0.59061   0.59474   0.59801   0.60234   0.60752
 Alpha virt. eigenvalues --    0.60958   0.61268   0.61547   0.62098   0.62108
 Alpha virt. eigenvalues --    0.62680   0.63360   0.63499   0.63716   0.64075
 Alpha virt. eigenvalues --    0.64691   0.65114   0.65697   0.65911   0.66319
 Alpha virt. eigenvalues --    0.66641   0.66853   0.67286   0.67428   0.67764
 Alpha virt. eigenvalues --    0.67860   0.68278   0.68441   0.69137   0.69490
 Alpha virt. eigenvalues --    0.69916   0.70345   0.70780   0.71099   0.71548
 Alpha virt. eigenvalues --    0.71864   0.72530   0.72998   0.73298   0.73711
 Alpha virt. eigenvalues --    0.74091   0.74725   0.75481   0.75935   0.76100
 Alpha virt. eigenvalues --    0.76282   0.76638   0.77116   0.77697   0.78104
 Alpha virt. eigenvalues --    0.78623   0.78716   0.79083   0.79490   0.79780
 Alpha virt. eigenvalues --    0.80290   0.80464   0.80658   0.81159   0.81590
 Alpha virt. eigenvalues --    0.82306   0.82706   0.82847   0.82995   0.83550
 Alpha virt. eigenvalues --    0.84490   0.84666   0.85149   0.86289   0.86503
 Alpha virt. eigenvalues --    0.86601   0.87021   0.87175   0.87676   0.87934
 Alpha virt. eigenvalues --    0.88102   0.88277   0.88445   0.88957   0.89259
 Alpha virt. eigenvalues --    0.89688   0.90129   0.90236   0.90685   0.90934
 Alpha virt. eigenvalues --    0.91214   0.91253   0.91767   0.92299   0.92424
 Alpha virt. eigenvalues --    0.92789   0.93005   0.93508   0.93673   0.93911
 Alpha virt. eigenvalues --    0.94417   0.94839   0.95034   0.95579   0.96040
 Alpha virt. eigenvalues --    0.96115   0.96493   0.96701   0.97243   0.97387
 Alpha virt. eigenvalues --    0.98036   0.98422   0.98982   0.99440   0.99609
 Alpha virt. eigenvalues --    0.99991   1.00116   1.00747   1.00901   1.01053
 Alpha virt. eigenvalues --    1.01391   1.01642   1.02027   1.02699   1.03056
 Alpha virt. eigenvalues --    1.03226   1.03704   1.03961   1.04562   1.04886
 Alpha virt. eigenvalues --    1.05613   1.05924   1.06957   1.07027   1.07435
 Alpha virt. eigenvalues --    1.07892   1.08460   1.09146   1.09365   1.10385
 Alpha virt. eigenvalues --    1.10959   1.11353   1.12538   1.13444   1.14228
 Alpha virt. eigenvalues --    1.14933   1.15066   1.15819   1.16138   1.16401
 Alpha virt. eigenvalues --    1.17245   1.18076   1.18714   1.19235   1.19348
 Alpha virt. eigenvalues --    1.20326   1.20614   1.20805   1.21032   1.22100
 Alpha virt. eigenvalues --    1.22832   1.23631   1.24263   1.24909   1.25244
 Alpha virt. eigenvalues --    1.26538   1.26637   1.27472   1.28190   1.28991
 Alpha virt. eigenvalues --    1.29489   1.30285   1.30701   1.31676   1.32280
 Alpha virt. eigenvalues --    1.33765   1.33876   1.34943   1.35271   1.35818
 Alpha virt. eigenvalues --    1.36140   1.36386   1.37247   1.37816   1.38262
 Alpha virt. eigenvalues --    1.38760   1.38984   1.39098   1.39355   1.40387
 Alpha virt. eigenvalues --    1.40654   1.41452   1.42014   1.43109   1.44004
 Alpha virt. eigenvalues --    1.44700   1.45188   1.46163   1.46357   1.46912
 Alpha virt. eigenvalues --    1.47261   1.47840   1.49323   1.50147   1.50244
 Alpha virt. eigenvalues --    1.51450   1.51585   1.52553   1.53786   1.54922
 Alpha virt. eigenvalues --    1.55380   1.55572   1.56021   1.56414   1.56672
 Alpha virt. eigenvalues --    1.57437   1.57888   1.59314   1.59816   1.60914
 Alpha virt. eigenvalues --    1.61598   1.62412   1.62639   1.63481   1.64934
 Alpha virt. eigenvalues --    1.65175   1.65965   1.66975   1.67672   1.68751
 Alpha virt. eigenvalues --    1.69554   1.70684   1.71013   1.71638   1.73703
 Alpha virt. eigenvalues --    1.74185   1.76013   1.76391   1.77473   1.77887
 Alpha virt. eigenvalues --    1.80387   1.80447   1.80915   1.81626   1.82128
 Alpha virt. eigenvalues --    1.82815   1.83453   1.84099   1.84522   1.85063
 Alpha virt. eigenvalues --    1.85397   1.86141   1.86965   1.87370   1.87849
 Alpha virt. eigenvalues --    1.88257   1.88335   1.88885   1.89478   1.89905
 Alpha virt. eigenvalues --    1.90465   1.91336   1.91467   1.92187   1.92874
 Alpha virt. eigenvalues --    1.93226   1.94083   1.95176   1.95935   1.96166
 Alpha virt. eigenvalues --    1.96505   1.96986   1.97530   1.98113   1.98308
 Alpha virt. eigenvalues --    1.99795   2.00539   2.01276   2.01487   2.01841
 Alpha virt. eigenvalues --    2.02192   2.02740   2.03296   2.03933   2.04155
 Alpha virt. eigenvalues --    2.04849   2.05504   2.06045   2.06761   2.07603
 Alpha virt. eigenvalues --    2.08189   2.08597   2.09552   2.10160   2.10813
 Alpha virt. eigenvalues --    2.11533   2.13376   2.13646   2.14293   2.14708
 Alpha virt. eigenvalues --    2.15246   2.16269   2.16379   2.17217   2.17568
 Alpha virt. eigenvalues --    2.18015   2.18159   2.19573   2.20322   2.20771
 Alpha virt. eigenvalues --    2.22009   2.23430   2.23735   2.24008   2.24429
 Alpha virt. eigenvalues --    2.24946   2.26119   2.26667   2.27170   2.27193
 Alpha virt. eigenvalues --    2.27674   2.27887   2.28798   2.29062   2.29467
 Alpha virt. eigenvalues --    2.29831   2.30037   2.30544   2.31290   2.31343
 Alpha virt. eigenvalues --    2.31515   2.32046   2.32438   2.32560   2.33321
 Alpha virt. eigenvalues --    2.33959   2.34424   2.34729   2.35134   2.35982
 Alpha virt. eigenvalues --    2.36403   2.36860   2.37386   2.37765   2.37972
 Alpha virt. eigenvalues --    2.38432   2.39253   2.39653   2.39883   2.40336
 Alpha virt. eigenvalues --    2.41006   2.42118   2.42781   2.42919   2.43111
 Alpha virt. eigenvalues --    2.44309   2.44894   2.45077   2.45411   2.45588
 Alpha virt. eigenvalues --    2.46112   2.46996   2.47640   2.49669   2.51834
 Alpha virt. eigenvalues --    2.52451   2.53789   2.54254   2.54675   2.54982
 Alpha virt. eigenvalues --    2.55312   2.57585   2.57860   2.58119   2.58632
 Alpha virt. eigenvalues --    2.58837   2.60715   2.61984   2.62077   2.62624
 Alpha virt. eigenvalues --    2.63863   2.65259   2.66443   2.68301   2.68484
 Alpha virt. eigenvalues --    2.69915   2.71576   2.71938   2.73069   2.73460
 Alpha virt. eigenvalues --    2.75446   2.77755   2.78307   2.78973   2.79236
 Alpha virt. eigenvalues --    2.80951   2.81591   2.83254   2.85637   2.89916
 Alpha virt. eigenvalues --    2.90014   2.90507   2.92607   2.93575   2.94837
 Alpha virt. eigenvalues --    2.96363   2.97514   2.98585   2.99392   2.99982
 Alpha virt. eigenvalues --    3.01006   3.01899   3.03391   3.06648   3.06938
 Alpha virt. eigenvalues --    3.07666   3.10447   3.14814   3.16519   3.17197
 Alpha virt. eigenvalues --    3.21946   3.24572   3.27038   3.31087   3.31710
 Alpha virt. eigenvalues --    3.39903   3.40478   3.42658   3.47825   3.48156
 Alpha virt. eigenvalues --    3.67597   3.69919   3.85265   3.88202   4.14428
 Alpha virt. eigenvalues --    4.23271
  Beta  occ. eigenvalues -- -256.17161 -88.92792 -29.98523 -25.83565 -25.82816
  Beta  occ. eigenvalues --  -25.82638 -14.41950 -14.34993 -14.33053 -14.33000
  Beta  occ. eigenvalues --  -14.32805 -14.32706 -10.25044 -10.23378 -10.21534
  Beta  occ. eigenvalues --  -10.21217 -10.21216 -10.21143 -10.21142 -10.21128
  Beta  occ. eigenvalues --  -10.20982 -10.20829 -10.20789 -10.20760 -10.20394
  Beta  occ. eigenvalues --  -10.20153 -10.19918 -10.19829 -10.19362 -10.19090
  Beta  occ. eigenvalues --  -10.18935 -10.18843 -10.18841 -10.18794 -10.18782
  Beta  occ. eigenvalues --  -10.18776 -10.18760 -10.18720 -10.18712 -10.18704
  Beta  occ. eigenvalues --  -10.18669 -10.18583 -10.18547 -10.18531 -10.18485
  Beta  occ. eigenvalues --  -10.18483 -10.18479 -10.18475 -10.17467  -7.95732
  Beta  occ. eigenvalues --   -5.90388  -5.90062  -5.89411  -3.32906  -2.08600
  Beta  occ. eigenvalues --   -2.08434  -2.08060  -1.04183  -0.96404  -0.95402
  Beta  occ. eigenvalues --   -0.95381  -0.94389  -0.89623  -0.81766  -0.81436
  Beta  occ. eigenvalues --   -0.81058  -0.80943  -0.80201  -0.79866  -0.79302
  Beta  occ. eigenvalues --   -0.79049  -0.79031  -0.76288  -0.75248  -0.74197
  Beta  occ. eigenvalues --   -0.73854  -0.73393  -0.72757  -0.70885  -0.70550
  Beta  occ. eigenvalues --   -0.69711  -0.67790  -0.67446  -0.67377  -0.64480
  Beta  occ. eigenvalues --   -0.63626  -0.63559  -0.63424  -0.60265  -0.60105
  Beta  occ. eigenvalues --   -0.59599  -0.58285  -0.57124  -0.56054  -0.54923
  Beta  occ. eigenvalues --   -0.53903  -0.53090  -0.52840  -0.52036  -0.50462
  Beta  occ. eigenvalues --   -0.50433  -0.49968  -0.48132  -0.47306  -0.46955
  Beta  occ. eigenvalues --   -0.46736  -0.46310  -0.46177  -0.44449  -0.44326
  Beta  occ. eigenvalues --   -0.43967  -0.43942  -0.43831  -0.43138  -0.43096
  Beta  occ. eigenvalues --   -0.42971  -0.42776  -0.42529  -0.42504  -0.42182
  Beta  occ. eigenvalues --   -0.42040  -0.41852  -0.41613  -0.41534  -0.41475
  Beta  occ. eigenvalues --   -0.41100  -0.41048  -0.40968  -0.40856  -0.39851
  Beta  occ. eigenvalues --   -0.39686  -0.39619  -0.39023  -0.38978  -0.38535
  Beta  occ. eigenvalues --   -0.38319  -0.38060  -0.37754  -0.37398  -0.37169
  Beta  occ. eigenvalues --   -0.36883  -0.36549  -0.36365  -0.35835  -0.35451
  Beta  occ. eigenvalues --   -0.35220  -0.34876  -0.34641  -0.33835  -0.33550
  Beta  occ. eigenvalues --   -0.33416  -0.33175  -0.31874  -0.31371  -0.30971
  Beta  occ. eigenvalues --   -0.30524  -0.29847  -0.29603  -0.28497  -0.28246
  Beta  occ. eigenvalues --   -0.27860  -0.25856  -0.25816  -0.23883  -0.23117
  Beta  occ. eigenvalues --   -0.22286  -0.21697  -0.21261  -0.21111  -0.17163
  Beta  occ. eigenvalues --   -0.17059  -0.13170
  Beta virt. eigenvalues --   -0.06410  -0.04886  -0.01159   0.00680   0.00897
  Beta virt. eigenvalues --    0.02114   0.03633   0.04014   0.06012   0.07050
  Beta virt. eigenvalues --    0.07671   0.08006   0.09042   0.09480   0.09881
  Beta virt. eigenvalues --    0.10239   0.10618   0.11000   0.11166   0.11273
  Beta virt. eigenvalues --    0.11546   0.11982   0.12604   0.12995   0.13253
  Beta virt. eigenvalues --    0.14041   0.14247   0.14746   0.15024   0.15251
  Beta virt. eigenvalues --    0.15597   0.15930   0.16003   0.16145   0.16585
  Beta virt. eigenvalues --    0.16657   0.17219   0.17432   0.17567   0.17782
  Beta virt. eigenvalues --    0.18054   0.18188   0.18293   0.18556   0.18678
  Beta virt. eigenvalues --    0.19221   0.19377   0.19503   0.19584   0.19793
  Beta virt. eigenvalues --    0.20054   0.20179   0.20547   0.20983   0.21332
  Beta virt. eigenvalues --    0.21392   0.21585   0.22196   0.22270   0.22309
  Beta virt. eigenvalues --    0.22870   0.23156   0.23572   0.23749   0.24253
  Beta virt. eigenvalues --    0.24734   0.24921   0.25137   0.25471   0.26090
  Beta virt. eigenvalues --    0.26364   0.27350   0.27602   0.27865   0.28285
  Beta virt. eigenvalues --    0.28525   0.28686   0.30143   0.31165   0.31247
  Beta virt. eigenvalues --    0.31662   0.33036   0.33778   0.33959   0.34447
  Beta virt. eigenvalues --    0.35713   0.36125   0.36541   0.36921   0.37637
  Beta virt. eigenvalues --    0.37874   0.38156   0.39230   0.39405   0.40377
  Beta virt. eigenvalues --    0.41215   0.42288   0.42903   0.43777   0.44077
  Beta virt. eigenvalues --    0.44551   0.44562   0.44937   0.45374   0.46893
  Beta virt. eigenvalues --    0.47853   0.48427   0.48591   0.48861   0.49638
  Beta virt. eigenvalues --    0.50355   0.50504   0.50912   0.51386   0.52073
  Beta virt. eigenvalues --    0.52556   0.53024   0.53201   0.53541   0.53786
  Beta virt. eigenvalues --    0.53979   0.54083   0.54377   0.54860   0.55032
  Beta virt. eigenvalues --    0.55548   0.55780   0.56076   0.56459   0.56913
  Beta virt. eigenvalues --    0.57106   0.57336   0.58260   0.58893   0.59093
  Beta virt. eigenvalues --    0.59535   0.59869   0.60290   0.60805   0.60988
  Beta virt. eigenvalues --    0.61272   0.61677   0.62160   0.62209   0.62738
  Beta virt. eigenvalues --    0.63440   0.63561   0.63790   0.64144   0.64729
  Beta virt. eigenvalues --    0.65170   0.65715   0.65958   0.66438   0.66681
  Beta virt. eigenvalues --    0.66921   0.67350   0.67520   0.67803   0.67974
  Beta virt. eigenvalues --    0.68386   0.68534   0.69169   0.69569   0.69970
  Beta virt. eigenvalues --    0.70428   0.70846   0.71230   0.71646   0.71946
  Beta virt. eigenvalues --    0.72859   0.73067   0.73472   0.74008   0.74400
  Beta virt. eigenvalues --    0.74904   0.75610   0.75987   0.76171   0.76409
  Beta virt. eigenvalues --    0.76777   0.77220   0.77923   0.78109   0.78676
  Beta virt. eigenvalues --    0.78831   0.79154   0.79614   0.79854   0.80414
  Beta virt. eigenvalues --    0.80571   0.80815   0.81445   0.81764   0.82745
  Beta virt. eigenvalues --    0.82877   0.82988   0.83138   0.83790   0.84528
  Beta virt. eigenvalues --    0.84830   0.85347   0.86426   0.86548   0.86713
  Beta virt. eigenvalues --    0.87071   0.87226   0.87771   0.88038   0.88161
  Beta virt. eigenvalues --    0.88390   0.88533   0.89107   0.89374   0.89822
  Beta virt. eigenvalues --    0.90175   0.90427   0.90810   0.91089   0.91429
  Beta virt. eigenvalues --    0.91515   0.91812   0.92402   0.92645   0.92928
  Beta virt. eigenvalues --    0.93237   0.93753   0.93806   0.94022   0.94461
  Beta virt. eigenvalues --    0.94900   0.95202   0.95812   0.96117   0.96293
  Beta virt. eigenvalues --    0.96657   0.96932   0.97374   0.97483   0.98193
  Beta virt. eigenvalues --    0.98781   0.99155   0.99553   0.99748   1.00039
  Beta virt. eigenvalues --    1.00330   1.00766   1.00960   1.01270   1.01520
  Beta virt. eigenvalues --    1.01812   1.02234   1.02765   1.03298   1.03439
  Beta virt. eigenvalues --    1.03988   1.04168   1.04706   1.05165   1.05659
  Beta virt. eigenvalues --    1.06250   1.07076   1.07240   1.07636   1.08113
  Beta virt. eigenvalues --    1.08778   1.09269   1.09601   1.10639   1.11194
  Beta virt. eigenvalues --    1.11369   1.12617   1.13654   1.14664   1.15185
  Beta virt. eigenvalues --    1.15899   1.15985   1.16433   1.16645   1.17604
  Beta virt. eigenvalues --    1.18234   1.18792   1.19302   1.19450   1.20438
  Beta virt. eigenvalues --    1.20652   1.20950   1.21139   1.22177   1.22889
  Beta virt. eigenvalues --    1.23745   1.24302   1.24993   1.25648   1.26602
  Beta virt. eigenvalues --    1.27486   1.28082   1.28730   1.29269   1.29966
  Beta virt. eigenvalues --    1.30359   1.31105   1.32012   1.32464   1.34041
  Beta virt. eigenvalues --    1.34101   1.34994   1.35685   1.35922   1.36317
  Beta virt. eigenvalues --    1.36610   1.37369   1.38060   1.38320   1.38947
  Beta virt. eigenvalues --    1.39190   1.39244   1.40216   1.40447   1.41417
  Beta virt. eigenvalues --    1.41500   1.42082   1.43257   1.44284   1.45114
  Beta virt. eigenvalues --    1.45323   1.46404   1.46443   1.47061   1.47391
  Beta virt. eigenvalues --    1.48349   1.49544   1.50250   1.50704   1.51548
  Beta virt. eigenvalues --    1.52086   1.52781   1.53855   1.55164   1.55486
  Beta virt. eigenvalues --    1.55598   1.56132   1.56507   1.56734   1.57596
  Beta virt. eigenvalues --    1.58240   1.59687   1.59933   1.61046   1.61708
  Beta virt. eigenvalues --    1.62679   1.62864   1.63639   1.65167   1.65462
  Beta virt. eigenvalues --    1.66254   1.67071   1.67865   1.69007   1.69666
  Beta virt. eigenvalues --    1.70725   1.71103   1.71737   1.73784   1.74271
  Beta virt. eigenvalues --    1.76149   1.76481   1.77647   1.78174   1.80415
  Beta virt. eigenvalues --    1.80534   1.80941   1.81645   1.82202   1.82884
  Beta virt. eigenvalues --    1.83617   1.84194   1.84604   1.85151   1.85453
  Beta virt. eigenvalues --    1.86234   1.87052   1.87531   1.87983   1.88358
  Beta virt. eigenvalues --    1.88430   1.89059   1.89556   1.90049   1.90628
  Beta virt. eigenvalues --    1.91503   1.91527   1.92262   1.92987   1.93298
  Beta virt. eigenvalues --    1.94199   1.95192   1.96184   1.96267   1.96873
  Beta virt. eigenvalues --    1.97271   1.97630   1.98231   1.98483   2.00025
  Beta virt. eigenvalues --    2.00577   2.01348   2.01707   2.01888   2.02315
  Beta virt. eigenvalues --    2.02948   2.03334   2.04253   2.04542   2.05281
  Beta virt. eigenvalues --    2.05694   2.06327   2.06898   2.07857   2.08433
  Beta virt. eigenvalues --    2.08804   2.09720   2.10242   2.10938   2.11826
  Beta virt. eigenvalues --    2.13491   2.13838   2.14413   2.14860   2.15512
  Beta virt. eigenvalues --    2.16333   2.16430   2.17253   2.17573   2.18149
  Beta virt. eigenvalues --    2.18531   2.19864   2.20443   2.20894   2.22474
  Beta virt. eigenvalues --    2.23624   2.23775   2.24194   2.24725   2.24998
  Beta virt. eigenvalues --    2.26399   2.26708   2.27270   2.27377   2.27857
  Beta virt. eigenvalues --    2.27975   2.28864   2.29182   2.29574   2.30056
  Beta virt. eigenvalues --    2.30104   2.30806   2.31367   2.31547   2.31694
  Beta virt. eigenvalues --    2.32255   2.32618   2.33478   2.33599   2.34219
  Beta virt. eigenvalues --    2.34980   2.35046   2.35975   2.36092   2.37051
  Beta virt. eigenvalues --    2.37219   2.37511   2.38207   2.38628   2.39025
  Beta virt. eigenvalues --    2.39523   2.39823   2.40283   2.40725   2.41635
  Beta virt. eigenvalues --    2.42299   2.42975   2.43284   2.44321   2.44530
  Beta virt. eigenvalues --    2.44998   2.45306   2.45757   2.46174   2.46330
  Beta virt. eigenvalues --    2.47702   2.48138   2.49798   2.52935   2.53232
  Beta virt. eigenvalues --    2.53952   2.54735   2.54888   2.55558   2.55858
  Beta virt. eigenvalues --    2.57921   2.58048   2.58282   2.58806   2.59480
  Beta virt. eigenvalues --    2.61087   2.62118   2.62137   2.63008   2.63893
  Beta virt. eigenvalues --    2.65329   2.66499   2.68435   2.68628   2.70086
  Beta virt. eigenvalues --    2.71851   2.72153   2.73233   2.73622   2.75591
  Beta virt. eigenvalues --    2.77895   2.78677   2.79127   2.79383   2.81014
  Beta virt. eigenvalues --    2.81658   2.83363   2.85880   2.90054   2.90190
  Beta virt. eigenvalues --    2.90594   2.92799   2.93789   2.95039   2.96539
  Beta virt. eigenvalues --    2.97680   2.98666   2.99476   3.00047   3.01095
  Beta virt. eigenvalues --    3.02021   3.03762   3.06857   3.07177   3.07856
  Beta virt. eigenvalues --    3.10993   3.14974   3.16674   3.17258   3.22017
  Beta virt. eigenvalues --    3.24691   3.27602   3.31127   3.31743   3.39997
  Beta virt. eigenvalues --    3.40563   3.43383   3.48012   3.48299   3.75641
  Beta virt. eigenvalues --    3.81377   3.94813   3.99680   4.24857   4.33736
          Condensed to atoms (all electrons):
          Atomic-Atomic Spin Densities.
 Mulliken charges and spin densities:
               1          2
     1  Fe   0.835336   3.820871
     2  N   -0.671451   0.048208
     3  N   -0.655397   0.052226
     4  N   -0.678179   0.041272
     5  N   -0.648675   0.055552
     6  C    0.297362  -0.043349
     7  C    0.036920   0.029668
     8  C    0.025895  -0.027044
     9  C    0.310446   0.014782
    10  C    0.305201   0.014298
    11  C    0.029628  -0.026748
    12  C    0.000847   0.026683
    13  C    0.281713  -0.041692
    14  C    0.281235  -0.039699
    15  C    0.036918   0.033513
    16  C   -0.008606  -0.030177
    17  C    0.304631   0.023484
    18  C    0.295584   0.021091
    19  C    0.021142  -0.032885
    20  C    0.043039   0.033869
    21  C    0.275104  -0.046046
    22  C   -0.310805   0.018867
    23  H    0.159856  -0.000441
    24  C   -0.316269  -0.025959
    25  H    0.161931   0.001449
    26  C   -0.323515   0.015186
    27  H    0.163243  -0.000383
    28  C   -0.313146  -0.033506
    29  H    0.161680   0.001734
    30  C   -0.608224   0.003009
    31  H    0.181225   0.000304
    32  H    0.184553  -0.001259
    33  H    0.190082  -0.001380
    34  C   -0.608789  -0.001612
    35  H    0.192220   0.000896
    36  H    0.184197   0.000976
    37  H    0.182383   0.000463
    38  C   -0.611763   0.003096
    39  H    0.185540  -0.001601
    40  H    0.182626  -0.001134
    41  H    0.193219   0.000059
    42  C   -0.146593  -0.007213
    43  H    0.160781   0.000451
    44  C   -0.404392   0.011065
    45  H    0.173529  -0.000558
    46  H    0.164380  -0.000531
    47  C   -0.608960  -0.001951
    48  H    0.188132   0.001289
    49  H    0.179477   0.000787
    50  H    0.194256   0.000576
    51  C   -0.145980   0.010653
    52  H    0.164459  -0.001046
    53  C   -0.405260  -0.015393
    54  H    0.172388   0.000775
    55  H    0.164057   0.000875
    56  C   -0.608247   0.003546
    57  H    0.189861  -0.001854
    58  H    0.185826  -0.001695
    59  H    0.181295   0.000275
    60  C   -0.607941  -0.001831
    61  H    0.191323   0.000917
    62  H    0.182449   0.000471
    63  H    0.184299   0.000845
    64  C   -0.601246   0.000486
    65  H    0.190522   0.000306
    66  H    0.207817   0.000080
    67  H    0.190513   0.000381
    68  N   -0.636887  -0.000385
    69  H    0.357824   0.002656
    70  C    0.272147   0.008274
    71  C    0.233857  -0.022506
    72  H    0.214386   0.002554
    73  N   -0.429915   0.059972
    74  C   -0.050492  -0.008586
    75  H    0.192725   0.002040
    76  C   -0.537352   0.000093
    77  H    0.183001   0.000198
    78  H    0.172941  -0.000031
    79  H    0.216076  -0.000261
    80  C   -0.483019  -0.004396
    81  H    0.231083   0.002670
    82  H    0.188092   0.000879
    83  S    0.227545   0.050675
    84  C   -0.680653  -0.004665
    85  H    0.228006   0.000285
    86  H    0.220823   0.001730
    87  H    0.194130   0.000453
 Sum of Mulliken charges =  -0.00000   4.00000
 Mulliken charges and spin densities with hydrogens summed into heavy atoms:
               1          2
     1  Fe   0.835336   3.820871
     2  N   -0.671451   0.048208
     3  N   -0.655397   0.052226
     4  N   -0.678179   0.041272
     5  N   -0.648675   0.055552
     6  C    0.297362  -0.043349
     7  C    0.036920   0.029668
     8  C    0.025895  -0.027044
     9  C    0.310446   0.014782
    10  C    0.305201   0.014298
    11  C    0.029628  -0.026748
    12  C    0.000847   0.026683
    13  C    0.281713  -0.041692
    14  C    0.281235  -0.039699
    15  C    0.036918   0.033513
    16  C   -0.008606  -0.030177
    17  C    0.304631   0.023484
    18  C    0.295584   0.021091
    19  C    0.021142  -0.032885
    20  C    0.043039   0.033869
    21  C    0.275104  -0.046046
    22  C   -0.150949   0.018425
    24  C   -0.154338  -0.024510
    26  C   -0.160272   0.014803
    28  C   -0.151467  -0.031772
    30  C   -0.052363   0.000675
    34  C   -0.049990   0.000723
    38  C   -0.050378   0.000421
    42  C    0.014187  -0.006762
    44  C   -0.066482   0.009977
    47  C   -0.047095   0.000701
    51  C    0.018479   0.009607
    53  C   -0.068815  -0.013743
    56  C   -0.051265   0.000273
    60  C   -0.049870   0.000402
    64  C   -0.012394   0.001253
    68  N   -0.279063   0.002271
    70  C    0.272147   0.008274
    71  C    0.448243  -0.019953
    73  N   -0.429915   0.059972
    74  C    0.142233  -0.006547
    76  C    0.034666   0.000000
    80  C   -0.063844  -0.000846
    83  S    0.227545   0.050675
    84  C   -0.037694  -0.002197
 Electronic spatial extent (au):  <R**2>=          21564.3481
 Charge=             -0.0000 electrons
 Dipole moment (field-independent basis, Debye):
    X=             -0.0770    Y=             -0.9813    Z=              3.6041  Tot=              3.7361
 Quadrupole moment (field-independent basis, Debye-Ang):
   XX=           -264.4127   YY=           -262.4811   ZZ=           -250.4889
   XY=              1.5548   XZ=             -0.6221   YZ=             -7.2518
 Traceless Quadrupole moment (field-independent basis, Debye-Ang):
   XX=             -5.2851   YY=             -3.3535   ZZ=              8.6387
   XY=              1.5548   XZ=             -0.6221   YZ=             -7.2518
 Octapole moment (field-independent basis, Debye-Ang**2):
  XXX=            -25.2480  YYY=            -37.7090  ZZZ=            122.8636  XYY=              3.9419
  XXY=            -11.8922  XXZ=              1.9582  XZZ=              7.0215  YZZ=            -19.6266
  YYZ=              3.4830  XYZ=              7.5977
 Hexadecapole moment (field-independent basis, Debye-Ang**3):
 XXXX=         -12168.5244 YYYY=         -11577.4028 ZZZZ=          -4184.7189 XXXY=              0.3620
 XXXZ=           -102.2903 YYYX=             23.0252 YYYZ=            -56.5660 ZZZX=             88.3956
 ZZZY=           -159.6330 XXYY=          -3901.1050 XXZZ=          -2950.1908 YYZZ=          -2833.4695
 XXYZ=             44.3017 YYXZ=            -25.2953 ZZXY=             -0.1456
 N-N= 7.163318569703D+03 E-N=-2.238168044034D+04  KE= 3.413338546290D+03
                          Isotropic Fermi Contact Couplings
        Atom                 a.u.       MegaHertz       Gauss      10(-4) cm-1
     1  Fe(57)             0.38499      13.95967       4.98116       4.65644
     2  N(14)              0.11371       9.18537       3.27757       3.06391
     3  N(14)              0.11096       8.96275       3.19813       2.98965
     4  N(14)              0.10340       8.35192       2.98017       2.78590
     5  N(14)              0.11736       9.47982       3.38263       3.16213
     6  C(13)             -0.00096      -0.27037      -0.09648      -0.09019
     7  C(13)              0.00849       2.38577       0.85130       0.79581
     8  C(13)             -0.00043      -0.11992      -0.04279      -0.04000
     9  C(13)              0.00788       2.21376       0.78992       0.73843
    10  C(13)              0.00785       2.20664       0.78738       0.73606
    11  C(13)             -0.00030      -0.08380      -0.02990      -0.02795
    12  C(13)              0.00781       2.19522       0.78331       0.73225
    13  C(13)             -0.00079      -0.22128      -0.07896      -0.07381
    14  C(13)             -0.00011      -0.02988      -0.01066      -0.00997
    15  C(13)              0.00915       2.57182       0.91769       0.85787
    16  C(13)             -0.00114      -0.32169      -0.11479      -0.10731
    17  C(13)              0.00976       2.74305       0.97879       0.91498
    18  C(13)              0.00874       2.45653       0.87655       0.81941
    19  C(13)             -0.00145      -0.40823      -0.14567      -0.13617
    20  C(13)              0.00939       2.63797       0.94129       0.87993
    21  C(13)             -0.00136      -0.38332      -0.13678      -0.12786
    22  C(13)              0.00396       1.11330       0.39725       0.37136
    23  H(1)              -0.00015      -0.16311      -0.05820      -0.05441
    24  C(13)             -0.00353      -0.99331      -0.35444      -0.33133
    25  H(1)               0.00046       0.51075       0.18225       0.17037
    26  C(13)              0.00373       1.04759       0.37381       0.34944
    27  H(1)              -0.00012      -0.13529      -0.04827      -0.04513
    28  C(13)             -0.00465      -1.30629      -0.46612      -0.43573
    29  H(1)               0.00053       0.59754       0.21322       0.19932
    30  C(13)              0.00161       0.45362       0.16186       0.15131
    31  H(1)               0.00008       0.08805       0.03142       0.02937
    32  H(1)              -0.00054      -0.60818      -0.21701      -0.20287
    33  H(1)              -0.00060      -0.67562      -0.24108      -0.22536
    34  C(13)             -0.00002      -0.00646      -0.00230      -0.00215
    35  H(1)               0.00039       0.44124       0.15745       0.14718
    36  H(1)               0.00043       0.48089       0.17159       0.16041
    37  H(1)               0.00014       0.15903       0.05674       0.05305
    38  C(13)              0.00167       0.46998       0.16770       0.15677
    39  H(1)              -0.00071      -0.78913      -0.28158      -0.26323
    40  H(1)              -0.00030      -0.33381      -0.11911      -0.11135
    41  H(1)              -0.00004      -0.04538      -0.01619      -0.01514
    42  C(13)             -0.00081      -0.22787      -0.08131      -0.07601
    43  H(1)               0.00021       0.23672       0.08447       0.07896
    44  C(13)              0.00179       0.50351       0.17967       0.16795
    45  H(1)              -0.00018      -0.20262      -0.07230      -0.06759
    46  H(1)              -0.00015      -0.17219      -0.06144      -0.05744
    47  C(13)             -0.00014      -0.03814      -0.01361      -0.01272
    48  H(1)               0.00063       0.69928       0.24952       0.23325
    49  H(1)               0.00033       0.36500       0.13024       0.12175
    50  H(1)               0.00018       0.19685       0.07024       0.06566
    51  C(13)              0.00265       0.74471       0.26573       0.24841
    52  H(1)              -0.00034      -0.38394      -0.13700      -0.12807
    53  C(13)             -0.00220      -0.61694      -0.22014      -0.20579
    54  H(1)               0.00025       0.27535       0.09825       0.09185
    55  H(1)               0.00027       0.30199       0.10776       0.10073
    56  C(13)              0.00185       0.51992       0.18552       0.17343
    57  H(1)              -0.00069      -0.77036      -0.27488      -0.25696
    58  H(1)              -0.00062      -0.69797      -0.24905      -0.23282
    59  H(1)               0.00007       0.07536       0.02689       0.02514
    60  C(13)             -0.00006      -0.01697      -0.00605      -0.00566
    61  H(1)               0.00051       0.57519       0.20524       0.19186
    62  H(1)               0.00014       0.15723       0.05610       0.05245
    63  H(1)               0.00050       0.56162       0.20040       0.18734
    64  C(13)              0.00060       0.16847       0.06011       0.05620
    65  H(1)               0.00012       0.13789       0.04920       0.04600
    66  H(1)               0.00005       0.05801       0.02070       0.01935
    67  H(1)               0.00016       0.17640       0.06294       0.05884
    68  N(14)              0.00838       0.67704       0.24159       0.22584
    69  H(1)               0.00077       0.85493       0.30506       0.28517
    70  C(13)              0.00453       1.27435       0.45472       0.42508
    71  C(13)             -0.00008      -0.02377      -0.00848      -0.00793
    72  H(1)               0.00071       0.79891       0.28507       0.26649
    73  N(14)              0.13236      10.69116       3.81487       3.56619
    74  C(13)              0.00029       0.08082       0.02884       0.02696
    75  H(1)               0.00058       0.64591       0.23048       0.21545
    76  C(13)              0.00069       0.19256       0.06871       0.06423
    77  H(1)              -0.00001      -0.01212      -0.00433      -0.00404
    78  H(1)              -0.00000      -0.00466      -0.00166      -0.00155
    79  H(1)              -0.00004      -0.04189      -0.01495      -0.01397
    80  C(13)             -0.00524      -1.47302      -0.52561      -0.49135
    81  H(1)               0.00085       0.95466       0.34065       0.31844
    82  H(1)               0.00071       0.79433       0.28344       0.26496
    83  S(33)              0.14288      12.26892       4.37786       4.09247
    84  C(13)             -0.00466      -1.30837      -0.46686      -0.43643
    85  H(1)               0.00008       0.09415       0.03359       0.03140
    86  H(1)               0.00059       0.65766       0.23467       0.21937
    87  H(1)               0.00074       0.82546       0.29455       0.27534
 --------------------------------------------------------
       Center         ----  Spin Dipole Couplings  ----
                      3XX-RR        3YY-RR        3ZZ-RR
 --------------------------------------------------------
     1   Atom       -0.537313      1.529686     -0.992374
     2   Atom       -0.120115      0.216000     -0.095885
     3   Atom        0.197420     -0.120899     -0.076521
     4   Atom       -0.114298      0.218300     -0.104002
     5   Atom        0.205192     -0.126976     -0.078216
     6   Atom        0.009506      0.061733     -0.071240
     7   Atom       -0.019514      0.007800      0.011714
     8   Atom        0.007754      0.030078     -0.037832
     9   Atom       -0.004072      0.021290     -0.017218
    10   Atom        0.035490     -0.018820     -0.016670
    11   Atom        0.032708      0.005646     -0.038354
    12   Atom        0.007815     -0.015854      0.008039
    13   Atom        0.047259      0.022178     -0.069437
    14   Atom        0.003279      0.061654     -0.064933
    15   Atom       -0.019644      0.005123      0.014521
    16   Atom        0.006336      0.032326     -0.038662
    17   Atom       -0.007938      0.017240     -0.009302
    18   Atom        0.031122     -0.021477     -0.009645
    19   Atom        0.035163      0.008530     -0.043693
    20   Atom        0.004848     -0.019757      0.014909
    21   Atom        0.050264      0.023159     -0.073423
    22   Atom       -0.002761      0.008142     -0.005382
    23   Atom        0.000919      0.005562     -0.006481
    24   Atom        0.026720      0.015959     -0.042679
    25   Atom        0.005647      0.000956     -0.006604
    26   Atom       -0.001687      0.009510     -0.007823
    27   Atom        0.000748      0.005425     -0.006173
    28   Atom        0.025344      0.019530     -0.044874
    29   Atom        0.005073      0.001113     -0.006186
    30   Atom       -0.001107      0.005058     -0.003951
    31   Atom       -0.001454      0.003740     -0.002286
    32   Atom       -0.000749      0.003450     -0.002701
    33   Atom       -0.000793      0.003351     -0.002558
    34   Atom       -0.003134      0.006861     -0.003727
    35   Atom       -0.002169      0.004922     -0.002752
    36   Atom       -0.002217      0.004990     -0.002772
    37   Atom       -0.002405      0.004754     -0.002349
    38   Atom        0.006966     -0.003186     -0.003780
    39   Atom        0.004576     -0.002178     -0.002397
    40   Atom        0.005212     -0.002346     -0.002866
    41   Atom        0.004352     -0.002055     -0.002297
    42   Atom        0.007019      0.000676     -0.007696
    43   Atom        0.003454     -0.000256     -0.003198
    44   Atom        0.000876     -0.005362      0.004486
    45   Atom        0.002855     -0.001315     -0.001540
    46   Atom        0.001985     -0.000543     -0.001441
    47   Atom       -0.003280      0.006943     -0.003663
    48   Atom       -0.002606      0.004862     -0.002256
    49   Atom       -0.001811      0.005039     -0.003228
    50   Atom       -0.002645      0.004994     -0.002349
    51   Atom       -0.000807      0.002276     -0.001469
    52   Atom       -0.000479      0.002929     -0.002450
    53   Atom       -0.001459      0.005055     -0.003597
    54   Atom       -0.001805      0.003908     -0.002104
    55   Atom       -0.001085      0.002008     -0.000923
    56   Atom        0.006606     -0.003066     -0.003540
    57   Atom        0.005147     -0.002302     -0.002845
    58   Atom        0.004393     -0.002337     -0.002056
    59   Atom        0.004151     -0.002002     -0.002149
    60   Atom        0.004959     -0.001568     -0.003391
    61   Atom        0.003734     -0.000829     -0.002905
    62   Atom        0.004168     -0.001880     -0.002288
    63   Atom        0.002966     -0.000435     -0.002531
    64   Atom       -0.002720     -0.003398      0.006118
    65   Atom       -0.002337     -0.002131      0.004468
    66   Atom       -0.001525     -0.001831      0.003356
    67   Atom       -0.001345     -0.002524      0.003870
    68   Atom       -0.013563     -0.008176      0.021739
    69   Atom       -0.004684     -0.003983      0.008666
    70   Atom       -0.005214     -0.007803      0.013018
    71   Atom       -0.034318     -0.016300      0.050618
    72   Atom       -0.015641     -0.004625      0.020267
    73   Atom       -0.098052     -0.119597      0.217649
    74   Atom       -0.013599     -0.015443      0.029042
    75   Atom       -0.004271     -0.001943      0.006214
    76   Atom        0.004007     -0.007360      0.003353
    77   Atom        0.002050     -0.005795      0.003745
    78   Atom        0.002417     -0.003418      0.001001
    79   Atom        0.012510     -0.010434     -0.002075
    80   Atom       -0.007097     -0.007925      0.015022
    81   Atom       -0.007340      0.000820      0.006520
    82   Atom       -0.005816     -0.004188      0.010004
    83   Atom       -0.163272     -0.130625      0.293896
    84   Atom       -0.010177     -0.014581      0.024758
    85   Atom       -0.001046     -0.014048      0.015095
    86   Atom       -0.007136     -0.007983      0.015119
    87   Atom       -0.005348     -0.007267      0.012615
 --------------------------------------------------------
                        XY            XZ            YZ
 --------------------------------------------------------
     1   Atom        0.873383     -0.102044     -0.447139
     2   Atom       -0.044212     -0.003063      0.017059
     3   Atom        0.041283     -0.005364      0.008848
     4   Atom       -0.041371      0.004572      0.013871
     5   Atom        0.038539     -0.020944     -0.007686
     6   Atom        0.023589     -0.001889      0.011910
     7   Atom       -0.000968      0.001128     -0.002752
     8   Atom       -0.005442      0.000408      0.008661
     9   Atom       -0.033331     -0.001036     -0.000518
    10   Atom       -0.022504      0.001006     -0.001640
    11   Atom        0.001210      0.003314     -0.006283
    12   Atom        0.006162     -0.000488      0.003355
    13   Atom        0.032920     -0.002071     -0.010982
    14   Atom        0.023013     -0.018691     -0.005363
    15   Atom       -0.000873      0.008612     -0.002158
    16   Atom       -0.004707     -0.010823      0.003760
    17   Atom       -0.032725      0.000736      0.006936
    18   Atom       -0.022967     -0.009438      0.002077
    19   Atom        0.000939     -0.005005      0.006251
    20   Atom        0.005527      0.000892     -0.004417
    21   Atom        0.033851     -0.007100      0.011684
    22   Atom        0.022009     -0.000382     -0.001930
    23   Atom        0.010051     -0.000232     -0.000430
    24   Atom       -0.020218      0.000587     -0.002317
    25   Atom       -0.008159     -0.000043     -0.000069
    26   Atom        0.022085     -0.003075     -0.003006
    27   Atom        0.009852     -0.001734     -0.002150
    28   Atom       -0.020118     -0.019585      0.003321
    29   Atom       -0.007762     -0.002578      0.001553
    30   Atom       -0.004432     -0.000282      0.000552
    31   Atom       -0.001911     -0.000116      0.000342
    32   Atom       -0.003618      0.000430     -0.000714
    33   Atom       -0.003690     -0.000858      0.001420
    34   Atom        0.002500      0.000126      0.000438
    35   Atom        0.002588      0.000634      0.001652
    36   Atom        0.002269     -0.000369     -0.000989
    37   Atom        0.000302      0.000012      0.000486
    38   Atom       -0.002115      0.000284     -0.000347
    39   Atom       -0.001583     -0.000976      0.000270
    40   Atom       -0.002596      0.001223     -0.000438
    41   Atom       -0.000218      0.000447     -0.000067
    42   Atom        0.005145     -0.004052      0.000855
    43   Atom        0.004447     -0.000109     -0.000045
    44   Atom       -0.000066      0.004654     -0.004103
    45   Atom        0.000423     -0.000972      0.000172
    46   Atom        0.002014     -0.000222     -0.000340
    47   Atom        0.002581     -0.000070     -0.000637
    48   Atom        0.001582     -0.000381     -0.001807
    49   Atom        0.003187      0.000154      0.000354
    50   Atom        0.000564      0.000004      0.000424
    51   Atom       -0.002239      0.003612      0.003754
    52   Atom       -0.003627     -0.001172      0.001708
    53   Atom       -0.008378     -0.008020     -0.007482
    54   Atom       -0.001971      0.000734     -0.000587
    55   Atom       -0.000864     -0.000029     -0.000528
    56   Atom       -0.002333     -0.001602      0.000387
    57   Atom       -0.002336     -0.000046     -0.000036
    58   Atom       -0.002027     -0.002276      0.000666
    59   Atom       -0.000353     -0.000912      0.000070
    60   Atom        0.004617     -0.000887     -0.000510
    61   Atom        0.003912      0.000652      0.000532
    62   Atom        0.001858     -0.000721     -0.000215
    63   Atom        0.003789     -0.001588     -0.001139
    64   Atom        0.001067      0.003774      0.002599
    65   Atom        0.000292      0.001176      0.001897
    66   Atom        0.001547      0.003276      0.002866
    67   Atom        0.000177      0.002900      0.000528
    68   Atom        0.005616      0.004033     -0.002866
    69   Atom        0.000127      0.000392     -0.002574
    70   Atom       -0.003083      0.005470      0.002761
    71   Atom        0.026022     -0.003556     -0.024134
    72   Atom        0.006888     -0.011920     -0.024106
    73   Atom       -0.016597      0.057609      0.006560
    74   Atom        0.019870      0.026861      0.018709
    75   Atom        0.014994      0.018335      0.019481
    76   Atom       -0.002880      0.011132     -0.002365
    77   Atom        0.000442      0.008339      0.000605
    78   Atom       -0.002782      0.006115     -0.002424
    79   Atom       -0.002474      0.013645     -0.001451
    80   Atom       -0.004320      0.012980     -0.009708
    81   Atom       -0.012207      0.014026     -0.019134
    82   Atom       -0.002428      0.005543     -0.006588
    83   Atom        0.016980      0.060967      0.097954
    84   Atom       -0.000156     -0.011901     -0.002354
    85   Atom       -0.002019     -0.019016      0.003704
    86   Atom        0.006916     -0.014153     -0.014082
    87   Atom        0.000700     -0.005233     -0.001568
 --------------------------------------------------------


 ---------------------------------------------------------------------------------
              Anisotropic Spin Dipole Couplings in Principal Axis System
 ---------------------------------------------------------------------------------

       Atom             a.u.   MegaHertz   Gauss  10(-4) cm-1        Axes

              Baa    -1.0782   -18.667    -6.661    -6.227 -0.1837  0.2256  0.9567
     1 Fe(57) Bbb    -0.8422   -14.581    -5.203    -4.864  0.9236 -0.2936  0.2466
              Bcc     1.9204    33.248    11.864    11.090  0.3365  0.9289 -0.1544
 
              Baa    -0.1259    -4.854    -1.732    -1.619  0.9915  0.1268  0.0292
     2 N(14)  Bbb    -0.0968    -3.733    -1.332    -1.245 -0.0220 -0.0575  0.9981
              Bcc     0.2227     8.587     3.064     2.864 -0.1282  0.9903  0.0543
 
              Baa    -0.1279    -4.933    -1.760    -1.646 -0.1267  0.9753 -0.1811
     3 N(14)  Bbb    -0.0748    -2.887    -1.030    -0.963 -0.0082  0.1816  0.9833
              Bcc     0.2028     7.820     2.790     2.608  0.9919  0.1261 -0.0151
 
              Baa    -0.1216    -4.691    -1.674    -1.565  0.9312  0.1273 -0.3416
     4 N(14)  Bbb    -0.1023    -3.944    -1.407    -1.316  0.3440  0.0038  0.9390
              Bcc     0.2239     8.635     3.081     2.880 -0.1208  0.9919  0.0403
 
              Baa    -0.1319    -5.088    -1.815    -1.697 -0.1069  0.9892  0.0999
     5 N(14)  Bbb    -0.0793    -3.059    -1.092    -1.020  0.0854 -0.0910  0.9922
[...]
 
              Baa    -0.0500    -6.712    -2.395    -2.239  0.2586  0.0287  0.9656
    28 C(13)  Bbb     0.0040     0.536     0.191     0.179  0.5824  0.7928 -0.1795
              Bcc     0.0460     6.176     2.204     2.060  0.7706 -0.6088 -0.1883
 
              Baa    -0.0068    -3.604    -1.286    -1.202  0.2431  0.0487  0.9688
    29 H(1)   Bbb    -0.0049    -2.588    -0.924    -0.863  0.5754  0.7968 -0.1844
              Bcc     0.0116     6.192     2.210     2.066  0.7809 -0.6022 -0.1657
 
              Baa    -0.0040    -0.535    -0.191    -0.178  0.0161 -0.0531  0.9985
    30 C(13)  Bbb    -0.0034    -0.459    -0.164    -0.153  0.8865  0.4626  0.0103
              Bcc     0.0074     0.994     0.355     0.332 -0.4624  0.8850  0.0545
 
              Baa    -0.0023    -1.230    -0.439    -0.410  0.0305 -0.0468  0.9984
    31 H(1)   Bbb    -0.0021    -1.110    -0.396    -0.370  0.9498  0.3126 -0.0144
              Bcc     0.0044     2.340     0.835     0.781 -0.3115  0.9487  0.0540
 
              Baa    -0.0028    -1.514    -0.540    -0.505  0.8443  0.4534 -0.2856
    32 H(1)   Bbb    -0.0028    -1.483    -0.529    -0.495  0.2010  0.2260  0.9532
              Bcc     0.0056     2.997     1.069     1.000 -0.4967  0.8622 -0.0997
 
              Baa    -0.0030    -1.579    -0.564    -0.527  0.8533  0.4338  0.2892
    33 H(1)   Bbb    -0.0029    -1.536    -0.548    -0.512 -0.1607 -0.3088  0.9374
              Bcc     0.0058     3.115     1.112     1.039 -0.4960  0.8464  0.1938
 
              Baa    -0.0038    -0.504    -0.180    -0.168 -0.5219  0.0878  0.8485
    34 C(13)  Bbb    -0.0037    -0.498    -0.178    -0.166  0.8215 -0.2161  0.5276
              Bcc     0.0075     1.002     0.358     0.334  0.2297  0.9724  0.0406
 
              Baa    -0.0032    -1.685    -0.601    -0.562 -0.5465  0.0038  0.8375
    35 H(1)   Bbb    -0.0030    -1.579    -0.563    -0.527  0.7796 -0.3629  0.5104
              Bcc     0.0061     3.264     1.165     1.089  0.3059  0.9318  0.1954
 
              Baa    -0.0030    -1.584    -0.565    -0.528  0.6395 -0.0874  0.7638
    36 H(1)   Bbb    -0.0028    -1.497    -0.534    -0.499  0.7174 -0.2892 -0.6338
              Bcc     0.0058     3.081     1.099     1.028  0.2763  0.9533 -0.1223
 
              Baa    -0.0024    -1.291    -0.461    -0.431  0.9749 -0.0557  0.2156
    37 H(1)   Bbb    -0.0024    -1.270    -0.453    -0.424 -0.2187 -0.0571  0.9741
              Bcc     0.0048     2.561     0.914     0.854  0.0419  0.9968  0.0679
 
              Baa    -0.0040    -0.537    -0.191    -0.179  0.0914  0.5827  0.8076
    38 C(13)  Bbb    -0.0034    -0.456    -0.163    -0.152  0.1770  0.7885 -0.5890
              Bcc     0.0074     0.993     0.354     0.331  0.9800 -0.1968  0.0310
 
              Baa    -0.0026    -1.378    -0.492    -0.460 -0.0573 -0.6988  0.7130
    39 H(1)   Bbb    -0.0025    -1.324    -0.473    -0.442  0.2481  0.6818  0.6882
              Bcc     0.0051     2.703     0.964     0.902  0.9670 -0.2163 -0.1344
 
              Baa    -0.0032    -1.695    -0.605    -0.565  0.2162  0.8888  0.4041
    40 H(1)   Bbb    -0.0030    -1.615    -0.576    -0.539 -0.2448 -0.3513  0.9037
              Bcc     0.0062     3.310     1.181     1.104  0.9452 -0.2943  0.1416
 
              Baa    -0.0023    -1.247    -0.445    -0.416 -0.0596  0.1855  0.9808
    41 H(1)   Bbb    -0.0021    -1.095    -0.391    -0.365  0.0462  0.9820 -0.1830
              Bcc     0.0044     2.342     0.836     0.781  0.9972 -0.0344  0.0671
 
              Baa    -0.0093    -1.242    -0.443    -0.414  0.3047 -0.2373  0.9224
    42 C(13)  Bbb    -0.0012    -0.160    -0.057    -0.053 -0.3706  0.8626  0.3443
              Bcc     0.0104     1.402     0.500     0.468  0.8774  0.4467 -0.1749
 
              Baa    -0.0032    -1.726    -0.616    -0.576 -0.4706  0.6945 -0.5443
    43 H(1)   Bbb    -0.0032    -1.699    -0.606    -0.567 -0.2934  0.4586  0.8388
              Bcc     0.0064     3.425     1.222     1.142  0.8321  0.5545 -0.0120
 
              Baa    -0.0072    -0.966    -0.345    -0.322 -0.2239  0.8883  0.4011
    44 C(13)  Bbb    -0.0013    -0.181    -0.064    -0.060  0.8340  0.3876 -0.3928
              Bcc     0.0085     1.147     0.409     0.382  0.5043 -0.2466  0.8276
 
              Baa    -0.0019    -0.997    -0.356    -0.333  0.2186 -0.4370  0.8725
    45 H(1)   Bbb    -0.0012    -0.653    -0.233    -0.218  0.0131  0.8954  0.4451
              Bcc     0.0031     1.650     0.589     0.550  0.9757  0.0859 -0.2015
 
              Baa    -0.0018    -0.947    -0.338    -0.316 -0.3771  0.7620  0.5264
    46 H(1)   Bbb    -0.0014    -0.721    -0.257    -0.241  0.3151 -0.4289  0.8466
              Bcc     0.0031     1.668     0.595     0.556  0.8709  0.4852 -0.0784
 
              Baa    -0.0039    -0.526    -0.188    -0.176  0.9125 -0.2363 -0.3340
    47 C(13)  Bbb    -0.0037    -0.493    -0.176    -0.164  0.3378 -0.0257  0.9409
              Bcc     0.0076     1.019     0.364     0.340  0.2309  0.9713 -0.0564
 
              Baa    -0.0029    -1.562    -0.557    -0.521  0.9809 -0.1865  0.0549
    48 H(1)   Bbb    -0.0027    -1.435    -0.512    -0.479 -0.0098  0.2346  0.9720
              Bcc     0.0056     2.997     1.069     1.000  0.1941  0.9540 -0.2283
 
              Baa    -0.0032    -1.731    -0.618    -0.577 -0.0824 -0.0110  0.9965
    49 H(1)   Bbb    -0.0031    -1.634    -0.583    -0.545  0.9271 -0.3678  0.0726
              Bcc     0.0063     3.366     1.201     1.123  0.3657  0.9298  0.0405
 
              Baa    -0.0027    -1.434    -0.512    -0.478  0.9934 -0.0776  0.0843
    50 H(1)   Bbb    -0.0024    -1.265    -0.451    -0.422 -0.0884 -0.0504  0.9948
              Bcc     0.0051     2.700     0.963     0.901  0.0729  0.9957  0.0570
 
              Baa    -0.0068    -0.913    -0.326    -0.305 -0.5783 -0.4294  0.6937
    51 C(13)  Bbb     0.0022     0.296     0.106     0.099  0.8158 -0.3030  0.4925
              Bcc     0.0046     0.617     0.220     0.206 -0.0013  0.8507  0.5256
 
              Baa    -0.0030    -1.599    -0.570    -0.533  0.3922 -0.0251  0.9195
    52 H(1)   Bbb    -0.0028    -1.472    -0.525    -0.491  0.7577  0.5756 -0.3075
              Bcc     0.0058     3.070     1.096     1.024 -0.5215  0.8174  0.2447
 
              Baa    -0.0164    -2.204    -0.787    -0.735  0.6057  0.4619  0.6479
    53 C(13)  Bbb     0.0053     0.713     0.254     0.238 -0.6524 -0.1780  0.7367
              Bcc     0.0111     1.491     0.532     0.497 -0.4556  0.8689 -0.1935
 
              Baa    -0.0028    -1.516    -0.541    -0.506  0.7625  0.1683 -0.6248
    54 H(1)   Bbb    -0.0018    -0.946    -0.337    -0.315  0.5713  0.2781  0.7722
              Bcc     0.0046     2.461     0.878     0.821 -0.3037  0.9457 -0.1159
 
              Baa    -0.0014    -0.735    -0.262    -0.245  0.8778  0.2841  0.3857
    55 H(1)   Bbb    -0.0009    -0.498    -0.178    -0.166 -0.4132  0.0418  0.9097
              Bcc     0.0023     1.233     0.440     0.411 -0.2423  0.9579 -0.1541
 
              Baa    -0.0038    -0.509    -0.182    -0.170  0.1208 -0.1367  0.9832
    56 C(13)  Bbb    -0.0036    -0.483    -0.172    -0.161  0.2373  0.9657  0.1051
              Bcc     0.0074     0.991     0.354     0.331  0.9639 -0.2206 -0.1491
 
              Baa    -0.0030    -1.595    -0.569    -0.532  0.2637  0.9123  0.3132
    57 H(1)   Bbb    -0.0028    -1.510    -0.539    -0.504 -0.0829 -0.3021  0.9497
              Bcc     0.0058     3.105     1.108     1.036  0.9610 -0.2764 -0.0040
 
              Baa    -0.0029    -1.552    -0.554    -0.518  0.1931  0.9538 -0.2301
    58 H(1)   Bbb    -0.0028    -1.480    -0.528    -0.494  0.3386  0.1554  0.9280
              Bcc     0.0057     3.032     1.082     1.011  0.9209 -0.2571 -0.2929
 
              Baa    -0.0023    -1.217    -0.434    -0.406  0.1360 -0.0752  0.9879
    59 H(1)   Bbb    -0.0020    -1.078    -0.385    -0.360  0.0667  0.9955  0.0666
              Bcc     0.0043     2.295     0.819     0.766  0.9885 -0.0568 -0.1404
 
              Baa    -0.0040    -0.532    -0.190    -0.177 -0.4502  0.8880  0.0938
    60 C(13)  Bbb    -0.0035    -0.467    -0.167    -0.156  0.1264 -0.0406  0.9912
              Bcc     0.0074     0.999     0.357     0.333  0.8839  0.4581 -0.0939
 
              Baa    -0.0032    -1.693    -0.604    -0.565 -0.3610  0.7334 -0.5761
    61 H(1)   Bbb    -0.0029    -1.540    -0.549    -0.514 -0.3541  0.4637  0.8122
              Bcc     0.0061     3.232     1.153     1.078  0.8627  0.4972  0.0923
 
              Baa    -0.0024    -1.285    -0.458    -0.429 -0.2364  0.9368  0.2580
    62 H(1)   Bbb    -0.0024    -1.262    -0.450    -0.421  0.1690 -0.2218  0.9603
              Bcc     0.0048     2.547     0.909     0.849  0.9568  0.2707 -0.1059
 
              Baa    -0.0030    -1.622    -0.579    -0.541 -0.1177  0.5367  0.8355
    63 H(1)   Bbb    -0.0028    -1.512    -0.539    -0.504 -0.5654  0.6555 -0.5007
              Bcc     0.0059     3.133     1.118     1.045  0.8164  0.5313 -0.2263
 
              Baa    -0.0042    -0.563    -0.201    -0.188  0.7697 -0.6263 -0.1238
    64 C(13)  Bbb    -0.0040    -0.536    -0.191    -0.179  0.5415  0.7432 -0.3930
              Bcc     0.0082     1.099     0.392     0.367  0.3382  0.2355  0.9112
 
              Baa    -0.0026    -1.409    -0.503    -0.470  0.1907  0.9402 -0.2824
    65 H(1)   Bbb    -0.0025    -1.349    -0.481    -0.450  0.9686 -0.2269 -0.1013
              Bcc     0.0052     2.758     0.984     0.920  0.1593  0.2542  0.9539
 
              Baa    -0.0032    -1.731    -0.618    -0.577  0.7947 -0.5912 -0.1377
    66 H(1)   Bbb    -0.0031    -1.633    -0.583    -0.545  0.4383  0.7158 -0.5436
              Bcc     0.0063     3.363     1.200     1.122  0.4200  0.3716  0.8280
 
              Baa    -0.0027    -1.422    -0.507    -0.474  0.7953  0.4638 -0.3904
    67 H(1)   Bbb    -0.0025    -1.353    -0.483    -0.451 -0.4506  0.8831  0.1311
              Bcc     0.0052     2.775     0.990     0.926  0.4055  0.0716  0.9113
 
              Baa    -0.0177    -0.683    -0.244    -0.228  0.8383 -0.5308 -0.1242
    68 N(14)  Bbb    -0.0046    -0.179    -0.064    -0.060  0.5360  0.8442  0.0098
              Bcc     0.0224     0.862     0.308     0.288  0.0997 -0.0748  0.9922
 
              Baa    -0.0048    -2.569    -0.917    -0.857  0.8541 -0.5058 -0.1214
    69 H(1)   Bbb    -0.0044    -2.329    -0.831    -0.777  0.5195  0.8411  0.1505
              Bcc     0.0092     4.898     1.748     1.634  0.0260 -0.1916  0.9811
 
              Baa    -0.0111    -1.488    -0.531    -0.496  0.6089  0.7606 -0.2253
    70 C(13)  Bbb    -0.0036    -0.483    -0.172    -0.161  0.7522 -0.6438 -0.1406
              Bcc     0.0147     1.971     0.703     0.657  0.2520  0.0838  0.9641
 
              Baa    -0.0541    -7.263    -2.592    -2.423  0.7829 -0.6116 -0.1143
    71 C(13)  Bbb    -0.0058    -0.774    -0.276    -0.258  0.6087  0.7148  0.3443
              Bcc     0.0599     8.037     2.868     2.681 -0.1289 -0.3392  0.9319
 
              Baa    -0.0195   -10.429    -3.721    -3.479  0.5901  0.6001  0.5401
    72 H(1)   Bbb    -0.0189   -10.088    -3.599    -3.365  0.7688 -0.6220 -0.1488
              Bcc     0.0385    20.516     7.321     6.843 -0.2466 -0.5030  0.8284
 
              Baa    -0.1323    -5.103    -1.821    -1.702  0.5770  0.8092 -0.1102
    73 N(14)  Bbb    -0.0955    -3.685    -1.315    -1.229  0.7981 -0.5874 -0.1345
              Bcc     0.2279     8.788     3.136     2.932  0.1735  0.0103  0.9848
 
              Baa    -0.0351    -4.706    -1.679    -1.570  0.7558 -0.6419 -0.1294
    74 C(13)  Bbb    -0.0168    -2.251    -0.803    -0.751  0.4797  0.6773 -0.5578
              Bcc     0.0518     6.957     2.483     2.321  0.4456  0.3595  0.8198
 
              Baa    -0.0182    -9.721    -3.469    -3.243  0.8526 -0.4299 -0.2971
    75 H(1)   Bbb    -0.0178    -9.475    -3.381    -3.160  0.1257  0.7206 -0.6818
              Bcc     0.0360    19.196     6.850     6.403  0.5072  0.5440  0.6685
 
              Baa    -0.0081    -1.088    -0.388    -0.363  0.3996  0.8938 -0.2037
    76 C(13)  Bbb    -0.0073    -0.981    -0.350    -0.327 -0.5804  0.4187  0.6985
              Bcc     0.0154     2.069     0.738     0.690  0.7096 -0.1609  0.6860
 
              Baa    -0.0058    -3.118    -1.113    -1.040  0.1269  0.9769 -0.1719
    77 H(1)   Bbb    -0.0055    -2.917    -1.041    -0.973  0.7318 -0.2092 -0.6486
              Bcc     0.0113     6.035     2.154     2.013  0.6696  0.0435  0.7414
 
              Baa    -0.0045    -2.420    -0.863    -0.807  0.4627  0.8773 -0.1270
    78 H(1)   Bbb    -0.0044    -2.363    -0.843    -0.788 -0.5225  0.3856  0.7605
              Bcc     0.0090     4.783     1.707     1.595  0.7162 -0.2856  0.6368
 
              Baa    -0.0107    -5.708    -2.037    -1.904  0.1097  0.9939 -0.0064
    79 H(1)   Bbb    -0.0103    -5.470    -1.952    -1.825 -0.5082  0.0617  0.8590
              Bcc     0.0210    11.179     3.989     3.729  0.8542 -0.0910  0.5119
 
              Baa    -0.0131    -1.758    -0.627    -0.586  0.8945 -0.0788 -0.4401
    80 C(13)  Bbb    -0.0114    -1.529    -0.546    -0.510  0.2051  0.9470  0.2472
              Bcc     0.0245     3.287     1.173     1.097  0.3972 -0.3114  0.8633
 
              Baa    -0.0162    -8.631    -3.080    -2.879  0.8924  0.3945 -0.2189
    81 H(1)   Bbb    -0.0157    -8.357    -2.982    -2.788 -0.1405  0.7041  0.6961
              Bcc     0.0318    16.988     6.062     5.667  0.4287 -0.5905  0.6837
 
              Baa    -0.0077    -4.098    -1.462    -1.367  0.9301  0.3254 -0.1703
    82 H(1)   Bbb    -0.0067    -3.585    -1.279    -1.196 -0.2297  0.8772  0.4217
              Bcc     0.0144     7.683     2.742     2.563  0.2866 -0.3531  0.8906
 
              Baa    -0.1721    -7.055    -2.517    -2.353  0.9770 -0.1950 -0.0868
    83 S(33)  Bbb    -0.1515    -6.213    -2.217    -2.072  0.1703  0.9573 -0.2338
              Bcc     0.3236    13.268     4.734     4.426  0.1287  0.2136  0.9684
 
              Baa    -0.0152    -2.041    -0.728    -0.681  0.4885  0.8503  0.1955
    84 C(13)  Bbb    -0.0133    -1.788    -0.638    -0.597  0.8218 -0.5237  0.2244
              Bcc     0.0285     3.830     1.367     1.277 -0.2933 -0.0511  0.9547
 
              Baa    -0.0146    -7.790    -2.780    -2.599 -0.2387  0.9330 -0.2692
    85 H(1)   Bbb    -0.0135    -7.203    -2.570    -2.403  0.8013  0.3459  0.4881
              Bcc     0.0281    14.993     5.350     5.001 -0.5485  0.0992  0.8302
 
              Baa    -0.0147    -7.842    -2.798    -2.616 -0.2519  0.9158  0.3129
    86 H(1)   Bbb    -0.0140    -7.473    -2.667    -2.493  0.8801  0.0824  0.4675
              Bcc     0.0287    15.315     5.465     5.109 -0.4023 -0.3932  0.8267
 
              Baa    -0.0075    -4.000    -1.427    -1.334 -0.3474  0.9376 -0.0173
    87 H(1)   Bbb    -0.0067    -3.556    -1.269    -1.186  0.9007  0.3387  0.2720
              Bcc     0.0142     7.557     2.696     2.521 -0.2609 -0.0789  0.9621
 

 ---------------------------------------------------------------------------------

 Unable to Open any file for archive entry.
 1\1\GINC-BGN1024\SP\UAPFD\Gen\C37H42Fe1N6S1(5)\BEBJONES\26-Sep-2024\0\
 \# apfd/gen scf=maxcycle=999 geom=check\\1rap_II_Q\\0,5\Fe,0,2.6753841
 24,20.7814977248,13.135260255\N,0,4.1343562409,19.7166466868,12.269641
 1448\N,0,2.072161901,21.3868018028,11.3247517956\N,0,1.2929162334,21.9
 173565494,14.0034359671\N,0,3.4280311319,20.2910100193,14.9208586483\C
 ,0,4.9147712293,18.7786917804,12.8646058639\C,0,5.6836789989,18.047500
 5604,11.8830140995\C,0,5.3664188128,18.5862973917,10.676084169\C,0,4.3
 711823827,19.6039480682,10.935583184\C,0,2.7342161323,21.2417613644,10
 .1460493111\C,0,2.0932784385,21.9890157079,9.0977128036\C,0,1.01577851
 26,22.6109078393,9.6720808339\C,0,1.0415789051,22.2348781361,11.072396
 9681\C,0,0.3003041362,22.6099331578,13.3805572045\C,0,-0.4848172394,23
 .3470304033,14.338138135\C,0,0.0370903201,23.0536108043,15.5705370479\
 C,0,1.1540676747,22.1605644049,15.3307443509\C,0,2.9581419893,20.70140
 78444,16.1279113659\C,0,3.6102547037,19.9831474022,17.2008594757\C,0,4
 .4793955894,19.1200644043,16.6080750764\C,0,4.338836456,19.3175476187,
 15.1832056781\C,0,5.0338047543,18.5968558997,14.2296876073\H,0,5.71154
 56617,17.8321689523,14.5770423689\C,0,3.8086066266,20.3906964531,9.950
 3093111\H,0,4.1832021009,20.277756999,8.9444209249\C,0,0.1379480521,22
 .7060258426,12.0079209084\H,0,-0.6912000719,23.2958542487,11.647472783
 2\C,0,1.9497643784,21.6280191393,16.3272952309\H,0,1.7077388898,21.881
 7003405,17.348044483\C,0,5.8680647559,18.2264421296,9.3196570397\H,0,6
 .5984647058,17.4231828666,9.378059061\H,0,6.3421393501,19.0863643402,8
 .8452989152\H,0,5.0469640445,17.8991896694,8.6816836598\C,0,6.63649963
 ,16.9493494771,12.2097506772\H,0,6.1307660558,16.1602152044,12.7657298
 325\H,0,7.458347022,17.3213324047,12.8229584121\H,0,7.0546934401,16.51
 72855591,11.3039046274\C,0,2.593474153,22.1004272044,7.6998904959\H,0,
 2.2543791418,21.256487791,7.0964288615\H,0,3.6821699637,22.1124706632,
 7.6812728686\H,0,2.2252801235,23.0170294442,7.2429869076\C,0,0.0463912
 366,23.4981887351,9.0696892681\H,0,-0.3450228255,24.2754428152,9.71606
 29227\C,0,-0.3915285623,23.4256755498,7.8166529883\H,0,-0.0756313273,2
 2.6483513829,7.1432845642\H,0,-1.1070792103,24.1314346745,7.4284002754
 \C,0,-1.6005759919,24.2747519722,14.0043129752\H,0,-2.5302055537,23.72
 65195398,13.8409154428\H,0,-1.3784642008,24.8361849109,13.0979005277\H
 ,0,-1.7557320061,24.9786834308,14.8194500223\C,0,-0.3645636,23.5379147
 79,16.8727087045\H,0,0.4375972928,23.6772199891,17.5882984075\C,0,-1.6
 127881533,23.8035254694,17.2439698173\H,0,-2.4524384177,23.6380288789,
 16.591530226\H,0,-1.8409458126,24.173981973,18.2296667007\C,0,3.327241
 6851,20.1928823306,18.6488888828\H,0,2.2856980155,19.9604015013,18.873
 1132849\H,0,3.5094055597,21.2304767741,18.9296481639\H,0,3.9592466382,
 19.555644802,19.2626560863\C,0,5.3965183163,18.1246891314,17.231769106
 9\H,0,5.1305750352,17.1137084861,16.9218955571\H,0,5.3430377464,18.175
 1703584,18.3165580003\H,0,6.4275127918,18.3101064086,16.9296484579\C,0
 ,5.0088741984,25.8363043507,12.628556856\H,0,5.3703724902,26.334105610
 7,13.5283393245\H,0,4.0888935417,26.3167819443,12.3106828728\H,0,5.756
 777275,25.9617599679,11.8456175689\N,0,5.7376338011,23.5341813874,13.2
 949284535\H,0,6.7014378791,23.775612919,13.4577976856\C,0,4.7537852613
 ,24.396713418,12.887259291\C,0,5.1790686871,22.3116835831,13.434066987
 1\H,0,5.7121629348,21.4367184556,13.7426178429\N,0,3.9032583819,22.347
 5046911,13.1393563583\C,0,3.622750005,23.6368170759,12.7991256633\H,0,
 2.6344954339,23.9326629952,12.5146420055\C,0,0.6599269857,18.069999907
 7,15.6661268671\H,0,0.8561905797,17.0389168122,15.381840037\H,0,-0.059
 9383225,18.079484023,16.4822787722\H,0,1.5867471628,18.5144165975,16.0
 159443369\C,0,0.1148145689,18.8488808839,14.4851482545\H,0,-0.07876807
 79,19.8857869676,14.7546061871\H,0,-0.7974692949,18.3879647828,14.1066
 995374\S,0,1.3254910741,18.8362647703,13.0991500473\C,0,0.1446856852,1
 9.0530247665,11.7322613356\H,0,0.7299901463,19.1193956563,10.821595653
 9\H,0,-0.417951575,19.9703671921,11.873494704\H,0,-0.5151569295,18.190
 1930475,11.69152462\\Version=ES64L-G16RevC.02\State=5-A\HF=-3424.15513
 58\S2=6.15286\S2-1=0.\S2A=6.000988\RMSD=5.184e-09\Dipole=1.2373011,0.7
 852962,0.1139242\Quadrupole=7.0938162,-2.4572635,-4.6365526,4.6359572,
 1.1387749,-0.5951752\PG=C01 [X(C37H42Fe1N6S1)]\\@
 The archive entry for this job was punched.


 A MAN IS EXACTLY AS GREAT AS THE TIDE SURGING
 BENEATH HIM.      - BISMARCK
 Job cpu time:       0 days  8 hours 19 minutes  1.0 seconds.
 Elapsed time:       0 days  0 hours  8 minutes 33.9 seconds.
 File lengths (MBytes):  RWF=    505 Int=      0 D2E=      0 Chk=    227 Scr=      1
 Normal termination of Gaussian 16 at Thu Sep 26 00:27:18 2024.
