 Entering Gaussian System, Link 0=g16
 Input=1re912re.com
 Output=1re912re.log
 Initial command:
 /sw/chem/gaussian/g16_C02/a100/g16/l1.exe "/local/bebjones_8030167/Gau-2634510.inp" -scrdir="/local/bebjones_8030167/"
 Entering Link 1 = /sw/chem/gaussian/g16_C02/a100/g16/l1.exe PID=   2634511.
  
 Copyright (c) 1988-2021, Gaussian, Inc.  All Rights Reserved.
  
 This is part of the Gaussian(R) 16 program.  It is based on
 the Gaussian(R) 09 system (copyright 2009, Gaussian, Inc.),
 the Gaussian(R) 03 system (copyright 2003, Gaussian, Inc.),
 the Gaussian(R) 98 system (copyright 1998, Gaussian, Inc.),
 the Gaussian(R) 94 system (copyright 1995, Gaussian, Inc.),
 the Gaussian 92(TM) system (copyright 1992, Gaussian, Inc.),
 the Gaussian 90(TM) system (copyright 1990, Gaussian, Inc.),
 the Gaussian 88(TM) system (copyright 1988, Gaussian, Inc.),
 the Gaussian 86(TM) system (copyright 1986, Carnegie Mellon
 University), and the Gaussian 82(TM) system (copyright 1983,
 Carnegie Mellon University). Gaussian is a federally registered
 trademark of Gaussian, Inc.
  
 This software contains proprietary and confidential information,
 including trade secrets, belonging to Gaussian, Inc.
  
 This software is provided under written license and may be
 used, copied, transmitted, or stored only in accord with that
 written license.
  
 The following legend is applicable only to US Government
 contracts under FAR:
  
                    RESTRICTED RIGHTS LEGEND
  
 Use, reproduction and disclosure by the US Government is
 subject to restrictions as set forth in subparagraphs (a)
 and (c) of the Commercial Computer Software - Restricted
 Rights clause in FAR 52.227-19.
  
 Gaussian, Inc.
 340 Quinnipiac St., Bldg. 40, Wallingford CT 06492
  
  
 ---------------------------------------------------------------
 Warning -- This program may not be used in any manner that
 competes with the business of Gaussian, Inc. or will provide
 assistance to any competitor of Gaussian, Inc.  The licensee
 of this program is prohibited from giving any competitor of
 Gaussian, Inc. access to this program.  By using this program,
 the user acknowledges that Gaussian, Inc. is engaged in the
 business of creating and licensing software in the field of
 computational chemistry and represents and warrants to the
 licensee that it is not a competitor of Gaussian, Inc. and that
 it will not use this program in any manner prohibited above.
 ---------------------------------------------------------------
  

 Cite this work as:
 Gaussian 16, Revision C.02,
 M. J. Frisch, G. W. Trucks, H. B. Schlegel, G. E. Scuseria, 
 M. A. Robb, J. R. Cheeseman, G. Scalmani, V. Barone, 
 G. A. Petersson, H. Nakatsuji, X. Li, M. Caricato, A. V. Marenich, 
 J. Bloino, B. G. Janesko, R. Gomperts, B. Mennucci, H. P. Hratchian, 
 J. V. Ortiz, A. F. Izmaylov, J. L. Sonnenberg, D. Williams-Young, 
 F. Ding, F. Lipparini, F. Egidi, J. Goings, B. Peng, A. Petrone, 
 T. Henderson, D. Ranasinghe, V. G. Zakrzewski, J. Gao, N. Rega, 
 G. Zheng, W. Liang, M. Hada, M. Ehara, K. Toyota, R. Fukuda, 
 J. Hasegawa, M. Ishida, T. Nakajima, Y. Honda, O. Kitao, H. Nakai, 
 T. Vreven, K. Throssell, J. A. Montgomery, Jr., J. E. Peralta, 
 F. Ogliaro, M. J. Bearpark, J. J. Heyd, E. N. Brothers, K. N. Kudin, 
 V. N. Staroverov, T. A. Keith, R. Kobayashi, J. Normand, 
 K. Raghavachari, A. P. Rendell, J. C. Burant, S. S. Iyengar, 
 J. Tomasi, M. Cossi, J. M. Millam, M. Klene, C. Adamo, R. Cammi, 
 J. W. Ochterski, R. L. Martin, K. Morokuma, O. Farkas, 
 J. B. Foresman, and D. J. Fox, Gaussian, Inc., Wallingford CT, 2019.
 
 ******************************************
 Gaussian 16:  ES64L-G16RevC.02  7-Dec-2021
                25-Sep-2024 
 ******************************************
 %mem=16GB
 %CPU=0-71
 SetSPE:  set environment variable "OMP_PROC_BIND" = "true"
 SetSPE:  set environment variable "OMP_PLACES" = "{0},{1},{2},{3},{4},{5},{6},{7},{8},{9},{10},{11},{12},{13},{14},{15},{16},{17},{18},{19},{20},{21},{22},{23},{24},{25},{26},{27},{28},{29},{30},{31},{32},{33},{34},{35},{36},{37},{38},{39},{40},{41},{42},{43},{44},{45},{46},{47},{48},{49},{50},{51},{52},{53},{54},{55},{56},{57},{58},{59},{60},{61},{62},{63},{64},{65},{66},{67},{68},{69},{70},{71}"
 Will use up to   72 processors via shared memory.
 %gpucpu=0,1,2,3=0,1,2,3
 Will use    4 GPUs:
 Thread  CPU   GPU
      0    0     0
      1    1     1
      2    2     2
      3    3     3
      4    4    -1
      5    5    -1
      6    6    -1
      7    7    -1
      8    8    -1
      9    9    -1
     10   10    -1
     11   11    -1
     12   12    -1
     13   13    -1
     14   14    -1
     15   15    -1
     16   16    -1
     17   17    -1
     18   18    -1
     19   19    -1
     20   20    -1
     21   21    -1
     22   22    -1
     23   23    -1
     24   24    -1
     25   25    -1
     26   26    -1
     27   27    -1
     28   28    -1
     29   29    -1
     30   30    -1
     31   31    -1
     32   32    -1
     33   33    -1
     34   34    -1
     35   35    -1
     36   36    -1
     37   37    -1
     38   38    -1
     39   39    -1
     40   40    -1
     41   41    -1
     42   42    -1
     43   43    -1
     44   44    -1
     45   45    -1
     46   46    -1
     47   47    -1
     48   48    -1
     49   49    -1
     50   50    -1
     51   51    -1
     52   52    -1
     53   53    -1
     54   54    -1
     55   55    -1
     56   56    -1
     57   57    -1
     58   58    -1
     59   59    -1
     60   60    -1
     61   61    -1
     62   62    -1
     63   63    -1
     64   64    -1
     65   65    -1
     66   66    -1
     67   67    -1
     68   68    -1
     69   69    -1
     70   70    -1
     71   71    -1
 SetGPE:  set environment variable "OMP_PROC_BIND" = "true"
 SetGPE:  set environment variable "OMP_PLACES" = "{0},{1},{2},{3},{4},{5},{6},{7},{8},{9},{10},{11},{12},{13},{14},{15},{16},{17},{18},{19},{20},{21},{22},{23},{24},{25},{26},{27},{28},{29},{30},{31},{32},{33},{34},{35},{36},{37},{38},{39},{40},{41},{42},{43},{44},{45},{46},{47},{48},{49},{50},{51},{52},{53},{54},{55},{56},{57},{58},{59},{60},{61},{62},{63},{64},{65},{66},{67},{68},{69},{70},{71}"
 %oldchk=1re9_II_S.chk
 %chk=1re9_II_Sre.chk
 Properties for Device   0
 Minimum vector length:                              32
 Maximum vector length:                            1024
 Number of SMPs:                                    108
 Maximum number of threads per SMP:                2048
 Number of ASync Engines:                             5
 Memory:                                           9207742464
 Properties for Device   1
 Minimum vector length:                              32
 Maximum vector length:                            1024
 Number of SMPs:                                    108
 Maximum number of threads per SMP:                2048
 Number of ASync Engines:                             5
 Memory:                                           9207742464
 Properties for Device   2
 Minimum vector length:                              32
 Maximum vector length:                            1024
 Number of SMPs:                                    108
 Maximum number of threads per SMP:                2048
 Number of ASync Engines:                             5
 Memory:                                           9207742464
 Properties for Device   3
 Minimum vector length:                              32
 Maximum vector length:                            1024
 Number of SMPs:                                    108
 Maximum number of threads per SMP:                2048
 Number of ASync Engines:                             5
 Memory:                                           9207742464
   8286968217 words of memory will be used on each GPU.
 Copying data from "1re9_II_S.chk" to current chk file "1re9_II_Sre.chk"
 IOpt=  2 FromEx=T IUOpen= 4 IOptOp= 5 NList=   0 IFRang= 0 IUIn= 4 IUOut= 2.
 --------------------------------------
 # apfd/gen scf=maxcycle=999 geom=check
 --------------------------------------
 1/29=2,38=1,172=1/1;
 2/12=2,40=1/2;
 3/5=7,11=2,14=-4,25=1,30=1,74=-44/1,2,3;
 4//1;
 5/5=2,7=999,38=5/2;
 6/7=2,8=2,9=2,10=2,28=1/1;
 99/5=1,9=1/99;
 ----------
 1re9_III_D
 ----------
 Structure from the checkpoint file:  "1re9_II_Sre.chk"
 Charge =  1 Multiplicity = 2
 Z-Matrix found in chk file.
 Fe,0,33.3575320373,22.1767773883,27.7080887201
 N,0,31.6126017506,21.6387590343,26.895892256
 N,0,32.3592738824,23.1218874769,29.1730876381
 N,0,35.0575301983,23.0221034917,28.3215645226
 N,0,34.277703857,21.6362451541,26.0082441328
 C,0,31.4355129792,20.8730576014,25.7830632484
 C,0,30.0418986567,20.5360062917,25.6040630263
 C,0,29.3690617644,21.1417615526,26.6188216015
 C,0,30.3687518847,21.7919705992,27.4355062657
 C,0,31.0273280039,23.0142978052,29.4543868941
 C,0,30.7184612687,23.592287333,30.7350619525
 C,0,31.9084512808,24.0262087365,31.2571660385
 C,0,32.916147852,23.716571199,30.2651483319
 C,0,35.2405243301,23.7060220035,29.4878599421
 C,0,36.6319253499,24.0229584727,29.6808854892
 C,0,37.263778336,23.686656587,28.5148996054
 C,0,36.2647467054,23.0279690925,27.6962375787
 C,0,35.6049972996,21.745460372,25.7218520846
 C,0,35.9389370945,21.0144168071,24.5203393701
 C,0,34.7889579502,20.4208018554,24.1044943877
 C,0,33.7728939075,20.7941476592,25.0620330613
 C,0,32.4399476904,20.4581598352,24.9307164929
 H,0,32.1633581007,19.8188638464,24.1067954148
 C,0,30.0864514285,22.4293388589,28.6259256273
 H,0,29.0579761531,22.4407211734,28.9517831231
 C,0,34.2619167945,23.9785555963,30.4244312566
 H,0,34.572625738,24.4624820759,31.3372336373
 C,0,36.5399215027,22.3982919511,26.4991190337
 H,0,37.5628121962,22.4021386771,26.1580802556
 C,0,27.9092331199,21.1473165315,26.9149123122
 H,0,27.7062753642,20.6630445304,27.8708029502
 H,0,27.3569446802,20.6205393197,26.1409988593
 H,0,27.5356074157,22.1696912607,26.9675981155
 C,0,29.5147050406,19.7133986556,24.479845822
 H,0,29.9682220237,18.721979855,24.4854145673
 H,0,29.7400946015,20.1835334833,23.5226614737
 H,0,28.4367804247,19.5966477079,24.5592701968
 C,0,29.3510479841,23.7279566736,31.3064255321
 H,0,29.0243724041,22.7928988893,31.7646324716
 H,0,28.6345400406,23.9916875511,30.5300240905
 H,0,29.3416056304,24.5052692615,32.0673744463
 C,0,32.1674348745,24.6945832013,32.513890772
 H,0,32.9608200993,25.4324799594,32.4962819006
 C,0,31.5221392876,24.4663757265,33.6527416496
 H,0,30.7574672017,23.7138823253,33.7381203159
 H,0,31.7565192775,25.0123882651,34.5512251938
 C,0,37.1927018006,24.7239277236,30.8684589941
 H,0,36.9169389449,24.2034774432,31.7855014249
 H,0,36.8114301026,25.7438762832,30.9298666238
 H,0,38.2768194783,24.7708975719,30.8059503102
 C,0,38.6573461564,23.9011839856,28.1835241206
 H,0,39.3535262361,23.7744639508,29.0053263039
 C,0,39.117307951,24.2770813549,26.9959476987
 H,0,38.4603530535,24.4714171034,26.1651419049
 H,0,40.1690754335,24.4312047354,26.821503728
 C,0,37.2990758296,20.9716860116,23.9158539637
 H,0,38.004896076,20.4980668354,24.598552893
 H,0,37.6564822028,21.9794571739,23.7061809026
 H,0,37.2911534168,20.4095780523,22.9853995576
 C,0,34.5496692443,19.5450763808,22.9235006064
 H,0,34.1464946703,18.5816454946,23.2353761173
 H,0,35.4746423256,19.3697751999,22.3802550614
 H,0,33.8342866929,20.0078147395,22.2431762809
 C,0,32.3732209337,19.0403779769,28.5981407441
 H,0,32.4927671039,18.6863247084,27.5792901328
 H,0,31.4155375537,19.5385183876,28.7044752649
 H,0,32.4685170792,18.2153019709,29.2970408599
 S,0,33.7316723886,20.2336991591,28.8925400461
 H,0,33.3152498621,20.5745560327,30.1209948021
 Recover connectivity data from disk.
 Stoichiometry    C31H32FeN4S(1+,2)
 Framework group  C1[X(C31H32FeN4S)]
 Deg. of freedom   201
 Full point group                 C1      NOp   1
 Largest Abelian subgroup         C1      NOp   1
 Largest concise Abelian subgroup C1      NOp   1
                         Standard orientation:                         
 ---------------------------------------------------------------------
 Center     Atomic      Atomic             Coordinates (Angstroms)
 Number     Number       Type             X           Y           Z
 ---------------------------------------------------------------------
      1         26           0       -0.054238    0.111277   -0.089939
      2          7           0        0.657263    1.954749   -0.388745
      3          7           0        1.790115   -0.625841   -0.391586
      4          7           0       -0.803553   -1.736651   -0.157872
      5          7           0       -1.917166    0.838071   -0.262087
      6          6           0       -0.045381    3.119515   -0.313523
      7          6           0        0.835603    4.261255   -0.403533
      8          6           0        2.090512    3.763409   -0.567046
      9          6           0        1.964498    2.324422   -0.516405
     10          6           0        2.955235    0.084683   -0.440959
     11          6           0        4.098198   -0.786565   -0.376444
     12          6           0        3.604615   -2.057807   -0.245010
     13          6           0        2.162822   -1.928956   -0.252528
     14          6           0       -0.085906   -2.896824   -0.136473
     15          6           0       -0.959878   -4.035687   -0.023036
     16          6           0       -2.232213   -3.554704   -0.170275
     17          6           0       -2.109427   -2.110714   -0.214530
     18          6           0       -3.081701    0.132714   -0.217530
     19          6           0       -4.220375    1.016507   -0.108421
     20          6           0       -3.717841    2.277901   -0.044364
     21          6           0       -2.280361    2.143467   -0.109425
     22          6           0       -1.414921    3.218103   -0.164638
     23          1           0       -1.837887    4.206831   -0.077678
     24          6           0        3.040782    1.461832   -0.540528
     25          1           0        4.025548    1.897699   -0.606335
     26          6           0        1.292417   -2.991714   -0.118212
     27          1           0        1.718570   -3.978254   -0.022994
     28          6           0       -3.183212   -1.243462   -0.201670
     29          1           0       -4.170683   -1.674232   -0.157317
     30          6           0        3.381363    4.488177   -0.732017
     31          1           0        4.053598    4.275904    0.100136
     32          1           0        3.217932    5.561957   -0.773816
     33          1           0        3.875589    4.180181   -1.653159
     34          6           0        0.380336    5.678704   -0.358267
     35          1           0       -0.132059    5.886391    0.581381
     36          1           0       -0.312134    5.884853   -1.174365
     37          1           0        1.224475    6.358270   -0.444757
     38          6           0        5.515768   -0.350643   -0.499520
     39          1           0        5.888464    0.039507    0.449102
     40          1           0        5.612993    0.433727   -1.248551
     41          1           0        6.139200   -1.192133   -0.793755
     42          6           0        4.319229   -3.312243   -0.150818
     43          1           0        3.837651   -4.161241   -0.621507
     44          6           0        5.485930   -3.487837    0.460282
     45          1           0        5.986051   -2.690477    0.982156
     46          1           0        5.971561   -4.449145    0.479925
     47          6           0       -0.511240   -5.451917    0.072737
     48          1           0        0.185150   -5.577444    0.901691
     49          1           0       -0.006154   -5.759241   -0.843710
     50          1           0       -1.361573   -6.110891    0.228013
     51          6           0       -3.456817   -4.326329   -0.223220
     52          1           0       -3.486074   -5.193677    0.427114
     53          6           0       -4.488446   -4.079492   -1.021978
     54          1           0       -4.482693   -3.264667   -1.725981
     55          1           0       -5.366285   -4.703822   -1.018692
     56          6           0       -5.637119    0.558973   -0.081884
     57          1           0       -5.822113   -0.057664    0.797952
     58          1           0       -5.863405   -0.036973   -0.965597
     59          1           0       -6.316843    1.406965   -0.056229
     60          6           0       -4.435758    3.577291    0.078437
     61          1           0       -4.102615    4.117716    0.964423
     62          1           0       -5.508228    3.418896    0.156797
     63          1           0       -4.243942    4.203839   -0.792990
     64          6           0        0.703250    1.742580    2.801967
     65          1           0       -0.092229    2.461517    2.634504
     66          1           0        1.580999    2.025503    2.230897
     67          1           0        0.928327    1.670107    3.861392
     68         16           0        0.071342    0.127153    2.212763
     69          1           0        1.221152   -0.527771    2.431175
 ---------------------------------------------------------------------
 Rotational constants (GHZ):           0.1143128           0.1081877           0.0603306
 General basis read from cards:  (5D, 7F)
 There are   644 symmetry adapted cartesian basis functions of A   symmetry.
 There are   605 symmetry adapted basis functions of A   symmetry.
   605 basis functions,  1246 primitive gaussians,   644 cartesian basis functions
   144 alpha electrons      143 beta electrons
       nuclear repulsion energy      5044.9041139782 Hartrees.
 NAtoms=   69 NActive=   69 NUniq=   69 SFac= 1.00D+00 NAtFMM=   60 NAOKFM=T Big=T
 Integral buffers will be    131072 words long.
 Raffenetti 2 integral format.
 Two-electron integral symmetry is turned on.
 R6APFD:  NTU= -4 IXU= 1 FactS= 1.050
 Nuclear repulsion after empirical dispersion term =     5044.7728779420 Hartrees.
 One-electron integrals computed using PRISM.
 NBasis=   605 RedAO= T EigKep=  2.67D-04  NBF=   605
 NBsUse=   605 1.00D-06 EigRej= -1.00D+00 NBFU=   605
 ExpMin= 4.20D-02 ExpMax= 3.01D+05 ExpMxC= 3.30D+03 IAcc=3 IRadAn=         5 AccDes= 0.00D+00
 Harris functional with IExCor= 3731 and IRadAn=       5 diagonalized for initial guess.
 HarFok:  IExCor= 3731 AccDes= 0.00D+00 IRadAn=         5 IDoV= 1 UseB2=F ITyADJ=14
 ICtDFT=  3500011 ScaDFX=  1.000000  1.000000  1.000000  1.000000
 FoFCou: FMM=F IPFlag=           0 FMFlag=      100000 FMFlg1=        2001
         NFxFlg=           0 DoJE=T BraDBF=F KetDBF=T FulRan=T
         wScrn=  0.000000 ICntrl=       500 IOpCl=  0 I1Cent=   200000004 NGrid=           0
         NMat0=    1 NMatS0=      1 NMatT0=    0 NMatD0=    1 NMtDS0=    0 NMtDT0=    0
 Petite list used in FoFCou.
 Initial guess <Sx>= 0.0000 <Sy>= 0.0000 <Sz>= 0.5000 <S**2>= 0.7500 S= 0.5000
 Requested convergence on RMS density matrix=1.00D-08 within 999 cycles.
 Requested convergence on MAX density matrix=1.00D-06.
 Requested convergence on             energy=1.00D-06.
 No special actions if energy rises.
 EnCoef did   100 forward-backward iterations
 EnCoef did   100 forward-backward iterations
 EnCoef did   100 forward-backward iterations
 EnCoef did   100 forward-backward iterations
 EnCoef did     7 forward-backward iterations
 EnCoef did     1 forward-backward iterations
 EnCoef did   100 forward-backward iterations
 EnCoef did     5 forward-backward iterations
 EnCoef did     2 forward-backward iterations
 Restarting incremental Fock formation.
 Rare condition: small coef for last iteration:  0.000D+00
 EnCoef did   100 forward-backward iterations
 Rare condition: small coef for last iteration:  0.000D+00
 Rare condition: small coef for last iteration:  0.000D+00
 EnCoef did     2 forward-backward iterations
 Rare condition: small coef for last iteration:  0.000D+00
 Rare condition: small coef for last iteration:  0.000D+00
 Rare condition: small coef for last iteration:  0.000D+00
 Rare condition: small coef for last iteration:  0.000D+00
 Rare condition: small coef for last iteration:  0.000D+00
 Rare condition: small coef for last iteration:  0.000D+00
 Rare condition: small coef for last iteration:  0.000D+00
 Rare condition: small coef for last iteration:  0.000D+00
 Rare condition: small coef for last iteration:  0.000D+00
 Restarting incremental Fock formation.
 Restarting incremental Fock formation.
 Restarting incremental Fock formation.
 Restarting incremental Fock formation.
 Restarting incremental Fock formation.
 Restarting incremental Fock formation.
 Density matrix is not changing but DIIS error= 3.24D-05 CofLast= 4.69D-01.
 Restarting incremental Fock formation.
 Restarting incremental Fock formation.
 Restarting incremental Fock formation.
 Restarting incremental Fock formation.
 Restarting incremental Fock formation.
 Restarting incremental Fock formation.
 Restarting incremental Fock formation.
 Restarting incremental Fock formation.
 Restarting incremental Fock formation.
 Density matrix is not changing but DIIS error= 4.64D-06 CofLast= 4.97D-01.
 Restarting incremental Fock formation.
 Restarting incremental Fock formation.
 Restarting incremental Fock formation.
 Restarting incremental Fock formation.
 Restarting incremental Fock formation.
 Restarting incremental Fock formation.
 Density matrix is not changing but DIIS error= 2.24D-06 CofLast= 4.18D-01.
 Density matrix is not changing but DIIS error= 1.63D-06 CofLast=-1.38D-02.
 SCF Done:  E(UAPFD) =  -3080.01211593     A.U. after  491 cycles
            NFock=491  Conv=0.76D-08     -V/T= 2.0033
 <Sx>= 0.0000 <Sy>= 0.0000 <Sz>= 0.5000 <S**2>= 0.7884 S= 0.5190
 <L.S>=  0.00000000000    
 Annihilation of the first spin contaminant:
 S**2 before annihilation     0.7884,   after     0.7513

 **********************************************************************

            Population analysis using the SCF Density.

 **********************************************************************

 Orbital symmetries:
 Alpha Orbitals:
       Occupied  (A) (A) (A) (A) (A) (A) (A) (A) (A) (A) (A) (A)
                 (A) (A) (A) (A) (A) (A) (A) (A) (A) (A) (A) (A)
                 (A) (A) (A) (A) (A) (A) (A) (A) (A) (A) (A) (A)
                 (A) (A) (A) (A) (A) (A) (A) (A) (A) (A) (A) (A)
                 (A) (A) (A) (A) (A) (A) (A) (A) (A) (A) (A) (A)
                 (A) (A) (A) (A) (A) (A) (A) (A) (A) (A) (A) (A)
                 (A) (A) (A) (A) (A) (A) (A) (A) (A) (A) (A) (A)
                 (A) (A) (A) (A) (A) (A) (A) (A) (A) (A) (A) (A)
                 (A) (A) (A) (A) (A) (A) (A) (A) (A) (A) (A) (A)
                 (A) (A) (A) (A) (A) (A) (A) (A) (A) (A) (A) (A)
                 (A) (A) (A) (A) (A) (A) (A) (A) (A) (A) (A) (A)
                 (A) (A) (A) (A) (A) (A) (A) (A) (A) (A) (A) (A)
       Virtual   (A) (A) (A) (A) (A) (A) (A) (A) (A) (A) (A) (A)
                 (A) (A) (A) (A) (A) (A) (A) (A) (A) (A) (A) (A)
                 (A) (A) (A) (A) (A) (A) (A) (A) (A) (A) (A) (A)
                 (A) (A) (A) (A) (A) (A) (A) (A) (A) (A) (A) (A)
                 (A) (A) (A) (A) (A) (A) (A) (A) (A) (A) (A) (A)
                 (A) (A) (A) (A) (A) (A) (A) (A) (A) (A) (A) (A)
                 (A) (A) (A) (A) (A) (A) (A) (A) (A) (A) (A) (A)
                 (A) (A) (A) (A) (A) (A) (A) (A) (A) (A) (A) (A)
                 (A) (A) (A) (A) (A) (A) (A) (A) (A) (A) (A) (A)
                 (A) (A) (A) (A) (A) (A) (A) (A) (A) (A) (A) (A)
                 (A) (A) (A) (A) (A) (A) (A) (A) (A) (A) (A) (A)
                 (A) (A) (A) (A) (A) (A) (A) (A) (A) (A) (A) (A)
                 (A) (A) (A) (A) (A) (A) (A) (A) (A) (A) (A) (A)
                 (A) (A) (A) (A) (A) (A) (A) (A) (A) (A) (A) (A)
                 (A) (A) (A) (A) (A) (A) (A) (A) (A) (A) (A) (A)
                 (A) (A) (A) (A) (A) (A) (A) (A) (A) (A) (A) (A)
                 (A) (A) (A) (A) (A) (A) (A) (A) (A) (A) (A) (A)
                 (A) (A) (A) (A) (A) (A) (A) (A) (A) (A) (A) (A)
                 (A) (A) (A) (A) (A) (A) (A) (A) (A) (A) (A) (A)
                 (A) (A) (A) (A) (A) (A) (A) (A) (A) (A) (A) (A)
                 (A) (A) (A) (A) (A) (A) (A) (A) (A) (A) (A) (A)
                 (A) (A) (A) (A) (A) (A) (A) (A) (A) (A) (A) (A)
                 (A) (A) (A) (A) (A) (A) (A) (A) (A) (A) (A) (A)
                 (A) (A) (A) (A) (A) (A) (A) (A) (A) (A) (A) (A)
                 (A) (A) (A) (A) (A) (A) (A) (A) (A) (A) (A) (A)
                 (A) (A) (A) (A) (A) (A) (A) (A) (A) (A) (A) (A)
                 (A) (A) (A) (A) (A) (A) (A) (A) (A) (A) (A) (A)
                 (A) (A) (A) (A) (A) (A) (A) (A) (A) (A) (A) (A)
                 (A) (A) (A) (A) (A) (A) (A) (A) (A) (A) (A) (A)
                 (A) (A) (A) (A) (A) (A) (A) (A) (A) (A) (A) (A)
                 (A) (A) (A) (A) (A) (A) (A) (A) (A) (A) (A) (A)
                 (A) (A) (A) (A) (A) (A) (A) (A) (A) (A) (A) (A)
                 (A) (A) (A) (A) (A) (A) (A) (A) (A) (A) (A) (A)
                 (A) (A) (A) (A) (A) (A) (A) (A) (A) (A) (A) (A)
                 (A) (A) (A) (A) (A) (A) (A) (A) (A) (A) (A) (A)
                 (A) (A) (A) (A) (A) (A) (A) (A) (A) (A) (A) (A)
                 (A) (A) (A) (A) (A) (A) (A) (A) (A) (A) (A) (A)
                 (A) (A) (A) (A) (A) (A) (A) (A) (A) (A) (A) (A)
                 (A) (A) (A) (A) (A)
 Beta  Orbitals:
       Occupied  (A) (A) (A) (A) (A) (A) (A) (A) (A) (A) (A) (A)
                 (A) (A) (A) (A) (A) (A) (A) (A) (A) (A) (A) (A)
                 (A) (A) (A) (A) (A) (A) (A) (A) (A) (A) (A) (A)
                 (A) (A) (A) (A) (A) (A) (A) (A) (A) (A) (A) (A)
                 (A) (A) (A) (A) (A) (A) (A) (A) (A) (A) (A) (A)
                 (A) (A) (A) (A) (A) (A) (A) (A) (A) (A) (A) (A)
                 (A) (A) (A) (A) (A) (A) (A) (A) (A) (A) (A) (A)
                 (A) (A) (A) (A) (A) (A) (A) (A) (A) (A) (A) (A)
                 (A) (A) (A) (A) (A) (A) (A) (A) (A) (A) (A) (A)
                 (A) (A) (A) (A) (A) (A) (A) (A) (A) (A) (A) (A)
                 (A) (A) (A) (A) (A) (A) (A) (A) (A) (A) (A) (A)
                 (A) (A) (A) (A) (A) (A) (A) (A) (A) (A) (A)
       Virtual   (A) (A) (A) (A) (A) (A) (A) (A) (A) (A) (A) (A)
                 (A) (A) (A) (A) (A) (A) (A) (A) (A) (A) (A) (A)
                 (A) (A) (A) (A) (A) (A) (A) (A) (A) (A) (A) (A)
                 (A) (A) (A) (A) (A) (A) (A) (A) (A) (A) (A) (A)
                 (A) (A) (A) (A) (A) (A) (A) (A) (A) (A) (A) (A)
                 (A) (A) (A) (A) (A) (A) (A) (A) (A) (A) (A) (A)
                 (A) (A) (A) (A) (A) (A) (A) (A) (A) (A) (A) (A)
                 (A) (A) (A) (A) (A) (A) (A) (A) (A) (A) (A) (A)
                 (A) (A) (A) (A) (A) (A) (A) (A) (A) (A) (A) (A)
                 (A) (A) (A) (A) (A) (A) (A) (A) (A) (A) (A) (A)
                 (A) (A) (A) (A) (A) (A) (A) (A) (A) (A) (A) (A)
                 (A) (A) (A) (A) (A) (A) (A) (A) (A) (A) (A) (A)
                 (A) (A) (A) (A) (A) (A) (A) (A) (A) (A) (A) (A)
                 (A) (A) (A) (A) (A) (A) (A) (A) (A) (A) (A) (A)
                 (A) (A) (A) (A) (A) (A) (A) (A) (A) (A) (A) (A)
                 (A) (A) (A) (A) (A) (A) (A) (A) (A) (A) (A) (A)
                 (A) (A) (A) (A) (A) (A) (A) (A) (A) (A) (A) (A)
                 (A) (A) (A) (A) (A) (A) (A) (A) (A) (A) (A) (A)
                 (A) (A) (A) (A) (A) (A) (A) (A) (A) (A) (A) (A)
                 (A) (A) (A) (A) (A) (A) (A) (A) (A) (A) (A) (A)
                 (A) (A) (A) (A) (A) (A) (A) (A) (A) (A) (A) (A)
                 (A) (A) (A) (A) (A) (A) (A) (A) (A) (A) (A) (A)
                 (A) (A) (A) (A) (A) (A) (A) (A) (A) (A) (A) (A)
                 (A) (A) (A) (A) (A) (A) (A) (A) (A) (A) (A) (A)
                 (A) (A) (A) (A) (A) (A) (A) (A) (A) (A) (A) (A)
                 (A) (A) (A) (A) (A) (A) (A) (A) (A) (A) (A) (A)
                 (A) (A) (A) (A) (A) (A) (A) (A) (A) (A) (A) (A)
                 (A) (A) (A) (A) (A) (A) (A) (A) (A) (A) (A) (A)
                 (A) (A) (A) (A) (A) (A) (A) (A) (A) (A) (A) (A)
                 (A) (A) (A) (A) (A) (A) (A) (A) (A) (A) (A) (A)
                 (A) (A) (A) (A) (A) (A) (A) (A) (A) (A) (A) (A)
                 (A) (A) (A) (A) (A) (A) (A) (A) (A) (A) (A) (A)
                 (A) (A) (A) (A) (A) (A) (A) (A) (A) (A) (A) (A)
                 (A) (A) (A) (A) (A) (A) (A) (A) (A) (A) (A) (A)
                 (A) (A) (A) (A) (A) (A) (A) (A) (A) (A) (A) (A)
                 (A) (A) (A) (A) (A) (A) (A) (A) (A) (A) (A) (A)
                 (A) (A) (A) (A) (A) (A) (A) (A) (A) (A) (A) (A)
                 (A) (A) (A) (A) (A) (A) (A) (A) (A) (A) (A) (A)
                 (A) (A) (A) (A) (A) (A)
 The electronic state is 2-A.
 Alpha  occ. eigenvalues -- -256.32175 -89.08817 -30.17593 -26.01868 -26.01512
 Alpha  occ. eigenvalues --  -26.00878 -14.48188 -14.48036 -14.48003 -14.47738
 Alpha  occ. eigenvalues --  -10.35777 -10.35760 -10.35714 -10.35571 -10.35021
 Alpha  occ. eigenvalues --  -10.34971 -10.34802 -10.34627 -10.33880 -10.32083
 Alpha  occ. eigenvalues --  -10.31882 -10.31843 -10.31711 -10.31674 -10.31627
 Alpha  occ. eigenvalues --  -10.31616 -10.31386 -10.31217 -10.31189 -10.30981
 Alpha  occ. eigenvalues --  -10.30904 -10.30830 -10.29988 -10.29772 -10.29484
 Alpha  occ. eigenvalues --  -10.29415 -10.29144 -10.29106 -10.29099 -10.28822
 Alpha  occ. eigenvalues --  -10.28597  -8.11924  -6.06506  -6.06226  -6.05685
 Alpha  occ. eigenvalues --   -3.55809  -2.33028  -2.32072  -2.30714  -1.10178
 Alpha  occ. eigenvalues --   -1.09235  -1.09063  -1.08109  -0.95044  -0.93535
 Alpha  occ. eigenvalues --   -0.92817  -0.92724  -0.92459  -0.92328  -0.92116
 Alpha  occ. eigenvalues --   -0.91978  -0.88088  -0.86720  -0.86529  -0.85468
 Alpha  occ. eigenvalues --   -0.84110  -0.82357  -0.80916  -0.79724  -0.79575
 Alpha  occ. eigenvalues --   -0.79232  -0.78368  -0.76656  -0.76436  -0.72044
 Alpha  occ. eigenvalues --   -0.71219  -0.69798  -0.69144  -0.66564  -0.65886
 Alpha  occ. eigenvalues --   -0.65043  -0.63801  -0.63020  -0.62690  -0.62054
 Alpha  occ. eigenvalues --   -0.60043  -0.59175  -0.58845  -0.58533  -0.57376
 Alpha  occ. eigenvalues --   -0.56854  -0.56297  -0.55791  -0.55675  -0.55116
 Alpha  occ. eigenvalues --   -0.54850  -0.54508  -0.54239  -0.54088  -0.53760
 Alpha  occ. eigenvalues --   -0.53374  -0.52186  -0.51849  -0.51734  -0.51494
 Alpha  occ. eigenvalues --   -0.51477  -0.51248  -0.51065  -0.50848  -0.50621
 Alpha  occ. eigenvalues --   -0.50555  -0.50436  -0.50095  -0.49582  -0.49212
 Alpha  occ. eigenvalues --   -0.49086  -0.48683  -0.48361  -0.48243  -0.47739
 Alpha  occ. eigenvalues --   -0.47518  -0.47165  -0.46613  -0.46083  -0.45200
 Alpha  occ. eigenvalues --   -0.44587  -0.44159  -0.43374  -0.42898  -0.42551
 Alpha  occ. eigenvalues --   -0.41282  -0.40731  -0.40098  -0.38776  -0.38660
 Alpha  occ. eigenvalues --   -0.36882  -0.36376  -0.34649  -0.34084  -0.33730
 Alpha  occ. eigenvalues --   -0.32420  -0.31514  -0.30844  -0.30511
 Alpha virt. eigenvalues --   -0.18550  -0.18446  -0.16740  -0.12740  -0.09829
 Alpha virt. eigenvalues --   -0.09059  -0.08817  -0.07848  -0.05906  -0.04760
 Alpha virt. eigenvalues --   -0.03450  -0.02110  -0.00809  -0.00546   0.00642
 Alpha virt. eigenvalues --    0.01253   0.01675   0.01816   0.02378   0.02679
 Alpha virt. eigenvalues --    0.03381   0.03619   0.03902   0.04223   0.04694
 Alpha virt. eigenvalues --    0.04878   0.05199   0.05564   0.05773   0.06389
 Alpha virt. eigenvalues --    0.06719   0.06983   0.07133   0.07402   0.07690
 Alpha virt. eigenvalues --    0.08045   0.08707   0.08846   0.09006   0.09396
 Alpha virt. eigenvalues --    0.09830   0.10532   0.10991   0.11105   0.11420
 Alpha virt. eigenvalues --    0.11876   0.12066   0.12653   0.13140   0.13591
 Alpha virt. eigenvalues --    0.13869   0.14341   0.14499   0.15094   0.15432
 Alpha virt. eigenvalues --    0.15718   0.16311   0.16660   0.16871   0.17635
 Alpha virt. eigenvalues --    0.18540   0.19018   0.19920   0.20577   0.21680
 Alpha virt. eigenvalues --    0.21828   0.22387   0.23204   0.23863   0.24357
 Alpha virt. eigenvalues --    0.24612   0.25292   0.25313   0.26126   0.26594
 Alpha virt. eigenvalues --    0.27337   0.28184   0.28696   0.31149   0.31767
 Alpha virt. eigenvalues --    0.32060   0.32918   0.33837   0.34443   0.34818
 Alpha virt. eigenvalues --    0.35231   0.36552   0.37184   0.37358   0.37606
 Alpha virt. eigenvalues --    0.39098   0.39324   0.39994   0.40718   0.40864
 Alpha virt. eigenvalues --    0.41542   0.41678   0.42109   0.42638   0.42930
 Alpha virt. eigenvalues --    0.43187   0.43920   0.44244   0.44915   0.45559
 Alpha virt. eigenvalues --    0.45876   0.46306   0.46778   0.47452   0.47852
 Alpha virt. eigenvalues --    0.48115   0.48853   0.49114   0.49322   0.49690
 Alpha virt. eigenvalues --    0.50248   0.50825   0.51121   0.51282   0.52179
 Alpha virt. eigenvalues --    0.52245   0.52939   0.53380   0.53691   0.53966
 Alpha virt. eigenvalues --    0.54610   0.55155   0.55371   0.55809   0.56240
 Alpha virt. eigenvalues --    0.56796   0.57069   0.57260   0.58504   0.58846
 Alpha virt. eigenvalues --    0.59088   0.60169   0.60513   0.60878   0.61604
 Alpha virt. eigenvalues --    0.61786   0.62187   0.62860   0.63732   0.63833
 Alpha virt. eigenvalues --    0.64801   0.64947   0.65376   0.65670   0.65822
 Alpha virt. eigenvalues --    0.65991   0.67115   0.67309   0.67620   0.68137
 Alpha virt. eigenvalues --    0.68416   0.68632   0.68775   0.69441   0.70019
 Alpha virt. eigenvalues --    0.70268   0.70799   0.70891   0.72107   0.72583
 Alpha virt. eigenvalues --    0.73157   0.73850   0.75046   0.75958   0.76168
 Alpha virt. eigenvalues --    0.76621   0.77102   0.77417   0.77618   0.78055
 Alpha virt. eigenvalues --    0.78470   0.79058   0.79817   0.79834   0.80158
 Alpha virt. eigenvalues --    0.80846   0.81003   0.81314   0.81518   0.82038
 Alpha virt. eigenvalues --    0.82530   0.82812   0.83348   0.83672   0.83897
 Alpha virt. eigenvalues --    0.84459   0.84979   0.85296   0.85781   0.85836
 Alpha virt. eigenvalues --    0.86493   0.86616   0.87011   0.88113   0.88567
 Alpha virt. eigenvalues --    0.89233   0.89472   0.89851   0.90005   0.90175
 Alpha virt. eigenvalues --    0.90522   0.91496   0.91928   0.92552   0.92814
 Alpha virt. eigenvalues --    0.93361   0.93862   0.94553   0.94876   0.95532
 Alpha virt. eigenvalues --    0.96387   0.96831   0.97200   0.98220   0.98992
 Alpha virt. eigenvalues --    1.00286   1.01362   1.03057   1.03649   1.04142
 Alpha virt. eigenvalues --    1.05347   1.05692   1.06042   1.06892   1.07339
 Alpha virt. eigenvalues --    1.07743   1.08181   1.08870   1.09243   1.10053
 Alpha virt. eigenvalues --    1.10236   1.11019   1.12226   1.13182   1.13857
 Alpha virt. eigenvalues --    1.14426   1.14850   1.16047   1.16489   1.17611
 Alpha virt. eigenvalues --    1.18055   1.18257   1.18895   1.19759   1.20495
 Alpha virt. eigenvalues --    1.21601   1.22249   1.23464   1.24327   1.24541
 Alpha virt. eigenvalues --    1.25529   1.26240   1.26549   1.26916   1.27412
 Alpha virt. eigenvalues --    1.28130   1.28706   1.29776   1.30386   1.31163
 Alpha virt. eigenvalues --    1.32148   1.33387   1.33928   1.34955   1.36249
 Alpha virt. eigenvalues --    1.37359   1.38756   1.40667   1.42388   1.42585
 Alpha virt. eigenvalues --    1.42807   1.43723   1.44295   1.44825   1.45475
 Alpha virt. eigenvalues --    1.45957   1.47395   1.49168   1.49658   1.50807
 Alpha virt. eigenvalues --    1.51273   1.52094   1.53170   1.53934   1.55328
 Alpha virt. eigenvalues --    1.57463   1.58203   1.58675   1.59661   1.60303
 Alpha virt. eigenvalues --    1.61054   1.61980   1.63933   1.65683   1.66811
 Alpha virt. eigenvalues --    1.66943   1.68302   1.68539   1.68751   1.69188
 Alpha virt. eigenvalues --    1.69747   1.71137   1.71203   1.71492   1.72488
 Alpha virt. eigenvalues --    1.72899   1.73119   1.74211   1.75453   1.75619
 Alpha virt. eigenvalues --    1.76442   1.76731   1.77512   1.78818   1.80020
 Alpha virt. eigenvalues --    1.80710   1.80936   1.81323   1.81386   1.82113
 Alpha virt. eigenvalues --    1.82944   1.83514   1.84497   1.84870   1.87715
 Alpha virt. eigenvalues --    1.88426   1.88957   1.89116   1.89484   1.89972
 Alpha virt. eigenvalues --    1.90295   1.91047   1.92665   1.93324   1.93658
 Alpha virt. eigenvalues --    1.94105   1.94881   1.95246   1.96542   1.97917
 Alpha virt. eigenvalues --    1.99049   1.99846   2.00904   2.01280   2.03168
 Alpha virt. eigenvalues --    2.03625   2.04644   2.04881   2.05711   2.06229
 Alpha virt. eigenvalues --    2.07646   2.08273   2.09683   2.10836   2.11661
 Alpha virt. eigenvalues --    2.12341   2.13154   2.13811   2.13958   2.14248
 Alpha virt. eigenvalues --    2.14505   2.14981   2.15726   2.16190   2.16572
 Alpha virt. eigenvalues --    2.16656   2.17966   2.18674   2.18760   2.19273
 Alpha virt. eigenvalues --    2.19467   2.20021   2.20724   2.21289   2.22314
 Alpha virt. eigenvalues --    2.23200   2.23556   2.23872   2.25002   2.25433
 Alpha virt. eigenvalues --    2.26259   2.26386   2.26971   2.29190   2.29491
 Alpha virt. eigenvalues --    2.30399   2.31372   2.31844   2.31985   2.32982
 Alpha virt. eigenvalues --    2.33355   2.33893   2.36793   2.37709   2.38742
 Alpha virt. eigenvalues --    2.39075   2.40274   2.41129   2.41912   2.42248
 Alpha virt. eigenvalues --    2.42545   2.43789   2.44062   2.44489   2.45423
 Alpha virt. eigenvalues --    2.47098   2.48254   2.49120   2.51336   2.53002
 Alpha virt. eigenvalues --    2.54935   2.55905   2.56393   2.56844   2.59195
 Alpha virt. eigenvalues --    2.59677   2.60968   2.64909   2.67661   2.67854
 Alpha virt. eigenvalues --    2.68488   2.69392   2.71709   2.75111   2.76066
 Alpha virt. eigenvalues --    2.76885   2.79357   2.80174   2.81098   2.83672
 Alpha virt. eigenvalues --    2.85102   2.85481   2.86092   2.87402   2.88189
 Alpha virt. eigenvalues --    2.88686   2.93260   2.95251   3.01409   3.01995
 Alpha virt. eigenvalues --    3.07146   3.11498   3.12282   3.17034   3.18682
 Alpha virt. eigenvalues --    3.25443   3.27830   3.28977   3.30474   3.34231
 Alpha virt. eigenvalues --    3.35011   3.46514   3.47377   3.74633   3.93396
 Alpha virt. eigenvalues --    4.06555
  Beta  occ. eigenvalues -- -256.32165 -89.08821 -30.17099 -26.01313 -26.00941
  Beta  occ. eigenvalues --  -26.00761 -14.48225 -14.48134 -14.48091 -14.47794
  Beta  occ. eigenvalues --  -10.35479 -10.35447 -10.35440 -10.35323 -10.34934
  Beta  occ. eigenvalues --  -10.34818 -10.34664 -10.34513 -10.33881 -10.31914
  Beta  occ. eigenvalues --  -10.31843 -10.31827 -10.31777 -10.31729 -10.31700
  Beta  occ. eigenvalues --  -10.31674 -10.31437 -10.31295 -10.31162 -10.31060
  Beta  occ. eigenvalues --  -10.30910 -10.30888 -10.29990 -10.29651 -10.29487
  Beta  occ. eigenvalues --  -10.29415 -10.29150 -10.29102 -10.29091 -10.28823
  Beta  occ. eigenvalues --  -10.28588  -8.11929  -6.06509  -6.06231  -6.05695
  Beta  occ. eigenvalues --   -3.54645  -2.31349  -2.30436  -2.30300  -1.09983
  Beta  occ. eigenvalues --   -1.09015  -1.08907  -1.07940  -0.94805  -0.93433
  Beta  occ. eigenvalues --   -0.92782  -0.92640  -0.92429  -0.92238  -0.91993
  Beta  occ. eigenvalues --   -0.91857  -0.87932  -0.86691  -0.86582  -0.85345
  Beta  occ. eigenvalues --   -0.84084  -0.82180  -0.80849  -0.79610  -0.79400
  Beta  occ. eigenvalues --   -0.79166  -0.78378  -0.76398  -0.76190  -0.71938
  Beta  occ. eigenvalues --   -0.71093  -0.69633  -0.69113  -0.66380  -0.65812
  Beta  occ. eigenvalues --   -0.64963  -0.63725  -0.62918  -0.62582  -0.61985
  Beta  occ. eigenvalues --   -0.59973  -0.59099  -0.58823  -0.58489  -0.57064
  Beta  occ. eigenvalues --   -0.56775  -0.56228  -0.55610  -0.55257  -0.54872
  Beta  occ. eigenvalues --   -0.54628  -0.54457  -0.54194  -0.53973  -0.53556
  Beta  occ. eigenvalues --   -0.53323  -0.52175  -0.51770  -0.51672  -0.51448
  Beta  occ. eigenvalues --   -0.51385  -0.51204  -0.50938  -0.50734  -0.50542
  Beta  occ. eigenvalues --   -0.50476  -0.50237  -0.50018  -0.49556  -0.49169
  Beta  occ. eigenvalues --   -0.48700  -0.48617  -0.48312  -0.48181  -0.47635
  Beta  occ. eigenvalues --   -0.47480  -0.47077  -0.46530  -0.45980  -0.45117
  Beta  occ. eigenvalues --   -0.44516  -0.43473  -0.43184  -0.42715  -0.42536
  Beta  occ. eigenvalues --   -0.40996  -0.40266  -0.39628  -0.38346  -0.38083
  Beta  occ. eigenvalues --   -0.36268  -0.35292  -0.34262  -0.33531  -0.33191
  Beta  occ. eigenvalues --   -0.31354  -0.31011  -0.29577
  Beta virt. eigenvalues --   -0.25822  -0.17760  -0.17559  -0.16175  -0.12379
  Beta virt. eigenvalues --   -0.09169  -0.08825  -0.08582  -0.07484  -0.05232
  Beta virt. eigenvalues --   -0.04553  -0.02716  -0.01578  -0.00541  -0.00312
  Beta virt. eigenvalues --    0.00715   0.01250   0.01700   0.02212   0.02392
  Beta virt. eigenvalues --    0.03285   0.03513   0.03933   0.04210   0.04331
  Beta virt. eigenvalues --    0.04803   0.04969   0.05243   0.05693   0.05850
  Beta virt. eigenvalues --    0.06455   0.06784   0.07051   0.07198   0.07469
  Beta virt. eigenvalues --    0.07747   0.08105   0.08756   0.08952   0.09084
  Beta virt. eigenvalues --    0.09440   0.09919   0.10631   0.11063   0.11205
  Beta virt. eigenvalues --    0.11505   0.12010   0.12115   0.12726   0.13197
  Beta virt. eigenvalues --    0.13805   0.13933   0.14437   0.14608   0.15236
  Beta virt. eigenvalues --    0.15508   0.15754   0.16427   0.16769   0.16953
  Beta virt. eigenvalues --    0.17786   0.18693   0.19121   0.20059   0.20740
  Beta virt. eigenvalues --    0.21832   0.21952   0.22535   0.23366   0.24085
  Beta virt. eigenvalues --    0.24523   0.24733   0.25417   0.25570   0.26183
  Beta virt. eigenvalues --    0.26686   0.27446   0.28323   0.28786   0.31248
  Beta virt. eigenvalues --    0.31959   0.32201   0.33001   0.33970   0.34551
  Beta virt. eigenvalues --    0.34915   0.35360   0.36716   0.37276   0.37458
  Beta virt. eigenvalues --    0.37703   0.39194   0.39392   0.40136   0.40933
  Beta virt. eigenvalues --    0.41062   0.41683   0.41835   0.42163   0.42738
  Beta virt. eigenvalues --    0.43074   0.43269   0.44052   0.44351   0.45040
  Beta virt. eigenvalues --    0.45673   0.46064   0.46380   0.46999   0.47579
  Beta virt. eigenvalues --    0.47992   0.48202   0.48884   0.49231   0.49587
  Beta virt. eigenvalues --    0.49771   0.50383   0.50890   0.51329   0.51539
  Beta virt. eigenvalues --    0.52377   0.52421   0.53149   0.53651   0.53892
  Beta virt. eigenvalues --    0.54114   0.54759   0.55285   0.55546   0.55889
  Beta virt. eigenvalues --    0.56312   0.56823   0.57053   0.57235   0.58595
  Beta virt. eigenvalues --    0.58951   0.59268   0.60324   0.60659   0.61092
  Beta virt. eigenvalues --    0.61723   0.61881   0.62316   0.62970   0.63917
  Beta virt. eigenvalues --    0.64124   0.64899   0.65014   0.65499   0.65818
  Beta virt. eigenvalues --    0.66006   0.66142   0.67333   0.67382   0.67807
  Beta virt. eigenvalues --    0.68228   0.68493   0.68767   0.68860   0.69569
  Beta virt. eigenvalues --    0.70120   0.70433   0.70891   0.71032   0.72355
  Beta virt. eigenvalues --    0.72760   0.73403   0.73956   0.75266   0.76097
  Beta virt. eigenvalues --    0.76355   0.76655   0.77141   0.77425   0.77666
  Beta virt. eigenvalues --    0.78078   0.78587   0.79110   0.79853   0.79884
  Beta virt. eigenvalues --    0.80215   0.80926   0.81028   0.81356   0.81532
  Beta virt. eigenvalues --    0.82062   0.82559   0.82849   0.83403   0.83731
  Beta virt. eigenvalues --    0.83953   0.84534   0.85048   0.85375   0.85860
  Beta virt. eigenvalues --    0.85940   0.86574   0.86711   0.87057   0.88198
  Beta virt. eigenvalues --    0.88662   0.89292   0.89574   0.89917   0.90122
  Beta virt. eigenvalues --    0.90262   0.90595   0.91574   0.92070   0.92664
  Beta virt. eigenvalues --    0.92870   0.93490   0.93962   0.94618   0.95069
  Beta virt. eigenvalues --    0.95605   0.96439   0.96972   0.97283   0.98307
  Beta virt. eigenvalues --    0.99115   1.00351   1.01442   1.03128   1.03757
  Beta virt. eigenvalues --    1.04210   1.05399   1.05738   1.06112   1.06969
  Beta virt. eigenvalues --    1.07376   1.07807   1.08241   1.09059   1.09350
  Beta virt. eigenvalues --    1.10122   1.10303   1.11193   1.12349   1.13364
  Beta virt. eigenvalues --    1.14015   1.14568   1.14972   1.16205   1.16669
  Beta virt. eigenvalues --    1.17770   1.18226   1.18462   1.19208   1.19859
  Beta virt. eigenvalues --    1.20626   1.21759   1.22393   1.23629   1.24508
  Beta virt. eigenvalues --    1.24679   1.25785   1.26425   1.26863   1.27089
  Beta virt. eigenvalues --    1.27624   1.28339   1.28947   1.29967   1.30514
  Beta virt. eigenvalues --    1.31324   1.32285   1.33574   1.34064   1.35086
  Beta virt. eigenvalues --    1.36350   1.37446   1.38880   1.40825   1.42532
  Beta virt. eigenvalues --    1.42749   1.43009   1.43867   1.44417   1.44971
  Beta virt. eigenvalues --    1.45633   1.46060   1.47635   1.49292   1.49787
  Beta virt. eigenvalues --    1.50947   1.51409   1.52279   1.53286   1.54071
  Beta virt. eigenvalues --    1.55454   1.57583   1.58483   1.58859   1.59922
  Beta virt. eigenvalues --    1.60362   1.61090   1.62122   1.64111   1.65819
  Beta virt. eigenvalues --    1.66876   1.67022   1.68416   1.68635   1.68880
  Beta virt. eigenvalues --    1.69331   1.69904   1.71237   1.71339   1.71581
  Beta virt. eigenvalues --    1.72569   1.72989   1.73230   1.74260   1.75525
  Beta virt. eigenvalues --    1.75663   1.76499   1.76781   1.77560   1.78915
  Beta virt. eigenvalues --    1.80099   1.80848   1.81059   1.81430   1.81522
  Beta virt. eigenvalues --    1.82229   1.83070   1.83712   1.84628   1.84924
  Beta virt. eigenvalues --    1.87847   1.88540   1.89045   1.89248   1.89585
  Beta virt. eigenvalues --    1.90110   1.90351   1.91148   1.92751   1.93453
  Beta virt. eigenvalues --    1.93768   1.94274   1.94971   1.95321   1.96668
  Beta virt. eigenvalues --    1.98085   1.99184   1.99969   2.01073   2.01425
  Beta virt. eigenvalues --    2.03303   2.03899   2.04739   2.05010   2.05904
  Beta virt. eigenvalues --    2.06404   2.07924   2.08451   2.09887   2.10960
  Beta virt. eigenvalues --    2.11789   2.12473   2.13334   2.13990   2.14080
  Beta virt. eigenvalues --    2.14368   2.14663   2.15142   2.15870   2.16337
  Beta virt. eigenvalues --    2.16685   2.16870   2.18178   2.18895   2.18932
  Beta virt. eigenvalues --    2.19466   2.19625   2.20151   2.20949   2.21535
  Beta virt. eigenvalues --    2.22579   2.23407   2.23915   2.24156   2.25243
  Beta virt. eigenvalues --    2.25642   2.26430   2.26564   2.27159   2.29274
  Beta virt. eigenvalues --    2.29586   2.30468   2.31554   2.32014   2.32271
  Beta virt. eigenvalues --    2.33264   2.33594   2.33996   2.36862   2.37965
  Beta virt. eigenvalues --    2.38862   2.39194   2.40410   2.41349   2.42047
  Beta virt. eigenvalues --    2.42392   2.42725   2.43964   2.44156   2.44571
  Beta virt. eigenvalues --    2.45613   2.47312   2.48517   2.49442   2.51626
  Beta virt. eigenvalues --    2.53090   2.55178   2.55871   2.56614   2.57129
  Beta virt. eigenvalues --    2.59404   2.59791   2.60993   2.64972   2.67732
  Beta virt. eigenvalues --    2.67898   2.68663   2.69455   2.71766   2.75206
  Beta virt. eigenvalues --    2.76198   2.77013   2.79536   2.80373   2.81338
  Beta virt. eigenvalues --    2.83741   2.85209   2.85582   2.86224   2.87482
  Beta virt. eigenvalues --    2.88331   2.88850   2.93366   2.95327   3.01519
  Beta virt. eigenvalues --    3.02087   3.07222   3.11610   3.12353   3.17118
  Beta virt. eigenvalues --    3.18762   3.25647   3.27913   3.29089   3.30907
  Beta virt. eigenvalues --    3.34326   3.35077   3.46872   3.49143   3.74976
  Beta virt. eigenvalues --    3.93685   4.06914
          Condensed to atoms (all electrons):
          Atomic-Atomic Spin Densities.
 Mulliken charges and spin densities:
               1          2
     1  Fe   0.600616   0.236857
     2  N   -0.653123  -0.070853
     3  N   -0.660352  -0.027922
     4  N   -0.669992  -0.031655
     5  N   -0.663684  -0.037823
     6  C    0.336178   0.201282
     7  C    0.041357  -0.006418
     8  C    0.047451   0.038412
     9  C    0.324962   0.167156
    10  C    0.332109   0.185894
    11  C    0.042635  -0.088555
    12  C    0.017576   0.123246
    13  C    0.317046   0.056528
    14  C    0.328872   0.077091
    15  C    0.044129   0.018496
    16  C   -0.004685  -0.006654
    17  C    0.360988   0.104330
    18  C    0.338393   0.091942
    19  C    0.053366   0.102603
    20  C    0.043055  -0.064081
    21  C    0.331692   0.208947
    22  C   -0.303552  -0.120309
    23  H    0.199279   0.004485
    24  C   -0.305137  -0.105502
    25  H    0.198204   0.003996
    26  C   -0.295343  -0.042550
    27  H    0.196232   0.001436
    28  C   -0.297556  -0.063054
    29  H    0.204922   0.002368
    30  C   -0.612426  -0.002738
    31  H    0.204427   0.002687
    32  H    0.209912  -0.000203
    33  H    0.212744   0.002257
    34  C   -0.611285   0.000280
    35  H    0.202608   0.000631
    36  H    0.212412   0.000855
    37  H    0.208768  -0.000281
    38  C   -0.614551   0.006061
    39  H    0.205010  -0.003033
    40  H    0.202264  -0.001599
    41  H    0.215674  -0.000778
    42  C   -0.153471  -0.044845
    43  H    0.191317   0.003613
    44  C   -0.381090   0.086397
    45  H    0.194280  -0.004138
    46  H    0.203406  -0.004335
    47  C   -0.604534  -0.001077
    48  H    0.201529   0.000796
    49  H    0.214304   0.001650
    50  H    0.207485  -0.000064
    51  C   -0.153679  -0.001617
    52  H    0.192292   0.000059
    53  C   -0.396559   0.006533
    54  H    0.186137  -0.000278
    55  H    0.198454  -0.000225
    56  C   -0.613831  -0.006792
    57  H    0.214221   0.005525
    58  H    0.211269   0.004312
    59  H    0.209002   0.000005
    60  C   -0.611585   0.004137
    61  H    0.202997  -0.001599
    62  H    0.208544  -0.000284
    63  H    0.209002  -0.001586
    64  C   -0.690351   0.000089
    65  H    0.238387  -0.000189
    66  H    0.238770   0.000238
    67  H    0.243157  -0.000241
    68  S    0.134115  -0.007788
    69  H    0.165241  -0.002130
 Sum of Mulliken charges =   1.00000   1.00000
 Mulliken charges and spin densities with hydrogens summed into heavy atoms:
               1          2
     1  Fe   0.600616   0.236857
     2  N   -0.653123  -0.070853
     3  N   -0.660352  -0.027922
     4  N   -0.669992  -0.031655
     5  N   -0.663684  -0.037823
     6  C    0.336178   0.201282
     7  C    0.041357  -0.006418
     8  C    0.047451   0.038412
     9  C    0.324962   0.167156
    10  C    0.332109   0.185894
    11  C    0.042635  -0.088555
    12  C    0.017576   0.123246
    13  C    0.317046   0.056528
    14  C    0.328872   0.077091
    15  C    0.044129   0.018496
    16  C   -0.004685  -0.006654
    17  C    0.360988   0.104330
    18  C    0.338393   0.091942
    19  C    0.053366   0.102603
    20  C    0.043055  -0.064081
    21  C    0.331692   0.208947
    22  C   -0.104273  -0.115824
    24  C   -0.106934  -0.101507
    26  C   -0.099111  -0.041114
    28  C   -0.092634  -0.060686
    30  C    0.014657   0.002003
    34  C    0.012502   0.001485
    38  C    0.008397   0.000651
    42  C    0.037846  -0.041232
    44  C    0.016596   0.077924
    47  C    0.018783   0.001305
    51  C    0.038613  -0.001559
    53  C   -0.011968   0.006030
    56  C    0.020661   0.003051
    60  C    0.008958   0.000668
    64  C    0.029963  -0.000102
    68  S    0.299356  -0.009918
 Electronic spatial extent (au):  <R**2>=          17843.5435
 Charge=              1.0000 electrons
 Dipole moment (field-independent basis, Debye):
    X=              1.2985    Y=              1.7628    Z=              2.4649  Tot=              3.2969
 Quadrupole moment (field-independent basis, Debye-Ang):
   XX=           -147.2179   YY=           -150.7809   ZZ=           -220.2379
   XY=             -1.8887   XZ=              5.0460   YZ=              1.2527
 Traceless Quadrupole moment (field-independent basis, Debye-Ang):
   XX=             25.5276   YY=             21.9647   ZZ=            -47.4923
   XY=             -1.8887   XZ=              5.0460   YZ=              1.2527
 Octapole moment (field-independent basis, Debye-Ang**2):
  XXX=             -4.5617  YYY=             15.1548  ZZZ=             38.3897  XYY=              8.5668
  XXY=            -26.4345  XXZ=             -8.0652  XZZ=             13.4020  YZZ=             22.7371
  YYZ=             -1.2998  XYZ=            -15.8795
 Hexadecapole moment (field-independent basis, Debye-Ang**3):
 XXXX=          -9745.7362 YYYY=          -9355.9657 ZZZZ=          -1088.5703 XXXY=           -189.8212
 XXXZ=            126.0993 YYYX=             63.9866 YYYZ=            -98.2138 ZZZX=             51.6371
 ZZZY=             47.0970 XXYY=          -3062.2153 XXZZ=          -2183.0967 YYZZ=          -2076.0700
 XXYZ=            -25.2246 YYXZ=            -27.3881 ZZXY=             21.0363
 N-N= 5.044772877942D+03 E-N=-1.730833525832D+04  KE= 3.069866557405D+03
                          Isotropic Fermi Contact Couplings
        Atom                 a.u.       MegaHertz       Gauss      10(-4) cm-1
     1  Fe(57)             0.03151       4.57077       1.63096       1.52464
     2  N(14)             -0.01889      -6.10428      -2.17816      -2.03617
     3  N(14)             -0.00579      -1.86983      -0.66720      -0.62371
     4  N(14)             -0.00997      -3.22100      -1.14933      -1.07441
     5  N(14)             -0.00772      -2.49389      -0.88988      -0.83187
     6  C(13)              0.02861      32.16268      11.47644      10.72831
     7  C(13)             -0.00357      -4.01610      -1.43304      -1.33963
     8  C(13)              0.00301       3.38580       1.20814       1.12938
     9  C(13)              0.02337      26.27001       9.37379       8.76273
    10  C(13)              0.02697      30.32424      10.82044      10.11508
    11  C(13)             -0.01535     -17.25993      -6.15877      -5.75729
    12  C(13)              0.01665      18.72060       6.67997       6.24452
    13  C(13)              0.00622       6.98750       2.49331       2.33078
    14  C(13)              0.01069      12.01690       4.28793       4.00841
    15  C(13)              0.00188       2.10957       0.75275       0.70368
    16  C(13)             -0.00234      -2.63468      -0.94012      -0.87884
    17  C(13)              0.01445      16.24533       5.79674       5.41886
    18  C(13)              0.01194      13.42132       4.78906       4.47687
    19  C(13)              0.01286      14.45779       5.15890       4.82260
    20  C(13)             -0.01169     -13.13950      -4.68850      -4.38286
    21  C(13)              0.03187      35.82700      12.78397      11.95060
    22  C(13)             -0.02080     -23.38576      -8.34462      -7.80065
    23  H(1)               0.00142       6.34716       2.26482       2.11718
    24  C(13)             -0.01818     -20.43272      -7.29090      -6.81562
    25  H(1)               0.00127       5.67603       2.02535       1.89332
    26  C(13)             -0.00720      -8.08878      -2.88628      -2.69813
    27  H(1)               0.00045       2.02116       0.72120       0.67419
    28  C(13)             -0.01067     -11.99225      -4.27913      -4.00018
    29  H(1)               0.00072       3.23377       1.15389       1.07867
    30  C(13)             -0.00164      -1.83909      -0.65623      -0.61345
    31  H(1)               0.00164       7.31097       2.60874       2.43868
    32  H(1)              -0.00007      -0.32724      -0.11677      -0.10916
    33  H(1)               0.00146       6.54436       2.33519       2.18296
    34  C(13)             -0.00048      -0.53928      -0.19243      -0.17988
    35  H(1)               0.00056       2.49377       0.88984       0.83183
    36  H(1)               0.00070       3.11776       1.11249       1.03997
    37  H(1)              -0.00011      -0.49071      -0.17510      -0.16368
    38  C(13)              0.00214       2.40910       0.85963       0.80359
    39  H(1)              -0.00153      -6.84231      -2.44151      -2.28235
    40  H(1)              -0.00075      -3.33378      -1.18957      -1.11203
    41  H(1)              -0.00034      -1.50119      -0.53566      -0.50074
    42  C(13)             -0.00897     -10.08280      -3.59780      -3.36326
    43  H(1)               0.00155       6.93156       2.47335       2.31212
    44  C(13)              0.01203      13.52918       4.82755       4.51285
    45  H(1)              -0.00131      -5.87679      -2.09699      -1.96029
    46  H(1)              -0.00136      -6.07461      -2.16757      -2.02627
    47  C(13)             -0.00072      -0.80451      -0.28707      -0.26836
    48  H(1)               0.00054       2.39447       0.85441       0.79871
    49  H(1)               0.00098       4.38873       1.56601       1.46392
    50  H(1)              -0.00002      -0.09023      -0.03220      -0.03010
    51  C(13)             -0.00043      -0.48208      -0.17202      -0.16080
    52  H(1)               0.00001       0.04126       0.01472       0.01376
    53  C(13)              0.00092       1.03631       0.36978       0.34567
    54  H(1)              -0.00009      -0.39165      -0.13975      -0.13064
    55  H(1)              -0.00007      -0.32277      -0.11517      -0.10766
    56  C(13)             -0.00321      -3.60743      -1.28722      -1.20331
    57  H(1)               0.00321      14.35063       5.12066       4.78685
    58  H(1)               0.00253      11.29294       4.02960       3.76692
    59  H(1)               0.00002       0.10262       0.03662       0.03423
    60  C(13)              0.00108       1.21146       0.43228       0.40410
    61  H(1)              -0.00068      -3.03929      -1.08450      -1.01380
    62  H(1)              -0.00012      -0.53067      -0.18936      -0.17701
    63  H(1)              -0.00066      -2.92799      -1.04478      -0.97667
    64  C(13)             -0.00028      -0.31977      -0.11410      -0.10666
    65  H(1)               0.00001       0.03418       0.01220       0.01140
    66  H(1)               0.00003       0.14686       0.05240       0.04899
    67  H(1)              -0.00014      -0.62627      -0.22347      -0.20890
    68  S(33)             -0.00676      -2.32116      -0.82825      -0.77426
    69  H(1)              -0.00046      -2.04945      -0.73129      -0.68362
 --------------------------------------------------------
       Center         ----  Spin Dipole Couplings  ----
                      3XX-RR        3YY-RR        3ZZ-RR
 --------------------------------------------------------
     1   Atom        0.406877     -0.721034      0.314157
     2   Atom        0.047767      0.051588     -0.099355
     3   Atom        0.017789      0.007124     -0.024913
     4   Atom        0.018353      0.021108     -0.039461
     5   Atom        0.021684      0.013000     -0.034684
     6   Atom       -0.098875     -0.100784      0.199659
     7   Atom       -0.006690     -0.002591      0.009281
     8   Atom       -0.023629     -0.024293      0.047922
     9   Atom       -0.086435     -0.081489      0.167924
    10   Atom       -0.090708     -0.092307      0.183015
    11   Atom        0.035805      0.031298     -0.067103
    12   Atom       -0.057839     -0.060366      0.118205
    13   Atom       -0.030772     -0.033213      0.063985
    14   Atom       -0.040235     -0.038083      0.078317
    15   Atom       -0.012643     -0.008867      0.021510
    16   Atom       -0.000749      0.000126      0.000622
    17   Atom       -0.054002     -0.050338      0.104341
    18   Atom       -0.048260     -0.050738      0.098998
    19   Atom       -0.048109     -0.053610      0.101719
    20   Atom        0.021966      0.021895     -0.043861
    21   Atom       -0.099803     -0.102299      0.202102
    22   Atom        0.047233      0.042101     -0.089335
    23   Atom        0.004330     -0.001049     -0.003281
    24   Atom        0.035968      0.043463     -0.079431
    25   Atom       -0.000852      0.003845     -0.002993
    26   Atom        0.018058      0.013704     -0.031763
    27   Atom        0.002140      0.000073     -0.002213
    28   Atom        0.022262      0.026478     -0.048740
    29   Atom       -0.000773      0.003321     -0.002548
    30   Atom       -0.001035     -0.000640      0.001674
    31   Atom        0.001598     -0.000312     -0.001286
    32   Atom       -0.000271      0.001360     -0.001089
    33   Atom        0.001184     -0.000380     -0.000803
    34   Atom       -0.002269      0.001766      0.000502
    35   Atom       -0.001014      0.002026     -0.001012
    36   Atom       -0.000839      0.001992     -0.001153
    37   Atom       -0.000740      0.001797     -0.001057
    38   Atom        0.001657      0.000177     -0.001834
    39   Atom        0.001011     -0.000034     -0.000977
    40   Atom        0.001502     -0.000594     -0.000908
    41   Atom        0.000575      0.000398     -0.000974
    42   Atom        0.006896      0.010971     -0.017868
    43   Atom        0.001308      0.000774     -0.002082
    44   Atom       -0.001167     -0.035707      0.036874
    45   Atom       -0.000329      0.000684     -0.000355
    46   Atom       -0.001434      0.003846     -0.002413
    47   Atom       -0.001611      0.001082      0.000528
    48   Atom       -0.000422      0.001205     -0.000783
    49   Atom       -0.000611      0.001323     -0.000712
    50   Atom       -0.000465      0.001192     -0.000727
    51   Atom        0.000251      0.000297     -0.000548
    52   Atom        0.000089      0.000626     -0.000715
    53   Atom       -0.000095     -0.000928      0.001023
    54   Atom        0.000264      0.000402     -0.000667
    55   Atom        0.000433      0.000176     -0.000610
    56   Atom        0.000537     -0.004000      0.003463
    57   Atom        0.001799     -0.000829     -0.000970
    58   Atom        0.001942     -0.000807     -0.001135
    59   Atom        0.002203     -0.001037     -0.001167
    60   Atom        0.000663      0.000382     -0.001045
    61   Atom        0.000264      0.000662     -0.000926
    62   Atom        0.000548      0.000393     -0.000941
    63   Atom        0.000282      0.000762     -0.001044
    64   Atom       -0.000941     -0.000778      0.001719
    65   Atom       -0.001203     -0.001082      0.002285
    66   Atom       -0.001344     -0.000913      0.002257
    67   Atom       -0.000629     -0.000719      0.001347
    68   Atom        0.018454      0.007649     -0.026103
    69   Atom       -0.000845     -0.001258      0.002103
 --------------------------------------------------------
                        XY            XZ            YZ
 --------------------------------------------------------
     1   Atom       -0.065598      0.029180      0.148282
     2   Atom        0.000410     -0.015570     -0.007203
     3   Atom       -0.004302      0.015502     -0.009095
     4   Atom        0.000896      0.001208     -0.001603
     5   Atom       -0.002315     -0.020481      0.008946
     6   Atom        0.002907      0.031905     -0.005032
     7   Atom       -0.000054      0.003174     -0.000580
     8   Atom        0.002695      0.010344     -0.001394
     9   Atom        0.001599      0.025052      0.010714
    10   Atom       -0.001931     -0.013760      0.016009
    11   Atom       -0.000423     -0.003329     -0.014968
    12   Atom       -0.003883     -0.006132      0.018575
    13   Atom       -0.000557      0.007198      0.007609
    14   Atom        0.001371      0.001953      0.006381
    15   Atom       -0.000234     -0.003403      0.005461
    16   Atom        0.001100     -0.001527      0.002447
    17   Atom        0.001157     -0.005409     -0.004500
    18   Atom       -0.001872      0.003583     -0.000982
    19   Atom       -0.001982      0.011491     -0.017606
    20   Atom       -0.001064     -0.005562      0.003852
    21   Atom       -0.004934      0.032140     -0.036665
    22   Atom        0.004959     -0.014629      0.004527
    23   Atom        0.002860     -0.000675     -0.000453
    24   Atom       -0.003244     -0.006069     -0.006523
    25   Atom       -0.002658     -0.000115     -0.000269
    26   Atom        0.001645     -0.000556     -0.004532
    27   Atom        0.001197     -0.000139     -0.000164
    28   Atom       -0.002564     -0.002730     -0.002023
    29   Atom       -0.001458      0.000074      0.000128
    30   Atom        0.002209      0.000232     -0.000102
    31   Atom        0.001589      0.000826      0.000053
    32   Atom        0.001367     -0.000147     -0.000232
    33   Atom        0.001448     -0.001471     -0.000416
    34   Atom        0.000094      0.000471     -0.000119
    35   Atom       -0.000625     -0.000444      0.000906
    36   Atom       -0.000795      0.000458     -0.000784
    37   Atom        0.000457     -0.000036     -0.000069
    38   Atom       -0.000251     -0.000086     -0.000129
    39   Atom       -0.000080      0.000229     -0.000102
    40   Atom        0.000082     -0.000415     -0.000103
    41   Atom        0.000116     -0.000300     -0.000608
    42   Atom       -0.008973      0.021673      0.009458
    43   Atom       -0.002033      0.000763     -0.000455
    44   Atom        0.013400     -0.056434     -0.020599
    45   Atom        0.003875      0.000746      0.002758
    46   Atom       -0.004448     -0.001996     -0.001093
    47   Atom        0.000090     -0.000245      0.000550
    48   Atom       -0.000409      0.000310     -0.000708
    49   Atom       -0.000266     -0.000301      0.000436
    50   Atom        0.000480     -0.000045     -0.000156
    51   Atom        0.001665      0.000579     -0.000676
    52   Atom        0.000661     -0.000020     -0.000226
    53   Atom       -0.001461     -0.003377      0.003529
    54   Atom        0.000503      0.000580      0.000145
    55   Atom        0.000828      0.000035      0.000281
    56   Atom        0.000005      0.000321     -0.000713
    57   Atom        0.001301     -0.001217     -0.001102
    58   Atom        0.001275      0.001049      0.000970
    59   Atom       -0.001044     -0.000143      0.000082
    60   Atom       -0.001561     -0.000314      0.000309
    61   Atom       -0.001280     -0.000460      0.000605
    62   Atom       -0.000974     -0.000111      0.000152
    63   Atom       -0.001274      0.000258     -0.000352
    64   Atom       -0.000288      0.000271      0.000319
    65   Atom        0.000396     -0.000139      0.000695
    66   Atom        0.000183      0.000849      0.000109
    67   Atom        0.000022      0.000314      0.000325
    68   Atom       -0.000322     -0.000731      0.003490
    69   Atom       -0.000394      0.000934     -0.000957
 --------------------------------------------------------


 ---------------------------------------------------------------------------------
              Anisotropic Spin Dipole Couplings in Principal Axis System
 ---------------------------------------------------------------------------------

       Atom             a.u.   MegaHertz   Gauss  10(-4) cm-1        Axes

              Baa    -0.7460   -12.915    -4.608    -4.308  0.0598  0.9884 -0.1399
     1 Fe(57) Bbb     0.3302     5.716     2.040     1.907 -0.2367  0.1502  0.9599
              Bcc     0.4158     7.199     2.569     2.401  0.9697 -0.0243  0.2429
 
              Baa    -0.1013    -3.908    -1.394    -1.303  0.1036  0.0465  0.9935
     2 N(14)  Bbb     0.0489     1.888     0.674     0.630  0.9287 -0.3620 -0.0799
              Bcc     0.0524     2.020     0.721     0.674  0.3559  0.9310 -0.0807
 
              Baa    -0.0314    -1.210    -0.432    -0.404 -0.2800  0.1910  0.9408
     3 N(14)  Bbb     0.0058     0.225     0.080     0.075  0.4090  0.9104 -0.0631
              Bcc     0.0256     0.985     0.352     0.329  0.8685 -0.3671  0.3330
 
              Baa    -0.0395    -1.525    -0.544    -0.509 -0.0213  0.0267  0.9994
     4 N(14)  Bbb     0.0181     0.699     0.250     0.233  0.9612 -0.2746  0.0278
              Bcc     0.0214     0.825     0.294     0.275  0.2752  0.9612 -0.0199
 
              Baa    -0.0424    -1.637    -0.584    -0.546  0.2967 -0.1400  0.9447
     5 N(14)  Bbb     0.0126     0.485     0.173     0.162  0.3251  0.9449  0.0380
              Bcc     0.0299     1.152     0.411     0.384  0.8979 -0.2959 -0.3258
 
              Baa    -0.1050   -14.095    -5.030    -4.702  0.7691 -0.6327 -0.0910
     6 C(13)  Bbb    -0.0981   -13.159    -4.695    -4.389  0.6305  0.7743 -0.0545
              Bcc     0.2031    27.255     9.725     9.091  0.1049 -0.0155  0.9944
 
              Baa    -0.0073    -0.979    -0.349    -0.327  0.9820 -0.0120 -0.1884
     7 C(13)  Bbb    -0.0026    -0.351    -0.125    -0.117  0.0205  0.9989  0.0432
              Bcc     0.0099     1.331     0.475     0.444  0.1877 -0.0463  0.9811
 
              Baa    -0.0276    -3.702    -1.321    -1.235  0.7451 -0.6571 -0.1142
     8 C(13)  Bbb    -0.0218    -2.927    -1.044    -0.976  0.6521  0.7537 -0.0817
              Bcc     0.0494     6.629     2.365     2.211  0.1397 -0.0136  0.9901
 
              Baa    -0.0889   -11.933    -4.258    -3.980  0.9925 -0.0787 -0.0935
     9 C(13)  Bbb    -0.0819   -10.991    -3.922    -3.666  0.0742  0.9960 -0.0502
              Bcc     0.1708    22.924     8.180     7.647  0.0971  0.0428  0.9944
 
              Baa    -0.0938   -12.584    -4.490    -4.197  0.4301  0.9022 -0.0308
    10 C(13)  Bbb    -0.0909   -12.193    -4.351    -4.067  0.9014 -0.4273  0.0703
              Bcc     0.1846    24.777     8.841     8.265 -0.0502  0.0580  0.9971
 
              Baa    -0.0694    -9.318    -3.325    -3.108  0.0319  0.1470  0.9886
    11 C(13)  Bbb     0.0335     4.498     1.605     1.500 -0.0299  0.9888 -0.1461
              Bcc     0.0359     4.819     1.720     1.608  0.9990  0.0249 -0.0359
 
              Baa    -0.0640    -8.593    -3.066    -2.866  0.4767  0.8760 -0.0733
    12 C(13)  Bbb    -0.0563    -7.558    -2.697    -2.521  0.8783 -0.4711  0.0810
              Bcc     0.1204    16.150     5.763     5.387 -0.0365  0.1030  0.9940
 
              Baa    -0.0342    -4.593    -1.639    -1.532  0.3541  0.9301 -0.0980
    13 C(13)  Bbb    -0.0309    -4.144    -1.479    -1.382  0.9323 -0.3593 -0.0419
              Bcc     0.0651     8.737     3.118     2.914  0.0742  0.0765  0.9943
 
              Baa    -0.0409    -5.490    -1.959    -1.831  0.8911 -0.4537  0.0097
    14 C(13)  Bbb    -0.0378    -5.071    -1.809    -1.691  0.4534  0.8895 -0.0565
              Bcc     0.0787    10.561     3.768     3.523  0.0170  0.0547  0.9984
 
              Baa    -0.0130    -1.745    -0.623    -0.582  0.9894 -0.0918  0.1121
    15 C(13)  Bbb    -0.0098    -1.312    -0.468    -0.438  0.1091  0.9812 -0.1594
              Bcc     0.0228     3.058     1.091     1.020 -0.0953  0.1699  0.9808
 
              Baa    -0.0034    -0.454    -0.162    -0.151 -0.5760  0.5813 -0.5747
    16 C(13)  Bbb     0.0005     0.067     0.024     0.022  0.8067  0.5181 -0.2844
              Bcc     0.0029     0.387     0.138     0.129 -0.1324  0.6274  0.7673
 
              Baa    -0.0544    -7.305    -2.607    -2.437  0.9692 -0.2448  0.0261
    17 C(13)  Bbb    -0.0502    -6.739    -2.405    -2.248  0.2438  0.9691  0.0367
              Bcc     0.1047    14.044     5.011     4.685 -0.0343 -0.0293  0.9990
 
              Baa    -0.0517    -6.944    -2.478    -2.316  0.4773  0.8787 -0.0056
    18 C(13)  Bbb    -0.0473    -6.353    -2.267    -2.119  0.8784 -0.4773 -0.0247
              Bcc     0.0991    13.297     4.745     4.435  0.0244 -0.0069  0.9997
 
              Baa    -0.0557    -7.468    -2.665    -2.491  0.1028  0.9893  0.1032
    19 C(13)  Bbb    -0.0489    -6.565    -2.343    -2.190  0.9918 -0.0940 -0.0866
              Bcc     0.1046    14.033     5.007     4.681  0.0760 -0.1112  0.9909
 
              Baa    -0.0445    -5.977    -2.133    -1.994  0.0823 -0.0564  0.9950
    20 C(13)  Bbb     0.0209     2.802     1.000     0.935  0.6656  0.7462 -0.0128
              Bcc     0.0237     3.175     1.133     1.059  0.7417 -0.6634 -0.0990
 
              Baa    -0.1070   -14.355    -5.122    -4.788  0.2798  0.9563  0.0843
    21 C(13)  Bbb    -0.1029   -13.807    -4.927    -4.605  0.9544 -0.2675 -0.1327
              Bcc     0.2099    28.162    10.049     9.394  0.1044 -0.1176  0.9876
 
              Baa    -0.0911   -12.221    -4.361    -4.077  0.1064 -0.0377  0.9936
    22 C(13)  Bbb     0.0400     5.371     1.917     1.792 -0.4471  0.8908  0.0817
              Bcc     0.0510     6.850     2.444     2.285  0.8881  0.4529 -0.0779
 
              Baa    -0.0034    -1.799    -0.642    -0.600  0.0278  0.1580  0.9871
    23 H(1)   Bbb    -0.0023    -1.209    -0.431    -0.403 -0.4058  0.9042 -0.1333
              Bcc     0.0056     3.008     1.073     1.003  0.9136  0.3968 -0.0893
 
              Baa    -0.0801   -10.750    -3.836    -3.586  0.0536  0.0540  0.9971
    24 C(13)  Bbb     0.0353     4.737     1.690     1.580  0.9446  0.3210 -0.0682
              Bcc     0.0448     6.013     2.145     2.006 -0.3238  0.9455 -0.0338
 
              Baa    -0.0030    -1.625    -0.580    -0.542  0.1829  0.1087  0.9771
    25 H(1)   Bbb    -0.0020    -1.069    -0.381    -0.357  0.8934  0.3963 -0.2114
              Bcc     0.0050     2.694     0.961     0.898 -0.4102  0.9116 -0.0246
 
              Baa    -0.0322    -4.323    -1.542    -1.442  0.0078  0.0979  0.9952
    26 C(13)  Bbb     0.0135     1.814     0.647     0.605 -0.3491  0.9328 -0.0891
              Bcc     0.0187     2.508     0.895     0.837  0.9370  0.3468 -0.0415
 
              Baa    -0.0022    -1.187    -0.424    -0.396  0.0143  0.0638  0.9979
    27 H(1)   Bbb    -0.0005    -0.251    -0.089    -0.084 -0.4186  0.9067 -0.0520
              Bcc     0.0027     1.438     0.513     0.480  0.9080  0.4170 -0.0397
 
              Baa    -0.0489    -6.563    -2.342    -2.189  0.0393  0.0281  0.9988
    28 C(13)  Bbb     0.0212     2.846     1.016     0.949  0.9052  0.4223 -0.0475
              Bcc     0.0277     3.716     1.326     1.240 -0.4231  0.9060 -0.0089
 
              Baa    -0.0026    -1.365    -0.487    -0.455 -0.0737 -0.0399  0.9965
    29 H(1)   Bbb    -0.0012    -0.656    -0.234    -0.219  0.9498  0.3019  0.0824
              Bcc     0.0038     2.021     0.721     0.674 -0.3042  0.9525  0.0157
 
              Baa    -0.0031    -0.412    -0.147    -0.137  0.7376 -0.6733 -0.0506
    30 C(13)  Bbb     0.0014     0.183     0.065     0.061  0.6452  0.7250 -0.2410
              Bcc     0.0017     0.229     0.082     0.076  0.1989  0.1451  0.9692
 
              Baa    -0.0017    -0.901    -0.322    -0.301 -0.4155  0.4487  0.7912
    31 H(1)   Bbb    -0.0009    -0.507    -0.181    -0.169 -0.2860  0.7613 -0.5820
              Bcc     0.0026     1.408     0.502     0.470  0.8634  0.4681  0.1880
 
              Baa    -0.0011    -0.595    -0.212    -0.198  0.2096 -0.0243  0.9775
    32 H(1)   Bbb    -0.0010    -0.557    -0.199    -0.186  0.8448 -0.4989 -0.1935
              Bcc     0.0022     1.152     0.411     0.384  0.4924  0.8663 -0.0840
 
              Baa    -0.0017    -0.915    -0.327    -0.305  0.5627 -0.3816  0.7333
    33 H(1)   Bbb    -0.0010    -0.515    -0.184    -0.172 -0.1697  0.8148  0.5543
              Bcc     0.0027     1.430     0.510     0.477  0.8090  0.4363 -0.3938
 
              Baa    -0.0023    -0.315    -0.113    -0.105  0.9861 -0.0273 -0.1641
    34 C(13)  Bbb     0.0006     0.077     0.027     0.026  0.1659  0.0846  0.9825
              Bcc     0.0018     0.239     0.085     0.080  0.0130  0.9960 -0.0880
 
              Baa    -0.0015    -0.787    -0.281    -0.262  0.6264 -0.0885  0.7744
    35 H(1)   Bbb    -0.0010    -0.509    -0.181    -0.170  0.7518  0.3312 -0.5702
              Bcc     0.0024     1.295     0.462     0.432 -0.2060  0.9394  0.2740
 
              Baa    -0.0015    -0.797    -0.285    -0.266 -0.5060  0.0778  0.8590
    36 H(1)   Bbb    -0.0009    -0.492    -0.175    -0.164  0.8217  0.3461  0.4527
              Bcc     0.0024     1.289     0.460     0.430 -0.2621  0.9350 -0.2391
 
              Baa    -0.0011    -0.566    -0.202    -0.189  0.1013  0.0079  0.9948
    37 H(1)   Bbb    -0.0008    -0.436    -0.156    -0.146  0.9798 -0.1739 -0.0983
              Bcc     0.0019     1.003     0.358     0.334  0.1722  0.9847 -0.0254
 
              Baa    -0.0018    -0.248    -0.088    -0.083  0.0292  0.0674  0.9973
    38 C(13)  Bbb     0.0001     0.020     0.007     0.007  0.1596  0.9846 -0.0712
              Bcc     0.0017     0.228     0.081     0.076  0.9867 -0.1613 -0.0180
 
              Baa    -0.0010    -0.540    -0.193    -0.180 -0.1080  0.0948  0.9896
    39 H(1)   Bbb    -0.0000    -0.018    -0.006    -0.006  0.0947  0.9919 -0.0847
              Bcc     0.0010     0.558     0.199     0.186  0.9896 -0.0846  0.1161
 
              Baa    -0.0010    -0.532    -0.190    -0.177  0.1532  0.2154  0.9644
    40 H(1)   Bbb    -0.0006    -0.309    -0.110    -0.103 -0.0794  0.9755 -0.2052
              Bcc     0.0016     0.841     0.300     0.280  0.9850  0.0451 -0.1666
 
              Baa    -0.0012    -0.660    -0.235    -0.220  0.1329  0.3372  0.9320
    41 H(1)   Bbb     0.0004     0.216     0.077     0.072  0.7176 -0.6813  0.1442
              Bcc     0.0008     0.444     0.158     0.148  0.6836  0.6497 -0.3325
 
              Baa    -0.0340    -4.567    -1.630    -1.523 -0.4962 -0.2722  0.8244
    42 C(13)  Bbb     0.0132     1.772     0.632     0.591  0.2354  0.8718  0.4295
              Bcc     0.0208     2.795     0.997     0.932  0.8357 -0.4072  0.3685
 
              Baa    -0.0022    -1.199    -0.428    -0.400 -0.2045  0.0098  0.9788
    43 H(1)   Bbb    -0.0010    -0.528    -0.188    -0.176  0.6340  0.7632  0.1248
              Bcc     0.0032     1.726     0.616     0.576  0.7458 -0.6461  0.1623
 
              Baa    -0.0424    -5.696    -2.033    -1.900  0.6077  0.5481  0.5747
    44 C(13)  Bbb    -0.0401    -5.375    -1.918    -1.793 -0.5533  0.8114 -0.1886
              Bcc     0.0825    11.071     3.951     3.693 -0.5697 -0.2033  0.7963
 
              Baa    -0.0042    -2.263    -0.808    -0.755 -0.6156  0.6937 -0.3739
    45 H(1)   Bbb    -0.0010    -0.558    -0.199    -0.186 -0.5627 -0.0547  0.8249
              Bcc     0.0053     2.821     1.007     0.941  0.5518  0.7182  0.4240
 
              Baa    -0.0056    -2.985    -1.065    -0.996  0.7077  0.4008  0.5818
    46 H(1)   Bbb    -0.0008    -0.419    -0.149    -0.140 -0.5035 -0.2916  0.8133
              Bcc     0.0064     3.404     1.214     1.135 -0.4956  0.8685  0.0045
 
              Baa    -0.0016    -0.221    -0.079    -0.074  0.9903 -0.0581  0.1261
    47 C(13)  Bbb     0.0002     0.030     0.011     0.010 -0.1377 -0.5246  0.8402
              Bcc     0.0014     0.191     0.068     0.064 -0.0173  0.8494  0.5275
 
              Baa    -0.0011    -0.567    -0.202    -0.189 -0.2973  0.2353  0.9253
    48 H(1)   Bbb    -0.0005    -0.260    -0.093    -0.087  0.9242  0.3143  0.2170
              Bcc     0.0016     0.828     0.295     0.276 -0.2398  0.9197 -0.3109
 
              Baa    -0.0010    -0.523    -0.187    -0.174  0.5930 -0.0833  0.8009
    49 H(1)   Bbb    -0.0005    -0.258    -0.092    -0.086  0.7902  0.2513 -0.5589
              Bcc     0.0015     0.781     0.279     0.260 -0.1547  0.9643  0.2148
 
              Baa    -0.0007    -0.395    -0.141    -0.132  0.0408  0.0703  0.9967
    50 H(1)   Bbb    -0.0006    -0.317    -0.113    -0.106  0.9650 -0.2614 -0.0211
              Bcc     0.0013     0.712     0.254     0.237  0.2591  0.9627 -0.0785
 
              Baa    -0.0020    -0.262    -0.093    -0.087 -0.5945  0.6009  0.5343
    51 C(13)  Bbb     0.0000     0.001     0.000     0.000  0.4034 -0.3520  0.8446
              Bcc     0.0019     0.261     0.093     0.087  0.6956  0.7177 -0.0331
 
              Baa    -0.0008    -0.409    -0.146    -0.136 -0.1548  0.2295  0.9609
    52 H(1)   Bbb    -0.0003    -0.175    -0.062    -0.058  0.8220 -0.5096  0.2541
              Bcc     0.0011     0.583     0.208     0.195  0.5480  0.8292 -0.1098
 
              Baa    -0.0040    -0.532    -0.190    -0.178  0.3656 -0.6251  0.6896
    53 C(13)  Bbb    -0.0019    -0.256    -0.091    -0.085  0.7732  0.6164  0.1488
              Bcc     0.0059     0.788     0.281     0.263 -0.5181  0.4788  0.7087
 
              Baa    -0.0010    -0.507    -0.181    -0.169 -0.4540  0.0733  0.8880
    54 H(1)   Bbb    -0.0000    -0.023    -0.008    -0.008 -0.5633  0.7486 -0.3498
              Bcc     0.0010     0.531     0.189     0.177  0.6903  0.6590  0.2986
 
              Baa    -0.0008    -0.416    -0.149    -0.139  0.3312 -0.5185  0.7883
    55 H(1)   Bbb    -0.0004    -0.207    -0.074    -0.069 -0.5786  0.5484  0.6037
              Bcc     0.0012     0.623     0.222     0.208  0.7453  0.6561  0.1184
 
              Baa    -0.0041    -0.546    -0.195    -0.182 -0.0076  0.9955  0.0946
    56 C(13)  Bbb     0.0005     0.068     0.024     0.023  0.9945  0.0174 -0.1036
              Bcc     0.0036     0.478     0.171     0.160  0.1048 -0.0933  0.9901
 
              Baa    -0.0020    -1.069    -0.382    -0.357 -0.0010  0.6848  0.7288
    57 H(1)   Bbb    -0.0009    -0.506    -0.181    -0.169 -0.5439  0.6112 -0.5750
              Bcc     0.0030     1.576     0.562     0.526  0.8391  0.3969 -0.3719
 
              Baa    -0.0020    -1.043    -0.372    -0.348  0.0085 -0.6508  0.7592
    58 H(1)   Bbb    -0.0009    -0.499    -0.178    -0.166 -0.4976  0.6558  0.5677
              Bcc     0.0029     1.542     0.550     0.514  0.8674  0.3826  0.3182
 
              Baa    -0.0014    -0.721    -0.257    -0.241  0.2677  0.9405 -0.2094
    59 H(1)   Bbb    -0.0012    -0.622    -0.222    -0.207  0.1001  0.1890  0.9769
              Bcc     0.0025     1.343     0.479     0.448  0.9583 -0.2824 -0.0436
 
              Baa    -0.0011    -0.149    -0.053    -0.050 -0.0676 -0.2699  0.9605
    60 C(13)  Bbb    -0.0010    -0.140    -0.050    -0.047  0.6794  0.6926  0.2425
              Bcc     0.0022     0.289     0.103     0.096  0.7307 -0.6689 -0.1366
 
              Baa    -0.0011    -0.604    -0.215    -0.201  0.0559 -0.2830  0.9575
    61 H(1)   Bbb    -0.0008    -0.441    -0.157    -0.147  0.7778  0.6137  0.1359
              Bcc     0.0020     1.045     0.373     0.348 -0.6260  0.7371  0.2544
 
              Baa    -0.0010    -0.511    -0.182    -0.171  0.0013 -0.1111  0.9938
    62 H(1)   Bbb    -0.0005    -0.269    -0.096    -0.090  0.6818  0.7272  0.0804
              Bcc     0.0015     0.780     0.278     0.260  0.7316 -0.6774 -0.0766
 
              Baa    -0.0011    -0.593    -0.211    -0.198 -0.0349  0.1615  0.9863
    63 H(1)   Bbb    -0.0008    -0.412    -0.147    -0.138  0.7756  0.6267 -0.0751
              Bcc     0.0019     1.005     0.359     0.335 -0.6302  0.7623 -0.1471
 
              Baa    -0.0012    -0.163    -0.058    -0.054  0.7783  0.6125 -0.1385
    64 C(13)  Bbb    -0.0006    -0.076    -0.027    -0.025 -0.6219  0.7823 -0.0356
              Bcc     0.0018     0.239     0.085     0.080  0.0866  0.1138  0.9897
 
              Baa    -0.0016    -0.868    -0.310    -0.290  0.6999 -0.6985  0.1489
    65 H(1)   Bbb    -0.0008    -0.425    -0.152    -0.142  0.7140  0.6892 -0.1233
              Bcc     0.0024     1.293     0.461     0.431 -0.0165  0.1926  0.9811
 
              Baa    -0.0016    -0.838    -0.299    -0.280  0.9513 -0.2308 -0.2045
    66 H(1)   Bbb    -0.0009    -0.471    -0.168    -0.157  0.2160  0.9720 -0.0920
              Bcc     0.0025     1.309     0.467     0.437  0.2200  0.0434  0.9745
 
              Baa    -0.0008    -0.414    -0.148    -0.138  0.2510  0.9506 -0.1829
    67 H(1)   Bbb    -0.0007    -0.357    -0.127    -0.119  0.9563 -0.2727 -0.1051
              Bcc     0.0014     0.771     0.275     0.257  0.1498  0.1485  0.9775
 
              Baa    -0.0265    -1.085    -0.387    -0.362  0.0154 -0.1016  0.9947
    68 S(33)  Bbb     0.0080     0.328     0.117     0.109  0.0376  0.9942  0.1010
              Bcc     0.0185     0.758     0.270     0.253  0.9992 -0.0358 -0.0192
 
              Baa    -0.0016    -0.830    -0.296    -0.277  0.2973  0.9396  0.1698
    69 H(1)   Bbb    -0.0011    -0.581    -0.207    -0.194  0.9138 -0.2285 -0.3358
              Bcc     0.0026     1.411     0.504     0.471  0.2767 -0.2550  0.9265
 

 ---------------------------------------------------------------------------------

 Unable to Open any file for archive entry.
 1\1\GINC-BGN1031\SP\UAPFD\Gen\C31H32Fe1N4S1(1+,2)\BEBJONES\25-Sep-2024
 \0\\# apfd/gen scf=maxcycle=999 geom=check\\1re9_III_D\\1,2\Fe,0,33.35
 75320373,22.1767773883,27.7080887201\N,0,31.6126017506,21.6387590343,2
 6.895892256\N,0,32.3592738824,23.1218874769,29.1730876381\N,0,35.05753
 01983,23.0221034917,28.3215645226\N,0,34.277703857,21.6362451541,26.00
 82441328\C,0,31.4355129792,20.8730576014,25.7830632484\C,0,30.04189865
 67,20.5360062917,25.6040630263\C,0,29.3690617644,21.1417615526,26.6188
 216015\C,0,30.3687518847,21.7919705992,27.4355062657\C,0,31.0273280039
 ,23.0142978052,29.4543868941\C,0,30.7184612687,23.592287333,30.7350619
 525\C,0,31.9084512808,24.0262087365,31.2571660385\C,0,32.916147852,23.
 716571199,30.2651483319\C,0,35.2405243301,23.7060220035,29.4878599421\
 C,0,36.6319253499,24.0229584727,29.6808854892\C,0,37.263778336,23.6866
 56587,28.5148996054\C,0,36.2647467054,23.0279690925,27.6962375787\C,0,
 35.6049972996,21.745460372,25.7218520846\C,0,35.9389370945,21.01441680
 71,24.5203393701\C,0,34.7889579502,20.4208018554,24.1044943877\C,0,33.
 7728939075,20.7941476592,25.0620330613\C,0,32.4399476904,20.4581598352
 ,24.9307164929\H,0,32.1633581007,19.8188638464,24.1067954148\C,0,30.08
 64514285,22.4293388589,28.6259256273\H,0,29.0579761531,22.4407211734,2
 8.9517831231\C,0,34.2619167945,23.9785555963,30.4244312566\H,0,34.5726
 25738,24.4624820759,31.3372336373\C,0,36.5399215027,22.3982919511,26.4
 991190337\H,0,37.5628121962,22.4021386771,26.1580802556\C,0,27.9092331
 199,21.1473165315,26.9149123122\H,0,27.7062753642,20.6630445304,27.870
 8029502\H,0,27.3569446802,20.6205393197,26.1409988593\H,0,27.535607415
 7,22.1696912607,26.9675981155\C,0,29.5147050406,19.7133986556,24.47984
 5822\H,0,29.9682220237,18.721979855,24.4854145673\H,0,29.7400946015,20
 .1835334833,23.5226614737\H,0,28.4367804247,19.5966477079,24.559270196
 8\C,0,29.3510479841,23.7279566736,31.3064255321\H,0,29.0243724041,22.7
 928988893,31.7646324716\H,0,28.6345400406,23.9916875511,30.5300240905\
 H,0,29.3416056304,24.5052692615,32.0673744463\C,0,32.1674348745,24.694
 5832013,32.513890772\H,0,32.9608200993,25.4324799594,32.4962819006\C,0
 ,31.5221392876,24.4663757265,33.6527416496\H,0,30.7574672017,23.713882
 3253,33.7381203159\H,0,31.7565192775,25.0123882651,34.5512251938\C,0,3
 7.1927018006,24.7239277236,30.8684589941\H,0,36.9169389449,24.20347744
 32,31.7855014249\H,0,36.8114301026,25.7438762832,30.9298666238\H,0,38.
 2768194783,24.7708975719,30.8059503102\C,0,38.6573461564,23.9011839856
 ,28.1835241206\H,0,39.3535262361,23.7744639508,29.0053263039\C,0,39.11
 7307951,24.2770813549,26.9959476987\H,0,38.4603530535,24.4714171034,26
 .1651419049\H,0,40.1690754335,24.4312047354,26.821503728\C,0,37.299075
 8296,20.9716860116,23.9158539637\H,0,38.004896076,20.4980668354,24.598
 552893\H,0,37.6564822028,21.9794571739,23.7061809026\H,0,37.2911534168
 ,20.4095780523,22.9853995576\C,0,34.5496692443,19.5450763808,22.923500
 6064\H,0,34.1464946703,18.5816454946,23.2353761173\H,0,35.4746423256,1
 9.3697751999,22.3802550614\H,0,33.8342866929,20.0078147395,22.24317628
 09\C,0,32.3732209337,19.0403779769,28.5981407441\H,0,32.4927671039,18.
 6863247084,27.5792901328\H,0,31.4155375537,19.5385183876,28.7044752649
 \H,0,32.4685170792,18.2153019709,29.2970408599\S,0,33.7316723886,20.23
 36991591,28.8925400461\H,0,33.3152498621,20.5745560327,30.1209948021\\
 Version=ES64L-G16RevC.02\State=2-A\HF=-3080.0121159\S2=0.788355\S2-1=0
 .\S2A=0.751275\RMSD=7.600e-09\Dipole=-0.61514,-1.0796983,0.3718947\Qua
 drupole=12.8711828,-20.9758911,8.1047083,11.3437946,-7.8316112,20.6892
 657\PG=C01 [X(C31H32Fe1N4S1)]\\@
 The archive entry for this job was punched.


 SIC AS THE CAWSE OF EWERY THING IS, SIC WILBE THE EFFECT.
 -- PROVERBS AND REASONS OF THE YEAR 1585
           AS REPRINTED IN PAISLEY MAGAZINE 1828.
 Job cpu time:       0 days 21 hours 14 minutes 16.4 seconds.
 Elapsed time:       0 days  0 hours 21 minutes 54.0 seconds.
 File lengths (MBytes):  RWF=    343 Int=      0 D2E=      0 Chk=    150 Scr=      1
 Normal termination of Gaussian 16 at Wed Sep 25 23:05:43 2024.
