 Entering Gaussian System, Link 0=g16
 Input=1tqn05.com
 Output=1tqn05.log
 Initial command:
 /sw/chem/gaussian/g16_C02/a100/g16/l1.exe "/local/bebjones_8047753/Gau-387143.inp" -scrdir="/local/bebjones_8047753/"
 Entering Link 1 = /sw/chem/gaussian/g16_C02/a100/g16/l1.exe PID=    387144.
  
 Copyright (c) 1988-2021, Gaussian, Inc.  All Rights Reserved.
  
 This is part of the Gaussian(R) 16 program.  It is based on
 the Gaussian(R) 09 system (copyright 2009, Gaussian, Inc.),
 the Gaussian(R) 03 system (copyright 2003, Gaussian, Inc.),
 the Gaussian(R) 98 system (copyright 1998, Gaussian, Inc.),
 the Gaussian(R) 94 system (copyright 1995, Gaussian, Inc.),
 the Gaussian 92(TM) system (copyright 1992, Gaussian, Inc.),
 the Gaussian 90(TM) system (copyright 1990, Gaussian, Inc.),
 the Gaussian 88(TM) system (copyright 1988, Gaussian, Inc.),
 the Gaussian 86(TM) system (copyright 1986, Carnegie Mellon
 University), and the Gaussian 82(TM) system (copyright 1983,
 Carnegie Mellon University). Gaussian is a federally registered
 trademark of Gaussian, Inc.
  
 This software contains proprietary and confidential information,
 including trade secrets, belonging to Gaussian, Inc.
  
 This software is provided under written license and may be
 used, copied, transmitted, or stored only in accord with that
 written license.
  
 The following legend is applicable only to US Government
 contracts under FAR:
  
                    RESTRICTED RIGHTS LEGEND
  
 Use, reproduction and disclosure by the US Government is
 subject to restrictions as set forth in subparagraphs (a)
 and (c) of the Commercial Computer Software - Restricted
 Rights clause in FAR 52.227-19.
  
 Gaussian, Inc.
 340 Quinnipiac St., Bldg. 40, Wallingford CT 06492
  
  
 ---------------------------------------------------------------
 Warning -- This program may not be used in any manner that
 competes with the business of Gaussian, Inc. or will provide
 assistance to any competitor of Gaussian, Inc.  The licensee
 of this program is prohibited from giving any competitor of
 Gaussian, Inc. access to this program.  By using this program,
 the user acknowledges that Gaussian, Inc. is engaged in the
 business of creating and licensing software in the field of
 computational chemistry and represents and warrants to the
 licensee that it is not a competitor of Gaussian, Inc. and that
 it will not use this program in any manner prohibited above.
 ---------------------------------------------------------------
  

 Cite this work as:
 Gaussian 16, Revision C.02,
 M. J. Frisch, G. W. Trucks, H. B. Schlegel, G. E. Scuseria, 
 M. A. Robb, J. R. Cheeseman, G. Scalmani, V. Barone, 
 G. A. Petersson, H. Nakatsuji, X. Li, M. Caricato, A. V. Marenich, 
 J. Bloino, B. G. Janesko, R. Gomperts, B. Mennucci, H. P. Hratchian, 
 J. V. Ortiz, A. F. Izmaylov, J. L. Sonnenberg, D. Williams-Young, 
 F. Ding, F. Lipparini, F. Egidi, J. Goings, B. Peng, A. Petrone, 
 T. Henderson, D. Ranasinghe, V. G. Zakrzewski, J. Gao, N. Rega, 
 G. Zheng, W. Liang, M. Hada, M. Ehara, K. Toyota, R. Fukuda, 
 J. Hasegawa, M. Ishida, T. Nakajima, Y. Honda, O. Kitao, H. Nakai, 
 T. Vreven, K. Throssell, J. A. Montgomery, Jr., J. E. Peralta, 
 F. Ogliaro, M. J. Bearpark, J. J. Heyd, E. N. Brothers, K. N. Kudin, 
 V. N. Staroverov, T. A. Keith, R. Kobayashi, J. Normand, 
 K. Raghavachari, A. P. Rendell, J. C. Burant, S. S. Iyengar, 
 J. Tomasi, M. Cossi, J. M. Millam, M. Klene, C. Adamo, R. Cammi, 
 J. W. Ochterski, R. L. Martin, K. Morokuma, O. Farkas, 
 J. B. Foresman, and D. J. Fox, Gaussian, Inc., Wallingford CT, 2019.
 
 ******************************************
 Gaussian 16:  ES64L-G16RevC.02  7-Dec-2021
                15-Oct-2024 
 ******************************************
 %mem=16GB
 %CPU=0-71
 SetSPE:  set environment variable "OMP_PROC_BIND" = "true"
 SetSPE:  set environment variable "OMP_PLACES" = "{0},{1},{2},{3},{4},{5},{6},{7},{8},{9},{10},{11},{12},{13},{14},{15},{16},{17},{18},{19},{20},{21},{22},{23},{24},{25},{26},{27},{28},{29},{30},{31},{32},{33},{34},{35},{36},{37},{38},{39},{40},{41},{42},{43},{44},{45},{46},{47},{48},{49},{50},{51},{52},{53},{54},{55},{56},{57},{58},{59},{60},{61},{62},{63},{64},{65},{66},{67},{68},{69},{70},{71}"
 Will use up to   72 processors via shared memory.
 %gpucpu=0,1,2,3=0,1,2,3
 Will use    4 GPUs:
 Thread  CPU   GPU
      0    0     0
      1    1     1
      2    2     2
      3    3     3
      4    4    -1
      5    5    -1
      6    6    -1
      7    7    -1
      8    8    -1
      9    9    -1
     10   10    -1
     11   11    -1
     12   12    -1
     13   13    -1
     14   14    -1
     15   15    -1
     16   16    -1
     17   17    -1
     18   18    -1
     19   19    -1
     20   20    -1
     21   21    -1
     22   22    -1
     23   23    -1
     24   24    -1
     25   25    -1
     26   26    -1
     27   27    -1
     28   28    -1
     29   29    -1
     30   30    -1
     31   31    -1
     32   32    -1
     33   33    -1
     34   34    -1
     35   35    -1
     36   36    -1
     37   37    -1
     38   38    -1
     39   39    -1
     40   40    -1
     41   41    -1
     42   42    -1
     43   43    -1
     44   44    -1
     45   45    -1
     46   46    -1
     47   47    -1
     48   48    -1
     49   49    -1
     50   50    -1
     51   51    -1
     52   52    -1
     53   53    -1
     54   54    -1
     55   55    -1
     56   56    -1
     57   57    -1
     58   58    -1
     59   59    -1
     60   60    -1
     61   61    -1
     62   62    -1
     63   63    -1
     64   64    -1
     65   65    -1
     66   66    -1
     67   67    -1
     68   68    -1
     69   69    -1
     70   70    -1
     71   71    -1
 SetGPE:  set environment variable "OMP_PROC_BIND" = "true"
 SetGPE:  set environment variable "OMP_PLACES" = "{0},{1},{2},{3},{4},{5},{6},{7},{8},{9},{10},{11},{12},{13},{14},{15},{16},{17},{18},{19},{20},{21},{22},{23},{24},{25},{26},{27},{28},{29},{30},{31},{32},{33},{34},{35},{36},{37},{38},{39},{40},{41},{42},{43},{44},{45},{46},{47},{48},{49},{50},{51},{52},{53},{54},{55},{56},{57},{58},{59},{60},{61},{62},{63},{64},{65},{66},{67},{68},{69},{70},{71}"
 %oldchk=1tqn_II_Sre.chk
 %chk=1tqn_II_Qn.chk
 Properties for Device   0
 Minimum vector length:                              32
 Maximum vector length:                            1024
 Number of SMPs:                                    108
 Maximum number of threads per SMP:                2048
 Number of ASync Engines:                             5
 Memory:                                           9207742464
 Properties for Device   1
 Minimum vector length:                              32
 Maximum vector length:                            1024
 Number of SMPs:                                    108
 Maximum number of threads per SMP:                2048
 Number of ASync Engines:                             5
 Memory:                                           9207742464
 Properties for Device   2
 Minimum vector length:                              32
 Maximum vector length:                            1024
 Number of SMPs:                                    108
 Maximum number of threads per SMP:                2048
 Number of ASync Engines:                             5
 Memory:                                           9207742464
 Properties for Device   3
 Minimum vector length:                              32
 Maximum vector length:                            1024
 Number of SMPs:                                    108
 Maximum number of threads per SMP:                2048
 Number of ASync Engines:                             5
 Memory:                                           9207742464
   8286968217 words of memory will be used on each GPU.
 Copying data from "1tqn_II_Sre.chk" to current chk file "1tqn_II_Qn.chk"
 IOpt=  2 FromEx=T IUOpen= 4 IOptOp= 5 NList=   0 IFRang= 0 IUIn= 4 IUOut= 2.
 --------------------------------------------------------------
 # apfd/def2TZVP guess=read scf=maxcycle=999 geom=check pop=nbo
 --------------------------------------------------------------
 1/29=2,38=1,172=1/1;
 2/12=2,40=1/2;
 3/5=44,7=101,11=2,14=-4,25=1,30=1,74=-44,116=-2/1,2,3;
 4/5=1/1;
 5/5=2,7=999,38=6/2;
 6/7=2,8=2,9=2,10=2,28=1,40=1/1,7;
 99/5=1,9=1/99;
 ---------
 1tqn_II_Q
 ---------
 Structure from the checkpoint file:  "1tqn_II_Qn.chk"
 Charge =  0 Multiplicity = 5
 Z-Matrix found in chk file.
 Fe,0,-15.6956079976,-23.1286279459,-11.4419903897
 N,0,-15.7309055077,-21.4619843262,-12.5615958745
 N,0,-16.2575103305,-24.1937018671,-13.0487250064
 N,0,-15.8925125232,-24.7437913924,-10.2791021388
 N,0,-15.2999173868,-22.0188070111,-9.8216083842
 C,0,-15.4953307316,-20.190962671,-12.1479703568
 C,0,-15.4862954343,-19.2778151505,-13.2680336034
 C,0,-15.6969777895,-20.0354112872,-14.3770226222
 C,0,-15.8476710472,-21.3990724383,-13.9164071196
 C,0,-16.3637328335,-23.7568462942,-14.3339109826
 C,0,-16.7287719341,-24.8376161227,-15.2128796865
 C,0,-16.8375305472,-25.953265293,-14.4258551169
 C,0,-16.5301966232,-25.523414446,-13.0755205149
 C,0,-16.2069120863,-26.0019132527,-10.6885352959
 C,0,-16.1553745417,-26.9276315645,-9.5852047283
 C,0,-15.7869246287,-26.1975743448,-8.487075023
 C,0,-15.6512383056,-24.8284968559,-8.9465300366
 C,0,-15.3170038908,-22.4358701673,-8.5297746387
 C,0,-15.1748095836,-21.3201817765,-7.622970366
 C,0,-15.029490511,-20.216162999,-8.4021038688
 C,0,-15.1223284525,-20.6671812447,-9.775662477
 C,0,-15.3120541295,-19.7998791943,-10.8340626712
 H,0,-15.2019759848,-18.7443562656,-10.6393392072
 C,0,-16.2587416971,-22.4344823312,-14.7316422673
 H,0,-16.3881886309,-22.2171118183,-15.7804159861
 C,0,-16.5612297124,-26.3594503211,-11.9767831984
 H,0,-16.8037784333,-27.3960835059,-12.151019238
 C,0,-15.3790818142,-23.755946083,-8.1196939736
 H,0,-15.2795667394,-23.9493564111,-7.0629344844
 C,0,-15.7683417732,-19.6187287936,-15.8057742535
 H,0,-15.50793175,-18.5688711449,-15.9156456653
 H,0,-16.775935554,-19.7630996489,-16.1975901911
 H,0,-15.0820190337,-20.209378705,-16.4121059217
 C,0,-15.2632436165,-17.8090807328,-13.1533946879
 H,0,-14.2999003511,-17.6020217374,-12.6868397999
 H,0,-16.0405816724,-17.351035548,-12.5416536521
 H,0,-15.2784500701,-17.3384912635,-14.1331738536
 C,0,-16.9960585533,-24.7053933905,-16.6710748098
 H,0,-16.0642290277,-24.7183838465,-17.2384057877
 H,0,-17.5089724794,-23.7696152492,-16.8881155519
 H,0,-17.6176548212,-25.5307041185,-17.012315666
 C,0,-17.2007018524,-27.302579777,-14.8003977029
 H,0,-17.770679128,-27.856285257,-14.0632367292
 C,0,-16.8885923887,-27.8927745042,-15.9491795652
 H,0,-16.2838806084,-27.4086301386,-16.6958391867
 H,0,-17.2055258014,-28.898512448,-16.1698351601
 C,0,-16.5054481543,-28.3718979066,-9.6621594891
 H,0,-15.6762489745,-28.9505569714,-10.0719486681
 H,0,-17.3718217565,-28.5247337991,-10.3040963781
 H,0,-16.7357638981,-28.7538321897,-8.6698313453
 C,0,-15.5908138104,-26.6339412834,-7.1222152976
 H,0,-15.8678527392,-25.9195031917,-6.355707222
 C,0,-15.0972625102,-27.8119682992,-6.75543783
 H,0,-14.7594773517,-28.5396337057,-7.4724923221
 H,0,-14.9879323199,-28.0779907863,-5.7172195598
 C,0,-15.1749050011,-21.4367363943,-6.1378972029
 H,0,-14.3284257514,-22.0353225643,-5.7991730366
 H,0,-16.0891571316,-21.9190763844,-5.7926738987
 H,0,-15.1086717898,-20.4559321108,-5.6736340523
 C,0,-14.8368680721,-18.7949390474,-7.9971907416
 H,0,-14.6593698868,-18.7196996006,-6.9271987195
 H,0,-15.7193393256,-18.2016875044,-8.2399866525
 H,0,-13.9839211865,-18.3605981573,-8.5182002128
 O,0,-17.896,-22.802,-11.166
 H,0,-18.251,-23.144,-11.986
 H,0,-18.364,-22.457,-10.493
 C,0,-12.5580490987,-21.9881688578,-11.8933955288
 H,0,-11.4923531351,-22.1627455534,-11.7826008627
 H,0,-12.9353292648,-21.329711168,-11.1185452872
 H,0,-12.7690391358,-21.5648807059,-12.8697175225
 S,0,-13.4396270488,-23.5883702248,-11.8178169045
 H,0,-13.0731467311,-23.8652329189,-10.5602465911
 Recover connectivity data from disk.
 Stoichiometry    C31H34FeN4OS(5)
 Framework group  C1[X(C31H34FeN4OS)]
 Deg. of freedom   210
 Full point group                 C1      NOp   1
 Largest Abelian subgroup         C1      NOp   1
 Largest concise Abelian subgroup C1      NOp   1
                         Standard orientation:                         
 ---------------------------------------------------------------------
 Center     Atomic      Atomic             Coordinates (Angstroms)
 Number     Number       Type             X           Y           Z
 ---------------------------------------------------------------------
      1         26           0       -0.149084   -0.006287   -0.040568
      2          7           0       -1.816061    1.105074   -0.176698
      3          7           0        0.951851    1.666769   -0.183880
      4          7           0        1.504712   -1.125992   -0.145681
      5          7           0       -1.267671   -1.668179   -0.068659
      6          6           0       -3.097889    0.660231   -0.209975
      7          6           0       -4.028006    1.765942   -0.182619
      8          6           0       -3.273860    2.894408   -0.105006
      9          6           0       -1.892701    2.462160   -0.102197
     10          6           0        0.506082    2.953196   -0.168910
     11          6           0        1.609182    3.877328   -0.224170
     12          6           0        2.746828    3.115904   -0.267794
     13          6           0        2.306871    1.734623   -0.234159
     14          6           0        2.786329   -0.673596   -0.192029
     15          6           0        3.718904   -1.771749   -0.155793
     16          6           0        2.966820   -2.912892   -0.073401
     17          6           0        1.582707   -2.479566   -0.091894
     18          6           0       -0.821849   -2.942877   -0.208141
     19          6           0       -1.923629   -3.861458   -0.380085
     20          6           0       -3.055362   -3.113260   -0.300069
     21          6           0       -2.628873   -1.740859   -0.117520
     22          6           0       -3.480911   -0.666575   -0.285935
     23          1           0       -4.535544   -0.876165   -0.375295
     24          6           0       -0.825578    3.330073   -0.218967
     25          1           0       -1.045263    4.386301   -0.226319
     26          6           0        3.163810    0.653220   -0.292161
     27          1           0        4.221167    0.862214   -0.338141
     28          6           0        0.501090   -3.338342   -0.118364
     29          1           0        0.702033   -4.398036   -0.145224
     30          6           0       -3.708697    4.317644   -0.031751
     31          1           0       -4.788830    4.386943    0.071190
     32          1           0       -3.416923    4.854869   -0.935003
     33          1           0       -3.248491    4.815684    0.821308
     34          6           0       -5.510312    1.618503   -0.215834
     35          1           0       -5.855183    1.013900    0.623271
     36          1           0       -5.825136    1.128717   -1.137399
     37          1           0       -5.996302    2.589370   -0.162139
     38          6           0        1.485323    5.358964   -0.292520
     39          1           0        1.337521    5.781600    0.702404
     40          1           0        0.637064    5.649184   -0.910660
     41          1           0        2.389731    5.789278   -0.717775
     42          6           0        4.127004    3.541100   -0.352329
     43          1           0        4.781361    2.897133   -0.928519
     44          6           0        4.632543    4.631157    0.214811
     45          1           0        4.041153    5.279402    0.837393
     46          1           0        5.669993    4.897085    0.098087
     47          6           0        5.197988   -1.642724   -0.256009
     48          1           0        5.628619   -1.360275    0.705824
     49          1           0        5.469785   -0.879123   -0.983391
     50          1           0        5.635450   -2.589589   -0.565375
     51          6           0        3.399879   -4.291461   -0.012368
     52          1           0        2.756868   -5.008774   -0.509063
     53          6           0        4.493979   -4.726725    0.603552
     54          1           0        5.141678   -4.067332    1.154415
     55          1           0        4.764608   -5.769495    0.600568
     56          6           0       -1.772451   -5.329968   -0.579209
     57          1           0       -1.306675   -5.790283    0.292989
     58          1           0       -1.143823   -5.535253   -1.445450
     59          1           0       -2.739859   -5.799547   -0.738958
     60          6           0       -4.478915   -3.543203   -0.397952
     61          1           0       -4.555153   -4.627738   -0.393452
     62          1           0       -4.931422   -3.172402   -1.318494
     63          1           0       -5.054770   -3.154944    0.441851
     64          8           0       -0.118092    0.047412   -2.281268
     65          1           0        0.255540    0.911265   -2.453158
     66          1           0       -0.368573   -0.548829   -2.891788
     67          6           0       -1.780336   -0.026659    2.906853
     68          1           0       -1.773230   -0.294406    3.958861
     69          1           0       -2.352084   -0.737296    2.319998
     70          1           0       -2.188695    0.969901    2.776445
     71         16           0       -0.059852    0.030572    2.290255
     72          1           0        0.186289   -1.267306    2.507905
 ---------------------------------------------------------------------
 Rotational constants (GHZ):           0.1082368           0.1074049           0.0595606
 Standard basis: def2TZVP (5D, 7F)
 There are  1594 symmetry adapted cartesian basis functions of A   symmetry.
 There are  1402 symmetry adapted basis functions of A   symmetry.
  1402 basis functions,  2279 primitive gaussians,  1594 cartesian basis functions
   151 alpha electrons      147 beta electrons
       nuclear repulsion energy      5409.8327103976 Hartrees.
 NAtoms=   72 NActive=   72 NUniq=   72 SFac= 1.00D+00 NAtFMM=   60 NAOKFM=T Big=T
 Integral buffers will be    131072 words long.
 Raffenetti 2 integral format.
 Two-electron integral symmetry is turned on.
 R6APFD:  NTU= -4 IXU= 1 FactS= 1.050
 Nuclear repulsion after empirical dispersion term =     5409.6815379326 Hartrees.
 One-electron integrals computed using PRISM.
   1 Symmetry operations used in ECPInt.
 ECPInt:  NShTT=  157080 NPrTT=  488567 LenC2=  124609 LenP2D=  258498.
 LDataN:  DoStor=T MaxTD1= 6 Len=  172
 Number of processors reduced to  25 by ecpmxn.
 NBasis=  1402 RedAO= T EigKep=  3.58D-06  NBF=  1402
 NBsUse=  1402 1.00D-06 EigRej= -1.00D+00 NBFU=  1402
 Initial guess from the checkpoint file:  "1tqn_II_Qn.chk"
 B after Tr=    -0.000000   -0.000000   -0.000000
         Rot=    1.000000   -0.000000   -0.000000    0.000000 Ang=   0.00 deg.
 Initial guess <Sx>= 0.0000 <Sy>= 0.0000 <Sz>= 2.0000 <S**2>= 6.0571 S= 2.0114
 Requested convergence on RMS density matrix=1.00D-08 within 999 cycles.
 Requested convergence on MAX density matrix=1.00D-06.
 Requested convergence on             energy=1.00D-06.
 No special actions if energy rises.
 EnCoef did   100 forward-backward iterations
 EnCoef did    12 forward-backward iterations
 EnCoef did     7 forward-backward iterations
 EnCoef did     7 forward-backward iterations
 EnCoef did    10 forward-backward iterations
 EnCoef did    14 forward-backward iterations
 EnCoef did    10 forward-backward iterations
 EnCoef did     3 forward-backward iterations
 EnCoef did    14 forward-backward iterations
 EnCoef did     1 forward-backward iterations
 Restarting incremental Fock formation.
 Restarting incremental Fock formation.
 Restarting incremental Fock formation.
 Restarting incremental Fock formation.
 Restarting incremental Fock formation.
 Restarting incremental Fock formation.
 Restarting incremental Fock formation.
 Restarting incremental Fock formation.
 Restarting incremental Fock formation.
 Restarting incremental Fock formation.
 Density matrix is not changing but DIIS error= 1.57D-04 CofLast=-7.11D-01.
 Restarting incremental Fock formation.
 SCF Done:  E(UAPFD) =  -3157.17916593     A.U. after  255 cycles
            NFock=255  Conv=0.22D-08     -V/T= 2.0028
 <Sx>= 0.0000 <Sy>= 0.0000 <Sz>= 2.0000 <S**2>= 6.0921 S= 2.0183
 <L.S>=  0.00000000000    
 Annihilation of the first spin contaminant:
 S**2 before annihilation     6.0921,   after     6.0005

 **********************************************************************

            Population analysis using the SCF Density.

 **********************************************************************

 Orbital symmetries:
 Alpha Orbitals:
       Occupied  (A) (A) (A) (A) (A) (A) (A) (A) (A) (A) (A) (A)
                 (A) (A) (A) (A) (A) (A) (A) (A) (A) (A) (A) (A)
                 (A) (A) (A) (A) (A) (A) (A) (A) (A) (A) (A) (A)
                 (A) (A) (A) (A) (A) (A) (A) (A) (A) (A) (A) (A)
                 (A) (A) (A) (A) (A) (A) (A) (A) (A) (A) (A) (A)
                 (A) (A) (A) (A) (A) (A) (A) (A) (A) (A) (A) (A)
                 (A) (A) (A) (A) (A) (A) (A) (A) (A) (A) (A) (A)
                 (A) (A) (A) (A) (A) (A) (A) (A) (A) (A) (A) (A)
                 (A) (A) (A) (A) (A) (A) (A) (A) (A) (A) (A) (A)
                 (A) (A) (A) (A) (A) (A) (A) (A) (A) (A) (A) (A)
                 (A) (A) (A) (A) (A) (A) (A) (A) (A) (A) (A) (A)
                 (A) (A) (A) (A) (A) (A) (A) (A) (A) (A) (A) (A)
                 (A) (A) (A) (A) (A) (A) (A)
       Virtual   (A) (A) (A) (A) (A) (A) (A) (A) (A) (A) (A) (A)
                 (A) (A) (A) (A) (A) (A) (A) (A) (A) (A) (A) (A)
                 (A) (A) (A) (A) (A) (A) (A) (A) (A) (A) (A) (A)
                 (A) (A) (A) (A) (A) (A) (A) (A) (A) (A) (A) (A)
                 (A) (A) (A) (A) (A) (A) (A) (A) (A) (A) (A) (A)
                 (A) (A) (A) (A) (A) (A) (A) (A) (A) (A) (A) (A)
                 (A) (A) (A) (A) (A) (A) (A) (A) (A) (A) (A) (A)
                 (A) (A) (A) (A) (A) (A) (A) (A) (A) (A) (A) (A)
                 (A) (A) (A) (A) (A) (A) (A) (A) (A) (A) (A) (A)
                 (A) (A) (A) (A) (A) (A) (A) (A) (A) (A) (A) (A)
                 (A) (A) (A) (A) (A) (A) (A) (A) (A) (A) (A) (A)
                 (A) (A) (A) (A) (A) (A) (A) (A) (A) (A) (A) (A)
                 (A) (A) (A) (A) (A) (A) (A) (A) (A) (A) (A) (A)
                 (A) (A) (A) (A) (A) (A) (A) (A) (A) (A) (A) (A)
                 (A) (A) (A) (A) (A) (A) (A) (A) (A) (A) (A) (A)
                 (A) (A) (A) (A) (A) (A) (A) (A) (A) (A) (A) (A)
                 (A) (A) (A) (A) (A) (A) (A) (A) (A) (A) (A) (A)
                 (A) (A) (A) (A) (A) (A) (A) (A) (A) (A) (A) (A)
                 (A) (A) (A) (A) (A) (A) (A) (A) (A) (A) (A) (A)
                 (A) (A) (A) (A) (A) (A) (A) (A) (A) (A) (A) (A)
                 (A) (A) (A) (A) (A) (A) (A) (A) (A) (A) (A) (A)
                 (A) (A) (A) (A) (A) (A) (A) (A) (A) (A) (A) (A)
                 (A) (A) (A) (A) (A) (A) (A) (A) (A) (A) (A) (A)
                 (A) (A) (A) (A) (A) (A) (A) (A) (A) (A) (A) (A)
                 (A) (A) (A) (A) (A) (A) (A) (A) (A) (A) (A) (A)
                 (A) (A) (A) (A) (A) (A) (A) (A) (A) (A) (A) (A)
                 (A) (A) (A) (A) (A) (A) (A) (A) (A) (A) (A) (A)
                 (A) (A) (A) (A) (A) (A) (A) (A) (A) (A) (A) (A)
                 (A) (A) (A) (A) (A) (A) (A) (A) (A) (A) (A) (A)
                 (A) (A) (A) (A) (A) (A) (A) (A) (A) (A) (A) (A)
                 (A) (A) (A) (A) (A) (A) (A) (A) (A) (A) (A) (A)
                 (A) (A) (A) (A) (A) (A) (A) (A) (A) (A) (A) (A)
                 (A) (A) (A) (A) (A) (A) (A) (A) (A) (A) (A) (A)
                 (A) (A) (A) (A) (A) (A) (A) (A) (A) (A) (A) (A)
                 (A) (A) (A) (A) (A) (A) (A) (A) (A) (A) (A) (A)
                 (A) (A) (A) (A) (A) (A) (A) (A) (A) (A) (A) (A)
                 (A) (A) (A) (A) (A) (A) (A) (A) (A) (A) (A) (A)
                 (A) (A) (A) (A) (A) (A) (A) (A) (A) (A) (A) (A)
                 (A) (A) (A) (A) (A) (A) (A) (A) (A) (A) (A) (A)
                 (A) (A) (A) (A) (A) (A) (A) (A) (A) (A) (A) (A)
                 (A) (A) (A) (A) (A) (A) (A) (A) (A) (A) (A) (A)
                 (A) (A) (A) (A) (A) (A) (A) (A) (A) (A) (A) (A)
                 (A) (A) (A) (A) (A) (A) (A) (A) (A) (A) (A) (A)
                 (A) (A) (A) (A) (A) (A) (A) (A) (A) (A) (A) (A)
                 (A) (A) (A) (A) (A) (A) (A) (A) (A) (A) (A) (A)
                 (A) (A) (A) (A) (A) (A) (A) (A) (A) (A) (A) (A)
                 (A) (A) (A) (A) (A) (A) (A) (A) (A) (A) (A) (A)
                 (A) (A) (A) (A) (A) (A) (A) (A) (A) (A) (A) (A)
                 (A) (A) (A) (A) (A) (A) (A) (A) (A) (A) (A) (A)
                 (A) (A) (A) (A) (A) (A) (A) (A) (A) (A) (A) (A)
                 (A) (A) (A) (A) (A) (A) (A) (A) (A) (A) (A) (A)
                 (A) (A) (A) (A) (A) (A) (A) (A) (A) (A) (A) (A)
                 (A) (A) (A) (A) (A) (A) (A) (A) (A) (A) (A) (A)
                 (A) (A) (A) (A) (A) (A) (A) (A) (A) (A) (A) (A)
                 (A) (A) (A) (A) (A) (A) (A) (A) (A) (A) (A) (A)
                 (A) (A) (A) (A) (A) (A) (A) (A) (A) (A) (A) (A)
                 (A) (A) (A) (A) (A) (A) (A) (A) (A) (A) (A) (A)
                 (A) (A) (A) (A) (A) (A) (A) (A) (A) (A) (A) (A)
                 (A) (A) (A) (A) (A) (A) (A) (A) (A) (A) (A) (A)
                 (A) (A) (A) (A) (A) (A) (A) (A) (A) (A) (A) (A)
                 (A) (A) (A) (A) (A) (A) (A) (A) (A) (A) (A) (A)
                 (A) (A) (A) (A) (A) (A) (A) (A) (A) (A) (A) (A)
                 (A) (A) (A) (A) (A) (A) (A) (A) (A) (A) (A) (A)
                 (A) (A) (A) (A) (A) (A) (A) (A) (A) (A) (A) (A)
                 (A) (A) (A) (A) (A) (A) (A) (A) (A) (A) (A) (A)
                 (A) (A) (A) (A) (A) (A) (A) (A) (A) (A) (A) (A)
                 (A) (A) (A) (A) (A) (A) (A) (A) (A) (A) (A) (A)
                 (A) (A) (A) (A) (A) (A) (A) (A) (A) (A) (A) (A)
                 (A) (A) (A) (A) (A) (A) (A) (A) (A) (A) (A) (A)
                 (A) (A) (A) (A) (A) (A) (A) (A) (A) (A) (A) (A)
                 (A) (A) (A) (A) (A) (A) (A) (A) (A) (A) (A) (A)
                 (A) (A) (A) (A) (A) (A) (A) (A) (A) (A) (A) (A)
                 (A) (A) (A) (A) (A) (A) (A) (A) (A) (A) (A) (A)
                 (A) (A) (A) (A) (A) (A) (A) (A) (A) (A) (A) (A)
                 (A) (A) (A) (A) (A) (A) (A) (A) (A) (A) (A) (A)
                 (A) (A) (A) (A) (A) (A) (A) (A) (A) (A) (A) (A)
                 (A) (A) (A) (A) (A) (A) (A) (A) (A) (A) (A) (A)
                 (A) (A) (A) (A) (A) (A) (A) (A) (A) (A) (A) (A)
                 (A) (A) (A) (A) (A) (A) (A) (A) (A) (A) (A) (A)
                 (A) (A) (A) (A) (A) (A) (A) (A) (A) (A) (A) (A)
                 (A) (A) (A) (A) (A) (A) (A) (A) (A) (A) (A) (A)
                 (A) (A) (A) (A) (A) (A) (A) (A) (A) (A) (A) (A)
                 (A) (A) (A) (A) (A) (A) (A) (A) (A) (A) (A) (A)
                 (A) (A) (A) (A) (A) (A) (A) (A) (A) (A) (A) (A)
                 (A) (A) (A) (A) (A) (A) (A) (A) (A) (A) (A) (A)
                 (A) (A) (A) (A) (A) (A) (A) (A) (A) (A) (A) (A)
                 (A) (A) (A) (A) (A) (A) (A) (A) (A) (A) (A) (A)
                 (A) (A) (A) (A) (A) (A) (A) (A) (A) (A) (A) (A)
                 (A) (A) (A) (A) (A) (A) (A) (A) (A) (A) (A) (A)
                 (A) (A) (A) (A) (A) (A) (A) (A) (A) (A) (A) (A)
                 (A) (A) (A) (A) (A) (A) (A) (A) (A) (A) (A) (A)
                 (A) (A) (A) (A) (A) (A) (A) (A) (A) (A) (A) (A)
                 (A) (A) (A) (A) (A) (A) (A) (A) (A) (A) (A) (A)
                 (A) (A) (A) (A) (A) (A) (A) (A) (A) (A) (A) (A)
                 (A) (A) (A) (A) (A) (A) (A) (A) (A) (A) (A) (A)
                 (A) (A) (A) (A) (A) (A) (A) (A) (A) (A) (A) (A)
                 (A) (A) (A) (A) (A) (A) (A) (A) (A) (A) (A) (A)
                 (A) (A) (A) (A) (A) (A) (A) (A) (A) (A) (A) (A)
                 (A) (A) (A) (A) (A) (A) (A) (A) (A) (A) (A) (A)
                 (A) (A) (A) (A) (A) (A) (A) (A) (A) (A) (A) (A)
                 (A) (A) (A) (A) (A) (A) (A) (A) (A) (A) (A) (A)
                 (A) (A) (A) (A) (A) (A) (A) (A) (A) (A) (A) (A)
                 (A) (A) (A) (A) (A) (A) (A) (A) (A) (A) (A) (A)
                 (A) (A) (A) (A) (A) (A) (A) (A) (A) (A) (A) (A)
                 (A) (A) (A)
 Beta  Orbitals:
       Occupied  (A) (A) (A) (A) (A) (A) (A) (A) (A) (A) (A) (A)
                 (A) (A) (A) (A) (A) (A) (A) (A) (A) (A) (A) (A)
                 (A) (A) (A) (A) (A) (A) (A) (A) (A) (A) (A) (A)
                 (A) (A) (A) (A) (A) (A) (A) (A) (A) (A) (A) (A)
                 (A) (A) (A) (A) (A) (A) (A) (A) (A) (A) (A) (A)
                 (A) (A) (A) (A) (A) (A) (A) (A) (A) (A) (A) (A)
                 (A) (A) (A) (A) (A) (A) (A) (A) (A) (A) (A) (A)
                 (A) (A) (A) (A) (A) (A) (A) (A) (A) (A) (A) (A)
                 (A) (A) (A) (A) (A) (A) (A) (A) (A) (A) (A) (A)
                 (A) (A) (A) (A) (A) (A) (A) (A) (A) (A) (A) (A)
                 (A) (A) (A) (A) (A) (A) (A) (A) (A) (A) (A) (A)
                 (A) (A) (A) (A) (A) (A) (A) (A) (A) (A) (A) (A)
                 (A) (A) (A)
       Virtual   (A) (A) (A) (A) (A) (A) (A) (A) (A) (A) (A) (A)
                 (A) (A) (A) (A) (A) (A) (A) (A) (A) (A) (A) (A)
                 (A) (A) (A) (A) (A) (A) (A) (A) (A) (A) (A) (A)
                 (A) (A) (A) (A) (A) (A) (A) (A) (A) (A) (A) (A)
                 (A) (A) (A) (A) (A) (A) (A) (A) (A) (A) (A) (A)
                 (A) (A) (A) (A) (A) (A) (A) (A) (A) (A) (A) (A)
                 (A) (A) (A) (A) (A) (A) (A) (A) (A) (A) (A) (A)
                 (A) (A) (A) (A) (A) (A) (A) (A) (A) (A) (A) (A)
                 (A) (A) (A) (A) (A) (A) (A) (A) (A) (A) (A) (A)
                 (A) (A) (A) (A) (A) (A) (A) (A) (A) (A) (A) (A)
                 (A) (A) (A) (A) (A) (A) (A) (A) (A) (A) (A) (A)
                 (A) (A) (A) (A) (A) (A) (A) (A) (A) (A) (A) (A)
                 (A) (A) (A) (A) (A) (A) (A) (A) (A) (A) (A) (A)
                 (A) (A) (A) (A) (A) (A) (A) (A) (A) (A) (A) (A)
                 (A) (A) (A) (A) (A) (A) (A) (A) (A) (A) (A) (A)
                 (A) (A) (A) (A) (A) (A) (A) (A) (A) (A) (A) (A)
                 (A) (A) (A) (A) (A) (A) (A) (A) (A) (A) (A) (A)
                 (A) (A) (A) (A) (A) (A) (A) (A) (A) (A) (A) (A)
                 (A) (A) (A) (A) (A) (A) (A) (A) (A) (A) (A) (A)
                 (A) (A) (A) (A) (A) (A) (A) (A) (A) (A) (A) (A)
                 (A) (A) (A) (A) (A) (A) (A) (A) (A) (A) (A) (A)
                 (A) (A) (A) (A) (A) (A) (A) (A) (A) (A) (A) (A)
                 (A) (A) (A) (A) (A) (A) (A) (A) (A) (A) (A) (A)
                 (A) (A) (A) (A) (A) (A) (A) (A) (A) (A) (A) (A)
                 (A) (A) (A) (A) (A) (A) (A) (A) (A) (A) (A) (A)
                 (A) (A) (A) (A) (A) (A) (A) (A) (A) (A) (A) (A)
                 (A) (A) (A) (A) (A) (A) (A) (A) (A) (A) (A) (A)
                 (A) (A) (A) (A) (A) (A) (A) (A) (A) (A) (A) (A)
                 (A) (A) (A) (A) (A) (A) (A) (A) (A) (A) (A) (A)
                 (A) (A) (A) (A) (A) (A) (A) (A) (A) (A) (A) (A)
                 (A) (A) (A) (A) (A) (A) (A) (A) (A) (A) (A) (A)
                 (A) (A) (A) (A) (A) (A) (A) (A) (A) (A) (A) (A)
                 (A) (A) (A) (A) (A) (A) (A) (A) (A) (A) (A) (A)
                 (A) (A) (A) (A) (A) (A) (A) (A) (A) (A) (A) (A)
                 (A) (A) (A) (A) (A) (A) (A) (A) (A) (A) (A) (A)
                 (A) (A) (A) (A) (A) (A) (A) (A) (A) (A) (A) (A)
                 (A) (A) (A) (A) (A) (A) (A) (A) (A) (A) (A) (A)
                 (A) (A) (A) (A) (A) (A) (A) (A) (A) (A) (A) (A)
                 (A) (A) (A) (A) (A) (A) (A) (A) (A) (A) (A) (A)
                 (A) (A) (A) (A) (A) (A) (A) (A) (A) (A) (A) (A)
                 (A) (A) (A) (A) (A) (A) (A) (A) (A) (A) (A) (A)
                 (A) (A) (A) (A) (A) (A) (A) (A) (A) (A) (A) (A)
                 (A) (A) (A) (A) (A) (A) (A) (A) (A) (A) (A) (A)
                 (A) (A) (A) (A) (A) (A) (A) (A) (A) (A) (A) (A)
                 (A) (A) (A) (A) (A) (A) (A) (A) (A) (A) (A) (A)
                 (A) (A) (A) (A) (A) (A) (A) (A) (A) (A) (A) (A)
                 (A) (A) (A) (A) (A) (A) (A) (A) (A) (A) (A) (A)
                 (A) (A) (A) (A) (A) (A) (A) (A) (A) (A) (A) (A)
                 (A) (A) (A) (A) (A) (A) (A) (A) (A) (A) (A) (A)
                 (A) (A) (A) (A) (A) (A) (A) (A) (A) (A) (A) (A)
                 (A) (A) (A) (A) (A) (A) (A) (A) (A) (A) (A) (A)
                 (A) (A) (A) (A) (A) (A) (A) (A) (A) (A) (A) (A)
                 (A) (A) (A) (A) (A) (A) (A) (A) (A) (A) (A) (A)
                 (A) (A) (A) (A) (A) (A) (A) (A) (A) (A) (A) (A)
                 (A) (A) (A) (A) (A) (A) (A) (A) (A) (A) (A) (A)
                 (A) (A) (A) (A) (A) (A) (A) (A) (A) (A) (A) (A)
                 (A) (A) (A) (A) (A) (A) (A) (A) (A) (A) (A) (A)
                 (A) (A) (A) (A) (A) (A) (A) (A) (A) (A) (A) (A)
                 (A) (A) (A) (A) (A) (A) (A) (A) (A) (A) (A) (A)
                 (A) (A) (A) (A) (A) (A) (A) (A) (A) (A) (A) (A)
                 (A) (A) (A) (A) (A) (A) (A) (A) (A) (A) (A) (A)
                 (A) (A) (A) (A) (A) (A) (A) (A) (A) (A) (A) (A)
                 (A) (A) (A) (A) (A) (A) (A) (A) (A) (A) (A) (A)
                 (A) (A) (A) (A) (A) (A) (A) (A) (A) (A) (A) (A)
                 (A) (A) (A) (A) (A) (A) (A) (A) (A) (A) (A) (A)
                 (A) (A) (A) (A) (A) (A) (A) (A) (A) (A) (A) (A)
                 (A) (A) (A) (A) (A) (A) (A) (A) (A) (A) (A) (A)
                 (A) (A) (A) (A) (A) (A) (A) (A) (A) (A) (A) (A)
                 (A) (A) (A) (A) (A) (A) (A) (A) (A) (A) (A) (A)
                 (A) (A) (A) (A) (A) (A) (A) (A) (A) (A) (A) (A)
                 (A) (A) (A) (A) (A) (A) (A) (A) (A) (A) (A) (A)
                 (A) (A) (A) (A) (A) (A) (A) (A) (A) (A) (A) (A)
                 (A) (A) (A) (A) (A) (A) (A) (A) (A) (A) (A) (A)
                 (A) (A) (A) (A) (A) (A) (A) (A) (A) (A) (A) (A)
                 (A) (A) (A) (A) (A) (A) (A) (A) (A) (A) (A) (A)
                 (A) (A) (A) (A) (A) (A) (A) (A) (A) (A) (A) (A)
                 (A) (A) (A) (A) (A) (A) (A) (A) (A) (A) (A) (A)
                 (A) (A) (A) (A) (A) (A) (A) (A) (A) (A) (A) (A)
                 (A) (A) (A) (A) (A) (A) (A) (A) (A) (A) (A) (A)
                 (A) (A) (A) (A) (A) (A) (A) (A) (A) (A) (A) (A)
                 (A) (A) (A) (A) (A) (A) (A) (A) (A) (A) (A) (A)
                 (A) (A) (A) (A) (A) (A) (A) (A) (A) (A) (A) (A)
                 (A) (A) (A) (A) (A) (A) (A) (A) (A) (A) (A) (A)
                 (A) (A) (A) (A) (A) (A) (A) (A) (A) (A) (A) (A)
                 (A) (A) (A) (A) (A) (A) (A) (A) (A) (A) (A) (A)
                 (A) (A) (A) (A) (A) (A) (A) (A) (A) (A) (A) (A)
                 (A) (A) (A) (A) (A) (A) (A) (A) (A) (A) (A) (A)
                 (A) (A) (A) (A) (A) (A) (A) (A) (A) (A) (A) (A)
                 (A) (A) (A) (A) (A) (A) (A) (A) (A) (A) (A) (A)
                 (A) (A) (A) (A) (A) (A) (A) (A) (A) (A) (A) (A)
                 (A) (A) (A) (A) (A) (A) (A) (A) (A) (A) (A) (A)
                 (A) (A) (A) (A) (A) (A) (A) (A) (A) (A) (A) (A)
                 (A) (A) (A) (A) (A) (A) (A) (A) (A) (A) (A) (A)
                 (A) (A) (A) (A) (A) (A) (A) (A) (A) (A) (A) (A)
                 (A) (A) (A) (A) (A) (A) (A) (A) (A) (A) (A) (A)
                 (A) (A) (A) (A) (A) (A) (A) (A) (A) (A) (A) (A)
                 (A) (A) (A) (A) (A) (A) (A) (A) (A) (A) (A) (A)
                 (A) (A) (A) (A) (A) (A) (A) (A) (A) (A) (A) (A)
                 (A) (A) (A) (A) (A) (A) (A) (A) (A) (A) (A) (A)
                 (A) (A) (A) (A) (A) (A) (A) (A) (A) (A) (A) (A)
                 (A) (A) (A) (A) (A) (A) (A) (A) (A) (A) (A) (A)
                 (A) (A) (A) (A) (A) (A) (A) (A) (A) (A) (A) (A)
                 (A) (A) (A) (A) (A) (A) (A) (A) (A) (A) (A) (A)
                 (A) (A) (A) (A) (A) (A) (A) (A) (A) (A) (A) (A)
                 (A) (A) (A) (A) (A) (A) (A)
 The electronic state is 5-A.
 Alpha  occ. eigenvalues -- -256.19402 -88.94838 -30.08447 -25.93105 -25.91058
 Alpha  occ. eigenvalues --  -25.90701 -19.17093 -14.33303 -14.33092 -14.33072
 Alpha  occ. eigenvalues --  -14.32989 -10.21763 -10.21700 -10.21698 -10.21647
 Alpha  occ. eigenvalues --  -10.21589 -10.21562 -10.21477 -10.21393 -10.21320
 Alpha  occ. eigenvalues --  -10.20043 -10.19880 -10.19556 -10.19532 -10.19367
 Alpha  occ. eigenvalues --  -10.19234 -10.19219 -10.19171 -10.19167 -10.19150
 Alpha  occ. eigenvalues --  -10.19089 -10.19067 -10.19052 -10.19040 -10.18963
 Alpha  occ. eigenvalues --  -10.18915 -10.18901 -10.18866 -10.18756 -10.18678
 Alpha  occ. eigenvalues --  -10.18631 -10.18452  -7.97820  -5.92388  -5.92103
 Alpha  occ. eigenvalues --   -5.91582  -3.54055  -2.34001  -2.29531  -2.28978
 Alpha  occ. eigenvalues --   -1.05352  -0.97711  -0.96752  -0.96711  -0.95743
 Alpha  occ. eigenvalues --   -0.82910  -0.82446  -0.82129  -0.81400  -0.81042
 Alpha  occ. eigenvalues --   -0.80203  -0.80188  -0.79918  -0.77237  -0.76188
 Alpha  occ. eigenvalues --   -0.74859  -0.74575  -0.73692  -0.71529  -0.70646
 Alpha  occ. eigenvalues --   -0.68874  -0.68538  -0.68421  -0.66171  -0.64732
 Alpha  occ. eigenvalues --   -0.64695  -0.61197  -0.61006  -0.60444  -0.58466
 Alpha  occ. eigenvalues --   -0.57379  -0.55080  -0.54305  -0.53905  -0.53427
 Alpha  occ. eigenvalues --   -0.51756  -0.51692  -0.51205  -0.49650  -0.48478
 Alpha  occ. eigenvalues --   -0.48215  -0.46617  -0.45880  -0.45836  -0.45276
 Alpha  occ. eigenvalues --   -0.45194  -0.44443  -0.44234  -0.44076  -0.43949
 Alpha  occ. eigenvalues --   -0.43756  -0.43569  -0.43375  -0.42815  -0.42649
 Alpha  occ. eigenvalues --   -0.42293  -0.41947  -0.41827  -0.41385  -0.41205
 Alpha  occ. eigenvalues --   -0.40745  -0.40660  -0.40235  -0.40025  -0.39633
 Alpha  occ. eigenvalues --   -0.39514  -0.39428  -0.39151  -0.39045  -0.38670
 Alpha  occ. eigenvalues --   -0.38381  -0.37631  -0.37527  -0.37205  -0.36970
 Alpha  occ. eigenvalues --   -0.36553  -0.36294  -0.35265  -0.35135  -0.34844
 Alpha  occ. eigenvalues --   -0.34225  -0.33801  -0.32472  -0.32364  -0.31651
 Alpha  occ. eigenvalues --   -0.31461  -0.31166  -0.30867  -0.30127  -0.29418
 Alpha  occ. eigenvalues --   -0.28045  -0.27068  -0.26833  -0.23848  -0.23045
 Alpha  occ. eigenvalues --   -0.22285  -0.21935  -0.20845  -0.18471  -0.18370
 Alpha  occ. eigenvalues --   -0.16846
 Alpha virt. eigenvalues --   -0.07424  -0.07234  -0.02418   0.00095   0.01217
 Alpha virt. eigenvalues --    0.01707   0.02837   0.04084   0.04478   0.04950
 Alpha virt. eigenvalues --    0.05201   0.05580   0.06047   0.06697   0.07136
 Alpha virt. eigenvalues --    0.07492   0.07913   0.08365   0.08541   0.09048
 Alpha virt. eigenvalues --    0.09267   0.09576   0.10155   0.10371   0.10628
 Alpha virt. eigenvalues --    0.11039   0.11227   0.11361   0.11846   0.12224
 Alpha virt. eigenvalues --    0.12433   0.12661   0.12735   0.13070   0.13287
 Alpha virt. eigenvalues --    0.13539   0.13860   0.14016   0.14174   0.14431
 Alpha virt. eigenvalues --    0.14649   0.14897   0.15190   0.15253   0.15437
 Alpha virt. eigenvalues --    0.15564   0.15823   0.15855   0.16356   0.16792
 Alpha virt. eigenvalues --    0.16931   0.17147   0.17420   0.17451   0.17954
 Alpha virt. eigenvalues --    0.18038   0.18352   0.19130   0.19259   0.19534
 Alpha virt. eigenvalues --    0.20002   0.20142   0.20597   0.20836   0.21127
 Alpha virt. eigenvalues --    0.21395   0.21746   0.21967   0.22065   0.22309
 Alpha virt. eigenvalues --    0.22390   0.23108   0.23370   0.23806   0.23972
 Alpha virt. eigenvalues --    0.24493   0.25028   0.25173   0.25370   0.25531
 Alpha virt. eigenvalues --    0.25835   0.26123   0.26379   0.26661   0.26792
 Alpha virt. eigenvalues --    0.27213   0.27562   0.27844   0.28236   0.28609
 Alpha virt. eigenvalues --    0.28725   0.28952   0.29249   0.29449   0.29794
 Alpha virt. eigenvalues --    0.30121   0.30377   0.30570   0.30831   0.31051
 Alpha virt. eigenvalues --    0.31292   0.31448   0.31904   0.32173   0.32352
 Alpha virt. eigenvalues --    0.32783   0.33151   0.33390   0.33784   0.33962
 Alpha virt. eigenvalues --    0.34361   0.34729   0.35110   0.35444   0.35908
 Alpha virt. eigenvalues --    0.36114   0.36448   0.36633   0.36971   0.37254
 Alpha virt. eigenvalues --    0.37619   0.37939   0.38215   0.38253   0.38639
 Alpha virt. eigenvalues --    0.39001   0.39105   0.39509   0.39599   0.39834
 Alpha virt. eigenvalues --    0.39971   0.40126   0.40445   0.40657   0.40800
 Alpha virt. eigenvalues --    0.41245   0.41527   0.41760   0.41937   0.42197
 Alpha virt. eigenvalues --    0.42264   0.42506   0.42717   0.42769   0.43314
 Alpha virt. eigenvalues --    0.43457   0.43602   0.43881   0.44117   0.44436
 Alpha virt. eigenvalues --    0.44817   0.44980   0.45359   0.45560   0.45789
 Alpha virt. eigenvalues --    0.46055   0.46145   0.46279   0.46651   0.47023
 Alpha virt. eigenvalues --    0.47342   0.47717   0.47816   0.47974   0.48297
 Alpha virt. eigenvalues --    0.48569   0.48710   0.48872   0.49169   0.49342
 Alpha virt. eigenvalues --    0.49874   0.49937   0.50314   0.50361   0.50583
 Alpha virt. eigenvalues --    0.50772   0.50987   0.51500   0.51671   0.51773
 Alpha virt. eigenvalues --    0.51950   0.52422   0.52442   0.52651   0.52868
 Alpha virt. eigenvalues --    0.53179   0.53310   0.53922   0.54109   0.54541
 Alpha virt. eigenvalues --    0.55020   0.55212   0.55364   0.55409   0.55752
 Alpha virt. eigenvalues --    0.56123   0.56272   0.56925   0.57202   0.57501
 Alpha virt. eigenvalues --    0.57731   0.58170   0.58306   0.58581   0.59239
 Alpha virt. eigenvalues --    0.59380   0.59843   0.60343   0.60657   0.60958
 Alpha virt. eigenvalues --    0.61469   0.61811   0.62235   0.62486   0.62913
 Alpha virt. eigenvalues --    0.63041   0.63320   0.63719   0.63963   0.64279
 Alpha virt. eigenvalues --    0.64425   0.64680   0.64876   0.65325   0.65565
 Alpha virt. eigenvalues --    0.65715   0.66387   0.66710   0.67011   0.67446
 Alpha virt. eigenvalues --    0.67736   0.68013   0.68107   0.68747   0.68983
 Alpha virt. eigenvalues --    0.69234   0.70161   0.70386   0.70564   0.70899
 Alpha virt. eigenvalues --    0.71005   0.71651   0.71728   0.71992   0.72237
 Alpha virt. eigenvalues --    0.72782   0.72988   0.73341   0.73581   0.73767
 Alpha virt. eigenvalues --    0.74047   0.74639   0.74711   0.74999   0.75862
 Alpha virt. eigenvalues --    0.76292   0.76304   0.76582   0.76612   0.76921
 Alpha virt. eigenvalues --    0.77715   0.78028   0.78200   0.78831   0.79472
 Alpha virt. eigenvalues --    0.79747   0.79996   0.80533   0.80594   0.81067
 Alpha virt. eigenvalues --    0.81309   0.82156   0.82285   0.82721   0.83069
 Alpha virt. eigenvalues --    0.83651   0.83975   0.84894   0.85002   0.85421
 Alpha virt. eigenvalues --    0.85904   0.86266   0.86435   0.86948   0.87408
 Alpha virt. eigenvalues --    0.87628   0.88387   0.88610   0.89158   0.89370
 Alpha virt. eigenvalues --    0.89765   0.90085   0.90608   0.91005   0.91576
 Alpha virt. eigenvalues --    0.91826   0.92017   0.92166   0.92565   0.93186
 Alpha virt. eigenvalues --    0.93854   0.94171   0.94863   0.94931   0.95171
 Alpha virt. eigenvalues --    0.95694   0.95772   0.96508   0.96706   0.97074
 Alpha virt. eigenvalues --    0.97417   0.97769   0.98136   0.98812   0.99178
 Alpha virt. eigenvalues --    0.99797   0.99959   1.00148   1.00498   1.00629
 Alpha virt. eigenvalues --    1.01053   1.01381   1.01562   1.01990   1.02116
 Alpha virt. eigenvalues --    1.02705   1.03190   1.03389   1.03518   1.03792
 Alpha virt. eigenvalues --    1.04172   1.04211   1.05018   1.05485   1.05781
 Alpha virt. eigenvalues --    1.06025   1.06944   1.07524   1.07938   1.08456
 Alpha virt. eigenvalues --    1.08738   1.08894   1.09509   1.10111   1.10421
 Alpha virt. eigenvalues --    1.11097   1.11888   1.12168   1.12729   1.13540
 Alpha virt. eigenvalues --    1.13763   1.14299   1.14566   1.15333   1.15659
 Alpha virt. eigenvalues --    1.16033   1.16994   1.17363   1.17714   1.17937
 Alpha virt. eigenvalues --    1.18654   1.18968   1.19218   1.19353   1.19883
 Alpha virt. eigenvalues --    1.20315   1.20371   1.20938   1.21657   1.22439
 Alpha virt. eigenvalues --    1.23268   1.23628   1.24043   1.24125   1.24803
 Alpha virt. eigenvalues --    1.25095   1.25254   1.25618   1.25923   1.26998
 Alpha virt. eigenvalues --    1.27264   1.27435   1.27565   1.27659   1.28576
 Alpha virt. eigenvalues --    1.29007   1.29523   1.29670   1.29812   1.30416
 Alpha virt. eigenvalues --    1.30880   1.31721   1.32598   1.33152   1.33891
 Alpha virt. eigenvalues --    1.34811   1.35302   1.36203   1.36467   1.36952
 Alpha virt. eigenvalues --    1.37208   1.37826   1.38547   1.39581   1.39927
 Alpha virt. eigenvalues --    1.41131   1.41424   1.41984   1.42855   1.43046
 Alpha virt. eigenvalues --    1.43197   1.43761   1.44647   1.44903   1.45329
 Alpha virt. eigenvalues --    1.45618   1.46410   1.46874   1.47006   1.47461
 Alpha virt. eigenvalues --    1.47643   1.47874   1.48308   1.48520   1.48772
 Alpha virt. eigenvalues --    1.49002   1.49813   1.50035   1.50461   1.50562
 Alpha virt. eigenvalues --    1.51154   1.51480   1.51622   1.51655   1.52538
 Alpha virt. eigenvalues --    1.52760   1.53413   1.53655   1.54181   1.54631
 Alpha virt. eigenvalues --    1.54698   1.55046   1.55210   1.55494   1.55593
 Alpha virt. eigenvalues --    1.55744   1.56142   1.56229   1.56538   1.56909
 Alpha virt. eigenvalues --    1.57151   1.57410   1.57750   1.58206   1.58605
 Alpha virt. eigenvalues --    1.59283   1.59412   1.59681   1.60088   1.60203
 Alpha virt. eigenvalues --    1.60605   1.60803   1.61274   1.61417   1.61804
 Alpha virt. eigenvalues --    1.62362   1.62433   1.62846   1.62904   1.63343
 Alpha virt. eigenvalues --    1.63788   1.63916   1.64683   1.64840   1.65116
 Alpha virt. eigenvalues --    1.65692   1.65933   1.66268   1.66426   1.66878
 Alpha virt. eigenvalues --    1.67497   1.67721   1.67941   1.68040   1.68380
 Alpha virt. eigenvalues --    1.68957   1.69203   1.69533   1.69720   1.70067
 Alpha virt. eigenvalues --    1.70382   1.71192   1.71280   1.71786   1.72501
 Alpha virt. eigenvalues --    1.72944   1.73180   1.73326   1.73626   1.74458
 Alpha virt. eigenvalues --    1.75108   1.75814   1.76354   1.77032   1.77168
 Alpha virt. eigenvalues --    1.77731   1.78025   1.78475   1.79174   1.79661
 Alpha virt. eigenvalues --    1.80148   1.80662   1.81068   1.81776   1.82067
 Alpha virt. eigenvalues --    1.83219   1.83560   1.84228   1.84685   1.85152
 Alpha virt. eigenvalues --    1.85392   1.85977   1.86331   1.86773   1.87070
 Alpha virt. eigenvalues --    1.87439   1.87632   1.88098   1.88430   1.88609
 Alpha virt. eigenvalues --    1.89243   1.89763   1.90082   1.90599   1.91011
 Alpha virt. eigenvalues --    1.91378   1.91465   1.91890   1.92975   1.93146
 Alpha virt. eigenvalues --    1.94028   1.94883   1.95391   1.96241   1.96830
 Alpha virt. eigenvalues --    1.97267   1.97383   1.97760   1.98421   1.99001
 Alpha virt. eigenvalues --    1.99210   1.99543   2.00122   2.00482   2.00733
 Alpha virt. eigenvalues --    2.01198   2.01269   2.02237   2.02591   2.03009
 Alpha virt. eigenvalues --    2.03274   2.04469   2.05009   2.05579   2.05863
 Alpha virt. eigenvalues --    2.06084   2.07684   2.08005   2.08176   2.08921
 Alpha virt. eigenvalues --    2.09240   2.09788   2.10147   2.10511   2.11223
 Alpha virt. eigenvalues --    2.11411   2.11613   2.12957   2.13115   2.13455
 Alpha virt. eigenvalues --    2.14049   2.14169   2.14517   2.15109   2.15590
 Alpha virt. eigenvalues --    2.16901   2.17527   2.18006   2.18308   2.18896
 Alpha virt. eigenvalues --    2.19342   2.19746   2.19771   2.20758   2.21147
 Alpha virt. eigenvalues --    2.21555   2.21861   2.22251   2.22764   2.23940
 Alpha virt. eigenvalues --    2.24060   2.25128   2.25638   2.26310   2.26454
 Alpha virt. eigenvalues --    2.26751   2.27421   2.27641   2.27896   2.28805
 Alpha virt. eigenvalues --    2.28989   2.29450   2.29649   2.30063   2.30294
 Alpha virt. eigenvalues --    2.30784   2.31626   2.32443   2.32826   2.33216
 Alpha virt. eigenvalues --    2.33624   2.34024   2.35037   2.35559   2.36021
 Alpha virt. eigenvalues --    2.36152   2.36437   2.36747   2.37077   2.37296
 Alpha virt. eigenvalues --    2.38242   2.38422   2.38641   2.38839   2.39696
 Alpha virt. eigenvalues --    2.40078   2.40421   2.40760   2.41629   2.42310
 Alpha virt. eigenvalues --    2.42637   2.43113   2.43784   2.44007   2.44170
 Alpha virt. eigenvalues --    2.44481   2.45333   2.45681   2.45795   2.46436
 Alpha virt. eigenvalues --    2.46901   2.47096   2.47698   2.48083   2.48631
 Alpha virt. eigenvalues --    2.48938   2.49835   2.50666   2.50827   2.52226
 Alpha virt. eigenvalues --    2.52333   2.52779   2.53049   2.53255   2.53708
 Alpha virt. eigenvalues --    2.54285   2.54415   2.54956   2.55601   2.55860
 Alpha virt. eigenvalues --    2.56029   2.56307   2.56671   2.56870   2.57498
 Alpha virt. eigenvalues --    2.58033   2.58364   2.58578   2.59133   2.59832
 Alpha virt. eigenvalues --    2.60044   2.60606   2.60909   2.61039   2.61484
 Alpha virt. eigenvalues --    2.62292   2.62860   2.63358   2.63718   2.64227
 Alpha virt. eigenvalues --    2.64491   2.64706   2.65333   2.66301   2.66371
 Alpha virt. eigenvalues --    2.66894   2.67391   2.67516   2.67773   2.68226
 Alpha virt. eigenvalues --    2.68670   2.69022   2.69159   2.69882   2.69968
 Alpha virt. eigenvalues --    2.70758   2.70884   2.71566   2.72089   2.72458
 Alpha virt. eigenvalues --    2.72895   2.73031   2.74066   2.74628   2.74809
 Alpha virt. eigenvalues --    2.75179   2.75399   2.76113   2.76796   2.77254
 Alpha virt. eigenvalues --    2.77749   2.77988   2.78592   2.78921   2.79436
 Alpha virt. eigenvalues --    2.79491   2.80530   2.81120   2.81454   2.81991
 Alpha virt. eigenvalues --    2.82232   2.82849   2.83048   2.83547   2.83635
 Alpha virt. eigenvalues --    2.84654   2.85371   2.85559   2.85970   2.86148
 Alpha virt. eigenvalues --    2.86502   2.86969   2.87299   2.87548   2.88031
 Alpha virt. eigenvalues --    2.88519   2.89243   2.89781   2.90373   2.90493
 Alpha virt. eigenvalues --    2.90751   2.91773   2.92170   2.92439   2.92863
 Alpha virt. eigenvalues --    2.93417   2.93569   2.93981   2.94447   2.95113
 Alpha virt. eigenvalues --    2.95332   2.95820   2.96372   2.96497   2.96896
 Alpha virt. eigenvalues --    2.97219   2.97604   2.97955   2.98522   2.98920
 Alpha virt. eigenvalues --    2.99268   2.99656   3.00005   3.00304   3.01224
 Alpha virt. eigenvalues --    3.01460   3.02106   3.03481   3.03901   3.04232
 Alpha virt. eigenvalues --    3.04692   3.05389   3.05553   3.06063   3.06394
 Alpha virt. eigenvalues --    3.07129   3.07421   3.07526   3.07791   3.08198
 Alpha virt. eigenvalues --    3.08464   3.08641   3.09166   3.09554   3.09816
 Alpha virt. eigenvalues --    3.10055   3.10354   3.10784   3.11540   3.12276
 Alpha virt. eigenvalues --    3.12373   3.12851   3.13257   3.13412   3.14000
 Alpha virt. eigenvalues --    3.14195   3.14715   3.15245   3.15407   3.15955
 Alpha virt. eigenvalues --    3.16009   3.16673   3.16902   3.17332   3.17599
 Alpha virt. eigenvalues --    3.17967   3.18193   3.18403   3.18498   3.19238
 Alpha virt. eigenvalues --    3.19544   3.19882   3.20308   3.20624   3.21228
 Alpha virt. eigenvalues --    3.21394   3.21786   3.21936   3.22253   3.22554
 Alpha virt. eigenvalues --    3.22824   3.23131   3.23483   3.23747   3.24155
 Alpha virt. eigenvalues --    3.24442   3.24778   3.25025   3.25536   3.25971
 Alpha virt. eigenvalues --    3.26081   3.26680   3.27044   3.27496   3.27654
 Alpha virt. eigenvalues --    3.28077   3.28399   3.28740   3.29340   3.29648
 Alpha virt. eigenvalues --    3.30051   3.30512   3.30655   3.30894   3.31373
 Alpha virt. eigenvalues --    3.31598   3.31946   3.32316   3.32532   3.32679
 Alpha virt. eigenvalues --    3.32992   3.33305   3.33507   3.33598   3.33954
 Alpha virt. eigenvalues --    3.34402   3.34722   3.35022   3.35283   3.35351
 Alpha virt. eigenvalues --    3.35586   3.36294   3.36422   3.36538   3.36803
 Alpha virt. eigenvalues --    3.37443   3.37695   3.38059   3.38262   3.38633
 Alpha virt. eigenvalues --    3.39130   3.39557   3.39712   3.40075   3.40411
 Alpha virt. eigenvalues --    3.40719   3.41061   3.41335   3.41858   3.42633
 Alpha virt. eigenvalues --    3.42671   3.43155   3.43613   3.43874   3.44210
 Alpha virt. eigenvalues --    3.44251   3.44899   3.45176   3.45832   3.46111
 Alpha virt. eigenvalues --    3.46524   3.46900   3.47739   3.48153   3.49192
 Alpha virt. eigenvalues --    3.49548   3.50230   3.50424   3.50851   3.51041
 Alpha virt. eigenvalues --    3.52174   3.52440   3.53057   3.53734   3.53926
 Alpha virt. eigenvalues --    3.54876   3.55297   3.55647   3.56007   3.56686
 Alpha virt. eigenvalues --    3.57148   3.58082   3.58217   3.58718   3.59231
 Alpha virt. eigenvalues --    3.59521   3.60475   3.60591   3.61214   3.61586
 Alpha virt. eigenvalues --    3.61874   3.62193   3.63337   3.63437   3.64546
 Alpha virt. eigenvalues --    3.64833   3.65005   3.65919   3.66457   3.66898
 Alpha virt. eigenvalues --    3.67330   3.68247   3.68932   3.69180   3.69729
 Alpha virt. eigenvalues --    3.70197   3.70850   3.71201   3.71321   3.72268
 Alpha virt. eigenvalues --    3.72593   3.72684   3.73113   3.73434   3.73608
 Alpha virt. eigenvalues --    3.74141   3.74588   3.75188   3.75347   3.75731
 Alpha virt. eigenvalues --    3.76440   3.77225   3.77580   3.78185   3.79347
 Alpha virt. eigenvalues --    3.79422   3.80362   3.81020   3.81581   3.82316
 Alpha virt. eigenvalues --    3.83135   3.83603   3.84039   3.84318   3.84944
 Alpha virt. eigenvalues --    3.85557   3.85948   3.86565   3.86906   3.87950
 Alpha virt. eigenvalues --    3.88347   3.89562   3.90094   3.91027   3.91589
 Alpha virt. eigenvalues --    3.91729   3.92087   3.92944   3.94362   3.95103
 Alpha virt. eigenvalues --    3.96199   3.97248   3.97436   3.97788   3.98885
 Alpha virt. eigenvalues --    3.99212   3.99558   3.99601   3.99986   4.00985
 Alpha virt. eigenvalues --    4.01554   4.02006   4.03015   4.04030   4.04597
 Alpha virt. eigenvalues --    4.04676   4.05377   4.05710   4.06717   4.07121
 Alpha virt. eigenvalues --    4.08652   4.09717   4.10143   4.10869   4.11206
 Alpha virt. eigenvalues --    4.11385   4.11994   4.12704   4.13076   4.13839
 Alpha virt. eigenvalues --    4.14609   4.15783   4.16213   4.16701   4.17089
 Alpha virt. eigenvalues --    4.17560   4.17900   4.18380   4.19042   4.19593
 Alpha virt. eigenvalues --    4.20633   4.20987   4.21227   4.22572   4.23127
 Alpha virt. eigenvalues --    4.23569   4.24319   4.24571   4.25307   4.25639
 Alpha virt. eigenvalues --    4.26170   4.26979   4.28372   4.28542   4.29317
 Alpha virt. eigenvalues --    4.29692   4.30315   4.31338   4.31926   4.32204
 Alpha virt. eigenvalues --    4.32962   4.33307   4.33942   4.34662   4.34918
 Alpha virt. eigenvalues --    4.35391   4.35787   4.36616   4.37951   4.38576
 Alpha virt. eigenvalues --    4.39823   4.40059   4.40577   4.40702   4.41310
 Alpha virt. eigenvalues --    4.41813   4.42396   4.43267   4.43852   4.44570
 Alpha virt. eigenvalues --    4.45268   4.45411   4.47064   4.47773   4.48361
 Alpha virt. eigenvalues --    4.48688   4.49354   4.50708   4.51195   4.52298
 Alpha virt. eigenvalues --    4.53371   4.53830   4.54275   4.55152   4.55335
 Alpha virt. eigenvalues --    4.55949   4.56928   4.57309   4.58193   4.61227
 Alpha virt. eigenvalues --    4.63159   4.64185   4.64267   4.66057   4.66944
 Alpha virt. eigenvalues --    4.67320   4.68229   4.68986   4.69351   4.70424
 Alpha virt. eigenvalues --    4.72432   4.73200   4.73897   4.74141   4.75621
 Alpha virt. eigenvalues --    4.76733   4.78350   4.80330   4.80756   4.81804
 Alpha virt. eigenvalues --    4.82231   4.83444   4.84606   4.84734   4.85278
 Alpha virt. eigenvalues --    4.86162   4.86710   4.87482   4.88890   4.89907
 Alpha virt. eigenvalues --    4.91275   4.93302   4.93675   4.94214   4.95143
 Alpha virt. eigenvalues --    4.96597   4.97010   4.98478   4.99884   5.00445
 Alpha virt. eigenvalues --    5.01377   5.02269   5.03713   5.04136   5.04987
 Alpha virt. eigenvalues --    5.05139   5.05996   5.07133   5.07628   5.09500
 Alpha virt. eigenvalues --    5.12374   5.12825   5.15695   5.16210   5.17758
 Alpha virt. eigenvalues --    5.19636   5.20364   5.21628   5.21952   5.22779
 Alpha virt. eigenvalues --    5.24207   5.25068   5.25685   5.26412   5.27837
 Alpha virt. eigenvalues --    5.29905   5.34583   5.35267   5.35710   5.37152
 Alpha virt. eigenvalues --    5.37712   5.38767   5.39397   5.39804   5.40191
 Alpha virt. eigenvalues --    5.40804   5.46892   5.47718   5.48838   5.50163
 Alpha virt. eigenvalues --    5.50964   5.52304   5.53056   5.54681   5.58030
 Alpha virt. eigenvalues --    5.58826   5.61309   5.61679   5.62282   5.64537
 Alpha virt. eigenvalues --    5.65791   5.66863   5.67687   5.71298   5.73419
 Alpha virt. eigenvalues --    5.75730   5.77220   5.77816   5.86484   5.86948
 Alpha virt. eigenvalues --    5.88426   5.91304   5.99296   6.00630   6.01568
 Alpha virt. eigenvalues --    6.09909   6.11021   6.11375   6.12534   6.18030
 Alpha virt. eigenvalues --    6.23763   6.24573   6.31548   6.32848   6.40106
 Alpha virt. eigenvalues --    6.46587   6.51776   6.53122   6.63587   6.96358
 Alpha virt. eigenvalues --    7.28514   9.08954   9.25400   9.41370  19.61738
 Alpha virt. eigenvalues --   22.32793  22.35560  22.36594  22.45752  22.46499
 Alpha virt. eigenvalues --   22.52069  22.52633  22.60412  22.61663  22.83197
 Alpha virt. eigenvalues --   22.86718  22.88172  22.91772  22.94606  22.95449
 Alpha virt. eigenvalues --   22.96561  23.01741  23.02247  23.12199  23.25950
 Alpha virt. eigenvalues --   23.29783  23.30669  23.39886  23.41041  23.50191
 Alpha virt. eigenvalues --   23.50757  23.55540  23.72029  23.77173  23.78612
 Alpha virt. eigenvalues --   23.87196  32.88711  32.90880  32.92122  33.04297
 Alpha virt. eigenvalues --   43.93184
  Beta  occ. eigenvalues -- -256.19275 -88.94781 -30.00282 -25.85380 -25.84696
  Beta  occ. eigenvalues --  -25.84340 -19.16964 -14.33097 -14.32919 -14.32862
  Beta  occ. eigenvalues --  -14.32815 -10.21756 -10.21720 -10.21710 -10.21629
  Beta  occ. eigenvalues --  -10.21571 -10.21553 -10.21502 -10.21409 -10.21349
  Beta  occ. eigenvalues --  -10.20047 -10.19871 -10.19546 -10.19531 -10.19344
  Beta  occ. eigenvalues --  -10.19221 -10.19204 -10.19170 -10.19166 -10.19145
  Beta  occ. eigenvalues --  -10.19087 -10.19068 -10.19053 -10.19034 -10.18983
  Beta  occ. eigenvalues --  -10.18914 -10.18907 -10.18883 -10.18755 -10.18675
  Beta  occ. eigenvalues --  -10.18622 -10.18465  -7.97758  -5.92344  -5.92036
  Beta  occ. eigenvalues --   -5.91458  -3.34496  -2.10306  -2.10026  -2.09562
  Beta  occ. eigenvalues --   -1.05156  -0.97512  -0.96570  -0.96507  -0.95536
  Beta  occ. eigenvalues --   -0.82911  -0.82380  -0.82077  -0.81319  -0.80967
  Beta  occ. eigenvalues --   -0.80183  -0.80172  -0.79717  -0.77221  -0.76159
  Beta  occ. eigenvalues --   -0.74841  -0.74568  -0.73686  -0.71482  -0.70584
  Beta  occ. eigenvalues --   -0.68781  -0.68436  -0.68387  -0.66002  -0.64722
  Beta  occ. eigenvalues --   -0.64673  -0.61127  -0.60908  -0.60378  -0.58433
  Beta  occ. eigenvalues --   -0.57187  -0.55030  -0.54236  -0.53841  -0.53190
  Beta  occ. eigenvalues --   -0.51641  -0.51591  -0.51107  -0.49269  -0.48406
  Beta  occ. eigenvalues --   -0.47898  -0.46362  -0.45795  -0.45524  -0.45171
  Beta  occ. eigenvalues --   -0.44963  -0.44381  -0.44139  -0.43999  -0.43756
  Beta  occ. eigenvalues --   -0.43644  -0.43540  -0.43264  -0.42794  -0.42267
  Beta  occ. eigenvalues --   -0.41947  -0.41831  -0.41569  -0.41120  -0.40690
  Beta  occ. eigenvalues --   -0.40670  -0.40127  -0.39953  -0.39876  -0.39501
  Beta  occ. eigenvalues --   -0.39196  -0.39060  -0.38937  -0.38350  -0.38073
  Beta  occ. eigenvalues --   -0.37527  -0.37435  -0.36932  -0.36444  -0.36057
  Beta  occ. eigenvalues --   -0.35871  -0.34984  -0.34869  -0.34346  -0.34285
  Beta  occ. eigenvalues --   -0.34098  -0.32531  -0.31351  -0.30938  -0.30440
  Beta  occ. eigenvalues --   -0.29760  -0.29559  -0.27680  -0.27303  -0.27168
  Beta  occ. eigenvalues --   -0.23929  -0.23711  -0.22976  -0.22523  -0.18973
  Beta  occ. eigenvalues --   -0.18569  -0.15502
  Beta virt. eigenvalues --   -0.08083  -0.06742  -0.02680  -0.01537  -0.00753
  Beta virt. eigenvalues --    0.00184   0.01583   0.02000   0.03044   0.04184
  Beta virt. eigenvalues --    0.04337   0.04497   0.04938   0.05581   0.05837
  Beta virt. eigenvalues --    0.06184   0.06727   0.07361   0.07721   0.07903
  Beta virt. eigenvalues --    0.08373   0.08630   0.08781   0.09166   0.09341
  Beta virt. eigenvalues --    0.09614   0.10271   0.10415   0.10700   0.11065
  Beta virt. eigenvalues --    0.11273   0.11400   0.11880   0.12264   0.12479
  Beta virt. eigenvalues --    0.12669   0.12770   0.13162   0.13388   0.13647
  Beta virt. eigenvalues --    0.13929   0.14025   0.14205   0.14483   0.14720
  Beta virt. eigenvalues --    0.14940   0.15214   0.15314   0.15492   0.15596
  Beta virt. eigenvalues --    0.15849   0.15920   0.16429   0.16842   0.17001
  Beta virt. eigenvalues --    0.17182   0.17467   0.17572   0.18031   0.18082
  Beta virt. eigenvalues --    0.18430   0.19296   0.19454   0.20018   0.20051
  Beta virt. eigenvalues --    0.20248   0.20619   0.21013   0.21147   0.21678
  Beta virt. eigenvalues --    0.21798   0.22009   0.22116   0.22351   0.22564
  Beta virt. eigenvalues --    0.23232   0.23439   0.23868   0.24247   0.24633
  Beta virt. eigenvalues --    0.25153   0.25383   0.25542   0.25603   0.25943
  Beta virt. eigenvalues --    0.26357   0.26520   0.26771   0.26899   0.27321
  Beta virt. eigenvalues --    0.27910   0.28019   0.28448   0.28781   0.29018
  Beta virt. eigenvalues --    0.29109   0.29401   0.29568   0.29934   0.30338
  Beta virt. eigenvalues --    0.30638   0.30818   0.31042   0.31200   0.31459
  Beta virt. eigenvalues --    0.31551   0.32014   0.32314   0.32419   0.32891
  Beta virt. eigenvalues --    0.33220   0.33467   0.33901   0.34050   0.34485
  Beta virt. eigenvalues --    0.34851   0.35429   0.35820   0.36209   0.36416
  Beta virt. eigenvalues --    0.36550   0.36982   0.37304   0.37354   0.37803
  Beta virt. eigenvalues --    0.38030   0.38269   0.38452   0.38710   0.39091
  Beta virt. eigenvalues --    0.39163   0.39589   0.39733   0.39962   0.40009
  Beta virt. eigenvalues --    0.40339   0.40483   0.40828   0.40938   0.41380
  Beta virt. eigenvalues --    0.41564   0.41860   0.41997   0.42304   0.42347
  Beta virt. eigenvalues --    0.42591   0.42820   0.42969   0.43511   0.43671
  Beta virt. eigenvalues --    0.43756   0.43959   0.44231   0.44469   0.44903
  Beta virt. eigenvalues --    0.45083   0.45442   0.45579   0.45843   0.46105
  Beta virt. eigenvalues --    0.46215   0.46364   0.46700   0.47143   0.47466
  Beta virt. eigenvalues --    0.47784   0.47917   0.48070   0.48367   0.48626
  Beta virt. eigenvalues --    0.48730   0.48944   0.49254   0.49441   0.49952
  Beta virt. eigenvalues --    0.50007   0.50345   0.50429   0.50644   0.50831
  Beta virt. eigenvalues --    0.51039   0.51535   0.51736   0.51818   0.52047
  Beta virt. eigenvalues --    0.52495   0.52540   0.52684   0.52907   0.53224
  Beta virt. eigenvalues --    0.53445   0.54082   0.54183   0.54608   0.55067
  Beta virt. eigenvalues --    0.55325   0.55462   0.55589   0.55862   0.56282
  Beta virt. eigenvalues --    0.56427   0.57035   0.57303   0.57562   0.57820
  Beta virt. eigenvalues --    0.58287   0.58447   0.58787   0.59316   0.59456
  Beta virt. eigenvalues --    0.59984   0.60483   0.60772   0.61058   0.61596
  Beta virt. eigenvalues --    0.61897   0.62354   0.62570   0.63067   0.63244
  Beta virt. eigenvalues --    0.63461   0.63889   0.64096   0.64350   0.64591
  Beta virt. eigenvalues --    0.64769   0.64947   0.65460   0.65648   0.65744
  Beta virt. eigenvalues --    0.66514   0.66796   0.67218   0.67497   0.67807
  Beta virt. eigenvalues --    0.68081   0.68267   0.68877   0.69049   0.69312
  Beta virt. eigenvalues --    0.70264   0.70506   0.70639   0.71012   0.71191
  Beta virt. eigenvalues --    0.71792   0.71931   0.72138   0.72371   0.72944
  Beta virt. eigenvalues --    0.73162   0.73604   0.73697   0.74002   0.74191
  Beta virt. eigenvalues --    0.74711   0.74866   0.75112   0.76057   0.76398
  Beta virt. eigenvalues --    0.76569   0.76746   0.76830   0.77076   0.77941
  Beta virt. eigenvalues --    0.78103   0.78394   0.78917   0.79592   0.79991
  Beta virt. eigenvalues --    0.80084   0.80603   0.80744   0.81238   0.81377
  Beta virt. eigenvalues --    0.82279   0.82426   0.82806   0.83124   0.83735
  Beta virt. eigenvalues --    0.84171   0.85046   0.85073   0.85634   0.86023
  Beta virt. eigenvalues --    0.86426   0.86556   0.87063   0.87472   0.87759
  Beta virt. eigenvalues --    0.88489   0.88726   0.89217   0.89432   0.89899
  Beta virt. eigenvalues --    0.90175   0.90799   0.91164   0.91717   0.91877
  Beta virt. eigenvalues --    0.92110   0.92218   0.92652   0.93376   0.93929
  Beta virt. eigenvalues --    0.94384   0.94888   0.95005   0.95263   0.95760
  Beta virt. eigenvalues --    0.95809   0.96629   0.96870   0.97127   0.97518
  Beta virt. eigenvalues --    0.97827   0.98249   0.98870   0.99225   0.99871
  Beta virt. eigenvalues --    1.00057   1.00426   1.00610   1.00659   1.01128
  Beta virt. eigenvalues --    1.01486   1.01643   1.02069   1.02240   1.02919
  Beta virt. eigenvalues --    1.03376   1.03542   1.03679   1.03930   1.04339
  Beta virt. eigenvalues --    1.04431   1.05179   1.05720   1.05918   1.06222
  Beta virt. eigenvalues --    1.07246   1.07985   1.08256   1.08506   1.08830
  Beta virt. eigenvalues --    1.09241   1.09910   1.10296   1.10811   1.11624
  Beta virt. eigenvalues --    1.12049   1.12254   1.12935   1.13677   1.14009
  Beta virt. eigenvalues --    1.14534   1.14647   1.15452   1.15954   1.16176
  Beta virt. eigenvalues --    1.17101   1.17502   1.17930   1.18312   1.18928
  Beta virt. eigenvalues --    1.19115   1.19344   1.19528   1.20074   1.20552
  Beta virt. eigenvalues --    1.21003   1.21229   1.21777   1.22606   1.23437
  Beta virt. eigenvalues --    1.23687   1.24228   1.24359   1.25114   1.25336
  Beta virt. eigenvalues --    1.25492   1.25895   1.26233   1.27079   1.27519
  Beta virt. eigenvalues --    1.27616   1.27685   1.27852   1.28812   1.29166
  Beta virt. eigenvalues --    1.29653   1.29821   1.30390   1.30668   1.31108
  Beta virt. eigenvalues --    1.31846   1.32837   1.33378   1.34111   1.34970
  Beta virt. eigenvalues --    1.35470   1.36472   1.36716   1.37155   1.37462
  Beta virt. eigenvalues --    1.38175   1.38783   1.39729   1.40185   1.41234
  Beta virt. eigenvalues --    1.41492   1.42140   1.42969   1.43197   1.43375
  Beta virt. eigenvalues --    1.43868   1.44981   1.45108   1.45494   1.45796
  Beta virt. eigenvalues --    1.46568   1.46941   1.47094   1.47818   1.47953
  Beta virt. eigenvalues --    1.48154   1.48457   1.48688   1.48839   1.49176
  Beta virt. eigenvalues --    1.49961   1.50377   1.50536   1.50698   1.51494
  Beta virt. eigenvalues --    1.51673   1.51778   1.51902   1.52692   1.52841
  Beta virt. eigenvalues --    1.53519   1.54114   1.54352   1.54731   1.54896
  Beta virt. eigenvalues --    1.55114   1.55334   1.55623   1.55706   1.55831
  Beta virt. eigenvalues --    1.56202   1.56373   1.56707   1.57073   1.57225
  Beta virt. eigenvalues --    1.57551   1.57836   1.58283   1.58705   1.59339
  Beta virt. eigenvalues --    1.59522   1.59789   1.60129   1.60254   1.60653
  Beta virt. eigenvalues --    1.60865   1.61327   1.61464   1.61901   1.62425
  Beta virt. eigenvalues --    1.62543   1.62949   1.63017   1.63410   1.63840
  Beta virt. eigenvalues --    1.63982   1.64772   1.64894   1.65186   1.65769
  Beta virt. eigenvalues --    1.65989   1.66333   1.66517   1.66926   1.67510
  Beta virt. eigenvalues --    1.67761   1.68035   1.68130   1.68448   1.69019
  Beta virt. eigenvalues --    1.69237   1.69692   1.69795   1.70164   1.70502
  Beta virt. eigenvalues --    1.71284   1.71441   1.71840   1.72593   1.72979
  Beta virt. eigenvalues --    1.73247   1.73440   1.73715   1.74686   1.75177
  Beta virt. eigenvalues --    1.75951   1.76410   1.77174   1.77289   1.77816
  Beta virt. eigenvalues --    1.78125   1.78574   1.79375   1.79827   1.80228
  Beta virt. eigenvalues --    1.80713   1.81127   1.81813   1.82214   1.83264
  Beta virt. eigenvalues --    1.83607   1.84293   1.84782   1.85211   1.85530
  Beta virt. eigenvalues --    1.86050   1.86488   1.86828   1.87130   1.87514
  Beta virt. eigenvalues --    1.87723   1.88226   1.88656   1.88843   1.89341
  Beta virt. eigenvalues --    1.89860   1.90193   1.90679   1.91166   1.91445
  Beta virt. eigenvalues --    1.91671   1.92184   1.93117   1.93228   1.94169
  Beta virt. eigenvalues --    1.95049   1.95465   1.96415   1.97037   1.97441
  Beta virt. eigenvalues --    1.97474   1.97869   1.98533   1.99057   1.99267
  Beta virt. eigenvalues --    1.99694   2.00193   2.00538   2.00816   2.01272
  Beta virt. eigenvalues --    2.01401   2.02325   2.02772   2.03157   2.03369
  Beta virt. eigenvalues --    2.04701   2.05153   2.05726   2.06053   2.06299
  Beta virt. eigenvalues --    2.07738   2.08099   2.08507   2.09118   2.09349
  Beta virt. eigenvalues --    2.09976   2.10356   2.10581   2.11360   2.11660
  Beta virt. eigenvalues --    2.11764   2.13104   2.13274   2.13662   2.14174
  Beta virt. eigenvalues --    2.14241   2.14612   2.15259   2.15649   2.16993
  Beta virt. eigenvalues --    2.17617   2.18041   2.18379   2.18993   2.19526
  Beta virt. eigenvalues --    2.19834   2.19915   2.20875   2.21263   2.21740
  Beta virt. eigenvalues --    2.21941   2.22345   2.22901   2.24022   2.24478
  Beta virt. eigenvalues --    2.25323   2.25693   2.26373   2.26635   2.26830
  Beta virt. eigenvalues --    2.27537   2.27743   2.28013   2.28821   2.29078
  Beta virt. eigenvalues --    2.29659   2.29793   2.30148   2.30392   2.30902
  Beta virt. eigenvalues --    2.31781   2.32591   2.32905   2.33456   2.33748
  Beta virt. eigenvalues --    2.34075   2.35228   2.35695   2.36085   2.36248
  Beta virt. eigenvalues --    2.36525   2.36859   2.37152   2.37422   2.38337
  Beta virt. eigenvalues --    2.38674   2.38800   2.39233   2.39832   2.40322
  Beta virt. eigenvalues --    2.40724   2.40952   2.41920   2.42676   2.42872
  Beta virt. eigenvalues --    2.43234   2.43884   2.44135   2.44420   2.44823
  Beta virt. eigenvalues --    2.45531   2.45851   2.46343   2.46787   2.47225
  Beta virt. eigenvalues --    2.47405   2.48269   2.48382   2.48821   2.49275
  Beta virt. eigenvalues --    2.50398   2.50823   2.51050   2.52331   2.52425
  Beta virt. eigenvalues --    2.52898   2.53153   2.53473   2.53930   2.54412
  Beta virt. eigenvalues --    2.54487   2.55131   2.55668   2.55917   2.56151
  Beta virt. eigenvalues --    2.56432   2.56731   2.57009   2.57538   2.58111
  Beta virt. eigenvalues --    2.58426   2.58678   2.59274   2.59910   2.60145
  Beta virt. eigenvalues --    2.60764   2.61022   2.61180   2.61701   2.62430
  Beta virt. eigenvalues --    2.62965   2.63502   2.63872   2.64413   2.64552
  Beta virt. eigenvalues --    2.64835   2.65376   2.66368   2.66417   2.67003
  Beta virt. eigenvalues --    2.67479   2.67769   2.67911   2.68262   2.68810
  Beta virt. eigenvalues --    2.69142   2.69289   2.70000   2.70091   2.70858
  Beta virt. eigenvalues --    2.71059   2.72068   2.72223   2.72562   2.73012
  Beta virt. eigenvalues --    2.73219   2.74128   2.74739   2.74955   2.75333
  Beta virt. eigenvalues --    2.75593   2.76554   2.76947   2.77405   2.77861
  Beta virt. eigenvalues --    2.78191   2.78831   2.79013   2.79594   2.79810
  Beta virt. eigenvalues --    2.80706   2.81247   2.81640   2.82178   2.82348
  Beta virt. eigenvalues --    2.83016   2.83184   2.83683   2.83798   2.84811
  Beta virt. eigenvalues --    2.85447   2.85612   2.86103   2.86315   2.86541
  Beta virt. eigenvalues --    2.87302   2.87396   2.87741   2.88126   2.88626
  Beta virt. eigenvalues --    2.89362   2.89930   2.90462   2.90710   2.91227
  Beta virt. eigenvalues --    2.92081   2.92427   2.92612   2.93084   2.93511
  Beta virt. eigenvalues --    2.93756   2.94050   2.94695   2.95200   2.95496
  Beta virt. eigenvalues --    2.96175   2.96443   2.96567   2.96977   2.97648
  Beta virt. eigenvalues --    2.98026   2.98484   2.98723   2.99025   2.99423
  Beta virt. eigenvalues --    2.99764   3.00100   3.00704   3.01332   3.01538
  Beta virt. eigenvalues --    3.02364   3.03571   3.03974   3.04250   3.04779
  Beta virt. eigenvalues --    3.05512   3.05791   3.06095   3.06450   3.07232
  Beta virt. eigenvalues --    3.07454   3.07708   3.07842   3.08242   3.08555
  Beta virt. eigenvalues --    3.08667   3.09219   3.09636   3.09904   3.10122
  Beta virt. eigenvalues --    3.10402   3.10821   3.11593   3.12308   3.12460
  Beta virt. eigenvalues --    3.12895   3.13310   3.13447   3.14090   3.14294
  Beta virt. eigenvalues --    3.14769   3.15280   3.15460   3.16039   3.16062
  Beta virt. eigenvalues --    3.16761   3.16960   3.17412   3.17643   3.18005
  Beta virt. eigenvalues --    3.18282   3.18491   3.18569   3.19293   3.19612
  Beta virt. eigenvalues --    3.19913   3.20360   3.20658   3.21272   3.21437
  Beta virt. eigenvalues --    3.21845   3.22014   3.22295   3.22620   3.22892
  Beta virt. eigenvalues --    3.23184   3.23527   3.23790   3.24205   3.24516
  Beta virt. eigenvalues --    3.24822   3.25092   3.25630   3.26045   3.26239
  Beta virt. eigenvalues --    3.26762   3.27115   3.27567   3.27711   3.28148
  Beta virt. eigenvalues --    3.28473   3.28785   3.29381   3.29695   3.30089
  Beta virt. eigenvalues --    3.30553   3.30699   3.30933   3.31446   3.31669
  Beta virt. eigenvalues --    3.31967   3.32356   3.32597   3.32727   3.33083
  Beta virt. eigenvalues --    3.33354   3.33565   3.33644   3.34017   3.34483
  Beta virt. eigenvalues --    3.34805   3.35122   3.35366   3.35434   3.35665
  Beta virt. eigenvalues --    3.36342   3.36491   3.36569   3.36891   3.37492
  Beta virt. eigenvalues --    3.37735   3.38140   3.38308   3.38757   3.39177
  Beta virt. eigenvalues --    3.39638   3.39776   3.40123   3.40493   3.40798
  Beta virt. eigenvalues --    3.41121   3.41448   3.41961   3.42734   3.42840
  Beta virt. eigenvalues --    3.43205   3.43726   3.44035   3.44272   3.44325
  Beta virt. eigenvalues --    3.45024   3.45342   3.45917   3.46192   3.46578
  Beta virt. eigenvalues --    3.46977   3.47904   3.48366   3.49310   3.49663
  Beta virt. eigenvalues --    3.50408   3.50634   3.50963   3.51265   3.52343
  Beta virt. eigenvalues --    3.52571   3.53275   3.53885   3.54126   3.55091
  Beta virt. eigenvalues --    3.55403   3.55773   3.56091   3.56786   3.57278
  Beta virt. eigenvalues --    3.58221   3.58300   3.58817   3.59322   3.59739
  Beta virt. eigenvalues --    3.60559   3.60747   3.61302   3.61690   3.61979
  Beta virt. eigenvalues --    3.62322   3.63429   3.63606   3.64661   3.65016
  Beta virt. eigenvalues --    3.65301   3.66105   3.66591   3.67009   3.67448
  Beta virt. eigenvalues --    3.68619   3.69240   3.69377   3.69867   3.70460
  Beta virt. eigenvalues --    3.71152   3.71429   3.71644   3.72380   3.72725
  Beta virt. eigenvalues --    3.73156   3.73328   3.73662   3.74082   3.74343
  Beta virt. eigenvalues --    3.74840   3.75344   3.75465   3.75915   3.76674
  Beta virt. eigenvalues --    3.77510   3.77778   3.78698   3.79492   3.79991
  Beta virt. eigenvalues --    3.80844   3.81536   3.82050   3.82836   3.83514
  Beta virt. eigenvalues --    3.84173   3.84635   3.84911   3.86086   3.86136
  Beta virt. eigenvalues --    3.86854   3.86983   3.88298   3.88471   3.89840
  Beta virt. eigenvalues --    3.90005   3.90595   3.91424   3.92269   3.92391
  Beta virt. eigenvalues --    3.93746   3.94887   3.95351   3.96409   3.96631
  Beta virt. eigenvalues --    3.97663   3.98002   3.98309   3.99199   3.99819
  Beta virt. eigenvalues --    3.99975   4.00308   4.00990   4.01855   4.02460
  Beta virt. eigenvalues --    4.02650   4.03825   4.04769   4.05158   4.06140
  Beta virt. eigenvalues --    4.06431   4.07257   4.07549   4.07687   4.09571
  Beta virt. eigenvalues --    4.10567   4.10931   4.11714   4.12298   4.12967
  Beta virt. eigenvalues --    4.14041   4.14322   4.15175   4.16534   4.16889
  Beta virt. eigenvalues --    4.17346   4.17925   4.17988   4.18403   4.18806
  Beta virt. eigenvalues --    4.19237   4.20033   4.20722   4.21310   4.21577
  Beta virt. eigenvalues --    4.22181   4.22942   4.23630   4.23961   4.24608
  Beta virt. eigenvalues --    4.25520   4.27024   4.27706   4.27788   4.28581
  Beta virt. eigenvalues --    4.29014   4.29578   4.30199   4.30417   4.31057
  Beta virt. eigenvalues --    4.31662   4.32406   4.33043   4.33558   4.33869
  Beta virt. eigenvalues --    4.34529   4.34946   4.35501   4.36010   4.37425
  Beta virt. eigenvalues --    4.38317   4.38528   4.39618   4.40280   4.40679
  Beta virt. eigenvalues --    4.40957   4.41642   4.42019   4.42199   4.44224
  Beta virt. eigenvalues --    4.44280   4.44606   4.45658   4.46254   4.46404
  Beta virt. eigenvalues --    4.47302   4.47789   4.48818   4.49065   4.49267
  Beta virt. eigenvalues --    4.50000   4.50853   4.51434   4.52629   4.53492
  Beta virt. eigenvalues --    4.53967   4.54532   4.55373   4.55549   4.56136
  Beta virt. eigenvalues --    4.57119   4.57486   4.58401   4.61364   4.63380
  Beta virt. eigenvalues --    4.64692   4.65123   4.66657   4.67068   4.67637
  Beta virt. eigenvalues --    4.68404   4.69331   4.69709   4.70533   4.72623
  Beta virt. eigenvalues --    4.73298   4.74178   4.74307   4.75705   4.77289
  Beta virt. eigenvalues --    4.79014   4.80436   4.80992   4.82258   4.82493
  Beta virt. eigenvalues --    4.83688   4.84757   4.85035   4.85895   4.86401
  Beta virt. eigenvalues --    4.86838   4.87672   4.89110   4.90026   4.91421
  Beta virt. eigenvalues --    4.93534   4.93934   4.94590   4.95355   4.96792
  Beta virt. eigenvalues --    4.97236   4.98700   5.00052   5.00842   5.01639
  Beta virt. eigenvalues --    5.02514   5.03907   5.04396   5.05181   5.05320
  Beta virt. eigenvalues --    5.06189   5.07336   5.07875   5.09637   5.12482
  Beta virt. eigenvalues --    5.12920   5.15892   5.16512   5.17874   5.19741
  Beta virt. eigenvalues --    5.20674   5.21912   5.22264   5.22972   5.24907
  Beta virt. eigenvalues --    5.25472   5.26150   5.26878   5.28119   5.30579
  Beta virt. eigenvalues --    5.34673   5.35395   5.36003   5.37391   5.37967
  Beta virt. eigenvalues --    5.39026   5.39629   5.40010   5.40426   5.40944
  Beta virt. eigenvalues --    5.47285   5.48152   5.49066   5.50387   5.51184
  Beta virt. eigenvalues --    5.52521   5.53201   5.55236   5.58193   5.59012
  Beta virt. eigenvalues --    5.61348   5.61874   5.62408   5.64902   5.66017
  Beta virt. eigenvalues --    5.67137   5.67902   5.71448   5.73602   5.75910
  Beta virt. eigenvalues --    5.77346   5.77949   5.86822   5.87271   5.88675
  Beta virt. eigenvalues --    5.91757   5.99597   6.00897   6.01805   6.10533
  Beta virt. eigenvalues --    6.11692   6.12083   6.13304   6.18142   6.23982
  Beta virt. eigenvalues --    6.24895   6.31675   6.32968   6.40184   6.46900
  Beta virt. eigenvalues --    6.52031   6.53352   6.64102   6.96621   7.28698
  Beta virt. eigenvalues --    9.09041   9.25591   9.41510  19.61849  22.32785
[...]
  1146. RY*(  23) C  56                  0.00000     3.36331   
  1147. RY*(  24) C  56                  0.00000     3.45524   
  1148. RY*(  25) C  56                  0.00000     3.46879   
  1149. RY*(  26) C  56                  0.00000     3.74593   
  1150. RY*(   1) H  57                  0.00047     0.92414   
  1151. RY*(   2) H  57                  0.00009     1.79180   
  1152. RY*(   3) H  57                  0.00003     2.09530   
  1153. RY*(   4) H  57                  0.00003     2.08820   
  1154. RY*(   5) H  57                  0.00000     2.96087   
  1155. RY*(   1) H  58                  0.00044     0.93788   
  1156. RY*(   2) H  58                  0.00010     1.83559   
  1157. RY*(   3) H  58                  0.00003     2.06794   
  1158. RY*(   4) H  58                  0.00003     2.10792   
  1159. RY*(   5) H  58                  0.00000     2.96331   
  1160. RY*(   1) H  59                  0.00035     0.91772   
  1161. RY*(   2) H  59                  0.00006     1.78786   
  1162. RY*(   3) H  59                  0.00004     2.06465   
  1163. RY*(   4) H  59                  0.00004     2.08254   
  1164. RY*(   5) H  59                  0.00000     2.99205   
  1165. RY*(   1) C  60                  0.00075     1.34479   
  1166. RY*(   2) C  60                  0.00070     1.18644   
  1167. RY*(   3) C  60                  0.00031     1.40472   
  1168. RY*(   4) C  60                  0.00007     1.00081   
  1169. RY*(   5) C  60                  0.00002     1.98433   
  1170. RY*(   6) C  60                  0.00003     1.48533   
  1171. RY*(   7) C  60                  0.00000     1.70503   
  1172. RY*(   8) C  60                  0.00001     1.63144   
  1173. RY*(   9) C  60                  0.00000    21.67147   
  1174. RY*(  10) C  60                  0.00000     2.31838   
  1175. RY*(  11) C  60                  0.00000     2.75494   
  1176. RY*(  12) C  60                  0.00000     2.36573   
  1177. RY*(  13) C  60                  0.00000     2.44732   
  1178. RY*(  14) C  60                  0.00000     2.66664   
  1179. RY*(  15) C  60                  0.00000     2.41020   
  1180. RY*(  16) C  60                  0.00001     3.49208   
  1181. RY*(  17) C  60                  0.00000     2.53503   
  1182. RY*(  18) C  60                  0.00000     3.17390   
  1183. RY*(  19) C  60                  0.00000     2.60980   
  1184. RY*(  20) C  60                  0.00000     3.23095   
  1185. RY*(  21) C  60                  0.00000     3.74598   
  1186. RY*(  22) C  60                  0.00000     3.59558   
  1187. RY*(  23) C  60                  0.00000     3.31861   
  1188. RY*(  24) C  60                  0.00000     3.43145   
  1189. RY*(  25) C  60                  0.00000     3.55942   
  1190. RY*(  26) C  60                  0.00000     3.74106   
  1191. RY*(   1) H  61                  0.00036     0.90865   
  1192. RY*(   2) H  61                  0.00006     1.78334   
  1193. RY*(   3) H  61                  0.00004     2.07035   
  1194. RY*(   4) H  61                  0.00004     2.09548   
  1195. RY*(   5) H  61                  0.00000     2.98865   
  1196. RY*(   1) H  62                  0.00052     0.90566   
  1197. RY*(   2) H  62                  0.00009     1.78618   
  1198. RY*(   3) H  62                  0.00003     2.14283   
  1199. RY*(   4) H  62                  0.00002     2.05994   
  1200. RY*(   5) H  62                  0.00000     2.97059   
  1201. RY*(   1) H  63                  0.00043     0.91437   
  1202. RY*(   2) H  63                  0.00009     1.85466   
  1203. RY*(   3) H  63                  0.00003     2.17327   
  1204. RY*(   4) H  63                  0.00003     2.00490   
  1205. RY*(   5) H  63                  0.00000     2.95735   
  1317. BD*(   1) N   2 - C   6          0.01293     0.51439   
  1318. BD*(   2) N   2 - C   6          0.31175     0.01289  1363(v),145(r),1336(v)
                                                    1331(v),288(g),183(g)
                                                    1323(r),702(v),144(r),140(r)
                                                    141(r),1316(r)
  1319. BD*(   1) N   2 - C   9          0.01298     0.50815   
  1320. BD*(   1) N   3 - C  10          0.01299     0.50695   
  1321. BD*(   1) N   3 - C  13          0.01265     0.51300   
  1322. BD*(   1) N   4 - C  14          0.01308     0.51041   
  1323. BD*(   2) N   4 - C  14          0.31913     0.01201  1345(v),1349(v),145(r)
                                                    1354(v),496(g),235(g)
                                                    1318(r),764(v),144(r),140(r)
                                                    141(r),1316(r)
  1324. BD*(   1) N   4 - C  17          0.01248     0.51419   
  1325. BD*(   1) N   5 - C  18          0.01294     0.51409   
  1326. BD*(   2) N   5 - C  18          0.31816     0.01148  1354(v),1363(v),1358(v)
                                                    599(g),260(g),144(r),602(g)
                                                    795(v),145(r),1316(r),140(r)
  1327. BD*(   1) N   5 - C  21          0.01311     0.50379   
  1328. BD*(   1) C   6 - C   7          0.01778     0.49307   
  1329. BD*(   1) C   6 - C  22          0.01067     0.57329   
  1330. BD*(   1) C   7 - C   8          0.01132     0.60817   
  1331. BD*(   2) C   7 - C   8          0.13284     0.06747  1336(v),1318(v),1369(v)
                                                    1371(v),1372(v),1370(v)
                                                    315(g)
  1332. BD*(   1) C   7 - C  34          0.00862     0.41297   
  1333. BD*(   1) C   8 - C   9          0.01771     0.48952   
  1334. BD*(   1) C   8 - C  30          0.00857     0.41336   
  1335. BD*(   1) C   9 - C  24          0.01035     0.57637   
  1336. BD*(   2) C   9 - C  24          0.21831     0.04333  7(v),1331(v),1318(v),1363(r)
                                                    733(g),1345(r),368(g),144(r)
  1337. BD*(   1) C  10 - C  11          0.01729     0.49813   
  1338. BD*(   1) C  10 - C  24          0.01058     0.56987   
  1339. BD*(   1) C  11 - C  12          0.01224     0.59181   
  1340. BD*(   2) C  11 - C  12          0.13856     0.06576  1379(v),1345(v),7(v),1374(v)
                                                    1375(v)
  1341. BD*(   1) C  11 - C  38          0.00807     0.41728   
  1342. BD*(   1) C  12 - C  13          0.01737     0.48785   
  1343. BD*(   1) C  12 - C  42          0.01324     0.49674   
  1344. BD*(   1) C  13 - C  26          0.01030     0.57697   
  1345. BD*(   2) C  13 - C  26          0.19778     0.04672  1323(v),1340(v),7(v),1354(r)
                                                    764(g),1379(r),1336(r)
                                                    469(g)
  1346. BD*(   1) C  14 - C  15          0.01718     0.49722   
  1347. BD*(   1) C  14 - C  26          0.01057     0.57432   
  1348. BD*(   1) C  15 - C  16          0.01223     0.59224   
  1349. BD*(   2) C  15 - C  16          0.15138     0.06402  1387(v),1354(v),1323(v)
                                                    1382(v),1383(v),1385(v)
  1350. BD*(   1) C  15 - C  47          0.00809     0.41751   
  1351. BD*(   1) C  16 - C  17          0.01730     0.48709   
  1352. BD*(   1) C  16 - C  51          0.01326     0.49608   
  1353. BD*(   1) C  17 - C  28          0.01034     0.57537   
  1354. BD*(   2) C  17 - C  28          0.21995     0.04533  1326(v),1349(v),1323(v)
                                                    1345(r),795(g),1363(r)
                                                    1387(r),576(g)
  1355. BD*(   1) C  18 - C  19          0.01777     0.49336   
  1356. BD*(   1) C  18 - C  28          0.01061     0.57337   
  1357. BD*(   1) C  19 - C  20          0.01133     0.60971   
  1358. BD*(   2) C  19 - C  20          0.11882     0.06961  1363(v),1326(v),1394(v)
                                                    1390(v),1391(v),1395(v)
  1359. BD*(   1) C  19 - C  56          0.00855     0.41469   
  1360. BD*(   1) C  20 - C  21          0.01795     0.48847   
  1361. BD*(   1) C  20 - C  60          0.00860     0.41346   
  1362. BD*(   1) C  21 - C  22          0.01045     0.57251   
  1363. BD*(   2) C  21 - C  22          0.20154     0.04318  1318(v),1358(v),1326(v)
                                                    1336(r),702(g),1354(r)
                                                    677(g),1399(r)
  1364. BD*(   1) C  22 - H  23          0.00643     0.43177   
  1365. BD*(   1) C  24 - H  25          0.00642     0.43155   
  1366. BD*(   1) C  26 - H  27          0.00656     0.43210   
  1367. BD*(   1) C  28 - H  29          0.00663     0.43275   
  1368. BD*(   1) C  30 - H  31          0.00338     0.38843   
  1369. BD*(   1) C  30 - H  32          0.00558     0.37630   
  1370. BD*(   1) C  30 - H  33          0.00475     0.37910   
  1371. BD*(   1) C  34 - H  35          0.00533     0.37758   
  1372. BD*(   1) C  34 - H  36          0.00537     0.37760   
  1373. BD*(   1) C  34 - H  37          0.00333     0.38892   
  1374. BD*(   1) C  38 - H  39          0.00614     0.37822   
  1375. BD*(   1) C  38 - H  40          0.00514     0.38520   
  1376. BD*(   1) C  38 - H  41          0.00411     0.39301   
  1377. BD*(   1) C  42 - H  43          0.01084     0.42343   
  1378. BD*(   1) C  42 - C  44          0.00390     0.63212   
  1379. BD*(   2) C  42 - C  44          0.03968     0.05976   
  1380. BD*(   1) C  44 - H  45          0.00548     0.43624   
  1381. BD*(   1) C  44 - H  46          0.00430     0.43621   
  1382. BD*(   1) C  47 - H  48          0.00616     0.37940   
  1383. BD*(   1) C  47 - H  49          0.00503     0.38566   
  1384. BD*(   1) C  47 - H  50          0.00404     0.39420   
  1385. BD*(   1) C  51 - H  52          0.01066     0.42207   
  1386. BD*(   1) C  51 - C  53          0.00388     0.62938   
  1387. BD*(   2) C  51 - C  53          0.03641     0.05942   
  1388. BD*(   1) C  53 - H  54          0.00546     0.43487   
  1389. BD*(   1) C  53 - H  55          0.00424     0.43482   
  1390. BD*(   1) C  56 - H  57          0.00571     0.37780   
  1391. BD*(   1) C  56 - H  58          0.00519     0.37953   
  1392. BD*(   1) C  56 - H  59          0.00330     0.38965   
  1393. BD*(   1) C  60 - H  61          0.00335     0.38947   
  1394. BD*(   1) C  60 - H  62          0.00631     0.37712   
  1395. BD*(   1) C  60 - H  63          0.00503     0.37929   
       -------------------------------
              Total Lewis  114.76673  ( 96.9709%)
        Valence non-Lewis    3.34542  (  2.8267%)
        Rydberg non-Lewis    0.23957  (  0.2024%)
       -------------------------------
            Total unit  2  118.35172  (100.0000%)
           Charge unit  2   -0.35172
 
 Molecular unit  3  (H2O)
    83. BD (   1) O  64 - H  65          0.99351    -0.81564  144(r),1239(v),155(r)
                                                    1316(r),145(r),142(r),143(r)
                                                    161(r),141(r),263(r),260(r)
                                                    1287(r),236(r),184(r),212(r)
                                                    264(r),140(r)
    84. BD (   1) O  64 - H  66          0.99673    -0.87903  144(r),1234(v),155(r)
                                                    1396(g),1316(r),158(r)
                                                    212(r),141(r),211(r),186(r)
                                                    216(r),157(r),145(r),209(r)
                                                    236(r),159(r),156(r),1287(r)
                                                    185(r),182(r),238(r),208(r)
   133. CR (   1) O  64                  0.99991   -18.95770  144(r),1239(v),1234(v)
                                                    141(r),1316(r),158(r),157(r)
   152. LP (   1) O  64                  0.98672    -0.33126  145(r),142(r),143(r),1238(v)
                                                    1233(v),1237(v),238(r)
                                                    186(r),1318(r),235(r)
   153. LP (   2) O  64                  0.92151    -0.48549  144(r),1396(g),1239(v)
                                                    1234(v),1397(g),161(r)
                                                    1316(r),234(r),143(r),182(r)
                                                    185(r),208(r),142(r),211(r)
                                                    237(r),155(r),183(r),209(r)
                                                    158(r),263(r),159(r),260(r)
                                                    235(r),166(r),1293(r)
                                                    1290(r),261(r)
  1206. RY*(   1) O  64                  0.00214     1.08151   
  1207. RY*(   2) O  64                  0.00035     0.77716   
  1208. RY*(   3) O  64                  0.00023     1.11652   
  1209. RY*(   4) O  64                  0.00008     1.20591   
  1210. RY*(   5) O  64                  0.00003     2.40717   
  1211. RY*(   6) O  64                  0.00002     2.09047   
  1212. RY*(   7) O  64                  0.00002     4.82095   
  1213. RY*(   8) O  64                  0.00000     2.82686   
  1214. RY*(   9) O  64                  0.00001     3.17604   
  1215. RY*(  10) O  64                  0.00001     2.49478   
  1216. RY*(  11) O  64                  0.00000     6.33922   
  1217. RY*(  12) O  64                  0.00000    41.86235   
  1218. RY*(  13) O  64                  0.00000     6.44421   
  1219. RY*(  14) O  64                  0.00000     3.27783   
  1220. RY*(  15) O  64                  0.00000     6.55880   
  1221. RY*(  16) O  64                  0.00000     2.46137   
  1222. RY*(  17) O  64                  0.00000     6.28916   
  1223. RY*(  18) O  64                  0.00000     2.92063   
  1224. RY*(  19) O  64                  0.00000     6.49769   
  1225. RY*(  20) O  64                  0.00000     5.33318   
  1226. RY*(  21) O  64                  0.00000     5.24509   
  1227. RY*(  22) O  64                  0.00000     5.66632   
  1228. RY*(  23) O  64                  0.00000     5.49618   
  1229. RY*(  24) O  64                  0.00000     5.50992   
  1230. RY*(  25) O  64                  0.00000     5.61342   
  1231. RY*(  26) O  64                  0.00000     5.38016   
  1232. RY*(   1) H  65                  0.00112     0.87807   
  1233. RY*(   2) H  65                  0.00039     2.00574   
  1234. RY*(   3) H  65                  0.00034     2.18445   
  1235. RY*(   4) H  65                  0.00010     2.07004   
  1236. RY*(   5) H  65                  0.00001     2.93310   
  1237. RY*(   1) H  66                  0.00050     1.01480   
  1238. RY*(   2) H  66                  0.00044     1.69573   
  1239. RY*(   3) H  66                  0.00037     2.23731   
  1240. RY*(   4) H  66                  0.00014     2.10128   
  1241. RY*(   5) H  66                  0.00000     3.02605   
  1396. BD*(   1) O  64 - H  65          0.00302     0.42575   
  1397. BD*(   1) O  64 - H  66          0.00176     0.59209   
       -------------------------------
              Total Lewis    4.89837  ( 99.7742%)
        Valence non-Lewis    0.00477  (  0.0973%)
        Rydberg non-Lewis    0.00631  (  0.1286%)
       -------------------------------
            Total unit  3    4.90946  (100.0000%)
           Charge unit  3    0.09054
 Unable to Open any file for archive entry.
 1\1\GINC-BGN1021\SP\UAPFD\def2TZVP\C31H34Fe1N4O1S1(5)\BEBJONES\15-Oct-
 2024\0\\# apfd/def2TZVP guess=read scf=maxcycle=999 geom=check pop=nbo
 \\1tqn_II_Q\\0,5\Fe,0,-15.6956079976,-23.1286279459,-11.4419903897\N,0
 ,-15.7309055077,-21.4619843262,-12.5615958745\N,0,-16.2575103305,-24.1
 937018671,-13.0487250064\N,0,-15.8925125232,-24.7437913924,-10.2791021
 388\N,0,-15.2999173868,-22.0188070111,-9.8216083842\C,0,-15.4953307316
 ,-20.190962671,-12.1479703568\C,0,-15.4862954343,-19.2778151505,-13.26
 80336034\C,0,-15.6969777895,-20.0354112872,-14.3770226222\C,0,-15.8476
 710472,-21.3990724383,-13.9164071196\C,0,-16.3637328335,-23.7568462942
 ,-14.3339109826\C,0,-16.7287719341,-24.8376161227,-15.2128796865\C,0,-
 16.8375305472,-25.953265293,-14.4258551169\C,0,-16.5301966232,-25.5234
 14446,-13.0755205149\C,0,-16.2069120863,-26.0019132527,-10.6885352959\
 C,0,-16.1553745417,-26.9276315645,-9.5852047283\C,0,-15.7869246287,-26
 .1975743448,-8.487075023\C,0,-15.6512383056,-24.8284968559,-8.94653003
 66\C,0,-15.3170038908,-22.4358701673,-8.5297746387\C,0,-15.1748095836,
 -21.3201817765,-7.622970366\C,0,-15.029490511,-20.216162999,-8.4021038
 688\C,0,-15.1223284525,-20.6671812447,-9.775662477\C,0,-15.3120541295,
 -19.7998791943,-10.8340626712\H,0,-15.2019759848,-18.7443562656,-10.63
 93392072\C,0,-16.2587416971,-22.4344823312,-14.7316422673\H,0,-16.3881
 886309,-22.2171118183,-15.7804159861\C,0,-16.5612297124,-26.3594503211
 ,-11.9767831984\H,0,-16.8037784333,-27.3960835059,-12.151019238\C,0,-1
 5.3790818142,-23.755946083,-8.1196939736\H,0,-15.2795667394,-23.949356
 4111,-7.0629344844\C,0,-15.7683417732,-19.6187287936,-15.8057742535\H,
 0,-15.50793175,-18.5688711449,-15.9156456653\H,0,-16.775935554,-19.763
 0996489,-16.1975901911\H,0,-15.0820190337,-20.209378705,-16.4121059217
 \C,0,-15.2632436165,-17.8090807328,-13.1533946879\H,0,-14.2999003511,-
 17.6020217374,-12.6868397999\H,0,-16.0405816724,-17.351035548,-12.5416
 536521\H,0,-15.2784500701,-17.3384912635,-14.1331738536\C,0,-16.996058
 5533,-24.7053933905,-16.6710748098\H,0,-16.0642290277,-24.7183838465,-
 17.2384057877\H,0,-17.5089724794,-23.7696152492,-16.8881155519\H,0,-17
 .6176548212,-25.5307041185,-17.012315666\C,0,-17.2007018524,-27.302579
 777,-14.8003977029\H,0,-17.770679128,-27.856285257,-14.0632367292\C,0,
 -16.8885923887,-27.8927745042,-15.9491795652\H,0,-16.2838806084,-27.40
 86301386,-16.6958391867\H,0,-17.2055258014,-28.898512448,-16.169835160
 1\C,0,-16.5054481543,-28.3718979066,-9.6621594891\H,0,-15.6762489745,-
 28.9505569714,-10.0719486681\H,0,-17.3718217565,-28.5247337991,-10.304
 0963781\H,0,-16.7357638981,-28.7538321897,-8.6698313453\C,0,-15.590813
 8104,-26.6339412834,-7.1222152976\H,0,-15.8678527392,-25.9195031917,-6
 .355707222\C,0,-15.0972625102,-27.8119682992,-6.75543783\H,0,-14.75947
 73517,-28.5396337057,-7.4724923221\H,0,-14.9879323199,-28.0779907863,-
 5.7172195598\C,0,-15.1749050011,-21.4367363943,-6.1378972029\H,0,-14.3
 284257514,-22.0353225643,-5.7991730366\H,0,-16.0891571316,-21.91907638
 44,-5.7926738987\H,0,-15.1086717898,-20.4559321108,-5.6736340523\C,0,-
 14.8368680721,-18.7949390474,-7.9971907416\H,0,-14.6593698868,-18.7196
 996006,-6.9271987195\H,0,-15.7193393256,-18.2016875044,-8.2399866525\H
 ,0,-13.9839211865,-18.3605981573,-8.5182002128\O,0,-17.896,-22.802,-11
 .166\H,0,-18.251,-23.144,-11.986\H,0,-18.364,-22.457,-10.493\C,0,-12.5
 580490987,-21.9881688578,-11.8933955288\H,0,-11.4923531351,-22.1627455
 534,-11.7826008627\H,0,-12.9353292648,-21.329711168,-11.1185452872\H,0
 ,-12.7690391358,-21.5648807059,-12.8697175225\S,0,-13.4396270488,-23.5
 883702248,-11.8178169045\H,0,-13.0731467311,-23.8652329189,-10.5602465
 911\\Version=ES64L-G16RevC.02\State=5-A\HF=-3157.1791659\S2=6.092054\S
 2-1=0.\S2A=6.000452\RMSD=2.196e-09\Dipole=-0.1595139,0.8901852,0.11706
 73\Quadrupole=-3.9421297,1.5146543,2.4274755,2.780339,0.6645839,-0.952
 3033\PG=C01 [X(C31H34Fe1N4O1S1)]\\@
 The archive entry for this job was punched.


 CHRISTMAS IS ON TOP OF A STEEP HILL.
 THE CLOSER YOU GET, THE STEEPER THE HILL IS.
          -- LINUS, OF PEANUTS
 Job cpu time:       5 days  5 hours 55 minutes 49.8 seconds.
 Elapsed time:       0 days  1 hours 55 minutes 41.4 seconds.
 File lengths (MBytes):  RWF=   1815 Int=      0 D2E=      0 Chk=    164 Scr=      1
 Normal termination of Gaussian 16 at Tue Oct 15 17:27:29 2024.
