 Entering Gaussian System, Link 0=g16
 Input=1uvy01.com
 Output=1uvy01.log
 Initial command:
 /sw/chem/gaussian/g16_C02/a100/g16/l1.exe "/local/bebjones_8041919/Gau-272764.inp" -scrdir="/local/bebjones_8041919/"
 Entering Link 1 = /sw/chem/gaussian/g16_C02/a100/g16/l1.exe PID=    272765.
  
 Copyright (c) 1988-2021, Gaussian, Inc.  All Rights Reserved.
  
 This is part of the Gaussian(R) 16 program.  It is based on
 the Gaussian(R) 09 system (copyright 2009, Gaussian, Inc.),
 the Gaussian(R) 03 system (copyright 2003, Gaussian, Inc.),
 the Gaussian(R) 98 system (copyright 1998, Gaussian, Inc.),
 the Gaussian(R) 94 system (copyright 1995, Gaussian, Inc.),
 the Gaussian 92(TM) system (copyright 1992, Gaussian, Inc.),
 the Gaussian 90(TM) system (copyright 1990, Gaussian, Inc.),
 the Gaussian 88(TM) system (copyright 1988, Gaussian, Inc.),
 the Gaussian 86(TM) system (copyright 1986, Carnegie Mellon
 University), and the Gaussian 82(TM) system (copyright 1983,
 Carnegie Mellon University). Gaussian is a federally registered
 trademark of Gaussian, Inc.
  
 This software contains proprietary and confidential information,
 including trade secrets, belonging to Gaussian, Inc.
  
 This software is provided under written license and may be
 used, copied, transmitted, or stored only in accord with that
 written license.
  
 The following legend is applicable only to US Government
 contracts under FAR:
  
                    RESTRICTED RIGHTS LEGEND
  
 Use, reproduction and disclosure by the US Government is
 subject to restrictions as set forth in subparagraphs (a)
 and (c) of the Commercial Computer Software - Restricted
 Rights clause in FAR 52.227-19.
  
 Gaussian, Inc.
 340 Quinnipiac St., Bldg. 40, Wallingford CT 06492
  
  
 ---------------------------------------------------------------
 Warning -- This program may not be used in any manner that
 competes with the business of Gaussian, Inc. or will provide
 assistance to any competitor of Gaussian, Inc.  The licensee
 of this program is prohibited from giving any competitor of
 Gaussian, Inc. access to this program.  By using this program,
 the user acknowledges that Gaussian, Inc. is engaged in the
 business of creating and licensing software in the field of
 computational chemistry and represents and warrants to the
 licensee that it is not a competitor of Gaussian, Inc. and that
 it will not use this program in any manner prohibited above.
 ---------------------------------------------------------------
  

 Cite this work as:
 Gaussian 16, Revision C.02,
 M. J. Frisch, G. W. Trucks, H. B. Schlegel, G. E. Scuseria, 
 M. A. Robb, J. R. Cheeseman, G. Scalmani, V. Barone, 
 G. A. Petersson, H. Nakatsuji, X. Li, M. Caricato, A. V. Marenich, 
 J. Bloino, B. G. Janesko, R. Gomperts, B. Mennucci, H. P. Hratchian, 
 J. V. Ortiz, A. F. Izmaylov, J. L. Sonnenberg, D. Williams-Young, 
 F. Ding, F. Lipparini, F. Egidi, J. Goings, B. Peng, A. Petrone, 
 T. Henderson, D. Ranasinghe, V. G. Zakrzewski, J. Gao, N. Rega, 
 G. Zheng, W. Liang, M. Hada, M. Ehara, K. Toyota, R. Fukuda, 
 J. Hasegawa, M. Ishida, T. Nakajima, Y. Honda, O. Kitao, H. Nakai, 
 T. Vreven, K. Throssell, J. A. Montgomery, Jr., J. E. Peralta, 
 F. Ogliaro, M. J. Bearpark, J. J. Heyd, E. N. Brothers, K. N. Kudin, 
 V. N. Staroverov, T. A. Keith, R. Kobayashi, J. Normand, 
 K. Raghavachari, A. P. Rendell, J. C. Burant, S. S. Iyengar, 
 J. Tomasi, M. Cossi, J. M. Millam, M. Klene, C. Adamo, R. Cammi, 
 J. W. Ochterski, R. L. Martin, K. Morokuma, O. Farkas, 
 J. B. Foresman, and D. J. Fox, Gaussian, Inc., Wallingford CT, 2019.
 
 ******************************************
 Gaussian 16:  ES64L-G16RevC.02  7-Dec-2021
                11-Oct-2024 
 ******************************************
 %mem=16GB
 %CPU=0-71
 SetSPE:  set environment variable "OMP_PROC_BIND" = "true"
 SetSPE:  set environment variable "OMP_PLACES" = "{0},{1},{2},{3},{4},{5},{6},{7},{8},{9},{10},{11},{12},{13},{14},{15},{16},{17},{18},{19},{20},{21},{22},{23},{24},{25},{26},{27},{28},{29},{30},{31},{32},{33},{34},{35},{36},{37},{38},{39},{40},{41},{42},{43},{44},{45},{46},{47},{48},{49},{50},{51},{52},{53},{54},{55},{56},{57},{58},{59},{60},{61},{62},{63},{64},{65},{66},{67},{68},{69},{70},{71}"
 Will use up to   72 processors via shared memory.
 %gpucpu=0,1,2,3=0,1,2,3
 Will use    4 GPUs:
 Thread  CPU   GPU
      0    0     0
      1    1     1
      2    2     2
      3    3     3
      4    4    -1
      5    5    -1
      6    6    -1
      7    7    -1
      8    8    -1
      9    9    -1
     10   10    -1
     11   11    -1
     12   12    -1
     13   13    -1
     14   14    -1
     15   15    -1
     16   16    -1
     17   17    -1
     18   18    -1
     19   19    -1
     20   20    -1
     21   21    -1
     22   22    -1
     23   23    -1
     24   24    -1
     25   25    -1
     26   26    -1
     27   27    -1
     28   28    -1
     29   29    -1
     30   30    -1
     31   31    -1
     32   32    -1
     33   33    -1
     34   34    -1
     35   35    -1
     36   36    -1
     37   37    -1
     38   38    -1
     39   39    -1
     40   40    -1
     41   41    -1
     42   42    -1
     43   43    -1
     44   44    -1
     45   45    -1
     46   46    -1
     47   47    -1
     48   48    -1
     49   49    -1
     50   50    -1
     51   51    -1
     52   52    -1
     53   53    -1
     54   54    -1
     55   55    -1
     56   56    -1
     57   57    -1
     58   58    -1
     59   59    -1
     60   60    -1
     61   61    -1
     62   62    -1
     63   63    -1
     64   64    -1
     65   65    -1
     66   66    -1
     67   67    -1
     68   68    -1
     69   69    -1
     70   70    -1
     71   71    -1
 SetGPE:  set environment variable "OMP_PROC_BIND" = "true"
 SetGPE:  set environment variable "OMP_PLACES" = "{0},{1},{2},{3},{4},{5},{6},{7},{8},{9},{10},{11},{12},{13},{14},{15},{16},{17},{18},{19},{20},{21},{22},{23},{24},{25},{26},{27},{28},{29},{30},{31},{32},{33},{34},{35},{36},{37},{38},{39},{40},{41},{42},{43},{44},{45},{46},{47},{48},{49},{50},{51},{52},{53},{54},{55},{56},{57},{58},{59},{60},{61},{62},{63},{64},{65},{66},{67},{68},{69},{70},{71}"
 %chk=1uvy_II_O.chk
 Properties for Device   0
 Minimum vector length:                              32
 Maximum vector length:                            1024
 Number of SMPs:                                    108
 Maximum number of threads per SMP:                2048
 Number of ASync Engines:                             5
 Memory:                                           9207742464
 Properties for Device   1
 Minimum vector length:                              32
 Maximum vector length:                            1024
 Number of SMPs:                                    108
 Maximum number of threads per SMP:                2048
 Number of ASync Engines:                             5
 Memory:                                           9207742464
 Properties for Device   2
 Minimum vector length:                              32
 Maximum vector length:                            1024
 Number of SMPs:                                    108
 Maximum number of threads per SMP:                2048
 Number of ASync Engines:                             5
 Memory:                                           9207742464
 Properties for Device   3
 Minimum vector length:                              32
 Maximum vector length:                            1024
 Number of SMPs:                                    108
 Maximum number of threads per SMP:                2048
 Number of ASync Engines:                             5
 Memory:                                           9207742464
   8286968217 words of memory will be used on each GPU.
 ------------------------------------------
 # polar def2tzvp apfd int=(grid=ultrafine)
 ------------------------------------------
 1/38=1,172=1/1;
 2/12=2,17=6,18=5,40=1/2;
 3/5=44,7=101,11=2,25=1,30=1,74=-44,75=-5/1,2,3;
 4//1;
 5/5=2,38=5,98=1/2;
 8/6=4,10=90,11=11/1;
 10/6=1,13=10/2;
 6/7=2,8=2,9=2,10=2,28=1/1;
 99/5=1,9=1/99;
 ---------
 1uvy_II_S
 ---------
 Symbolic Z-matrix:
 Charge =  0 Multiplicity = 1
 Fe                    54.76474   23.07516   26.47068 
 N                     55.06495   22.91755   24.50194 
 N                     55.43148   24.97136   26.41774 
 N                     54.33791   23.30415   28.42379 
 N                     54.09316   21.20239   26.54076 
 C                     54.79032   21.83604   23.72521 
 C                     55.0271   22.135    22.33065 
 C                     55.4604   23.42391   22.28403 
 C                     55.48288   23.89412   23.6513 
 C                     55.85433   25.65584   25.31951 
 C                     56.25267   26.9965   25.66718 
 C                     56.04407   27.12035   27.01446 
 C                     55.50888   25.84478   27.45353 
 C                     54.50135   24.42426   29.17909 
 C                     53.96676   24.23727   30.50274 
 C                     53.48557   22.95458   30.5446 
 C                     53.75351   22.38675   29.23731 
 C                     53.57353   20.55409   27.61556 
 C                     53.11589   19.23231   27.24604 
 C                     53.40209   19.08672   25.9249 
 C                     53.98756   20.33882   25.49606 
 C                     54.31282   20.62139   24.18297 
 H                     54.15313   19.84326   23.45219 
 C                     55.8577   25.17043   24.02223 
 H                     56.1746   25.84195   23.23886 
 C                     55.07806   25.60339   28.74182 
 H                     55.15274   26.41341   29.4511 
 C                     53.40549   21.09806   28.87462 
 H                     52.939    20.47593   29.62318 
 C                     55.84675   24.24937   21.10455 
 H                     55.72981   23.6853   20.18248 
 H                     56.88711   24.56635   21.18242 
 H                     55.22591   25.14341   21.04074 
 C                     54.81432   21.16938   21.2155 
 H                     53.77551   20.83948   21.18577 
 H                     55.44392   20.28915   21.34665 
 H                     55.05653   21.62378   20.25788 
 C                     56.84478   27.98637   24.72515 
 H                     56.06511   28.51466   24.17358 
 H                     57.49293   27.49228   24.00281 
 H                     57.43153   28.71944   25.27515 
 C                     56.3027   28.24679   27.88313 
 H                     56.59838   27.99595   28.89551 
 C                     56.20423   29.5277   27.54195 
 H                     55.86954   29.83784   26.56767 
 H                     56.43082   30.31556   28.24126 
 C                     54.01686   25.24178   31.60061 
 H                     53.19116   25.95033   31.51841 
 H                     54.94761   25.80546   31.56588 
 H                     53.94718   24.74397   32.56583 
 C                     52.86567   22.24523   31.64101 
 H                     53.06018   21.17934   31.67884 
 C                     52.0898   22.78702   32.57479 
 H                     51.82071   23.82854   32.56368 
 H                     51.67273   22.19538   33.37293 
 C                     52.48496   18.26582   28.18925 
 H                     51.56392   18.67937   28.60077 
 H                     53.15547   18.04372   29.02007 
 H                     52.24447   17.33339   27.68441 
 C                     53.15221   17.9229   25.02781 
 H                     52.42251   18.1791   24.25885 
 H                     52.77018   17.0751   25.59134 
 H                     54.07345   17.61869   24.53112 
 O                     52.694    23.796    25.863 
 H                     52.692    23.767    24.906 
 H                     52.007    24.013    26.384 
 C                     60.2739   22.22848   26.56778 
 H                     60.82437   22.59671   27.43344 
 H                     60.46273   22.89039   25.72854 
 H                     60.65043   21.2357   26.32162 
 N                     58.28424   21.42946   27.86074 
 H                     58.80453   20.84598   28.49513 
 C                     58.81659   22.18579   26.8495 
 C                     56.94465   21.61447   27.84937 
 H                     56.26678   21.14543   28.53245 
 N                     56.59731   22.44128   26.89319 
 C                     57.75052   22.80449   26.26191 
 H                     57.73498   23.48238   25.43398 
 
 Stoichiometry    C34H36FeN6O
 Framework group  C1[X(C34H36FeN6O)]
 Deg. of freedom   228
 Full point group                 C1      NOp   1
 Largest Abelian subgroup         C1      NOp   1
 Largest concise Abelian subgroup C1      NOp   1
                         Standard orientation:                         
 ---------------------------------------------------------------------
 Center     Atomic      Atomic             Coordinates (Angstroms)
 Number     Number       Type             X           Y           Z
 ---------------------------------------------------------------------
      1         26           0       -0.035616   -0.188122   -0.281146
      2          7           0        1.302531   -1.658894   -0.473718
      3          7           0        1.449552    1.166288   -0.333971
      4          7           0       -1.373066    1.314536   -0.231238
      5          7           0       -1.519794   -1.514166   -0.236114
      6          6           0        1.036331   -2.989336   -0.560087
      7          6           0        2.247257   -3.737433   -0.813589
      8          6           0        3.255409   -2.825490   -0.870283
      9          6           0        2.646041   -1.532772   -0.649849
     10          6           0        2.779797    0.911609   -0.471897
     11          6           0        3.543034    2.134054   -0.474116
     12          6           0        2.635794    3.151740   -0.350582
     13          6           0        1.331960    2.517469   -0.287382
     14          6           0       -1.115961    2.650448   -0.264032
     15          6           0       -2.336990    3.409849   -0.336148
     16          6           0       -3.358440    2.495993   -0.326085
     17          6           0       -2.726000    1.194070   -0.235295
     18          6           0       -2.853181   -1.256232   -0.204031
     19          6           0       -3.615406   -2.484266   -0.267536
     20          6           0       -2.706051   -3.494250   -0.306719
     21          6           0       -1.402160   -2.866351   -0.313856
     22          6           0       -0.217970   -3.563534   -0.460454
     23          1           0       -0.279215   -4.638685   -0.533518
     24          6           0        3.344246   -0.341325   -0.645440
     25          1           0        4.412435   -0.391590   -0.792011
     26          6           0        0.144887    3.219962   -0.256619
     27          1           0        0.204032    4.297398   -0.276812
     28          6           0       -3.425949    0.001256   -0.209144
     29          1           0       -4.503967    0.052902   -0.223601
     30          6           0        4.710972   -3.038984   -1.110229
     31          1           0        4.926737   -4.092949   -1.267310
     32          1           0        5.295135   -2.693385   -0.256884
     33          1           0        5.040844   -2.486490   -1.990432
     34          6           0        2.303450   -5.218291   -0.972177
     35          1           0        1.680004   -5.539309   -1.807099
     36          1           0        1.941055   -5.713281   -0.071036
     37          1           0        3.322085   -5.549698   -1.158572
     38          6           0        5.029235    2.216673   -0.521362
     39          1           0        5.390684    2.157582   -1.549492
     40          1           0        5.479504    1.400454    0.041721
     41          1           0        5.363754    3.160159   -0.094633
     42          6           0        2.861803    4.577478   -0.269724
     43          1           0        2.159996    5.125951    0.348266
     44          6           0        3.835461    5.244125   -0.881611
     45          1           0        4.531943    4.762051   -1.544896
     46          1           0        3.951936    6.308383   -0.759661
     47          6           0       -2.426681    4.896056   -0.342257
     48          1           0       -2.285587    5.290761   -1.349673
     49          1           0       -1.662240    5.331525    0.299008
     50          1           0       -3.404002    5.212751    0.016724
     51          6           0       -4.786261    2.719285   -0.358285
     52          1           0       -5.385288    1.999452    0.187974
     53          6           0       -5.401738    3.709341   -0.997367
     54          1           0       -4.867061    4.425816   -1.595752
     55          1           0       -6.472990    3.820471   -0.964450
     56          6           0       -5.104446   -2.551858   -0.262966
     57          1           0       -5.513403   -2.027642   -1.127045
     58          1           0       -5.509146   -2.086361    0.636314
     59          1           0       -5.445032   -3.583819   -0.297494
     60          6           0       -2.932484   -4.965919   -0.374501
     61          1           0       -2.572965   -5.367597   -1.322545
     62          1           0       -3.990736   -5.199031   -0.284897
     63          1           0       -2.399529   -5.471908    0.430406
     64          8           0       -0.065261   -0.230766   -2.555820
     65          1           0        0.551860   -0.921140   -2.799214
     66          1           0       -0.568830    0.244928   -3.113163
     67          6           0        1.712393   -0.375679    5.009077
     68          1           0        1.597178    0.526751    5.609351
     69          1           0        2.757525   -0.479948    4.735350
     70          1           0        1.424169   -1.230722    5.620483
     71          7           0       -0.481502   -0.164965    3.821064
     72          1           0       -1.041840   -0.103552    4.655247
     73          6           0        0.881572   -0.300748    3.780639
     74          6           0       -0.927516   -0.125649    2.544990
     75          1           0       -1.957314   -0.024193    2.270536
     76          7           0        0.069707   -0.228158    1.700258
     77          6           0        1.201294   -0.338731    2.453649
     78          1           0        2.162179   -0.436587    1.992809
 ---------------------------------------------------------------------
 Rotational constants (GHZ):           0.0925063           0.0908752           0.0593002
 Standard basis: def2TZVP (5D, 7F)
 There are  1744 symmetry adapted cartesian basis functions of A   symmetry.
 There are  1532 symmetry adapted basis functions of A   symmetry.
  1532 basis functions,  2481 primitive gaussians,  1744 cartesian basis functions
   158 alpha electrons      158 beta electrons
       nuclear repulsion energy      5962.2968464135 Hartrees.
 NAtoms=   78 NActive=   78 NUniq=   78 SFac= 1.00D+00 NAtFMM=   60 NAOKFM=T Big=T
 Integral buffers will be    131072 words long.
 Raffenetti 2 integral format.
 Two-electron integral symmetry is turned on.
 R6APFD:  NTU= -4 IXU= 1 FactS= 1.050
 Nuclear repulsion after empirical dispersion term =     5962.1444062141 Hartrees.
 One-electron integrals computed using PRISM.
   1 Symmetry operations used in ECPInt.
 ECPInt:  NShTT=  186355 NPrTT=  576197 LenC2=  147025 LenP2D=  300821.
 LDataN:  DoStor=T MaxTD1= 6 Len=  172
 Number of processors reduced to  23 by ecpmxn.
 NBasis=  1532 RedAO= T EigKep=  3.17D-06  NBF=  1532
 NBsUse=  1532 1.00D-06 EigRej= -1.00D+00 NBFU=  1532
 ExpMin= 4.20D-02 ExpMax= 3.01D+05 ExpMxC= 2.91D+03 IAcc=3 IRadAn=         5 AccDes= 0.00D+00
 Harris functional with IExCor= 3731 and IRadAn=       5 diagonalized for initial guess.
 HarFok:  IExCor= 3731 AccDes= 0.00D+00 IRadAn=         5 IDoV= 1 UseB2=F ITyADJ=14
 ICtDFT=  3500011 ScaDFX=  1.000000  1.000000  1.000000  1.000000
 FoFCou: FMM=F IPFlag=           0 FMFlag=      100000 FMFlg1=        2001
         NFxFlg=           0 DoJE=T BraDBF=F KetDBF=T FulRan=T
         wScrn=  0.000000 ICntrl=       500 IOpCl=  0 I1Cent=   200000004 NGrid=           0
         NMat0=    1 NMatS0=      1 NMatT0=    0 NMatD0=    1 NMtDS0=    0 NMtDT0=    0
 Petite list used in FoFCou.
 Requested convergence on RMS density matrix=1.00D-08 within 128 cycles.
 Requested convergence on MAX density matrix=1.00D-06.
 Requested convergence on             energy=1.00D-06.
 No special actions if energy rises.
 EnCoef did     4 forward-backward iterations
 EnCoef did   100 forward-backward iterations
 EnCoef did   100 forward-backward iterations
 EnCoef did   100 forward-backward iterations
 EnCoef did     2 forward-backward iterations
 EnCoef did     3 forward-backward iterations
 Restarting incremental Fock formation.
 SCF Done:  E(RAPFD) =  -2984.02627277     A.U. after   26 cycles
            NFock= 26  Conv=0.25D-08     -V/T= 2.0034
 DoSCS=F DFT=T ScalE2(SS,OS)=  1.000000  1.000000
 Range of M.O.s used for correlation:     1  1532
 NBasis=  1532 NAE=   158 NBE=   158 NFC=     0 NFV=     0
 NROrb=   1532 NOA=   158 NOB=   158 NVA=  1374 NVB=  1374

 **** Warning!!: The largest alpha MO coefficient is  0.51533588D+02

          Differentiating once with respect to electric field.
                with respect to dipole field.
          Electric field/nuclear overlap derivatives assumed to be zero.
          There are     3 degrees of freedom in the 1st order CPHF.  IDoFFX=0 NUNeed=     3.
      3 vectors produced by pass  0 Test12= 7.24D-12 3.33D-08 XBig12= 1.84D+03 2.42D+01.
 AX will form     3 AO Fock derivatives at one time.
      3 vectors produced by pass  1 Test12= 7.24D-12 3.33D-08 XBig12= 1.22D+03 9.17D+00.
      3 vectors produced by pass  2 Test12= 7.24D-12 3.33D-08 XBig12= 3.34D+02 4.64D+00.
      3 vectors produced by pass  3 Test12= 7.24D-12 3.33D-08 XBig12= 2.21D+02 3.50D+00.
      3 vectors produced by pass  4 Test12= 7.24D-12 3.33D-08 XBig12= 1.31D+02 2.16D+00.
      3 vectors produced by pass  5 Test12= 7.24D-12 3.33D-08 XBig12= 5.82D+01 1.71D+00.
      3 vectors produced by pass  6 Test12= 7.24D-12 3.33D-08 XBig12= 4.39D+01 1.70D+00.
      3 vectors produced by pass  7 Test12= 7.24D-12 3.33D-08 XBig12= 2.12D+01 1.26D+00.
      3 vectors produced by pass  8 Test12= 7.24D-12 3.33D-08 XBig12= 1.20D+01 8.07D-01.
      3 vectors produced by pass  9 Test12= 7.24D-12 3.33D-08 XBig12= 4.43D+00 5.16D-01.
      3 vectors produced by pass 10 Test12= 7.24D-12 3.33D-08 XBig12= 2.09D+00 2.53D-01.
      3 vectors produced by pass 11 Test12= 7.24D-12 3.33D-08 XBig12= 8.27D-01 1.98D-01.
      3 vectors produced by pass 12 Test12= 7.24D-12 3.33D-08 XBig12= 3.53D-01 7.53D-02.
      3 vectors produced by pass 13 Test12= 7.24D-12 3.33D-08 XBig12= 9.61D-02 5.38D-02.
      3 vectors produced by pass 14 Test12= 7.24D-12 3.33D-08 XBig12= 3.52D-02 3.00D-02.
      3 vectors produced by pass 15 Test12= 7.24D-12 3.33D-08 XBig12= 9.05D-03 1.72D-02.
      3 vectors produced by pass 16 Test12= 7.24D-12 3.33D-08 XBig12= 2.77D-03 1.07D-02.
      3 vectors produced by pass 17 Test12= 7.24D-12 3.33D-08 XBig12= 8.54D-04 6.98D-03.
      3 vectors produced by pass 18 Test12= 7.24D-12 3.33D-08 XBig12= 3.44D-04 4.82D-03.
      3 vectors produced by pass 19 Test12= 7.24D-12 3.33D-08 XBig12= 8.50D-05 2.16D-03.
      3 vectors produced by pass 20 Test12= 7.24D-12 3.33D-08 XBig12= 2.51D-05 7.51D-04.
      3 vectors produced by pass 21 Test12= 7.24D-12 3.33D-08 XBig12= 4.65D-06 6.65D-04.
      3 vectors produced by pass 22 Test12= 7.24D-12 3.33D-08 XBig12= 1.25D-06 3.38D-04.
      3 vectors produced by pass 23 Test12= 7.24D-12 3.33D-08 XBig12= 2.55D-07 1.57D-04.
      3 vectors produced by pass 24 Test12= 7.24D-12 3.33D-08 XBig12= 8.34D-08 6.79D-05.
      3 vectors produced by pass 25 Test12= 7.24D-12 3.33D-08 XBig12= 1.32D-08 1.87D-05.
      3 vectors produced by pass 26 Test12= 7.24D-12 3.33D-08 XBig12= 2.58D-09 7.14D-06.
      3 vectors produced by pass 27 Test12= 7.24D-12 3.33D-08 XBig12= 3.29D-10 2.22D-06.
      3 vectors produced by pass 28 Test12= 7.24D-12 3.33D-08 XBig12= 4.74D-11 8.39D-07.
      3 vectors produced by pass 29 Test12= 7.24D-12 3.33D-08 XBig12= 5.63D-12 2.71D-07.
      3 vectors produced by pass 30 Test12= 7.24D-12 3.33D-08 XBig12= 1.32D-12 9.37D-08.
      2 vectors produced by pass 31 Test12= 7.24D-12 3.33D-08 XBig12= 1.76D-13 4.22D-08.
 InvSVY:  IOpt=1 It=  1 EMax= 1.42D-14
 Solved reduced A of dimension    95 with     3 vectors.
 Isotropic polarizability for W=    0.000000      576.29 Bohr**3.
 End of Minotr F.D. properties file   721 does not exist.
 End of Minotr F.D. properties file   722 does not exist.
 End of Minotr F.D. properties file   788 does not exist.

 **********************************************************************

            Population analysis using the SCF Density.

 **********************************************************************

 Orbital symmetries:
       Occupied  (A) (A) (A) (A) (A) (A) (A) (A) (A) (A) (A) (A)
                 (A) (A) (A) (A) (A) (A) (A) (A) (A) (A) (A) (A)
                 (A) (A) (A) (A) (A) (A) (A) (A) (A) (A) (A) (A)
                 (A) (A) (A) (A) (A) (A) (A) (A) (A) (A) (A) (A)
                 (A) (A) (A) (A) (A) (A) (A) (A) (A) (A) (A) (A)
                 (A) (A) (A) (A) (A) (A) (A) (A) (A) (A) (A) (A)
                 (A) (A) (A) (A) (A) (A) (A) (A) (A) (A) (A) (A)
                 (A) (A) (A) (A) (A) (A) (A) (A) (A) (A) (A) (A)
                 (A) (A) (A) (A) (A) (A) (A) (A) (A) (A) (A) (A)
                 (A) (A) (A) (A) (A) (A) (A) (A) (A) (A) (A) (A)
                 (A) (A) (A) (A) (A) (A) (A) (A) (A) (A) (A) (A)
                 (A) (A) (A) (A) (A) (A) (A) (A) (A) (A) (A) (A)
                 (A) (A) (A) (A) (A) (A) (A) (A) (A) (A) (A) (A)
                 (A) (A)
       Virtual   (A) (A) (A) (A) (A) (A) (A) (A) (A) (A) (A) (A)
                 (A) (A) (A) (A) (A) (A) (A) (A) (A) (A) (A) (A)
                 (A) (A) (A) (A) (A) (A) (A) (A) (A) (A) (A) (A)
                 (A) (A) (A) (A) (A) (A) (A) (A) (A) (A) (A) (A)
                 (A) (A) (A) (A) (A) (A) (A) (A) (A) (A) (A) (A)
                 (A) (A) (A) (A) (A) (A) (A) (A) (A) (A) (A) (A)
                 (A) (A) (A) (A) (A) (A) (A) (A) (A) (A) (A) (A)
                 (A) (A) (A) (A) (A) (A) (A) (A) (A) (A) (A) (A)
                 (A) (A) (A) (A) (A) (A) (A) (A) (A) (A) (A) (A)
                 (A) (A) (A) (A) (A) (A) (A) (A) (A) (A) (A) (A)
                 (A) (A) (A) (A) (A) (A) (A) (A) (A) (A) (A) (A)
                 (A) (A) (A) (A) (A) (A) (A) (A) (A) (A) (A) (A)
                 (A) (A) (A) (A) (A) (A) (A) (A) (A) (A) (A) (A)
                 (A) (A) (A) (A) (A) (A) (A) (A) (A) (A) (A) (A)
                 (A) (A) (A) (A) (A) (A) (A) (A) (A) (A) (A) (A)
                 (A) (A) (A) (A) (A) (A) (A) (A) (A) (A) (A) (A)
                 (A) (A) (A) (A) (A) (A) (A) (A) (A) (A) (A) (A)
                 (A) (A) (A) (A) (A) (A) (A) (A) (A) (A) (A) (A)
                 (A) (A) (A) (A) (A) (A) (A) (A) (A) (A) (A) (A)
                 (A) (A) (A) (A) (A) (A) (A) (A) (A) (A) (A) (A)
                 (A) (A) (A) (A) (A) (A) (A) (A) (A) (A) (A) (A)
                 (A) (A) (A) (A) (A) (A) (A) (A) (A) (A) (A) (A)
                 (A) (A) (A) (A) (A) (A) (A) (A) (A) (A) (A) (A)
                 (A) (A) (A) (A) (A) (A) (A) (A) (A) (A) (A) (A)
                 (A) (A) (A) (A) (A) (A) (A) (A) (A) (A) (A) (A)
                 (A) (A) (A) (A) (A) (A) (A) (A) (A) (A) (A) (A)
                 (A) (A) (A) (A) (A) (A) (A) (A) (A) (A) (A) (A)
                 (A) (A) (A) (A) (A) (A) (A) (A) (A) (A) (A) (A)
                 (A) (A) (A) (A) (A) (A) (A) (A) (A) (A) (A) (A)
                 (A) (A) (A) (A) (A) (A) (A) (A) (A) (A) (A) (A)
                 (A) (A) (A) (A) (A) (A) (A) (A) (A) (A) (A) (A)
                 (A) (A) (A) (A) (A) (A) (A) (A) (A) (A) (A) (A)
                 (A) (A) (A) (A) (A) (A) (A) (A) (A) (A) (A) (A)
                 (A) (A) (A) (A) (A) (A) (A) (A) (A) (A) (A) (A)
                 (A) (A) (A) (A) (A) (A) (A) (A) (A) (A) (A) (A)
                 (A) (A) (A) (A) (A) (A) (A) (A) (A) (A) (A) (A)
                 (A) (A) (A) (A) (A) (A) (A) (A) (A) (A) (A) (A)
                 (A) (A) (A) (A) (A) (A) (A) (A) (A) (A) (A) (A)
                 (A) (A) (A) (A) (A) (A) (A) (A) (A) (A) (A) (A)
                 (A) (A) (A) (A) (A) (A) (A) (A) (A) (A) (A) (A)
                 (A) (A) (A) (A) (A) (A) (A) (A) (A) (A) (A) (A)
                 (A) (A) (A) (A) (A) (A) (A) (A) (A) (A) (A) (A)
                 (A) (A) (A) (A) (A) (A) (A) (A) (A) (A) (A) (A)
                 (A) (A) (A) (A) (A) (A) (A) (A) (A) (A) (A) (A)
                 (A) (A) (A) (A) (A) (A) (A) (A) (A) (A) (A) (A)
                 (A) (A) (A) (A) (A) (A) (A) (A) (A) (A) (A) (A)
                 (A) (A) (A) (A) (A) (A) (A) (A) (A) (A) (A) (A)
                 (A) (A) (A) (A) (A) (A) (A) (A) (A) (A) (A) (A)
                 (A) (A) (A) (A) (A) (A) (A) (A) (A) (A) (A) (A)
                 (A) (A) (A) (A) (A) (A) (A) (A) (A) (A) (A) (A)
                 (A) (A) (A) (A) (A) (A) (A) (A) (A) (A) (A) (A)
                 (A) (A) (A) (A) (A) (A) (A) (A) (A) (A) (A) (A)
                 (A) (A) (A) (A) (A) (A) (A) (A) (A) (A) (A) (A)
                 (A) (A) (A) (A) (A) (A) (A) (A) (A) (A) (A) (A)
                 (A) (A) (A) (A) (A) (A) (A) (A) (A) (A) (A) (A)
                 (A) (A) (A) (A) (A) (A) (A) (A) (A) (A) (A) (A)
                 (A) (A) (A) (A) (A) (A) (A) (A) (A) (A) (A) (A)
                 (A) (A) (A) (A) (A) (A) (A) (A) (A) (A) (A) (A)
                 (A) (A) (A) (A) (A) (A) (A) (A) (A) (A) (A) (A)
                 (A) (A) (A) (A) (A) (A) (A) (A) (A) (A) (A) (A)
                 (A) (A) (A) (A) (A) (A) (A) (A) (A) (A) (A) (A)
                 (A) (A) (A) (A) (A) (A) (A) (A) (A) (A) (A) (A)
                 (A) (A) (A) (A) (A) (A) (A) (A) (A) (A) (A) (A)
                 (A) (A) (A) (A) (A) (A) (A) (A) (A) (A) (A) (A)
                 (A) (A) (A) (A) (A) (A) (A) (A) (A) (A) (A) (A)
                 (A) (A) (A) (A) (A) (A) (A) (A) (A) (A) (A) (A)
                 (A) (A) (A) (A) (A) (A) (A) (A) (A) (A) (A) (A)
                 (A) (A) (A) (A) (A) (A) (A) (A) (A) (A) (A) (A)
                 (A) (A) (A) (A) (A) (A) (A) (A) (A) (A) (A) (A)
                 (A) (A) (A) (A) (A) (A) (A) (A) (A) (A) (A) (A)
                 (A) (A) (A) (A) (A) (A) (A) (A) (A) (A) (A) (A)
                 (A) (A) (A) (A) (A) (A) (A) (A) (A) (A) (A) (A)
                 (A) (A) (A) (A) (A) (A) (A) (A) (A) (A) (A) (A)
                 (A) (A) (A) (A) (A) (A) (A) (A) (A) (A) (A) (A)
                 (A) (A) (A) (A) (A) (A) (A) (A) (A) (A) (A) (A)
                 (A) (A) (A) (A) (A) (A) (A) (A) (A) (A) (A) (A)
                 (A) (A) (A) (A) (A) (A) (A) (A) (A) (A) (A) (A)
                 (A) (A) (A) (A) (A) (A) (A) (A) (A) (A) (A) (A)
                 (A) (A) (A) (A) (A) (A) (A) (A) (A) (A) (A) (A)
                 (A) (A) (A) (A) (A) (A) (A) (A) (A) (A) (A) (A)
                 (A) (A) (A) (A) (A) (A) (A) (A) (A) (A) (A) (A)
                 (A) (A) (A) (A) (A) (A) (A) (A) (A) (A) (A) (A)
                 (A) (A) (A) (A) (A) (A) (A) (A) (A) (A) (A) (A)
                 (A) (A) (A) (A) (A) (A) (A) (A) (A) (A) (A) (A)
                 (A) (A) (A) (A) (A) (A) (A) (A) (A) (A) (A) (A)
                 (A) (A) (A) (A) (A) (A) (A) (A) (A) (A) (A) (A)
                 (A) (A) (A) (A) (A) (A) (A) (A) (A) (A) (A) (A)
                 (A) (A) (A) (A) (A) (A) (A) (A) (A) (A) (A) (A)
                 (A) (A) (A) (A) (A) (A) (A) (A) (A) (A) (A) (A)
                 (A) (A) (A) (A) (A) (A) (A) (A) (A) (A) (A) (A)
                 (A) (A) (A) (A) (A) (A) (A) (A) (A) (A) (A) (A)
                 (A) (A) (A) (A) (A) (A) (A) (A) (A) (A) (A) (A)
                 (A) (A) (A) (A) (A) (A) (A) (A) (A) (A) (A) (A)
                 (A) (A) (A) (A) (A) (A) (A) (A) (A) (A) (A) (A)
                 (A) (A) (A) (A) (A) (A) (A) (A) (A) (A) (A) (A)
                 (A) (A) (A) (A) (A) (A) (A) (A) (A) (A) (A) (A)
                 (A) (A) (A) (A) (A) (A) (A) (A) (A) (A) (A) (A)
                 (A) (A) (A) (A) (A) (A) (A) (A) (A) (A) (A) (A)
                 (A) (A) (A) (A) (A) (A) (A) (A) (A) (A) (A) (A)
                 (A) (A) (A) (A) (A) (A) (A) (A) (A) (A) (A) (A)
                 (A) (A) (A) (A) (A) (A) (A) (A) (A) (A) (A) (A)
                 (A) (A) (A) (A) (A) (A) (A) (A) (A) (A) (A) (A)
                 (A) (A) (A) (A) (A) (A) (A) (A) (A) (A) (A) (A)
                 (A) (A) (A) (A) (A) (A) (A) (A) (A) (A) (A) (A)
                 (A) (A) (A) (A) (A) (A) (A) (A) (A) (A) (A) (A)
                 (A) (A) (A) (A) (A) (A) (A) (A) (A) (A) (A) (A)
                 (A) (A) (A) (A) (A) (A) (A) (A) (A) (A) (A) (A)
                 (A) (A) (A) (A) (A) (A) (A) (A) (A) (A) (A) (A)
                 (A) (A) (A) (A) (A) (A) (A) (A) (A) (A) (A) (A)
                 (A) (A) (A) (A) (A) (A) (A) (A) (A) (A) (A) (A)
                 (A) (A) (A) (A) (A) (A) (A) (A) (A) (A) (A) (A)
                 (A) (A) (A) (A) (A) (A) (A) (A) (A) (A) (A) (A)
                 (A) (A) (A) (A) (A) (A) (A) (A) (A) (A) (A) (A)
                 (A) (A) (A) (A) (A) (A) (A) (A) (A) (A) (A) (A)
                 (A) (A) (A) (A) (A) (A)
 The electronic state is 1-A.
 Alpha  occ. eigenvalues -- -256.17519 -30.02486 -25.86658 -25.86255 -25.86224
 Alpha  occ. eigenvalues --  -19.17130 -14.41590 -14.36269 -14.33151 -14.33110
 Alpha  occ. eigenvalues --  -14.32959 -14.32842 -10.25291 -10.23582 -10.21017
 Alpha  occ. eigenvalues --  -10.20822 -10.20685 -10.20681 -10.20628 -10.20606
 Alpha  occ. eigenvalues --  -10.20598 -10.20540 -10.20510 -10.20482 -10.19482
 Alpha  occ. eigenvalues --  -10.19344 -10.18804 -10.18705 -10.18657 -10.18616
 Alpha  occ. eigenvalues --  -10.18583 -10.18522 -10.18509 -10.18489 -10.18389
 Alpha  occ. eigenvalues --  -10.18326 -10.18312 -10.18257 -10.18227 -10.18207
 Alpha  occ. eigenvalues --  -10.18194 -10.18182 -10.18093 -10.18086 -10.18006
 Alpha  occ. eigenvalues --  -10.17943  -3.40069  -2.16715  -2.15928  -2.15858
 Alpha  occ. eigenvalues --   -1.05188  -1.04917  -0.96690  -0.95842  -0.95630
 Alpha  occ. eigenvalues --   -0.94771  -0.90780  -0.82033  -0.81641  -0.81338
 Alpha  occ. eigenvalues --   -0.80564  -0.80273  -0.80111  -0.79401  -0.79307
 Alpha  occ. eigenvalues --   -0.76556  -0.75480  -0.74142  -0.73741  -0.73017
 Alpha  occ. eigenvalues --   -0.71725  -0.70780  -0.69905  -0.68128  -0.67763
 Alpha  occ. eigenvalues --   -0.67637  -0.64428  -0.63963  -0.63869  -0.61178
 Alpha  occ. eigenvalues --   -0.60529  -0.60355  -0.59804  -0.57637  -0.56420
 Alpha  occ. eigenvalues --   -0.55809  -0.54296  -0.53458  -0.53106  -0.52399
 Alpha  occ. eigenvalues --   -0.50899  -0.50826  -0.50341  -0.48553  -0.47827
 Alpha  occ. eigenvalues --   -0.47520  -0.47403  -0.47125  -0.44768  -0.44618
 Alpha  occ. eigenvalues --   -0.44433  -0.44309  -0.43922  -0.43503  -0.43326
 Alpha  occ. eigenvalues --   -0.43178  -0.43032  -0.42854  -0.42786  -0.42407
 Alpha  occ. eigenvalues --   -0.42387  -0.42179  -0.41621  -0.41567  -0.41389
 Alpha  occ. eigenvalues --   -0.41229  -0.41117  -0.40032  -0.39976  -0.39786
 Alpha  occ. eigenvalues --   -0.39384  -0.39323  -0.39009  -0.38921  -0.38409
 Alpha  occ. eigenvalues --   -0.38190  -0.37634  -0.37348  -0.37038  -0.36797
 Alpha  occ. eigenvalues --   -0.36067  -0.35809  -0.35578  -0.35154  -0.34263
 Alpha  occ. eigenvalues --   -0.34045  -0.33726  -0.33531  -0.33207  -0.31969
 Alpha  occ. eigenvalues --   -0.31682  -0.30640  -0.29906  -0.29617  -0.28859
 Alpha  occ. eigenvalues --   -0.28497  -0.26559  -0.26471  -0.24203  -0.23865
 Alpha  occ. eigenvalues --   -0.23204  -0.22365  -0.21800  -0.19072  -0.18265
 Alpha  occ. eigenvalues --   -0.17837  -0.17681  -0.17560
 Alpha virt. eigenvalues --   -0.06327  -0.06255  -0.01799   0.00664   0.01214
 Alpha virt. eigenvalues --    0.01665   0.02439   0.03117   0.03629   0.04814
 Alpha virt. eigenvalues --    0.04969   0.05219   0.05562   0.05805   0.06081
 Alpha virt. eigenvalues --    0.06158   0.06585   0.07204   0.08100   0.08214
 Alpha virt. eigenvalues --    0.08413   0.09069   0.09300   0.09503   0.09832
 Alpha virt. eigenvalues --    0.09990   0.10128   0.10907   0.11337   0.11416
 Alpha virt. eigenvalues --    0.11457   0.11812   0.11994   0.12164   0.12459
 Alpha virt. eigenvalues --    0.12757   0.12851   0.13040   0.13280   0.13544
 Alpha virt. eigenvalues --    0.14194   0.14315   0.14460   0.14546   0.14787
 Alpha virt. eigenvalues --    0.14924   0.15174   0.15554   0.15690   0.15830
 Alpha virt. eigenvalues --    0.16021   0.16053   0.16244   0.16342   0.16803
 Alpha virt. eigenvalues --    0.17057   0.17328   0.17486   0.17853   0.18117
 Alpha virt. eigenvalues --    0.18247   0.18845   0.19347   0.19657   0.19888
 Alpha virt. eigenvalues --    0.20120   0.20244   0.20335   0.20766   0.21073
 Alpha virt. eigenvalues --    0.21152   0.21334   0.21851   0.22023   0.22498
 Alpha virt. eigenvalues --    0.22663   0.22905   0.23241   0.23548   0.23775
 Alpha virt. eigenvalues --    0.23929   0.24695   0.24949   0.25262   0.25486
 Alpha virt. eigenvalues --    0.25864   0.25940   0.26479   0.26629   0.26888
 Alpha virt. eigenvalues --    0.27207   0.27446   0.27774   0.27908   0.27933
 Alpha virt. eigenvalues --    0.28283   0.28598   0.29009   0.29459   0.29722
 Alpha virt. eigenvalues --    0.29846   0.30049   0.30161   0.30655   0.30743
 Alpha virt. eigenvalues --    0.31090   0.31336   0.31683   0.31959   0.32139
 Alpha virt. eigenvalues --    0.32526   0.32622   0.32916   0.33230   0.33578
 Alpha virt. eigenvalues --    0.33992   0.34186   0.34413   0.34717   0.34826
 Alpha virt. eigenvalues --    0.35357   0.35486   0.35644   0.36000   0.36494
 Alpha virt. eigenvalues --    0.36598   0.36975   0.37158   0.37605   0.37917
 Alpha virt. eigenvalues --    0.38108   0.38204   0.38441   0.38551   0.38932
 Alpha virt. eigenvalues --    0.39238   0.39279   0.39590   0.40009   0.40171
 Alpha virt. eigenvalues --    0.40290   0.40564   0.40734   0.40809   0.41322
 Alpha virt. eigenvalues --    0.41630   0.41701   0.41808   0.42106   0.42222
 Alpha virt. eigenvalues --    0.42630   0.42685   0.43031   0.43184   0.43377
 Alpha virt. eigenvalues --    0.43458   0.43801   0.44240   0.44418   0.44518
 Alpha virt. eigenvalues --    0.44622   0.44787   0.45243   0.45416   0.45616
 Alpha virt. eigenvalues --    0.46089   0.46168   0.46365   0.46629   0.46844
 Alpha virt. eigenvalues --    0.47003   0.47289   0.47511   0.47618   0.47771
 Alpha virt. eigenvalues --    0.48084   0.48130   0.48470   0.48664   0.49129
 Alpha virt. eigenvalues --    0.49207   0.49380   0.49488   0.49711   0.50144
 Alpha virt. eigenvalues --    0.50272   0.50506   0.50570   0.51000   0.51186
 Alpha virt. eigenvalues --    0.51379   0.51536   0.51764   0.52034   0.52142
 Alpha virt. eigenvalues --    0.52557   0.52687   0.52909   0.53247   0.53293
 Alpha virt. eigenvalues --    0.53535   0.53741   0.54073   0.54213   0.54595
 Alpha virt. eigenvalues --    0.54791   0.55116   0.55289   0.55627   0.55987
 Alpha virt. eigenvalues --    0.56101   0.56576   0.56697   0.56847   0.57161
 Alpha virt. eigenvalues --    0.57449   0.57874   0.57972   0.58388   0.58642
 Alpha virt. eigenvalues --    0.59286   0.59327   0.59834   0.60069   0.60415
 Alpha virt. eigenvalues --    0.60674   0.60743   0.61209   0.61484   0.61682
 Alpha virt. eigenvalues --    0.61878   0.62393   0.62532   0.62763   0.63428
 Alpha virt. eigenvalues --    0.63673   0.64048   0.64672   0.64774   0.65187
 Alpha virt. eigenvalues --    0.65433   0.65617   0.65788   0.66066   0.66353
 Alpha virt. eigenvalues --    0.66538   0.66916   0.67012   0.67318   0.67580
 Alpha virt. eigenvalues --    0.67959   0.68259   0.68565   0.68814   0.69205
 Alpha virt. eigenvalues --    0.69649   0.70243   0.70505   0.70673   0.71235
 Alpha virt. eigenvalues --    0.71674   0.72024   0.72259   0.72604   0.72778
 Alpha virt. eigenvalues --    0.73416   0.73595   0.73833   0.74151   0.74339
 Alpha virt. eigenvalues --    0.74678   0.75118   0.75466   0.75587   0.75901
 Alpha virt. eigenvalues --    0.76637   0.77058   0.77268   0.77586   0.77849
 Alpha virt. eigenvalues --    0.78067   0.78394   0.78559   0.79070   0.79357
 Alpha virt. eigenvalues --    0.79591   0.79657   0.80157   0.80382   0.80804
 Alpha virt. eigenvalues --    0.81266   0.81496   0.81997   0.82259   0.82438
 Alpha virt. eigenvalues --    0.83030   0.83315   0.84206   0.84349   0.84653
 Alpha virt. eigenvalues --    0.85288   0.85660   0.85964   0.86127   0.86887
 Alpha virt. eigenvalues --    0.87011   0.87207   0.88049   0.88439   0.88857
 Alpha virt. eigenvalues --    0.89237   0.89861   0.90193   0.90474   0.90709
 Alpha virt. eigenvalues --    0.90935   0.91168   0.91701   0.92115   0.92160
 Alpha virt. eigenvalues --    0.92236   0.93309   0.93621   0.93788   0.94054
 Alpha virt. eigenvalues --    0.94818   0.95213   0.95227   0.95407   0.96303
 Alpha virt. eigenvalues --    0.96752   0.96989   0.97186   0.97806   0.98351
 Alpha virt. eigenvalues --    0.98767   0.98891   0.99180   0.99641   0.99716
 Alpha virt. eigenvalues --    0.99958   1.00659   1.00819   1.01229   1.01502
 Alpha virt. eigenvalues --    1.01735   1.02327   1.02528   1.02885   1.03001
 Alpha virt. eigenvalues --    1.03378   1.03678   1.03760   1.04059   1.04405
 Alpha virt. eigenvalues --    1.04614   1.04774   1.04974   1.05438   1.05973
 Alpha virt. eigenvalues --    1.06099   1.06430   1.06717   1.07832   1.08093
 Alpha virt. eigenvalues --    1.08489   1.08996   1.09341   1.09555   1.10065
 Alpha virt. eigenvalues --    1.10433   1.10630   1.11917   1.12011   1.12090
 Alpha virt. eigenvalues --    1.12398   1.12825   1.13440   1.13952   1.14349
 Alpha virt. eigenvalues --    1.14944   1.15471   1.15923   1.16483   1.16806
 Alpha virt. eigenvalues --    1.17020   1.17683   1.18057   1.18582   1.18593
 Alpha virt. eigenvalues --    1.18986   1.19210   1.19638   1.19862   1.20480
 Alpha virt. eigenvalues --    1.20832   1.21044   1.21558   1.21840   1.22347
 Alpha virt. eigenvalues --    1.23125   1.23451   1.23942   1.24136   1.24598
 Alpha virt. eigenvalues --    1.25489   1.25771   1.26102   1.27062   1.27227
 Alpha virt. eigenvalues --    1.27486   1.27685   1.27892   1.28160   1.28664
 Alpha virt. eigenvalues --    1.28867   1.29568   1.29614   1.29812   1.30428
 Alpha virt. eigenvalues --    1.31033   1.31925   1.32039   1.32368   1.32796
 Alpha virt. eigenvalues --    1.32894   1.33057   1.33330   1.34233   1.34666
 Alpha virt. eigenvalues --    1.35754   1.36264   1.36557   1.37277   1.37883
 Alpha virt. eigenvalues --    1.38269   1.38963   1.39282   1.40200   1.40498
 Alpha virt. eigenvalues --    1.40969   1.41296   1.42195   1.42404   1.43464
 Alpha virt. eigenvalues --    1.43543   1.44438   1.45017   1.45158   1.45771
 Alpha virt. eigenvalues --    1.46475   1.46901   1.47373   1.47435   1.48025
 Alpha virt. eigenvalues --    1.48425   1.48624   1.48674   1.49042   1.49563
 Alpha virt. eigenvalues --    1.50219   1.50357   1.50410   1.50644   1.51131
 Alpha virt. eigenvalues --    1.51273   1.51522   1.51906   1.52032   1.52305
 Alpha virt. eigenvalues --    1.52389   1.52556   1.53094   1.53433   1.53513
 Alpha virt. eigenvalues --    1.54037   1.54182   1.54544   1.54637   1.54926
 Alpha virt. eigenvalues --    1.55179   1.55473   1.55687   1.55884   1.56164
 Alpha virt. eigenvalues --    1.56467   1.56594   1.56906   1.57183   1.57570
 Alpha virt. eigenvalues --    1.57802   1.57954   1.58333   1.58662   1.58958
 Alpha virt. eigenvalues --    1.59041   1.59277   1.59904   1.60013   1.60587
 Alpha virt. eigenvalues --    1.60907   1.61053   1.61227   1.61519   1.62061
 Alpha virt. eigenvalues --    1.62591   1.62805   1.63011   1.63056   1.63744
 Alpha virt. eigenvalues --    1.63866   1.64001   1.64393   1.64664   1.65401
 Alpha virt. eigenvalues --    1.65538   1.65822   1.65940   1.66205   1.66521
 Alpha virt. eigenvalues --    1.67200   1.67515   1.67562   1.68032   1.68583
 Alpha virt. eigenvalues --    1.68969   1.69228   1.69667   1.69959   1.70123
 Alpha virt. eigenvalues --    1.70405   1.70879   1.71090   1.71183   1.71354
 Alpha virt. eigenvalues --    1.71880   1.72862   1.73604   1.73802   1.73945
 Alpha virt. eigenvalues --    1.74443   1.74737   1.75501   1.75743   1.76494
 Alpha virt. eigenvalues --    1.76843   1.77718   1.77873   1.78633   1.79330
 Alpha virt. eigenvalues --    1.80025   1.80508   1.81244   1.81624   1.82289
 Alpha virt. eigenvalues --    1.83141   1.83519   1.84153   1.84481   1.84698
 Alpha virt. eigenvalues --    1.85220   1.85345   1.85821   1.85945   1.86496
 Alpha virt. eigenvalues --    1.87042   1.87179   1.87572   1.87867   1.88031
 Alpha virt. eigenvalues --    1.88752   1.88901   1.89328   1.89834   1.90104
 Alpha virt. eigenvalues --    1.90749   1.91480   1.91794   1.92509   1.93248
 Alpha virt. eigenvalues --    1.93901   1.94044   1.94957   1.95339   1.95614
 Alpha virt. eigenvalues --    1.96537   1.96783   1.97000   1.97205   1.98437
 Alpha virt. eigenvalues --    1.98671   1.99284   1.99387   1.99592   2.00082
 Alpha virt. eigenvalues --    2.00222   2.00728   2.01367   2.01462   2.02132
 Alpha virt. eigenvalues --    2.02267   2.03230   2.03508   2.04156   2.04953
 Alpha virt. eigenvalues --    2.05370   2.05630   2.06456   2.06473   2.07066
 Alpha virt. eigenvalues --    2.07491   2.08605   2.08868   2.09374   2.09566
 Alpha virt. eigenvalues --    2.09901   2.10446   2.10606   2.11257   2.11545
 Alpha virt. eigenvalues --    2.11762   2.12146   2.12862   2.13880   2.14304
 Alpha virt. eigenvalues --    2.14409   2.14835   2.14985   2.15377   2.16105
 Alpha virt. eigenvalues --    2.16160   2.17194   2.17379   2.18287   2.18730
 Alpha virt. eigenvalues --    2.19050   2.19555   2.19739   2.20114   2.20281
 Alpha virt. eigenvalues --    2.20988   2.21331   2.21836   2.22408   2.22628
 Alpha virt. eigenvalues --    2.22879   2.23058   2.24215   2.25331   2.25553
 Alpha virt. eigenvalues --    2.26277   2.26608   2.26933   2.27000   2.27540
 Alpha virt. eigenvalues --    2.28369   2.28683   2.28856   2.29587   2.29620
 Alpha virt. eigenvalues --    2.30591   2.30722   2.31189   2.31880   2.31961
 Alpha virt. eigenvalues --    2.32458   2.32785   2.33433   2.33636   2.34430
 Alpha virt. eigenvalues --    2.35152   2.35333   2.35534   2.36103   2.36480
 Alpha virt. eigenvalues --    2.36898   2.37151   2.37372   2.37744   2.38022
 Alpha virt. eigenvalues --    2.38325   2.39187   2.39379   2.39856   2.40439
 Alpha virt. eigenvalues --    2.40784   2.40946   2.41683   2.42317   2.42635
 Alpha virt. eigenvalues --    2.43292   2.43498   2.44366   2.44745   2.45423
 Alpha virt. eigenvalues --    2.45755   2.46152   2.46471   2.46661   2.46951
 Alpha virt. eigenvalues --    2.47384   2.47588   2.47995   2.48262   2.48795
 Alpha virt. eigenvalues --    2.49573   2.50454   2.50666   2.51110   2.51620
 Alpha virt. eigenvalues --    2.51923   2.52407   2.52984   2.53218   2.53446
 Alpha virt. eigenvalues --    2.53502   2.54172   2.54471   2.55312   2.55823
 Alpha virt. eigenvalues --    2.56151   2.56478   2.57092   2.57330   2.57371
 Alpha virt. eigenvalues --    2.57408   2.57762   2.58049   2.58492   2.59437
 Alpha virt. eigenvalues --    2.60142   2.60166   2.60400   2.61018   2.61145
 Alpha virt. eigenvalues --    2.61546   2.62031   2.62264   2.62754   2.63297
 Alpha virt. eigenvalues --    2.63460   2.63780   2.64645   2.65082   2.65338
 Alpha virt. eigenvalues --    2.65767   2.65896   2.66282   2.67102   2.67359
 Alpha virt. eigenvalues --    2.67474   2.68225   2.68354   2.68543   2.69292
 Alpha virt. eigenvalues --    2.69420   2.70225   2.70386   2.70515   2.70765
 Alpha virt. eigenvalues --    2.71602   2.72048   2.72269   2.72872   2.73302
 Alpha virt. eigenvalues --    2.73819   2.74006   2.74316   2.74563   2.75106
 Alpha virt. eigenvalues --    2.75680   2.76095   2.77142   2.77348   2.77425
 Alpha virt. eigenvalues --    2.77841   2.78367   2.78745   2.79235   2.79982
 Alpha virt. eigenvalues --    2.80118   2.80611   2.81252   2.81910   2.82149
 Alpha virt. eigenvalues --    2.82394   2.82954   2.83474   2.84236   2.84355
 Alpha virt. eigenvalues --    2.84636   2.85048   2.85198   2.85452   2.86072
 Alpha virt. eigenvalues --    2.86514   2.86825   2.86938   2.87640   2.88251
 Alpha virt. eigenvalues --    2.88516   2.88770   2.89188   2.89514   2.89984
 Alpha virt. eigenvalues --    2.90223   2.90603   2.91361   2.91496   2.91804
 Alpha virt. eigenvalues --    2.92368   2.92757   2.93138   2.93823   2.94192
 Alpha virt. eigenvalues --    2.94388   2.94651   2.94756   2.95172   2.95514
 Alpha virt. eigenvalues --    2.95855   2.96309   2.96653   2.96942   2.97228
 Alpha virt. eigenvalues --    2.98004   2.98121   2.98447   2.98758   2.99155
 Alpha virt. eigenvalues --    2.99328   2.99581   3.00117   3.00410   3.00957
 Alpha virt. eigenvalues --    3.01227   3.01627   3.02468   3.02751   3.03096
 Alpha virt. eigenvalues --    3.03495   3.03570   3.04018   3.04831   3.05108
 Alpha virt. eigenvalues --    3.05187   3.05504   3.06314   3.06499   3.06835
 Alpha virt. eigenvalues --    3.07240   3.07642   3.08080   3.08385   3.08428
 Alpha virt. eigenvalues --    3.09067   3.09201   3.09453   3.09955   3.10355
 Alpha virt. eigenvalues --    3.10425   3.10745   3.11278   3.11542   3.11951
 Alpha virt. eigenvalues --    3.12567   3.12675   3.12984   3.13008   3.13397
 Alpha virt. eigenvalues --    3.13770   3.14210   3.14488   3.14865   3.15184
 Alpha virt. eigenvalues --    3.15612   3.15740   3.16597   3.16908   3.17138
 Alpha virt. eigenvalues --    3.17395   3.17880   3.18258   3.18544   3.18722
 Alpha virt. eigenvalues --    3.19263   3.19595   3.19879   3.20447   3.20836
 Alpha virt. eigenvalues --    3.21104   3.21274   3.21686   3.21887   3.22116
 Alpha virt. eigenvalues --    3.22419   3.23120   3.23338   3.23631   3.23953
 Alpha virt. eigenvalues --    3.24359   3.24679   3.24958   3.24985   3.25261
 Alpha virt. eigenvalues --    3.25621   3.25920   3.26454   3.26515   3.26688
 Alpha virt. eigenvalues --    3.27069   3.27324   3.27462   3.27595   3.27835
 Alpha virt. eigenvalues --    3.28148   3.28901   3.29197   3.29558   3.29900
 Alpha virt. eigenvalues --    3.29932   3.30113   3.30372   3.30542   3.30608
 Alpha virt. eigenvalues --    3.31010   3.31158   3.31606   3.31719   3.32173
 Alpha virt. eigenvalues --    3.32373   3.32833   3.33119   3.33376   3.33991
 Alpha virt. eigenvalues --    3.34185   3.34459   3.34890   3.35152   3.35335
 Alpha virt. eigenvalues --    3.35454   3.35801   3.36265   3.36511   3.36678
 Alpha virt. eigenvalues --    3.37139   3.37336   3.37521   3.37997   3.38297
 Alpha virt. eigenvalues --    3.38573   3.38727   3.38897   3.39409   3.39610
 Alpha virt. eigenvalues --    3.39791   3.39890   3.40213   3.40607   3.41034
 Alpha virt. eigenvalues --    3.41529   3.41872   3.42086   3.42699   3.43109
 Alpha virt. eigenvalues --    3.43425   3.43817   3.44198   3.44357   3.45445
 Alpha virt. eigenvalues --    3.45666   3.45938   3.46066   3.46672   3.46915
 Alpha virt. eigenvalues --    3.47469   3.48235   3.48560   3.48862   3.49346
 Alpha virt. eigenvalues --    3.49806   3.50074   3.50787   3.50856   3.52203
 Alpha virt. eigenvalues --    3.52506   3.52741   3.53554   3.54133   3.54319
 Alpha virt. eigenvalues --    3.54823   3.55284   3.55315   3.55655   3.55933
 Alpha virt. eigenvalues --    3.56335   3.57018   3.57318   3.58412   3.58722
 Alpha virt. eigenvalues --    3.59084   3.59544   3.59894   3.60070   3.60181
 Alpha virt. eigenvalues --    3.60600   3.61470   3.61678   3.62626   3.63318
 Alpha virt. eigenvalues --    3.63426   3.63643   3.64837   3.65619   3.65799
 Alpha virt. eigenvalues --    3.66434   3.66682   3.67014   3.67859   3.68094
 Alpha virt. eigenvalues --    3.68626   3.69151   3.69544   3.69670   3.70202
 Alpha virt. eigenvalues --    3.70891   3.70970   3.71453   3.71733   3.71962
 Alpha virt. eigenvalues --    3.72473   3.72685   3.73444   3.73775   3.74524
 Alpha virt. eigenvalues --    3.75067   3.75107   3.75242   3.75670   3.76131
 Alpha virt. eigenvalues --    3.76442   3.77049   3.77699   3.78115   3.78429
 Alpha virt. eigenvalues --    3.79443   3.79638   3.80348   3.81278   3.81682
 Alpha virt. eigenvalues --    3.82142   3.82722   3.83301   3.83756   3.84349
 Alpha virt. eigenvalues --    3.84535   3.85503   3.85668   3.86657   3.87220
 Alpha virt. eigenvalues --    3.87828   3.88228   3.89387   3.90121   3.90283
 Alpha virt. eigenvalues --    3.90765   3.91007   3.91291   3.91917   3.92229
 Alpha virt. eigenvalues --    3.92342   3.93851   3.94163   3.95047   3.95337
 Alpha virt. eigenvalues --    3.96633   3.97437   3.97989   3.99062   3.99440
 Alpha virt. eigenvalues --    3.99959   4.00187   4.00734   4.01470   4.01895
 Alpha virt. eigenvalues --    4.02192   4.02490   4.03331   4.04224   4.04658
 Alpha virt. eigenvalues --    4.05290   4.05640   4.05694   4.06616   4.06851
 Alpha virt. eigenvalues --    4.07679   4.08953   4.09345   4.10185   4.10594
 Alpha virt. eigenvalues --    4.11534   4.12739   4.13189   4.13950   4.14720
 Alpha virt. eigenvalues --    4.15265   4.15547   4.16594   4.16915   4.17502
 Alpha virt. eigenvalues --    4.18018   4.18483   4.18901   4.19485   4.19656
 Alpha virt. eigenvalues --    4.19864   4.20217   4.20402   4.21457   4.22373
 Alpha virt. eigenvalues --    4.22936   4.23408   4.23607   4.23910   4.25074
 Alpha virt. eigenvalues --    4.25752   4.26739   4.27064   4.27332   4.27983
 Alpha virt. eigenvalues --    4.28962   4.29530   4.29736   4.30184   4.31092
 Alpha virt. eigenvalues --    4.31610   4.32879   4.33340   4.33822   4.34124
 Alpha virt. eigenvalues --    4.34665   4.34700   4.35147   4.35402   4.36444
 Alpha virt. eigenvalues --    4.37095   4.38871   4.39157   4.39390   4.40586
 Alpha virt. eigenvalues --    4.40786   4.41083   4.41923   4.42108   4.42404
 Alpha virt. eigenvalues --    4.42925   4.43454   4.44787   4.44982   4.45232
 Alpha virt. eigenvalues --    4.45496   4.45793   4.46004   4.47111   4.47352
 Alpha virt. eigenvalues --    4.48442   4.48821   4.49473   4.49894   4.50218
 Alpha virt. eigenvalues --    4.51048   4.51646   4.52629   4.53389   4.54213
 Alpha virt. eigenvalues --    4.55164   4.55779   4.56684   4.57418   4.57776
 Alpha virt. eigenvalues --    4.59228   4.59546   4.60161   4.62221   4.63914
 Alpha virt. eigenvalues --    4.64526   4.65779   4.66519   4.67419   4.68996
 Alpha virt. eigenvalues --    4.69583   4.69904   4.70132   4.70890   4.71946
 Alpha virt. eigenvalues --    4.72366   4.72919   4.73926   4.74255   4.74582
 Alpha virt. eigenvalues --    4.75397   4.76063   4.76361   4.78170   4.80451
 Alpha virt. eigenvalues --    4.81079   4.82142   4.83076   4.83498   4.83700
 Alpha virt. eigenvalues --    4.84724   4.85175   4.85518   4.86031   4.86635
 Alpha virt. eigenvalues --    4.86951   4.87184   4.87952   4.88913   4.89797
 Alpha virt. eigenvalues --    4.91317   4.92143   4.92324   4.94357   4.94829
 Alpha virt. eigenvalues --    4.95791   4.95870   4.96501   4.97486   4.98487
 Alpha virt. eigenvalues --    4.98810   5.00280   5.01399   5.02404   5.02761
 Alpha virt. eigenvalues --    5.03325   5.03593   5.04780   5.05706   5.07447
 Alpha virt. eigenvalues --    5.07530   5.08338   5.08749   5.10138   5.10835
 Alpha virt. eigenvalues --    5.11137   5.11825   5.14375   5.15258   5.16792
 Alpha virt. eigenvalues --    5.18520   5.19900   5.20325   5.21197   5.21419
 Alpha virt. eigenvalues --    5.22397   5.23021   5.23288   5.24898   5.26481
 Alpha virt. eigenvalues --    5.27298   5.28387   5.30023   5.30653   5.31223
 Alpha virt. eigenvalues --    5.33664   5.36452   5.37000   5.38172   5.39069
 Alpha virt. eigenvalues --    5.39305   5.39810   5.40456   5.40850   5.41740
 Alpha virt. eigenvalues --    5.42114   5.42792   5.43815   5.45444   5.47654
 Alpha virt. eigenvalues --    5.49607   5.50443   5.50996   5.52016   5.52378
 Alpha virt. eigenvalues --    5.53185   5.53520   5.57289   5.57531   5.60565
 Alpha virt. eigenvalues --    5.61964   5.63102   5.63883   5.64451   5.64932
 Alpha virt. eigenvalues --    5.66110   5.67221   5.68395   5.68924   5.69578
 Alpha virt. eigenvalues --    5.71447   5.75194   5.77883   5.78440   5.79200
 Alpha virt. eigenvalues --    5.82829   5.83464   5.91065   5.93249   5.93908
 Alpha virt. eigenvalues --    5.96086   5.97920   6.02590   6.03514   6.04180
 Alpha virt. eigenvalues --    6.09319   6.13200   6.13758   6.15082   6.15419
 Alpha virt. eigenvalues --    6.18538   6.19728   6.24400   6.28691   6.35419
 Alpha virt. eigenvalues --    6.36253   6.42458   6.47693   6.52068   6.54701
 Alpha virt. eigenvalues --    6.67540   6.97283   7.28422  22.36763  22.37109
 Alpha virt. eigenvalues --   22.44156  22.46276  22.47029  22.52975  22.53857
 Alpha virt. eigenvalues --   22.62811  22.63217  22.78661  22.85858  22.87866
 Alpha virt. eigenvalues --   22.93132  22.95133  22.96359  22.96795  22.98538
 Alpha virt. eigenvalues --   23.05018  23.05078  23.09466  23.16616  23.28035
 Alpha virt. eigenvalues --   23.28855  23.31569  23.32837  23.42483  23.42950
 Alpha virt. eigenvalues --   23.51723  23.52375  23.56616  23.75133  23.80092
 Alpha virt. eigenvalues --   23.81432  23.90591  32.40977  32.76526  32.91874
 Alpha virt. eigenvalues --   32.99012  33.05779  33.13833  44.06537
          Condensed to atoms (all electrons):
 Mulliken charges:
               1
     1  Fe  -0.262978
     2  N   -0.077161
     3  N   -0.002398
     4  N   -0.036248
     5  N    0.005544
     6  C    0.232794
     7  C   -0.036095
     8  C   -0.042597
     9  C    0.223231
    10  C    0.239195
    11  C   -0.058052
    12  C    0.053382
    13  C    0.211684
    14  C    0.244479
    15  C   -0.048661
    16  C    0.040841
    17  C    0.242134
    18  C    0.227965
    19  C   -0.063738
    20  C   -0.045721
    21  C    0.227483
    22  C   -0.452784
    23  H    0.137155
    24  C   -0.482226
    25  H    0.128398
    26  C   -0.422585
    27  H    0.113140
    28  C   -0.487348
    29  H    0.109422
    30  C   -0.414546
    31  H    0.119920
    32  H    0.133539
    33  H    0.134992
    34  C   -0.414175
    35  H    0.134739
    36  H    0.134506
    37  H    0.119405
    38  C   -0.456015
    39  H    0.142102
    40  H    0.125536
    41  H    0.156467
    42  C   -0.213933
    43  H    0.111009
    44  C   -0.285987
    45  H    0.138495
    46  H    0.120811
    47  C   -0.448531
    48  H    0.143397
    49  H    0.126367
    50  H    0.154520
    51  C   -0.209995
    52  H    0.106465
    53  C   -0.287708
    54  H    0.138641
    55  H    0.120767
    56  C   -0.412563
    57  H    0.139246
    58  H    0.128762
    59  H    0.119463
    60  C   -0.415729
    61  H    0.135170
    62  H    0.119451
    63  H    0.133299
    64  O   -0.581896
    65  H    0.359143
    66  H    0.325368
    67  C   -0.392216
    68  H    0.135507
    69  H    0.145572
    70  H    0.134432
    71  N   -0.233671
    72  H    0.235049
    73  C    0.180914
    74  C    0.006210
    75  H    0.177911
    76  N    0.078371
    77  C   -0.228219
    78  H    0.161377
 Sum of Mulliken charges =  -0.00000
 Mulliken charges with hydrogens summed into heavy atoms:
               1
     1  Fe  -0.262978
     2  N   -0.077161
     3  N   -0.002398
     4  N   -0.036248
     5  N    0.005544
     6  C    0.232794
     7  C   -0.036095
     8  C   -0.042597
     9  C    0.223231
    10  C    0.239195
    11  C   -0.058052
    12  C    0.053382
    13  C    0.211684
    14  C    0.244479
    15  C   -0.048661
    16  C    0.040841
    17  C    0.242134
    18  C    0.227965
    19  C   -0.063738
    20  C   -0.045721
    21  C    0.227483
    22  C   -0.315629
    24  C   -0.353828
    26  C   -0.309446
    28  C   -0.377926
    30  C   -0.026095
    34  C   -0.025525
    38  C   -0.031909
    42  C   -0.102923
    44  C   -0.026681
    47  C   -0.024246
    51  C   -0.103529
    53  C   -0.028300
    56  C   -0.025093
    60  C   -0.027809
    64  O    0.102615
    67  C    0.023295
    71  N    0.001378
    73  C    0.180914
    74  C    0.184121
    76  N    0.078371
    77  C   -0.066842
 Electronic spatial extent (au):  <R**2>=          20069.0013
 Charge=             -0.0000 electrons
 Dipole moment (field-independent basis, Debye):
    X=              0.0046    Y=             -1.7074    Z=              3.1104  Tot=              3.5482
 Quadrupole moment (field-independent basis, Debye-Ang):
   XX=           -241.4280   YY=           -246.4564   ZZ=           -221.3745
   XY=             -1.4890   XZ=             -4.6183   YZ=              0.9710
 Traceless Quadrupole moment (field-independent basis, Debye-Ang):
   XX=             -5.0084   YY=            -10.0368   ZZ=             15.0451
   XY=             -1.4890   XZ=             -4.6183   YZ=              0.9710
 Octapole moment (field-independent basis, Debye-Ang**2):
  XXX=             10.0533  YYY=            -35.2250  ZZZ=            102.7363  XYY=             -2.1904
  XXY=            -34.7739  XXZ=              2.2474  XZZ=             -6.9478  YZZ=            -16.6762
  YYZ=            -19.8478  XYZ=              5.1736
 Hexadecapole moment (field-independent basis, Debye-Ang**3):
 XXXX=         -11970.6090 YYYY=         -11654.7205 ZZZZ=          -2772.9608 XXXY=              9.9732
 XXXZ=            -89.6494 YYYX=              7.7129 YYYZ=             34.0788 ZZZX=            -51.9153
 ZZZY=             -7.7792 XXYY=          -4020.8730 XXZZ=          -2635.8763 YYZZ=          -2666.6059
 XXYZ=            -42.8189 YYXZ=             14.2102 ZZXY=            -23.1127
 N-N= 5.962144406214D+03 E-N=-1.893859958114D+04  KE= 2.973867996652D+03
  Exact polarizability:     712.691      -1.027     701.593      -9.456      -4.197     314.575
 Approx polarizability:    1322.664      -6.023    1290.539     -42.991       4.671     499.658

 ----------------------------------------------------------------------

 Electric dipole moment (input orientation):
 (Debye = 10**-18 statcoulomb cm , SI units = C m)
                  (au)            (Debye)         (10**-30 SI)
   Tot        0.139596D+01      0.354819D+01      0.118355D+02
   x          0.106425D+01      0.270506D+01      0.902311D+01
   y         -0.890875D+00     -0.226438D+01     -0.755315D+01
   z         -0.149754D+00     -0.380638D+00     -0.126967D+01

 Dipole polarizability, Alpha (input orientation).
 (esu units = cm**3 , SI units = C**2 m**2 J**-1)
 Alpha(0;0):
               (au)            (10**-24 esu)      (10**-40 SI)
   iso        0.576286D+03      0.853968D+02      0.950168D+02
   aniso      0.393098D+03      0.582511D+02      0.648131D+02
   xx         0.379785D+03      0.562783D+02      0.626180D+02
   yx         0.114329D+03      0.169419D+02      0.188504D+02
   yy         0.666577D+03      0.987765D+02      0.109904D+03
   zx        -0.933536D+02     -0.138336D+02     -0.153919D+02
   zy         0.264473D+02      0.391908D+01      0.436056D+01
   zz         0.682498D+03      0.101136D+03      0.112529D+03

 First dipole hyperpolarizability, Beta (input orientation).
 ||, _|_  parallel and perpendicular components, (z) with respect to z axis,
 vector components x,y,z.  Values do not include the 1/n! factor of 1/2.
 (esu units = statvolt**-1 cm**4 , SI units = C**3 m**3 J**-2)
 Beta(0;0,0):
               (au)            (10**-30 esu)      (10**-50 SI)
   || (z)     0.864107D+03      0.746521D+01      0.277064D+01
   _|_(z)     0.288036D+03      0.248840D+01      0.923547D+00
   x         -0.662776D+02     -0.572586D+00     -0.212510D+00
   y          0.376802D+04      0.325528D+02      0.120816D+02
   z          0.432054D+04      0.373261D+02      0.138532D+02
   ||         0.114664D+04      0.990605D+01      0.367653D+01
   xxx        0.199430D+03      0.172292D+01      0.639445D+00
   xxy        0.513557D+02      0.443673D+00      0.164665D+00
   yxy        0.453042D+03      0.391393D+01      0.145262D+01
   yyy        0.135951D+04      0.117451D+02      0.435907D+01
   xxz        0.343636D+03      0.296875D+01      0.110182D+01
   yxz        0.401490D+00      0.346856D-02      0.128732D-02
   yyz       -0.219529D+02     -0.189656D+00     -0.703889D-01
   zxz       -0.674564D+03     -0.582771D+01     -0.216290D+01
   zyz       -0.154856D+03     -0.133783D+01     -0.496523D+00
   zzz        0.111850D+04      0.966293D+01      0.358630D+01

 ----------------------------------------------------------------------

 Dipole orientation:
    26        106.46342633        -41.11700012         45.70424664
     7        103.76575435        -43.55224830         46.72594354
     7        108.56025359        -43.99977946         44.38875971
     7        109.08418013        -38.68074332         44.41722453
     7        104.40641462        -38.23752517         46.98103318
     6        101.50214961        -42.96890535         47.79203805
     6         99.95384364        -45.20449396         48.05533517
     6        101.34592842        -47.16031340         47.13462206
     6        103.72635494        -46.09180113         46.32277514
     6        107.92602371        -46.49306200         44.39512378
     6        109.89772397        -48.00615981         43.28170033
     6        111.75429743        -46.35610259         42.55870120
     6        110.84720791        -43.85834467         43.23696879
     6        111.24913307        -39.24372503         43.14873458
     6        112.52087439        -36.98014167         42.33573192
     6        111.08411327        -34.99772233         43.18090436
     6        108.96979559        -36.11842465         44.51673683
     6        104.95004200        -35.73538708         46.79636712
     6        102.90928751        -34.22193913         47.80599896
     6        101.14198956        -35.87892404         48.66173230
     6        102.08948054        -38.37806468         48.08212864
     6        100.72437709        -40.56929145         48.47615523
     1         98.88206173        -40.38839495         49.33264608
     6        105.65702508        -47.48045519         45.24836193
     1        105.37053691        -49.49056060         45.05388021
     6        112.11601283        -41.65857706         42.64622228
     1        113.87749090        -41.83289915         41.63316221
     6        107.06475109        -34.72729374         45.64301476
     1        107.20781767        -32.69396941         45.56946439
     6        100.67894082        -49.88968479         46.93484126
     1         98.77717019        -50.23071584         47.63356579
     1        101.98834482        -51.03830541         48.03561453
     1        100.77198207        -50.51919955         44.97514279
     6         97.35444149        -45.21906844         49.13936342
     1         96.10505106        -43.99824182         48.04665838
     1         97.37776121        -44.53211988         51.08137570
     1         96.56957499        -47.11792043         49.13444359
     6        109.89408385        -50.81643605         43.13194411
     1        108.83812036        -51.46535138         41.48341176
     1        109.02505529        -51.63548194         44.80804048
     1        111.82193519        -51.51611303         42.98171480
     6        114.17329209        -46.86897033         41.39672363
     1        115.68899761        -45.59390741         41.91999072
     6        114.65695240        -48.72892113         39.77927577
     1        113.21035531        -49.99649053         39.12058254
     1        116.52204473        -49.01492450         39.01380811
     6        114.98164092        -36.89777036         40.97392796
     1        114.71022256        -37.15776380         38.94651712
     1        116.23525149        -38.38589804         41.64209980
     1        115.89630046        -35.08115754         41.27822536
     6        111.51815792        -32.31331446         42.92102022
     1        110.86222887        -31.15583568         44.47903147
     6        112.61673948        -31.19022184         40.96054630
     1        113.22395348        -32.22443958         39.31908219
     1        112.90089516        -29.17455829         40.91139810
     6        102.89920575        -31.40592823         47.87139006
     1        103.00854575        -30.63891630         45.96230707
     1        104.51370950        -30.69538374         48.93680859
     1        101.18173644        -30.70113903         48.75175903
     6         98.65886769        -35.36294567         49.88713830
     1         97.10866043        -35.99047316         48.68279473
     1         98.42379448        -33.35330390         50.24495838
     1         98.51779159        -36.36346800         51.68192630
     8        104.32740323        -40.99159816         41.97483651
     1        102.92279245        -42.10941825         42.20093495
     1        104.64140062        -40.05207910         40.61776881
     6        110.84637081        -44.56288163         54.64260784
     1        112.89348260        -44.41589403         54.81609832
     1        110.35642419        -46.52253441         54.28653822
     1        110.00542462        -43.98636445         56.43225127
     7        110.25936262        -40.39693817         52.47762275
     1        111.15594238        -39.36683333         53.80227372
     6        109.90842920        -42.96206482         52.53746471
     6        109.19392501        -39.51937245         50.32689705
     1        109.17998828        -37.57238788         49.77746965
     7        108.19106720        -41.37184843         49.02320968
     6        108.61852411        -43.52462272         50.37455864
     1        107.97465735        -45.32004027         49.70249004

 Electric dipole moment (dipole orientation):
 (Debye = 10**-18 statcoulomb cm , SI units = C m)
                  (au)            (Debye)         (10**-30 SI)
   Tot        0.139596D+01      0.354819D+01      0.118355D+02
   x          0.000000D+00      0.000000D+00      0.000000D+00
   y          0.000000D+00      0.000000D+00      0.000000D+00
   z          0.139596D+01      0.354819D+01      0.118355D+02

 Dipole polarizability, Alpha (dipole orientation).
 (esu units = cm**3 , SI units = C**2 m**2 J**-1)
 Alpha(0;0):
               (au)            (10**-24 esu)      (10**-40 SI)
   iso        0.576286D+03      0.853968D+02      0.950168D+02
   aniso      0.393098D+03      0.582511D+02      0.648131D+02
   xx         0.608925D+03      0.902334D+02      0.100398D+03
   yx         0.884060D+01      0.131004D+01      0.145762D+01
   yy         0.712222D+03      0.105540D+03      0.117430D+03
   zx        -0.165158D+03     -0.244739D+02     -0.272309D+02
   zy         0.131405D+02      0.194722D+01      0.216657D+01
   zz         0.407712D+03      0.604166D+02      0.672226D+02

 First dipole hyperpolarizability, Beta (dipole orientation).
 ||, _|_  parallel and perpendicular components, (z) with respect to z axis,
 vector components x,y,z.  Values do not include the 1/n! factor of 1/2.
 (esu units = statvolt**-1 cm**4 , SI units = C**3 m**3 J**-2)
 Beta(0;0,0):
               (au)            (10**-30 esu)      (10**-50 SI)
   || (z)    -0.583739D+03     -0.504305D+01     -0.187168D+01
   _|_(z)    -0.194580D+03     -0.168102D+01     -0.623892D+00
   x          0.491805D+04      0.424881D+02      0.157690D+02
   y          0.404306D+03      0.349289D+01      0.129635D+01
   z         -0.291869D+04     -0.252152D+02     -0.935838D+01
   ||         0.114664D+04      0.990605D+01      0.367653D+01
   xxx        0.262914D+03      0.227137D+01      0.842997D+00
   xxy       -0.147964D+03     -0.127830D+01     -0.474427D+00
   yxy        0.100432D+04      0.867657D+01      0.322022D+01
   yyy        0.265233D+03      0.229141D+01      0.850434D+00
   xxz       -0.234623D+03     -0.202696D+01     -0.752287D+00
   yxz       -0.267965D+02     -0.231501D+00     -0.859192D-01
   yyz       -0.761146D+03     -0.657571D+01     -0.244051D+01
   zxz        0.372112D+03      0.321476D+01      0.119313D+01
   zyz        0.174998D+02      0.151185D+00      0.561107D-01
   zzz        0.228719D+02      0.197595D+00      0.733355D-01

 ----------------------------------------------------------------------
 Unable to Open any file for archive entry.
 1\1\GINC-BGN1019\SP\RAPFD\def2TZVP\C34H36Fe1N6O1\BEBJONES\11-Oct-2024\
 0\\# polar def2tzvp apfd int=(grid=ultrafine)\\1uvy_II_S\\0,1\Fe,0,54.
 7647365398,23.0751587539,26.4706800108\N,0,55.0649484783,22.91754694,2
 4.5019436554\N,0,55.4314830242,24.9713625179,26.4177445341\N,0,54.3379
 113857,23.3041511275,28.4237877383\N,0,54.0931552984,21.2023877765,26.
 5407594194\C,0,54.7903212972,21.8360360281,23.7252113086\C,0,55.027104
 2902,22.1349982334,22.3306470062\C,0,55.4604028025,23.4239138521,22.28
 40279362\C,0,55.4828847835,23.8941173273,23.6513042924\C,0,55.85433477
 27,25.6558415681,25.3195084719\C,0,56.2526661883,26.9965013143,25.6671
 765422\C,0,56.0440718676,27.1203454741,27.014462981\C,0,55.508883494,2
 5.8447772553,27.4535261582\C,0,54.5013494533,24.4242629543,29.17908654
 48\C,0,53.9667575278,24.2372699202,30.5027355504\C,0,53.485566506,22.9
 545783578,30.5446020763\C,0,53.7535143515,22.3867546874,29.2373118983\
 C,0,53.5735334631,20.5540937562,27.6155559693\C,0,53.1158869494,19.232
 3119187,27.2460394748\C,0,53.4020859441,19.0867179227,25.9248950614\C,
 0,53.9875573169,20.3388230374,25.4960632162\C,0,54.3128243708,20.62139
 38689,24.1829689537\H,0,54.1531276452,19.8432594488,23.4521873762\C,0,
 55.85770347,25.1704314807,24.0222307767\H,0,56.1746046135,25.841953225
 8,23.2388604127\C,0,55.0780571074,25.6033922081,28.7418222181\H,0,55.1
 527369168,26.4134060113,29.4510997958\C,0,53.4054861605,21.0980551518,
 28.8746158195\H,0,52.938996009,20.4759346463,29.6231821956\C,0,55.8467
 484329,24.2493739963,21.1045493488\H,0,55.7298139069,23.6852990726,20.
 1824777148\H,0,56.8871057391,24.5663504077,21.1824165709\H,0,55.225906
 779,25.1434137076,21.0407408457\C,0,54.8143171137,21.1693780865,21.215
 5023936\H,0,53.7755134169,20.8394755451,21.1857732616\H,0,55.443923151
 7,20.2891534448,21.346654703\H,0,55.0565293318,21.6237822466,20.257880
 085\C,0,56.8447756344,27.9863739948,24.7251519554\H,0,56.0651114527,28
 .514655288,24.1735810579\H,0,57.4929311638,27.4922770348,24.0028083787
 \H,0,57.4315318812,28.7194376853,25.2751510812\C,0,56.302696042,28.246
 791392,27.8831280049\H,0,56.5983828633,27.9959512462,28.8955094607\C,0
 ,56.2042331232,29.5277038593,27.5419489096\H,0,55.869542924,29.8378408
 41,26.5676666146\H,0,56.4308171805,30.3155572037,28.2412566253\C,0,54.
 0168628456,25.2417816331,31.6006145098\H,0,53.19115546,25.9503258453,3
 1.5184058693\H,0,54.9476093205,25.8054568354,31.565876075\H,0,53.94718
 24113,24.743966202,32.5658314645\C,0,52.8656682401,22.2452299861,31.64
 10136242\H,0,53.0601805963,21.1793379419,31.6788363808\C,0,52.08980027
 94,22.7870240386,32.5747895791\H,0,51.8207125121,23.8285362307,32.5636
 775011\H,0,51.6727320555,22.1953767135,33.3729264436\C,0,52.4849586527
 ,18.2658211048,28.1892541253\H,0,51.5639163005,18.6793656123,28.600768
 2748\H,0,53.1554667386,18.0437166046,29.020073668\H,0,52.244467609,17.
 333389664,27.6844076489\C,0,53.1522055544,17.9229002174,25.0278087781\
 H,0,52.4225121628,18.1790988016,24.2588507398\H,0,52.770183952,17.0750
 999684,25.5913351324\H,0,54.0734543526,17.6186931667,24.5311208594\O,0
 ,52.6939999999,23.796,25.863\H,0,52.692,23.767,24.906\H,0,52.007,24.01
 3,26.384\C,0,60.2739002635,22.2284826025,26.5677803687\H,0,60.82437348
 24,22.5967115475,27.433442861\H,0,60.4627294391,22.8903879622,25.72853
 9601\H,0,60.6504303031,21.235700119,26.321615409\N,0,58.2842371843,21.
 4294612247,27.860743969\H,0,58.8045331468,20.8459756669,28.4951318241\
 C,0,58.8165915478,22.185786546,26.8495007047\C,0,56.9446547916,21.6144
 688339,27.8493669927\H,0,56.266784035,21.1454343807,28.5324500543\N,0,
 56.597313652,22.4412777905,26.8931903292\C,0,57.750517793,22.804491204
 ,26.2619139622\H,0,57.7349782334,23.4823802296,25.4339793178\\Version=
 ES64L-G16RevC.02\State=1-A\HF=-2984.0262728\RMSD=2.480e-09\Dipole=1.06
 42522,-0.890875,-0.1497543\Polar=379.7845492,114.3294399,666.5766474,-
 93.3535787,26.4472524,682.4977711\HyperPolar=199.4300943,51.3556756,45
 3.0417558,1359.5074433,343.6362654,0.4014898,-21.9529007,-674.5643675,
 -154.855566,1118.4950922\Quadrupole=5.8303185,-3.7985011,-2.0318173,-6
 .0711689,5.2403069,-4.5028372\PG=C01 [X(C34H36Fe1N6O1)]\\@
 The archive entry for this job was punched.


 TIME IS IN FACT THE HERO OF THE PLOT. THE TIME
 WITH WHICH WE HAVE TO DEAL IS OF THE ORDER OF TWO
 BILLION YEARS...GIVEN SO MUCH TIME, THE "IMPOSSIBLE"
 BECOMES POSSIBLE, THE POSSIBLE PROBABLE, THE PROBABLE
 VIRTUALLY CERTAIN.  ONE HAS ONLY TO WAIT, TIME
 ITSELF PERFORMS THE MIRACLES.
 "ORIGIN OF LIFE" LECTURES, GEORGE WALD, 1954
 Job cpu time:       2 days  4 hours 55 minutes  2.3 seconds.
 Elapsed time:       0 days  0 hours 45 minutes 49.5 seconds.
 File lengths (MBytes):  RWF=   1208 Int=      0 D2E=      0 Chk=    155 Scr=      1
 Normal termination of Gaussian 16 at Fri Oct 11 13:02:26 2024.
 Initial command:
 /sw/chem/gaussian/g16_C02/a100/g16/l1.exe "/local/bebjones_8041919/Gau-272764.inp" -scrdir="/local/bebjones_8041919/"
 Entering Link 1 = /sw/chem/gaussian/g16_C02/a100/g16/l1.exe PID=    274518.
  
 Copyright (c) 1988-2021, Gaussian, Inc.  All Rights Reserved.
  
 This is part of the Gaussian(R) 16 program.  It is based on
 the Gaussian(R) 09 system (copyright 2009, Gaussian, Inc.),
 the Gaussian(R) 03 system (copyright 2003, Gaussian, Inc.),
 the Gaussian(R) 98 system (copyright 1998, Gaussian, Inc.),
 the Gaussian(R) 94 system (copyright 1995, Gaussian, Inc.),
 the Gaussian 92(TM) system (copyright 1992, Gaussian, Inc.),
 the Gaussian 90(TM) system (copyright 1990, Gaussian, Inc.),
 the Gaussian 88(TM) system (copyright 1988, Gaussian, Inc.),
 the Gaussian 86(TM) system (copyright 1986, Carnegie Mellon
 University), and the Gaussian 82(TM) system (copyright 1983,
 Carnegie Mellon University). Gaussian is a federally registered
 trademark of Gaussian, Inc.
  
 This software contains proprietary and confidential information,
 including trade secrets, belonging to Gaussian, Inc.
  
 This software is provided under written license and may be
 used, copied, transmitted, or stored only in accord with that
 written license.
  
 The following legend is applicable only to US Government
 contracts under FAR:
  
                    RESTRICTED RIGHTS LEGEND
  
 Use, reproduction and disclosure by the US Government is
 subject to restrictions as set forth in subparagraphs (a)
 and (c) of the Commercial Computer Software - Restricted
 Rights clause in FAR 52.227-19.
  
 Gaussian, Inc.
 340 Quinnipiac St., Bldg. 40, Wallingford CT 06492
  
  
 ---------------------------------------------------------------
 Warning -- This program may not be used in any manner that
 competes with the business of Gaussian, Inc. or will provide
 assistance to any competitor of Gaussian, Inc.  The licensee
 of this program is prohibited from giving any competitor of
 Gaussian, Inc. access to this program.  By using this program,
 the user acknowledges that Gaussian, Inc. is engaged in the
 business of creating and licensing software in the field of
 computational chemistry and represents and warrants to the
 licensee that it is not a competitor of Gaussian, Inc. and that
 it will not use this program in any manner prohibited above.
 ---------------------------------------------------------------
  

 Cite this work as:
 Gaussian 16, Revision C.02,
[...]
                                                    1524(v)
   142. CR (   1) N  71                  1.99938   -14.22030  1351(v),1325(v),1319(v)
                                                    1326(v),1522(v)
   143. CR (   1) C  73                  1.99915   -10.08830  1408(v),1526(g),1532(v)
                                                    1253(v)
   144. CR (   1) C  74                  1.99935   -10.12032  1381(v),1523(v),1531(v)
                                                    152(r),151(r),155(r)
   145. CR (   1) N  76                  1.99931   -14.15132  151(r),152(r),155(r),1349(v)
                                                    1406(v),1528(v),171(r)
                                                    167(r),174(r)
   146. CR (   1) C  77                  1.99898   -10.05833  1522(v),1323(v),1526(g)
                                                    1382(v),1326(v),1433(v)
                                                    151(r),152(r)
   162. LP (   1) N  71                  1.57955    -0.28327  1530(v),1527(v),1352(v)
                                                    1324(v),1318(v),1350(v)
   163. LP (   1) N  76                  1.61014    -0.36358  151(r),152(r),155(r),1525(v)
                                                    1526(v),1349(v),1528(v)
                                                    1532(v),1529(g),1406(v)
                                                    1383(g),1531(g),169(r)
                                                    246(r),194(r),245(r),220(r)
                                                    272(r),219(r),193(r),271(r)
                                                    182(r),1446(r),1440(r)
                                                    1439(r),243(r),1448(r)
                                                    1445(r),1442(r),191(r)
                                                    217(r),1443(r),1437(r)
                                                    269(r),178(r),183(r),181(r)
                                                    173(r),1441(r)
  1251. RY*(   1) C  67                  0.00118     1.16072   
  1252. RY*(   2) C  67                  0.00079     2.00969   
  1253. RY*(   3) C  67                  0.00051     1.33547   
  1254. RY*(   4) C  67                  0.00012     1.25570   
  1255. RY*(   5) C  67                  0.00008     2.20512   
  1256. RY*(   6) C  67                  0.00007     1.31099   
  1257. RY*(   7) C  67                  0.00001     1.63751   
  1258. RY*(   8) C  67                  0.00001     1.88117   
  1259. RY*(   9) C  67                  0.00000     1.45923   
  1260. RY*(  10) C  67                  0.00001     2.35249   
  1261. RY*(  11) C  67                  0.00001     1.40725   
  1262. RY*(  12) C  67                  0.00000     3.23992   
  1263. RY*(  13) C  67                  0.00000     2.54716   
  1264. RY*(  14) C  67                  0.00000     2.78113   
  1265. RY*(  15) C  67                  0.00000     2.30199   
  1266. RY*(  16) C  67                  0.00000     3.16989   
  1267. RY*(  17) C  67                  0.00000     2.50873   
  1268. RY*(  18) C  67                  0.00000    21.59788   
  1269. RY*(  19) C  67                  0.00001     2.70378   
  1270. RY*(  20) C  67                  0.00000     3.66092   
  1271. RY*(  21) C  67                  0.00001     3.44424   
  1272. RY*(  22) C  67                  0.00000     3.33220   
  1273. RY*(  23) C  67                  0.00000     3.77366   
  1274. RY*(  24) C  67                  0.00000     3.35096   
  1275. RY*(  25) C  67                  0.00000     3.31157   
  1276. RY*(  26) C  67                  0.00000     3.25868   
  1277. RY*(   1) H  68                  0.00074     1.00477   
  1278. RY*(   2) H  68                  0.00015     1.69219   
  1279. RY*(   3) H  68                  0.00008     1.96151   
  1280. RY*(   4) H  68                  0.00006     2.01037   
  1281. RY*(   5) H  68                  0.00000     2.88188   
  1282. RY*(   1) H  69                  0.00024     1.37761   
  1283. RY*(   2) H  69                  0.00012     1.74239   
  1284. RY*(   3) H  69                  0.00008     2.05799   
  1285. RY*(   4) H  69                  0.00002     1.59971   
  1286. RY*(   5) H  69                  0.00001     2.86553   
  1287. RY*(   1) H  70                  0.00074     0.99291   
  1288. RY*(   2) H  70                  0.00015     1.69627   
  1289. RY*(   3) H  70                  0.00008     1.96397   
  1290. RY*(   4) H  70                  0.00006     2.01592   
  1291. RY*(   5) H  70                  0.00000     2.88096   
  1292. RY*(   1) N  71                  0.00282     0.66804   
  1293. RY*(   2) N  71                  0.00224     1.77695   
  1294. RY*(   3) N  71                  0.00100     2.08192   
  1295. RY*(   4) N  71                  0.00078     2.16531   
  1296. RY*(   5) N  71                  0.00052     1.15712   
  1297. RY*(   6) N  71                  0.00027     2.03811   
  1298. RY*(   7) N  71                  0.00020     1.71514   
  1299. RY*(   8) N  71                  0.00006     3.44945   
  1300. RY*(   9) N  71                  0.00006     2.42340   
  1301. RY*(  10) N  71                  0.00007     2.22175   
  1302. RY*(  11) N  71                  0.00005     3.28372   
  1303. RY*(  12) N  71                  0.00001     2.74617   
  1304. RY*(  13) N  71                  0.00001     4.33356   
  1305. RY*(  14) N  71                  0.00000    30.55936   
  1306. RY*(  15) N  71                  0.00000     3.57010   
  1307. RY*(  16) N  71                  0.00000     2.11009   
  1308. RY*(  17) N  71                  0.00000     4.63931   
  1309. RY*(  18) N  71                  0.00001     3.75968   
  1310. RY*(  19) N  71                  0.00001     3.63087   
  1311. RY*(  20) N  71                  0.00000     4.63054   
  1312. RY*(  21) N  71                  0.00000     4.85182   
  1313. RY*(  22) N  71                  0.00000     4.35477   
  1314. RY*(  23) N  71                  0.00000     4.48359   
  1315. RY*(  24) N  71                  0.00000     4.29978   
  1316. RY*(  25) N  71                  0.00000     4.51563   
  1317. RY*(  26) N  71                  0.00000     4.41636   
  1318. RY*(   1) H  72                  0.00057     2.15167   
  1319. RY*(   2) H  72                  0.00039     2.13626   
  1320. RY*(   3) H  72                  0.00030     1.03517   
  1321. RY*(   4) H  72                  0.00021     2.52830   
  1322. RY*(   5) H  72                  0.00001     3.07794   
  1323. RY*(   1) C  73                  0.00406     1.69469   
  1324. RY*(   2) C  73                  0.00261     0.98450   
  1325. RY*(   3) C  73                  0.00191     1.49205   
  1326. RY*(   4) C  73                  0.00163     2.03544   
  1327. RY*(   5) C  73                  0.00123     1.75955   
  1328. RY*(   6) C  73                  0.00110     1.72509   
  1329. RY*(   7) C  73                  0.00037     2.86253   
  1330. RY*(   8) C  73                  0.00019     2.76320   
  1331. RY*(   9) C  73                  0.00016     2.49917   
  1332. RY*(  10) C  73                  0.00007     3.64949   
  1333. RY*(  11) C  73                  0.00003     2.67468   
  1334. RY*(  12) C  73                  0.00002     2.03953   
  1335. RY*(  13) C  73                  0.00001     1.39324   
  1336. RY*(  14) C  73                  0.00001     1.61109   
  1337. RY*(  15) C  73                  0.00001     2.81844   
  1338. RY*(  16) C  73                  0.00001     1.95724   
  1339. RY*(  17) C  73                  0.00000     3.36147   
  1340. RY*(  18) C  73                  0.00000    21.31409   
  1341. RY*(  19) C  73                  0.00000     1.06863   
  1342. RY*(  20) C  73                  0.00000     4.06376   
  1343. RY*(  21) C  73                  0.00000     3.71076   
  1344. RY*(  22) C  73                  0.00000     3.51465   
  1345. RY*(  23) C  73                  0.00000     3.76733   
  1346. RY*(  24) C  73                  0.00000     3.35706   
  1347. RY*(  25) C  73                  0.00000     3.53714   
  1348. RY*(  26) C  73                  0.00000     3.50964   
  1349. RY*(   1) C  74                  0.00409     1.59835   
  1350. RY*(   2) C  74                  0.00331     0.67163   
  1351. RY*(   3) C  74                  0.00201     1.33656   
  1352. RY*(   4) C  74                  0.00127     2.56756   
  1353. RY*(   5) C  74                  0.00080     1.64102   
  1354. RY*(   6) C  74                  0.00039     1.69436   
  1355. RY*(   7) C  74                  0.00027     1.86411   
  1356. RY*(   8) C  74                  0.00008     2.66043   
  1357. RY*(   9) C  74                  0.00005     1.98322   
  1358. RY*(  10) C  74                  0.00006     2.70639   
  1359. RY*(  11) C  74                  0.00004     3.49570   
  1360. RY*(  12) C  74                  0.00003     1.54307   
  1361. RY*(  13) C  74                  0.00002     3.15403   
  1362. RY*(  14) C  74                  0.00001     2.07558   
  1363. RY*(  15) C  74                  0.00001     2.56441   
  1364. RY*(  16) C  74                  0.00001     3.53814   
  1365. RY*(  17) C  74                  0.00000     2.66410   
  1366. RY*(  18) C  74                  0.00001     3.99943   
  1367. RY*(  19) C  74                  0.00000     3.23822   
  1368. RY*(  20) C  74                  0.00000    21.48601   
  1369. RY*(  21) C  74                  0.00001     4.04650   
  1370. RY*(  22) C  74                  0.00000     3.53806   
  1371. RY*(  23) C  74                  0.00000     3.81441   
  1372. RY*(  24) C  74                  0.00000     3.54497   
  1373. RY*(  25) C  74                  0.00000     3.52115   
  1374. RY*(  26) C  74                  0.00000     3.34893   
  1375. RY*(   1) H  75                  0.00058     0.90545   
  1376. RY*(   2) H  75                  0.00028     2.29564   
  1377. RY*(   3) H  75                  0.00021     2.12104   
  1378. RY*(   4) H  75                  0.00011     2.40879   
  1379. RY*(   5) H  75                  0.00002     3.15066   
  1380. RY*(   1) N  76                  0.00770     0.91198   
  1381. RY*(   2) N  76                  0.00736     1.26219   
  1382. RY*(   3) N  76                  0.00592     1.42507   
  1383. RY*(   4) N  76                  0.00077     1.59932   
  1384. RY*(   5) N  76                  0.00074     1.67800   
  1385. RY*(   6) N  76                  0.00058     1.93116   
  1386. RY*(   7) N  76                  0.00037     3.52978   
  1387. RY*(   8) N  76                  0.00033     3.16464   
  1388. RY*(   9) N  76                  0.00011     2.77720   
  1389. RY*(  10) N  76                  0.00010     3.30113   
  1390. RY*(  11) N  76                  0.00008     2.40359   
  1391. RY*(  12) N  76                  0.00008     3.45870   
  1392. RY*(  13) N  76                  0.00006     3.08692   
  1393. RY*(  14) N  76                  0.00004     3.68514   
  1394. RY*(  15) N  76                  0.00002     4.93381   
  1395. RY*(  16) N  76                  0.00002     4.65119   
  1396. RY*(  17) N  76                  0.00000    31.56184   
  1397. RY*(  18) N  76                  0.00001     4.22271   
  1398. RY*(  19) N  76                  0.00000     4.83070   
  1399. RY*(  20) N  76                  0.00000     4.37913   
  1400. RY*(  21) N  76                  0.00001     4.02799   
  1401. RY*(  22) N  76                  0.00000     4.16179   
  1402. RY*(  23) N  76                  0.00000     4.81568   
  1403. RY*(  24) N  76                  0.00000     4.65678   
  1404. RY*(  25) N  76                  0.00000     4.77419   
  1405. RY*(  26) N  76                  0.00000     4.53140   
  1406. RY*(   1) C  77                  0.00400     1.49072   
  1407. RY*(   2) C  77                  0.00261     0.72091   
  1408. RY*(   3) C  77                  0.00170     1.83924   
  1409. RY*(   4) C  77                  0.00069     2.02883   
  1410. RY*(   5) C  77                  0.00055     1.60913   
  1411. RY*(   6) C  77                  0.00044     2.25311   
  1412. RY*(   7) C  77                  0.00044     1.70099   
  1413. RY*(   8) C  77                  0.00023     1.46035   
  1414. RY*(   9) C  77                  0.00021     1.62973   
  1415. RY*(  10) C  77                  0.00015     1.80044   
  1416. RY*(  11) C  77                  0.00010     1.26405   
  1417. RY*(  12) C  77                  0.00005     1.82720   
  1418. RY*(  13) C  77                  0.00006     2.27514   
  1419. RY*(  14) C  77                  0.00005     3.00206   
  1420. RY*(  15) C  77                  0.00002     3.47269   
  1421. RY*(  16) C  77                  0.00002     1.36338   
  1422. RY*(  17) C  77                  0.00002     5.85999   
  1423. RY*(  18) C  77                  0.00000     3.25650   
  1424. RY*(  19) C  77                  0.00000    19.60529   
  1425. RY*(  20) C  77                  0.00001     3.98748   
  1426. RY*(  21) C  77                  0.00000     3.63630   
  1427. RY*(  22) C  77                  0.00000     3.47509   
  1428. RY*(  23) C  77                  0.00000     3.93775   
  1429. RY*(  24) C  77                  0.00000     3.41971   
  1430. RY*(  25) C  77                  0.00000     3.70299   
  1431. RY*(  26) C  77                  0.00000     3.45038   
  1432. RY*(   1) H  78                  0.00053     0.73312   
  1433. RY*(   2) H  78                  0.00032     2.27475   
  1434. RY*(   3) H  78                  0.00025     2.29835   
  1435. RY*(   4) H  78                  0.00008     2.74123   
  1436. RY*(   5) H  78                  0.00001     3.11974   
  1519. BD*(   1) C  67 - H  68          0.01190     0.35975   
  1520. BD*(   1) C  67 - H  69          0.00345     0.37299   
  1521. BD*(   1) C  67 - H  70          0.01193     0.35948   
  1522. BD*(   1) C  67 - C  73          0.01373     0.38944   
  1523. BD*(   1) N  71 - H  72          0.01422     0.36738   
  1524. BD*(   1) N  71 - C  73          0.02718     0.43030   
  1525. BD*(   1) N  71 - C  74          0.02236     0.44812   
  1526. BD*(   1) C  73 - C  77          0.02106     0.56675   
  1527. BD*(   2) C  73 - C  77          0.29995     0.03553  1530(v),1521(v),1519(v)
                                                    1411(g),1327(g),1438(r)
  1528. BD*(   1) C  74 - H  75          0.01805     0.39261   
  1529. BD*(   1) C  74 - N  76          0.01631     0.53826   
  1530. BD*(   2) C  74 - N  76          0.41852    -0.00470  1527(v),1350(g),1407(v)
                                                    1380(g),154(r),1441(r)
                                                    1447(r),1438(r)
  1531. BD*(   1) N  76 - C  77          0.01654     0.48250   
  1532. BD*(   1) C  77 - H  78          0.01448     0.43317   
       -------------------------------
              Total Lewis   42.68913  ( 97.7366%)
        Valence non-Lewis    0.90968  (  2.0827%)
        Rydberg non-Lewis    0.07893  (  0.1807%)
       -------------------------------
            Total unit  4   43.67774  (100.0000%)
           Charge unit  4    0.32226
 Unable to Open any file for archive entry.
 1\1\GINC-BGN1019\SP\RAPFD\def2TZVP\C34H36Fe1N6O1\BEBJONES\11-Oct-2024\
 0\\# apfd/def2TZVP int=(grid=ultrafine) geom=check guess=read pop=nbo 
 scf=qc\\1uvy_II_S_nbo\\0,1\Fe,0,54.7647365398,23.0751587539,26.4706800
 108\N,0,55.0649484783,22.91754694,24.5019436554\N,0,55.4314830242,24.9
 713625179,26.4177445341\N,0,54.3379113857,23.3041511275,28.4237877383\
 N,0,54.0931552984,21.2023877765,26.5407594194\C,0,54.7903212972,21.836
 0360281,23.7252113086\C,0,55.0271042902,22.1349982334,22.3306470062\C,
 0,55.4604028025,23.4239138521,22.2840279362\C,0,55.4828847835,23.89411
 73273,23.6513042924\C,0,55.8543347727,25.6558415681,25.3195084719\C,0,
 56.2526661883,26.9965013143,25.6671765422\C,0,56.0440718676,27.1203454
 741,27.014462981\C,0,55.508883494,25.8447772553,27.4535261582\C,0,54.5
 013494533,24.4242629543,29.1790865448\C,0,53.9667575278,24.2372699202,
 30.5027355504\C,0,53.485566506,22.9545783578,30.5446020763\C,0,53.7535
 143515,22.3867546874,29.2373118983\C,0,53.5735334631,20.5540937562,27.
 6155559693\C,0,53.1158869494,19.2323119187,27.2460394748\C,0,53.402085
 9441,19.0867179227,25.9248950614\C,0,53.9875573169,20.3388230374,25.49
 60632162\C,0,54.3128243708,20.6213938689,24.1829689537\H,0,54.15312764
 52,19.8432594488,23.4521873762\C,0,55.85770347,25.1704314807,24.022230
 7767\H,0,56.1746046135,25.8419532258,23.2388604127\C,0,55.0780571074,2
 5.6033922081,28.7418222181\H,0,55.1527369168,26.4134060113,29.45109979
 58\C,0,53.4054861605,21.0980551518,28.8746158195\H,0,52.938996009,20.4
 759346463,29.6231821956\C,0,55.8467484329,24.2493739963,21.1045493488\
 H,0,55.7298139069,23.6852990726,20.1824777148\H,0,56.8871057391,24.566
 3504077,21.1824165709\H,0,55.225906779,25.1434137076,21.0407408457\C,0
 ,54.8143171137,21.1693780865,21.2155023936\H,0,53.7755134169,20.839475
 5451,21.1857732616\H,0,55.4439231517,20.2891534448,21.346654703\H,0,55
 .0565293318,21.6237822466,20.257880085\C,0,56.8447756344,27.9863739948
 ,24.7251519554\H,0,56.0651114527,28.514655288,24.1735810579\H,0,57.492
 9311638,27.4922770348,24.0028083787\H,0,57.4315318812,28.7194376853,25
 .2751510812\C,0,56.302696042,28.246791392,27.8831280049\H,0,56.5983828
 633,27.9959512462,28.8955094607\C,0,56.2042331232,29.5277038593,27.541
 9489096\H,0,55.869542924,29.837840841,26.5676666146\H,0,56.4308171805,
 30.3155572037,28.2412566253\C,0,54.0168628456,25.2417816331,31.6006145
 098\H,0,53.19115546,25.9503258453,31.5184058693\H,0,54.9476093205,25.8
 054568354,31.565876075\H,0,53.9471824113,24.743966202,32.5658314645\C,
 0,52.8656682401,22.2452299861,31.6410136242\H,0,53.0601805963,21.17933
 79419,31.6788363808\C,0,52.0898002794,22.7870240386,32.5747895791\H,0,
 51.8207125121,23.8285362307,32.5636775011\H,0,51.6727320555,22.1953767
 135,33.3729264436\C,0,52.4849586527,18.2658211048,28.1892541253\H,0,51
 .5639163005,18.6793656123,28.6007682748\H,0,53.1554667386,18.043716604
 6,29.020073668\H,0,52.244467609,17.333389664,27.6844076489\C,0,53.1522
 055544,17.9229002174,25.0278087781\H,0,52.4225121628,18.1790988016,24.
 2588507398\H,0,52.770183952,17.0750999684,25.5913351324\H,0,54.0734543
 526,17.6186931667,24.5311208594\O,0,52.6939999999,23.796,25.863\H,0,52
 .692,23.767,24.906\H,0,52.007,24.013,26.384\C,0,60.2739002635,22.22848
 26025,26.5677803687\H,0,60.8243734824,22.5967115475,27.433442861\H,0,6
 0.4627294391,22.8903879622,25.728539601\H,0,60.6504303031,21.235700119
 ,26.321615409\N,0,58.2842371843,21.4294612247,27.860743969\H,0,58.8045
 331468,20.8459756669,28.4951318241\C,0,58.8165915478,22.185786546,26.8
 495007047\C,0,56.9446547916,21.6144688339,27.8493669927\H,0,56.2667840
 35,21.1454343807,28.5324500543\N,0,56.597313652,22.4412777905,26.89319
 03292\C,0,57.750517793,22.804491204,26.2619139622\H,0,57.7349782334,23
 .4823802296,25.4339793178\\Version=ES64L-G16RevC.02\State=1-A\HF=-2984
 .0262728\RMSD=1.488e-09\Dipole=1.0642522,-0.890875,-0.1497543\Quadrupo
 le=5.8303185,-3.7985011,-2.0318173,-6.0711689,5.2403069,-4.5028372\PG=
 C01 [X(C34H36Fe1N6O1)]\\@
 The archive entry for this job was punched.


 A HARD FALL SHOULD MEAN A HIGH BOUNCE 
 IF ONE IS MADE OF THE RIGHT MATERIAL.

                -- THE CHEMIST ANALYST, MARCH 1950
 Job cpu time:       0 days  0 hours 45 minutes 38.0 seconds.
 Elapsed time:       0 days  0 hours  0 minutes 54.9 seconds.
 File lengths (MBytes):  RWF=    792 Int=      0 D2E=      0 Chk=    155 Scr=      1
 Normal termination of Gaussian 16 at Fri Oct 11 13:03:23 2024.
