 Entering Gaussian System, Link 0=g16
 Input=1vxa05re.com
 Output=1vxa05re.log
 Initial command:
 /sw/chem/gaussian/g16_C02/a100/g16/l1.exe "/local/bebjones_8047939/Gau-152030.inp" -scrdir="/local/bebjones_8047939/"
 Entering Link 1 = /sw/chem/gaussian/g16_C02/a100/g16/l1.exe PID=    152031.
  
 Copyright (c) 1988-2021, Gaussian, Inc.  All Rights Reserved.
  
 This is part of the Gaussian(R) 16 program.  It is based on
 the Gaussian(R) 09 system (copyright 2009, Gaussian, Inc.),
 the Gaussian(R) 03 system (copyright 2003, Gaussian, Inc.),
 the Gaussian(R) 98 system (copyright 1998, Gaussian, Inc.),
 the Gaussian(R) 94 system (copyright 1995, Gaussian, Inc.),
 the Gaussian 92(TM) system (copyright 1992, Gaussian, Inc.),
 the Gaussian 90(TM) system (copyright 1990, Gaussian, Inc.),
 the Gaussian 88(TM) system (copyright 1988, Gaussian, Inc.),
 the Gaussian 86(TM) system (copyright 1986, Carnegie Mellon
 University), and the Gaussian 82(TM) system (copyright 1983,
 Carnegie Mellon University). Gaussian is a federally registered
 trademark of Gaussian, Inc.
  
 This software contains proprietary and confidential information,
 including trade secrets, belonging to Gaussian, Inc.
  
 This software is provided under written license and may be
 used, copied, transmitted, or stored only in accord with that
 written license.
  
 The following legend is applicable only to US Government
 contracts under FAR:
  
                    RESTRICTED RIGHTS LEGEND
  
 Use, reproduction and disclosure by the US Government is
 subject to restrictions as set forth in subparagraphs (a)
 and (c) of the Commercial Computer Software - Restricted
 Rights clause in FAR 52.227-19.
  
 Gaussian, Inc.
 340 Quinnipiac St., Bldg. 40, Wallingford CT 06492
  
  
 ---------------------------------------------------------------
 Warning -- This program may not be used in any manner that
 competes with the business of Gaussian, Inc. or will provide
 assistance to any competitor of Gaussian, Inc.  The licensee
 of this program is prohibited from giving any competitor of
 Gaussian, Inc. access to this program.  By using this program,
 the user acknowledges that Gaussian, Inc. is engaged in the
 business of creating and licensing software in the field of
 computational chemistry and represents and warrants to the
 licensee that it is not a competitor of Gaussian, Inc. and that
 it will not use this program in any manner prohibited above.
 ---------------------------------------------------------------
  

 Cite this work as:
 Gaussian 16, Revision C.02,
 M. J. Frisch, G. W. Trucks, H. B. Schlegel, G. E. Scuseria, 
 M. A. Robb, J. R. Cheeseman, G. Scalmani, V. Barone, 
 G. A. Petersson, H. Nakatsuji, X. Li, M. Caricato, A. V. Marenich, 
 J. Bloino, B. G. Janesko, R. Gomperts, B. Mennucci, H. P. Hratchian, 
 J. V. Ortiz, A. F. Izmaylov, J. L. Sonnenberg, D. Williams-Young, 
 F. Ding, F. Lipparini, F. Egidi, J. Goings, B. Peng, A. Petrone, 
 T. Henderson, D. Ranasinghe, V. G. Zakrzewski, J. Gao, N. Rega, 
 G. Zheng, W. Liang, M. Hada, M. Ehara, K. Toyota, R. Fukuda, 
 J. Hasegawa, M. Ishida, T. Nakajima, Y. Honda, O. Kitao, H. Nakai, 
 T. Vreven, K. Throssell, J. A. Montgomery, Jr., J. E. Peralta, 
 F. Ogliaro, M. J. Bearpark, J. J. Heyd, E. N. Brothers, K. N. Kudin, 
 V. N. Staroverov, T. A. Keith, R. Kobayashi, J. Normand, 
 K. Raghavachari, A. P. Rendell, J. C. Burant, S. S. Iyengar, 
 J. Tomasi, M. Cossi, J. M. Millam, M. Klene, C. Adamo, R. Cammi, 
 J. W. Ochterski, R. L. Martin, K. Morokuma, O. Farkas, 
 J. B. Foresman, and D. J. Fox, Gaussian, Inc., Wallingford CT, 2019.
 
 ******************************************
 Gaussian 16:  ES64L-G16RevC.02  7-Dec-2021
                15-Oct-2024 
 ******************************************
 %mem=16GB
 %CPU=0-71
 SetSPE:  set environment variable "OMP_PROC_BIND" = "true"
 SetSPE:  set environment variable "OMP_PLACES" = "{0},{1},{2},{3},{4},{5},{6},{7},{8},{9},{10},{11},{12},{13},{14},{15},{16},{17},{18},{19},{20},{21},{22},{23},{24},{25},{26},{27},{28},{29},{30},{31},{32},{33},{34},{35},{36},{37},{38},{39},{40},{41},{42},{43},{44},{45},{46},{47},{48},{49},{50},{51},{52},{53},{54},{55},{56},{57},{58},{59},{60},{61},{62},{63},{64},{65},{66},{67},{68},{69},{70},{71}"
 Will use up to   72 processors via shared memory.
 %gpucpu=0,1,2,3=0,1,2,3
 Will use    4 GPUs:
 Thread  CPU   GPU
      0    0     0
      1    1     1
      2    2     2
      3    3     3
      4    4    -1
      5    5    -1
      6    6    -1
      7    7    -1
      8    8    -1
      9    9    -1
     10   10    -1
     11   11    -1
     12   12    -1
     13   13    -1
     14   14    -1
     15   15    -1
     16   16    -1
     17   17    -1
     18   18    -1
     19   19    -1
     20   20    -1
     21   21    -1
     22   22    -1
     23   23    -1
     24   24    -1
     25   25    -1
     26   26    -1
     27   27    -1
     28   28    -1
     29   29    -1
     30   30    -1
     31   31    -1
     32   32    -1
     33   33    -1
     34   34    -1
     35   35    -1
     36   36    -1
     37   37    -1
     38   38    -1
     39   39    -1
     40   40    -1
     41   41    -1
     42   42    -1
     43   43    -1
     44   44    -1
     45   45    -1
     46   46    -1
     47   47    -1
     48   48    -1
     49   49    -1
     50   50    -1
     51   51    -1
     52   52    -1
     53   53    -1
     54   54    -1
     55   55    -1
     56   56    -1
     57   57    -1
     58   58    -1
     59   59    -1
     60   60    -1
     61   61    -1
     62   62    -1
     63   63    -1
     64   64    -1
     65   65    -1
     66   66    -1
     67   67    -1
     68   68    -1
     69   69    -1
     70   70    -1
     71   71    -1
 SetGPE:  set environment variable "OMP_PROC_BIND" = "true"
 SetGPE:  set environment variable "OMP_PLACES" = "{0},{1},{2},{3},{4},{5},{6},{7},{8},{9},{10},{11},{12},{13},{14},{15},{16},{17},{18},{19},{20},{21},{22},{23},{24},{25},{26},{27},{28},{29},{30},{31},{32},{33},{34},{35},{36},{37},{38},{39},{40},{41},{42},{43},{44},{45},{46},{47},{48},{49},{50},{51},{52},{53},{54},{55},{56},{57},{58},{59},{60},{61},{62},{63},{64},{65},{66},{67},{68},{69},{70},{71}"
 %oldchk=1vxa_II_S.chk
 %chk=1vxa_II_Sre.chk
 Properties for Device   0
 Minimum vector length:                              32
 Maximum vector length:                            1024
 Number of SMPs:                                    108
 Maximum number of threads per SMP:                2048
 Number of ASync Engines:                             5
 Memory:                                           9207742464
 Properties for Device   1
 Minimum vector length:                              32
 Maximum vector length:                            1024
 Number of SMPs:                                    108
 Maximum number of threads per SMP:                2048
 Number of ASync Engines:                             5
 Memory:                                           9207742464
 Properties for Device   2
 Minimum vector length:                              32
 Maximum vector length:                            1024
 Number of SMPs:                                    108
 Maximum number of threads per SMP:                2048
 Number of ASync Engines:                             5
 Memory:                                           9207742464
 Properties for Device   3
 Minimum vector length:                              32
 Maximum vector length:                            1024
 Number of SMPs:                                    108
 Maximum number of threads per SMP:                2048
 Number of ASync Engines:                             5
 Memory:                                           9207742464
   8286968217 words of memory will be used on each GPU.
 Copying data from "1vxa_II_S.chk" to current chk file "1vxa_II_Sre.chk"
 IOpt=  2 FromEx=T IUOpen= 4 IOptOp= 5 NList=   0 IFRang= 0 IUIn= 4 IUOut= 2.
 --------------------------------------
 # apfd/gen scf=maxcycle=999 geom=check
 --------------------------------------
 1/29=2,38=1,172=1/1;
 2/12=2,40=1/2;
 3/5=7,11=2,14=-4,25=1,30=1,74=-44/1,2,3;
 4//1;
 5/5=2,7=999,38=5/2;
 6/7=2,8=2,9=2,10=2,28=1/1;
 99/5=1,9=1/99;
 ---------
 1vxa_II_Q
 ---------
 Structure from the checkpoint file:  "1vxa_II_Sre.chk"
 Charge =  0 Multiplicity = 5
 Z-Matrix found in chk file.
 Fe,0,14.4590254283,27.9349639699,4.7846206065
 N,0,14.7022670634,29.2358666073,6.2824352174
 N,0,15.514431601,29.1839367245,3.5853622731
 N,0,14.3795754549,26.6282223762,3.2654468326
 N,0,13.6900798863,26.6042826615,6.0207691282
 C,0,14.4124584902,29.013825093,7.5982298169
 C,0,14.7902024354,30.1461305842,8.4119600052
 C,0,15.3764374621,31.037686175,7.5700249956
 C,0,15.3498199061,30.4337147438,6.2565709868
 C,0,16.009858762,30.4123595568,3.9044657823
 C,0,16.6009236299,31.0507896182,2.7498385013
 C,0,16.5282143248,30.1470375762,1.7378339269
 C,0,15.8477023128,28.9905874253,2.2777572696
 C,0,14.9142581097,26.7453139108,2.0226266159
 C,0,14.8336719584,25.4943888799,1.2983014184
 C,0,14.1774446882,24.6231657179,2.1261548439
 C,0,13.9452333233,25.33510564,3.3575275135
 C,0,13.3134984835,25.3292743488,5.731689189
 C,0,12.8178116845,24.6551260309,6.9145865712
 C,0,12.8799980976,25.5768204096,7.9263834322
 C,0,13.4535839841,26.7674931901,7.3555120485
 C,0,13.8006976961,27.8821711885,8.0995352677
 H,0,13.6109473477,27.8495277421,9.1615817984
 C,0,15.9646980815,30.9932167206,5.1550130204
 H,0,16.4348095031,31.9564099209,5.2782165114
 C,0,15.5432137163,27.8736259976,1.528392378
 H,0,15.8828548331,27.8504339088,0.5044076226
 C,0,13.4092586114,24.7414569931,4.4863314339
 H,0,13.0943706578,23.7130723297,4.3979657849
 C,0,14.569200158,30.2374576592,9.8829007113
 H,0,15.1035866709,29.4402401527,10.3998292977
 H,0,13.5091572419,30.1431645353,10.1203836058
 H,0,14.9230786652,31.1906362604,10.2676585593
 C,0,15.9684060533,32.3717431659,7.8701674307
 H,0,15.520386202,33.1406281928,7.2408101442
 H,0,17.042560532,32.3646556497,7.6831996222
 H,0,15.8053873676,32.6413634231,8.9107583195
 C,0,12.4267508147,25.4383868269,9.3379201092
 H,0,11.9816187265,26.3669945606,9.6925167273
 H,0,13.2633148451,25.1927868235,9.9940567009
 H,0,11.6864805261,24.6445679099,9.4151726468
 C,0,12.3239125503,23.2962455811,6.9435453146
 H,0,11.8555146521,22.9487210621,6.0300248297
 C,0,12.4098656732,22.46638493,7.9781592465
 H,0,12.9072454016,22.7388422171,8.8923663625
 H,0,12.0069091843,21.4681737169,7.9337139283
 C,0,13.8866672063,23.1807138266,1.8985118641
 H,0,12.8345426721,23.0329265588,1.6499495965
 H,0,14.1088531179,22.5941051151,2.7885052251
 H,0,14.4906791329,22.8044573137,1.0757317735
 C,0,15.3467315829,25.2808107514,-0.0381262496
 H,0,16.2671482692,25.8021204059,-0.2742208998
 C,0,14.781762528,24.5154830209,-0.9656459742
 H,0,13.8449197236,24.0125035474,-0.7996041804
 H,0,15.2270007504,24.386841548,-1.9382858866
 C,0,17.0075422236,30.2603575965,0.3316129345
 H,0,16.1789232675,30.1548944091,-0.3691002986
 H,0,17.736073742,29.4791835656,0.113861827
 H,0,17.4805248087,31.2243955707,0.1616930381
 C,0,17.1991650365,32.4153770599,2.7579582513
 H,0,17.5267085815,32.6992975618,1.7609365503
 H,0,18.0609277906,32.4526728755,3.4250568425
 H,0,16.4716205627,33.1496272395,3.1032997412
 C,0,10.0355927712,30.061750635,2.1149325237
 H,0,9.8164789095,31.1179533436,2.2715193478
 H,0,9.0957639753,29.510777469,2.1435192241
 H,0,10.4808291471,29.9410342674,1.1323901394
 N,0,10.6542991492,29.5389988591,4.4835339943
 H,0,9.78528381,29.8504498149,4.8855655658
 C,0,10.9722400364,29.5584431521,3.151112579
 C,0,11.7122097409,29.0270582217,5.1513229145
 H,0,11.7443407214,28.8931870501,6.2137881174
 N,0,12.6842093334,28.7204115408,4.3226534236
 C,0,12.2360661654,29.0469320129,3.0733334259
 H,0,12.8501724457,28.8922369586,2.2094702414
 Recover connectivity data from disk.
 Stoichiometry    C34H34FeN6(5)
 Framework group  C1[X(C34H34FeN6)]
 Deg. of freedom   219
 Full point group                 C1      NOp   1
 Largest Abelian subgroup         C1      NOp   1
 Largest concise Abelian subgroup C1      NOp   1
                         Standard orientation:                         
 ---------------------------------------------------------------------
 Center     Atomic      Atomic             Coordinates (Angstroms)
 Number     Number       Type             X           Y           Z
 ---------------------------------------------------------------------
      1         26           0       -0.080062   -0.159340   -0.291092
      2          7           0       -1.270172   -1.761848   -0.393880
      3          7           0        1.513833   -1.377175   -0.588436
      4          7           0        1.173525    1.405353   -0.336152
      5          7           0       -1.643336    1.043252   -0.291954
      6          6           0       -2.632930   -1.749880   -0.479640
      7          6           0       -3.156830   -3.089013   -0.618258
      8          6           0       -2.077319   -3.912566   -0.680019
      9          6           0       -0.911947   -3.062387   -0.581253
     10          6           0        1.506245   -2.735153   -0.698598
     11          6           0        2.851574   -3.257599   -0.783771
     12          6           0        3.676912   -2.178482   -0.806777
     13          6           0        2.824907   -1.016194   -0.683628
     14          6           0        2.518228    1.404282   -0.525815
     15          6           0        3.020574    2.748308   -0.718676
     16          6           0        1.938467    3.576320   -0.582861
     17          6           0        0.796504    2.718437   -0.390458
     18          6           0       -1.638784    2.403608   -0.312869
     19          6           0       -2.990310    2.925520   -0.333211
     20          6           0       -3.815871    1.832785   -0.294481
     21          6           0       -2.958407    0.676366   -0.301449
     22          6           0       -3.426358   -0.622573   -0.403160
     23          1           0       -4.494890   -0.762494   -0.463776
     24          6           0        0.378578   -3.529458   -0.725950
     25          1           0        0.515679   -4.591069   -0.860525
     26          6           0        3.309068    0.273570   -0.620695
     27          1           0        4.373976    0.413727   -0.724458
     28          6           0       -0.503443    3.188534   -0.335406
     29          1           0       -0.640916    4.258234   -0.372564
     30          6           0       -4.607309   -3.422334   -0.694801
     31          1           0       -5.063916   -2.944716   -1.561825
     32          1           0       -5.130469   -3.075517    0.196828
     33          1           0       -4.752241   -4.496278   -0.781150
     34          6           0       -2.026837   -5.393197   -0.839398
     35          1           0       -1.443607   -5.845702   -0.037476
     36          1           0       -1.561643   -5.660327   -1.788635
     37          1           0       -3.027342   -5.818236   -0.818658
     38          6           0       -5.302589    1.794132   -0.222316
     39          1           0       -5.636069    0.982694    0.423094
     40          1           0       -5.737354    1.639562   -1.211134
     41          1           0       -5.680689    2.734028    0.174864
     42          6           0       -3.331847    4.330729   -0.341583
     43          1           0       -2.632141    4.985680    0.164520
     44          6           0       -4.406887    4.859624   -0.916945
     45          1           0       -5.109517    4.266073   -1.474980
     46          1           0       -4.605825    5.917552   -0.872378
     47          6           0        1.885008    5.054726   -0.751671
     48          1           0        1.820574    5.552428    0.217210
     49          1           0        1.016957    5.347757   -1.340047
     50          1           0        2.781576    5.404214   -1.259008
     51          6           0        4.404608    3.081810   -0.979656
     52          1           0        4.946106    2.377231   -1.600156
     53          6           0        5.035967    4.157543   -0.522060
     54          1           0        4.559359    4.864712    0.134438
     55          1           0        6.066080    4.354306   -0.768972
     56          6           0        5.162189   -2.125150   -0.912433
     57          1           0        5.594699   -1.636040   -0.039257
     58          1           0        5.460720   -1.562996   -1.797457
     59          1           0        5.579853   -3.126083   -0.987567
     60          6           0        3.186447   -4.706463   -0.877107
     61          1           0        4.263430   -4.854905   -0.872443
     62          1           0        2.785779   -5.134532   -1.796492
     63          1           0        2.760171   -5.252267   -0.035625
     64          6           0        1.566447   -0.284304    5.046567
     65          1           0        1.499495   -1.238604    5.568987
     66          1           0        1.213776    0.497709    5.718687
     67          1           0        2.607067   -0.092825    4.804402
     68          7           0       -0.597644   -0.480823    3.803817
     69          1           0       -1.172410   -0.603107    4.621441
     70          6           0        0.761439   -0.308535    3.799302
     71          6           0       -1.019826   -0.454090    2.519976
     72          1           0       -2.042847   -0.564454    2.221591
     73          7           0       -0.009758   -0.275658    1.699345
     74          6           0        1.105851   -0.183825    2.483711
     75          1           0        2.073931   -0.035169    2.050077
 ---------------------------------------------------------------------
 Rotational constants (GHZ):           0.0940266           0.0919936           0.0593693
 General basis read from cards:  (5D, 7F)
 There are   704 symmetry adapted cartesian basis functions of A   symmetry.
 There are   661 symmetry adapted basis functions of A   symmetry.
   661 basis functions,  1342 primitive gaussians,   704 cartesian basis functions
   155 alpha electrons      151 beta electrons
       nuclear repulsion energy      5564.7251903469 Hartrees.
 NAtoms=   75 NActive=   75 NUniq=   75 SFac= 1.00D+00 NAtFMM=   60 NAOKFM=T Big=T
 Integral buffers will be    131072 words long.
 Raffenetti 2 integral format.
 Two-electron integral symmetry is turned on.
 R6APFD:  NTU= -4 IXU= 1 FactS= 1.050
 Nuclear repulsion after empirical dispersion term =     5564.5924727569 Hartrees.
 One-electron integrals computed using PRISM.
 NBasis=   661 RedAO= T EigKep=  2.62D-04  NBF=   661
 NBsUse=   661 1.00D-06 EigRej= -1.00D+00 NBFU=   661
 ExpMin= 4.20D-02 ExpMax= 3.01D+05 ExpMxC= 2.91D+03 IAcc=3 IRadAn=         5 AccDes= 0.00D+00
 Harris functional with IExCor= 3731 and IRadAn=       5 diagonalized for initial guess.
 HarFok:  IExCor= 3731 AccDes= 0.00D+00 IRadAn=         5 IDoV= 1 UseB2=F ITyADJ=14
 ICtDFT=  3500011 ScaDFX=  1.000000  1.000000  1.000000  1.000000
 FoFCou: FMM=F IPFlag=           0 FMFlag=      100000 FMFlg1=        2001
         NFxFlg=           0 DoJE=T BraDBF=F KetDBF=T FulRan=T
         wScrn=  0.000000 ICntrl=       500 IOpCl=  0 I1Cent=   200000004 NGrid=           0
         NMat0=    1 NMatS0=      1 NMatT0=    0 NMatD0=    1 NMtDS0=    0 NMtDT0=    0
 Petite list used in FoFCou.
 Initial guess <Sx>= 0.0000 <Sy>= 0.0000 <Sz>= 2.0000 <S**2>= 6.0000 S= 2.0000
 Requested convergence on RMS density matrix=1.00D-08 within 999 cycles.
 Requested convergence on MAX density matrix=1.00D-06.
 Requested convergence on             energy=1.00D-06.
 No special actions if energy rises.
 EnCoef did   100 forward-backward iterations
 EnCoef did   100 forward-backward iterations
 EnCoef did   100 forward-backward iterations
 EnCoef did     5 forward-backward iterations
 Rare condition: small coef for last iteration:  0.000D+00
 EnCoef did   100 forward-backward iterations
 EnCoef did    12 forward-backward iterations
 Restarting incremental Fock formation.
 EnCoef did     9 forward-backward iterations
 Rare condition: small coef for last iteration: -0.222D-15
 EnCoef did     9 forward-backward iterations
 Rare condition: small coef for last iteration:  0.000D+00
 EnCoef did   100 forward-backward iterations
 Rare condition: small coef for last iteration:  0.000D+00
 EnCoef did   100 forward-backward iterations
 Rare condition: small coef for last iteration:  0.104D-16
 EnCoef did   100 forward-backward iterations
 EnCoef did   100 forward-backward iterations
 Rare condition: small coef for last iteration: -0.238D-15
 EnCoef did   100 forward-backward iterations
 Rare condition: small coef for last iteration:  0.000D+00
 Rare condition: small coef for last iteration:  0.000D+00
 Restarting incremental Fock formation.
 Restarting incremental Fock formation.
 Restarting incremental Fock formation.
 Restarting incremental Fock formation.
 Restarting incremental Fock formation.
 SCF Done:  E(UAPFD) =  -2907.01843935     A.U. after  138 cycles
            NFock=138  Conv=0.69D-08     -V/T= 2.0034
 <Sx>= 0.0000 <Sy>= 0.0000 <Sz>= 2.0000 <S**2>= 6.0902 S= 2.0180
 <L.S>=  0.00000000000    
 Annihilation of the first spin contaminant:
 S**2 before annihilation     6.0902,   after     6.0004

 **********************************************************************

            Population analysis using the SCF Density.

 **********************************************************************

 Orbital symmetries:
 Alpha Orbitals:
       Occupied  (A) (A) (A) (A) (A) (A) (A) (A) (A) (A) (A) (A)
                 (A) (A) (A) (A) (A) (A) (A) (A) (A) (A) (A) (A)
                 (A) (A) (A) (A) (A) (A) (A) (A) (A) (A) (A) (A)
                 (A) (A) (A) (A) (A) (A) (A) (A) (A) (A) (A) (A)
                 (A) (A) (A) (A) (A) (A) (A) (A) (A) (A) (A) (A)
                 (A) (A) (A) (A) (A) (A) (A) (A) (A) (A) (A) (A)
                 (A) (A) (A) (A) (A) (A) (A) (A) (A) (A) (A) (A)
                 (A) (A) (A) (A) (A) (A) (A) (A) (A) (A) (A) (A)
                 (A) (A) (A) (A) (A) (A) (A) (A) (A) (A) (A) (A)
                 (A) (A) (A) (A) (A) (A) (A) (A) (A) (A) (A) (A)
                 (A) (A) (A) (A) (A) (A) (A) (A) (A) (A) (A) (A)
                 (A) (A) (A) (A) (A) (A) (A) (A) (A) (A) (A) (A)
                 (A) (A) (A) (A) (A) (A) (A) (A) (A) (A) (A)
       Virtual   (A) (A) (A) (A) (A) (A) (A) (A) (A) (A) (A) (A)
                 (A) (A) (A) (A) (A) (A) (A) (A) (A) (A) (A) (A)
                 (A) (A) (A) (A) (A) (A) (A) (A) (A) (A) (A) (A)
                 (A) (A) (A) (A) (A) (A) (A) (A) (A) (A) (A) (A)
                 (A) (A) (A) (A) (A) (A) (A) (A) (A) (A) (A) (A)
                 (A) (A) (A) (A) (A) (A) (A) (A) (A) (A) (A) (A)
                 (A) (A) (A) (A) (A) (A) (A) (A) (A) (A) (A) (A)
                 (A) (A) (A) (A) (A) (A) (A) (A) (A) (A) (A) (A)
                 (A) (A) (A) (A) (A) (A) (A) (A) (A) (A) (A) (A)
                 (A) (A) (A) (A) (A) (A) (A) (A) (A) (A) (A) (A)
                 (A) (A) (A) (A) (A) (A) (A) (A) (A) (A) (A) (A)
                 (A) (A) (A) (A) (A) (A) (A) (A) (A) (A) (A) (A)
                 (A) (A) (A) (A) (A) (A) (A) (A) (A) (A) (A) (A)
                 (A) (A) (A) (A) (A) (A) (A) (A) (A) (A) (A) (A)
                 (A) (A) (A) (A) (A) (A) (A) (A) (A) (A) (A) (A)
                 (A) (A) (A) (A) (A) (A) (A) (A) (A) (A) (A) (A)
                 (A) (A) (A) (A) (A) (A) (A) (A) (A) (A) (A) (A)
                 (A) (A) (A) (A) (A) (A) (A) (A) (A) (A) (A) (A)
                 (A) (A) (A) (A) (A) (A) (A) (A) (A) (A) (A) (A)
                 (A) (A) (A) (A) (A) (A) (A) (A) (A) (A) (A) (A)
                 (A) (A) (A) (A) (A) (A) (A) (A) (A) (A) (A) (A)
                 (A) (A) (A) (A) (A) (A) (A) (A) (A) (A) (A) (A)
                 (A) (A) (A) (A) (A) (A) (A) (A) (A) (A) (A) (A)
                 (A) (A) (A) (A) (A) (A) (A) (A) (A) (A) (A) (A)
                 (A) (A) (A) (A) (A) (A) (A) (A) (A) (A) (A) (A)
                 (A) (A) (A) (A) (A) (A) (A) (A) (A) (A) (A) (A)
                 (A) (A) (A) (A) (A) (A) (A) (A) (A) (A) (A) (A)
                 (A) (A) (A) (A) (A) (A) (A) (A) (A) (A) (A) (A)
                 (A) (A) (A) (A) (A) (A) (A) (A) (A) (A) (A) (A)
                 (A) (A) (A) (A) (A) (A) (A) (A) (A) (A) (A) (A)
                 (A) (A) (A) (A) (A) (A) (A) (A) (A) (A) (A) (A)
                 (A) (A) (A) (A) (A) (A) (A) (A) (A) (A) (A) (A)
                 (A) (A) (A) (A) (A) (A) (A) (A) (A) (A) (A) (A)
                 (A) (A) (A) (A) (A) (A) (A) (A) (A) (A) (A) (A)
                 (A) (A) (A) (A) (A) (A) (A) (A) (A) (A) (A) (A)
                 (A) (A) (A) (A) (A) (A) (A) (A) (A) (A) (A) (A)
                 (A) (A) (A) (A) (A) (A) (A) (A) (A) (A) (A) (A)
                 (A) (A) (A) (A) (A) (A) (A) (A) (A) (A) (A) (A)
                 (A) (A) (A) (A) (A) (A) (A) (A) (A) (A) (A) (A)
                 (A) (A) (A) (A) (A) (A) (A) (A) (A) (A) (A) (A)
                 (A) (A) (A) (A) (A) (A) (A) (A) (A) (A) (A) (A)
                 (A) (A) (A) (A) (A) (A) (A) (A) (A) (A) (A) (A)
                 (A) (A)
 Beta  Orbitals:
       Occupied  (A) (A) (A) (A) (A) (A) (A) (A) (A) (A) (A) (A)
                 (A) (A) (A) (A) (A) (A) (A) (A) (A) (A) (A) (A)
                 (A) (A) (A) (A) (A) (A) (A) (A) (A) (A) (A) (A)
                 (A) (A) (A) (A) (A) (A) (A) (A) (A) (A) (A) (A)
                 (A) (A) (A) (A) (A) (A) (A) (A) (A) (A) (A) (A)
                 (A) (A) (A) (A) (A) (A) (A) (A) (A) (A) (A) (A)
                 (A) (A) (A) (A) (A) (A) (A) (A) (A) (A) (A) (A)
                 (A) (A) (A) (A) (A) (A) (A) (A) (A) (A) (A) (A)
                 (A) (A) (A) (A) (A) (A) (A) (A) (A) (A) (A) (A)
                 (A) (A) (A) (A) (A) (A) (A) (A) (A) (A) (A) (A)
                 (A) (A) (A) (A) (A) (A) (A) (A) (A) (A) (A) (A)
                 (A) (A) (A) (A) (A) (A) (A) (A) (A) (A) (A) (A)
                 (A) (A) (A) (A) (A) (A) (A)
       Virtual   (A) (A) (A) (A) (A) (A) (A) (A) (A) (A) (A) (A)
                 (A) (A) (A) (A) (A) (A) (A) (A) (A) (A) (A) (A)
                 (A) (A) (A) (A) (A) (A) (A) (A) (A) (A) (A) (A)
                 (A) (A) (A) (A) (A) (A) (A) (A) (A) (A) (A) (A)
                 (A) (A) (A) (A) (A) (A) (A) (A) (A) (A) (A) (A)
                 (A) (A) (A) (A) (A) (A) (A) (A) (A) (A) (A) (A)
                 (A) (A) (A) (A) (A) (A) (A) (A) (A) (A) (A) (A)
                 (A) (A) (A) (A) (A) (A) (A) (A) (A) (A) (A) (A)
                 (A) (A) (A) (A) (A) (A) (A) (A) (A) (A) (A) (A)
                 (A) (A) (A) (A) (A) (A) (A) (A) (A) (A) (A) (A)
                 (A) (A) (A) (A) (A) (A) (A) (A) (A) (A) (A) (A)
                 (A) (A) (A) (A) (A) (A) (A) (A) (A) (A) (A) (A)
                 (A) (A) (A) (A) (A) (A) (A) (A) (A) (A) (A) (A)
                 (A) (A) (A) (A) (A) (A) (A) (A) (A) (A) (A) (A)
                 (A) (A) (A) (A) (A) (A) (A) (A) (A) (A) (A) (A)
                 (A) (A) (A) (A) (A) (A) (A) (A) (A) (A) (A) (A)
                 (A) (A) (A) (A) (A) (A) (A) (A) (A) (A) (A) (A)
                 (A) (A) (A) (A) (A) (A) (A) (A) (A) (A) (A) (A)
                 (A) (A) (A) (A) (A) (A) (A) (A) (A) (A) (A) (A)
                 (A) (A) (A) (A) (A) (A) (A) (A) (A) (A) (A) (A)
                 (A) (A) (A) (A) (A) (A) (A) (A) (A) (A) (A) (A)
                 (A) (A) (A) (A) (A) (A) (A) (A) (A) (A) (A) (A)
                 (A) (A) (A) (A) (A) (A) (A) (A) (A) (A) (A) (A)
                 (A) (A) (A) (A) (A) (A) (A) (A) (A) (A) (A) (A)
                 (A) (A) (A) (A) (A) (A) (A) (A) (A) (A) (A) (A)
                 (A) (A) (A) (A) (A) (A) (A) (A) (A) (A) (A) (A)
                 (A) (A) (A) (A) (A) (A) (A) (A) (A) (A) (A) (A)
                 (A) (A) (A) (A) (A) (A) (A) (A) (A) (A) (A) (A)
                 (A) (A) (A) (A) (A) (A) (A) (A) (A) (A) (A) (A)
                 (A) (A) (A) (A) (A) (A) (A) (A) (A) (A) (A) (A)
                 (A) (A) (A) (A) (A) (A) (A) (A) (A) (A) (A) (A)
                 (A) (A) (A) (A) (A) (A) (A) (A) (A) (A) (A) (A)
                 (A) (A) (A) (A) (A) (A) (A) (A) (A) (A) (A) (A)
                 (A) (A) (A) (A) (A) (A) (A) (A) (A) (A) (A) (A)
                 (A) (A) (A) (A) (A) (A) (A) (A) (A) (A) (A) (A)
                 (A) (A) (A) (A) (A) (A) (A) (A) (A) (A) (A) (A)
                 (A) (A) (A) (A) (A) (A) (A) (A) (A) (A) (A) (A)
                 (A) (A) (A) (A) (A) (A) (A) (A) (A) (A) (A) (A)
                 (A) (A) (A) (A) (A) (A) (A) (A) (A) (A) (A) (A)
                 (A) (A) (A) (A) (A) (A) (A) (A) (A) (A) (A) (A)
                 (A) (A) (A) (A) (A) (A) (A) (A) (A) (A) (A) (A)
                 (A) (A) (A) (A) (A) (A) (A) (A) (A) (A) (A) (A)
                 (A) (A) (A) (A) (A) (A)
 The electronic state is 5-A.
 Alpha  occ. eigenvalues -- -256.18015 -30.07320 -25.91986 -25.89920 -25.89500
 Alpha  occ. eigenvalues --  -14.42877 -14.36633 -14.33955 -14.33719 -14.33631
 Alpha  occ. eigenvalues --  -14.33565 -10.26118 -10.24284 -10.21569 -10.21503
 Alpha  occ. eigenvalues --  -10.21477 -10.21466 -10.21436 -10.21347 -10.21346
 Alpha  occ. eigenvalues --  -10.21322 -10.21303 -10.21106 -10.19966 -10.19886
 Alpha  occ. eigenvalues --  -10.19421 -10.19304 -10.19279 -10.19117 -10.19100
 Alpha  occ. eigenvalues --  -10.18986 -10.18981 -10.18947 -10.18937 -10.18842
 Alpha  occ. eigenvalues --  -10.18827 -10.18813 -10.18802 -10.18757 -10.18731
 Alpha  occ. eigenvalues --  -10.18693 -10.18665 -10.18528 -10.18485 -10.18417
 Alpha  occ. eigenvalues --   -3.53046  -2.33104  -2.28446  -2.27895  -1.05129
 Alpha  occ. eigenvalues --   -0.96685  -0.95722  -0.95650  -0.94691  -0.90717
 Alpha  occ. eigenvalues --   -0.81932  -0.81531  -0.81247  -0.80554  -0.80176
 Alpha  occ. eigenvalues --   -0.80077  -0.79306  -0.79230  -0.76435  -0.75348
 Alpha  occ. eigenvalues --   -0.74048  -0.73635  -0.72942  -0.71660  -0.70729
 Alpha  occ. eigenvalues --   -0.69913  -0.68174  -0.67762  -0.67546  -0.64521
 Alpha  occ. eigenvalues --   -0.63760  -0.63729  -0.61075  -0.60334  -0.59753
 Alpha  occ. eigenvalues --   -0.57422  -0.56362  -0.55720  -0.54153  -0.53318
 Alpha  occ. eigenvalues --   -0.53012  -0.52410  -0.50756  -0.50690  -0.50155
 Alpha  occ. eigenvalues --   -0.48673  -0.47632  -0.47504  -0.47177  -0.46993
 Alpha  occ. eigenvalues --   -0.44967  -0.44521  -0.44375  -0.44126  -0.43704
 Alpha  occ. eigenvalues --   -0.43299  -0.43196  -0.43103  -0.42924  -0.42704
 Alpha  occ. eigenvalues --   -0.42597  -0.42387  -0.42171  -0.41998  -0.41659
 Alpha  occ. eigenvalues --   -0.41320  -0.41272  -0.41079  -0.40473  -0.40198
 Alpha  occ. eigenvalues --   -0.39921  -0.39529  -0.39232  -0.39076  -0.38769
 Alpha  occ. eigenvalues --   -0.38550  -0.38270  -0.38099  -0.37807  -0.37488
 Alpha  occ. eigenvalues --   -0.37382  -0.36656  -0.36498  -0.36218  -0.35858
 Alpha  occ. eigenvalues --   -0.35433  -0.34221  -0.33984  -0.33344  -0.32989
 Alpha  occ. eigenvalues --   -0.32671  -0.31468  -0.31100  -0.30533  -0.30080
 Alpha  occ. eigenvalues --   -0.29943  -0.28983  -0.28564  -0.26644  -0.25801
 Alpha  occ. eigenvalues --   -0.25485  -0.23788  -0.23357  -0.21863  -0.21287
 Alpha  occ. eigenvalues --   -0.21076  -0.20526  -0.17513  -0.17041  -0.15624
 Alpha virt. eigenvalues --   -0.05916  -0.05702  -0.00920   0.02014   0.02638
 Alpha virt. eigenvalues --    0.03682   0.06544   0.07124   0.07696   0.08694
 Alpha virt. eigenvalues --    0.09124   0.09972   0.10430   0.11003   0.11227
 Alpha virt. eigenvalues --    0.12273   0.12324   0.12442   0.13191   0.14210
 Alpha virt. eigenvalues --    0.14389   0.14781   0.15181   0.15414   0.15665
 Alpha virt. eigenvalues --    0.15885   0.16239   0.16470   0.16664   0.16703
 Alpha virt. eigenvalues --    0.17489   0.17812   0.17964   0.18107   0.18147
 Alpha virt. eigenvalues --    0.18208   0.18757   0.19234   0.19320   0.19395
 Alpha virt. eigenvalues --    0.19546   0.20101   0.20385   0.21206   0.21383
 Alpha virt. eigenvalues --    0.21895   0.22206   0.22341   0.22855   0.23013
 Alpha virt. eigenvalues --    0.23472   0.23795   0.24628   0.24905   0.25800
 Alpha virt. eigenvalues --    0.26063   0.26537   0.26735   0.27066   0.27332
 Alpha virt. eigenvalues --    0.27704   0.27810   0.28181   0.30164   0.31008
 Alpha virt. eigenvalues --    0.31196   0.31592   0.32363   0.33409   0.33825
 Alpha virt. eigenvalues --    0.34062   0.35254   0.36043   0.36354   0.36987
 Alpha virt. eigenvalues --    0.37308   0.37727   0.38820   0.38892   0.40545
 Alpha virt. eigenvalues --    0.41875   0.42650   0.43516   0.44351   0.44545
 Alpha virt. eigenvalues --    0.44942   0.45505   0.46742   0.48375   0.48593
 Alpha virt. eigenvalues --    0.48818   0.49301   0.49899   0.51142   0.51248
 Alpha virt. eigenvalues --    0.51512   0.51849   0.52257   0.52659   0.53085
 Alpha virt. eigenvalues --    0.53110   0.53194   0.53744   0.54001   0.54217
 Alpha virt. eigenvalues --    0.54377   0.55151   0.55545   0.56316   0.56521
 Alpha virt. eigenvalues --    0.56640   0.57547   0.57942   0.58587   0.58799
 Alpha virt. eigenvalues --    0.59403   0.59737   0.59874   0.60223   0.60843
 Alpha virt. eigenvalues --    0.61215   0.61549   0.61618   0.62248   0.62679
 Alpha virt. eigenvalues --    0.63270   0.63808   0.63957   0.64373   0.65328
 Alpha virt. eigenvalues --    0.65436   0.66177   0.66346   0.66524   0.66908
 Alpha virt. eigenvalues --    0.67285   0.67342   0.67520   0.67856   0.68236
 Alpha virt. eigenvalues --    0.68457   0.68630   0.69296   0.69797   0.70645
 Alpha virt. eigenvalues --    0.70978   0.71293   0.71406   0.71984   0.72297
 Alpha virt. eigenvalues --    0.73173   0.73853   0.74406   0.75001   0.75135
 Alpha virt. eigenvalues --    0.75733   0.75908   0.76628   0.77530   0.77905
 Alpha virt. eigenvalues --    0.78026   0.78222   0.78827   0.79077   0.79212
 Alpha virt. eigenvalues --    0.79894   0.79980   0.80474   0.80705   0.81083
 Alpha virt. eigenvalues --    0.81591   0.82156   0.82423   0.83459   0.84226
 Alpha virt. eigenvalues --    0.84660   0.85053   0.86045   0.86635   0.86701
 Alpha virt. eigenvalues --    0.87394   0.87752   0.87884   0.88187   0.88398
 Alpha virt. eigenvalues --    0.88626   0.88843   0.89478   0.89716   0.90395
 Alpha virt. eigenvalues --    0.90710   0.91275   0.91705   0.91808   0.92361
 Alpha virt. eigenvalues --    0.92715   0.92803   0.93558   0.93905   0.94259
 Alpha virt. eigenvalues --    0.94511   0.94703   0.95150   0.95643   0.96007
 Alpha virt. eigenvalues --    0.96324   0.97381   0.97513   0.98216   0.98294
 Alpha virt. eigenvalues --    0.98853   0.99222   0.99861   1.00030   1.00372
 Alpha virt. eigenvalues --    1.00555   1.00941   1.01289   1.01473   1.01978
 Alpha virt. eigenvalues --    1.02653   1.03292   1.03966   1.04945   1.05152
 Alpha virt. eigenvalues --    1.05447   1.06700   1.06768   1.07053   1.07943
 Alpha virt. eigenvalues --    1.08224   1.08494   1.09563   1.10228   1.11105
 Alpha virt. eigenvalues --    1.11803   1.14179   1.14991   1.15468   1.15752
 Alpha virt. eigenvalues --    1.16785   1.17896   1.18031   1.18627   1.18914
 Alpha virt. eigenvalues --    1.19638   1.19959   1.20564   1.20804   1.21008
 Alpha virt. eigenvalues --    1.21657   1.22240   1.22598   1.23618   1.24798
 Alpha virt. eigenvalues --    1.25166   1.25686   1.26396   1.28235   1.28531
 Alpha virt. eigenvalues --    1.29631   1.30378   1.30897   1.31357   1.32059
 Alpha virt. eigenvalues --    1.32675   1.33207   1.34053   1.34715   1.35369
 Alpha virt. eigenvalues --    1.35970   1.36710   1.37561   1.37952   1.38323
 Alpha virt. eigenvalues --    1.38642   1.39198   1.40018   1.40430   1.40753
 Alpha virt. eigenvalues --    1.41012   1.41869   1.42825   1.43983   1.44855
 Alpha virt. eigenvalues --    1.45377   1.46184   1.46676   1.47864   1.48152
 Alpha virt. eigenvalues --    1.48352   1.48868   1.50567   1.51394   1.53020
 Alpha virt. eigenvalues --    1.53523   1.54670   1.54957   1.55531   1.55680
 Alpha virt. eigenvalues --    1.56621   1.57412   1.57561   1.59465   1.59933
 Alpha virt. eigenvalues --    1.60926   1.61450   1.62996   1.63233   1.64407
 Alpha virt. eigenvalues --    1.65416   1.66230   1.66596   1.68692   1.69209
 Alpha virt. eigenvalues --    1.70179   1.70822   1.72189   1.72980   1.74280
 Alpha virt. eigenvalues --    1.76228   1.79244   1.79691   1.80122   1.80340
 Alpha virt. eigenvalues --    1.80873   1.81561   1.81802   1.81970   1.82266
 Alpha virt. eigenvalues --    1.83365   1.83582   1.83857   1.84072   1.84972
 Alpha virt. eigenvalues --    1.85261   1.86412   1.86762   1.87322   1.88067
 Alpha virt. eigenvalues --    1.88557   1.88645   1.89573   1.90511   1.90783
 Alpha virt. eigenvalues --    1.91313   1.92073   1.93017   1.93526   1.93642
 Alpha virt. eigenvalues --    1.94256   1.95500   1.96198   1.96647   1.97300
 Alpha virt. eigenvalues --    1.97523   1.98917   2.00362   2.00797   2.01052
 Alpha virt. eigenvalues --    2.01584   2.02269   2.02363   2.03159   2.03827
 Alpha virt. eigenvalues --    2.04245   2.04970   2.05964   2.06965   2.07480
 Alpha virt. eigenvalues --    2.07802   2.09088   2.09276   2.09823   2.10067
 Alpha virt. eigenvalues --    2.12390   2.12574   2.13072   2.14117   2.14783
 Alpha virt. eigenvalues --    2.15443   2.15600   2.16862   2.17004   2.17245
 Alpha virt. eigenvalues --    2.18536   2.19206   2.20004   2.20688   2.22203
 Alpha virt. eigenvalues --    2.23008   2.23373   2.23547   2.24133   2.25154
 Alpha virt. eigenvalues --    2.25859   2.26720   2.26828   2.27293   2.27675
 Alpha virt. eigenvalues --    2.27935   2.28333   2.28878   2.29654   2.30253
 Alpha virt. eigenvalues --    2.30509   2.30959   2.31362   2.31581   2.32259
 Alpha virt. eigenvalues --    2.32717   2.33817   2.34124   2.35535   2.35833
 Alpha virt. eigenvalues --    2.36462   2.37050   2.37952   2.38610   2.38831
 Alpha virt. eigenvalues --    2.39109   2.39582   2.40170   2.41282   2.41837
 Alpha virt. eigenvalues --    2.42265   2.42625   2.43128   2.43293   2.44483
 Alpha virt. eigenvalues --    2.44981   2.45716   2.45999   2.46968   2.48976
 Alpha virt. eigenvalues --    2.49148   2.51292   2.51360   2.52855   2.53403
 Alpha virt. eigenvalues --    2.53500   2.54276   2.55179   2.56730   2.57234
 Alpha virt. eigenvalues --    2.58254   2.58412   2.58603   2.61284   2.61536
 Alpha virt. eigenvalues --    2.62472   2.63176   2.64037   2.66922   2.67826
 Alpha virt. eigenvalues --    2.69008   2.70142   2.70645   2.70823   2.71794
 Alpha virt. eigenvalues --    2.73148   2.74998   2.75769   2.76813   2.78403
 Alpha virt. eigenvalues --    2.79849   2.80653   2.81139   2.81947   2.88249
 Alpha virt. eigenvalues --    2.88660   2.89092   2.90110   2.91461   2.92502
 Alpha virt. eigenvalues --    2.93805   2.96564   2.97290   2.98321   2.99804
 Alpha virt. eigenvalues --    3.00159   3.00651   3.01275   3.01776   3.06095
 Alpha virt. eigenvalues --    3.06386   3.06602   3.13841   3.15158   3.15963
 Alpha virt. eigenvalues --    3.21621   3.24291   3.26556   3.30999   3.31153
 Alpha virt. eigenvalues --    3.40057   3.40778   3.41999   3.47826   3.47991
 Alpha virt. eigenvalues --    3.52189   3.59221   3.64610   3.87510   4.03379
 Alpha virt. eigenvalues --    4.22290
  Beta  occ. eigenvalues -- -256.17876 -29.99201 -25.84248 -25.83633 -25.83173
  Beta  occ. eigenvalues --  -14.42875 -14.36418 -14.33772 -14.33559 -14.33464
  Beta  occ. eigenvalues --  -14.33381 -10.26140 -10.24271 -10.21557 -10.21482
  Beta  occ. eigenvalues --  -10.21480 -10.21457 -10.21435 -10.21379 -10.21370
  Beta  occ. eigenvalues --  -10.21327 -10.21288 -10.21131 -10.19972 -10.19876
  Beta  occ. eigenvalues --  -10.19391 -10.19318 -10.19250 -10.19118 -10.19110
  Beta  occ. eigenvalues --  -10.18984 -10.18962 -10.18931 -10.18908 -10.18845
  Beta  occ. eigenvalues --  -10.18839 -10.18838 -10.18801 -10.18774 -10.18731
  Beta  occ. eigenvalues --  -10.18686 -10.18654 -10.18544 -10.18499 -10.18415
  Beta  occ. eigenvalues --   -3.33590  -2.09407  -2.09195  -2.08539  -1.05045
  Beta  occ. eigenvalues --   -0.96491  -0.95545  -0.95451  -0.94492  -0.90514
  Beta  occ. eigenvalues --   -0.81932  -0.81470  -0.81192  -0.80471  -0.80127
  Beta  occ. eigenvalues --   -0.80041  -0.79282  -0.79223  -0.76418  -0.75320
  Beta  occ. eigenvalues --   -0.74032  -0.73622  -0.72937  -0.71625  -0.70685
  Beta  occ. eigenvalues --   -0.69852  -0.68081  -0.67671  -0.67515  -0.64358
  Beta  occ. eigenvalues --   -0.63775  -0.63682  -0.61029  -0.60278  -0.59696
  Beta  occ. eigenvalues --   -0.57387  -0.56175  -0.55636  -0.54105  -0.53253
  Beta  occ. eigenvalues --   -0.52946  -0.52179  -0.50645  -0.50583  -0.50061
  Beta  occ. eigenvalues --   -0.48334  -0.47484  -0.47438  -0.47001  -0.46816
  Beta  occ. eigenvalues --   -0.44611  -0.44371  -0.44229  -0.44032  -0.43656
  Beta  occ. eigenvalues --   -0.43184  -0.43070  -0.42893  -0.42837  -0.42673
  Beta  occ. eigenvalues --   -0.42544  -0.42257  -0.42128  -0.41968  -0.41483
  Beta  occ. eigenvalues --   -0.41318  -0.41226  -0.41080  -0.40052  -0.39883
  Beta  occ. eigenvalues --   -0.39791  -0.39340  -0.39175  -0.38653  -0.38539
  Beta  occ. eigenvalues --   -0.38207  -0.37960  -0.37421  -0.37303  -0.36671
  Beta  occ. eigenvalues --   -0.36357  -0.36045  -0.35510  -0.35426  -0.34829
  Beta  occ. eigenvalues --   -0.33960  -0.33728  -0.33337  -0.32878  -0.31411
  Beta  occ. eigenvalues --   -0.31075  -0.30665  -0.29518  -0.29074  -0.28776
  Beta  occ. eigenvalues --   -0.28253  -0.26025  -0.25927  -0.23647  -0.22775
  Beta  occ. eigenvalues --   -0.22517  -0.21855  -0.21274  -0.17885  -0.17215
  Beta  occ. eigenvalues --   -0.14146
  Beta virt. eigenvalues --   -0.06521  -0.05209  -0.01106   0.00243   0.00515
  Beta virt. eigenvalues --    0.02158   0.02936   0.03462   0.03892   0.06918
  Beta virt. eigenvalues --    0.07222   0.08020   0.08926   0.09421   0.10123
  Beta virt. eigenvalues --    0.10225   0.11028   0.11236   0.11799   0.12287
  Beta virt. eigenvalues --    0.12370   0.12738   0.13210   0.14244   0.14447
  Beta virt. eigenvalues --    0.14899   0.15204   0.15681   0.15809   0.15941
  Beta virt. eigenvalues --    0.16289   0.16499   0.16708   0.16783   0.17535
  Beta virt. eigenvalues --    0.17902   0.18010   0.18113   0.18240   0.18307
  Beta virt. eigenvalues --    0.18848   0.19305   0.19372   0.19436   0.19609
  Beta virt. eigenvalues --    0.20189   0.20402   0.21212   0.21437   0.21914
  Beta virt. eigenvalues --    0.22207   0.22453   0.22982   0.23162   0.23810
  Beta virt. eigenvalues --    0.24035   0.24756   0.25202   0.26014   0.26410
  Beta virt. eigenvalues --    0.26795   0.27078   0.27349   0.27816   0.27856
  Beta virt. eigenvalues --    0.28119   0.28952   0.30384   0.31223   0.31561
  Beta virt. eigenvalues --    0.32382   0.32812   0.33771   0.34226   0.34366
  Beta virt. eigenvalues --    0.35703   0.36333   0.36578   0.37161   0.37408
  Beta virt. eigenvalues --    0.37948   0.38988   0.39379   0.40723   0.42274
  Beta virt. eigenvalues --    0.42861   0.43957   0.44409   0.44592   0.44967
  Beta virt. eigenvalues --    0.45711   0.47872   0.48596   0.48803   0.49189
  Beta virt. eigenvalues --    0.49533   0.50178   0.51311   0.51566   0.51709
  Beta virt. eigenvalues --    0.52094   0.52419   0.52700   0.53149   0.53162
  Beta virt. eigenvalues --    0.53721   0.53846   0.54109   0.54275   0.54447
  Beta virt. eigenvalues --    0.55286   0.55566   0.56478   0.56593   0.56954
  Beta virt. eigenvalues --    0.57749   0.58096   0.58646   0.58819   0.59508
  Beta virt. eigenvalues --    0.59760   0.59981   0.60310   0.60943   0.61263
  Beta virt. eigenvalues --    0.61585   0.61647   0.62261   0.62771   0.63329
  Beta virt. eigenvalues --    0.63821   0.63982   0.64477   0.65397   0.65538
  Beta virt. eigenvalues --    0.66247   0.66422   0.66613   0.67010   0.67392
  Beta virt. eigenvalues --    0.67513   0.67565   0.68043   0.68284   0.68749
  Beta virt. eigenvalues --    0.68954   0.69497   0.69875   0.70758   0.71184
  Beta virt. eigenvalues --    0.71429   0.71502   0.72195   0.72399   0.73459
  Beta virt. eigenvalues --    0.74516   0.74762   0.75202   0.75313   0.75865
  Beta virt. eigenvalues --    0.75995   0.76732   0.77588   0.77971   0.78092
  Beta virt. eigenvalues --    0.78338   0.78902   0.79293   0.79350   0.79983
  Beta virt. eigenvalues --    0.80228   0.80688   0.80830   0.81737   0.81867
  Beta virt. eigenvalues --    0.82283   0.82710   0.83563   0.84241   0.84715
  Beta virt. eigenvalues --    0.85222   0.86337   0.86693   0.86829   0.87403
  Beta virt. eigenvalues --    0.87873   0.87968   0.88249   0.88436   0.88677
  Beta virt. eigenvalues --    0.88894   0.89545   0.89858   0.90559   0.90767
  Beta virt. eigenvalues --    0.91407   0.91819   0.92239   0.92418   0.92821
  Beta virt. eigenvalues --    0.92912   0.93671   0.94027   0.94280   0.94561
  Beta virt. eigenvalues --    0.95155   0.95370   0.95718   0.96166   0.96633
  Beta virt. eigenvalues --    0.97539   0.97667   0.98355   0.98443   0.99026
  Beta virt. eigenvalues --    0.99412   0.99919   1.00111   1.00448   1.00670
  Beta virt. eigenvalues --    1.01094   1.01493   1.01642   1.02176   1.02689
  Beta virt. eigenvalues --    1.03603   1.04132   1.05130   1.05497   1.05592
  Beta virt. eigenvalues --    1.06915   1.07090   1.07376   1.08302   1.08533
  Beta virt. eigenvalues --    1.08745   1.09874   1.10481   1.11358   1.11908
  Beta virt. eigenvalues --    1.15271   1.15305   1.15778   1.16352   1.16880
  Beta virt. eigenvalues --    1.18012   1.18235   1.18872   1.19607   1.20141
  Beta virt. eigenvalues --    1.20492   1.20713   1.20932   1.21691   1.22480
  Beta virt. eigenvalues --    1.22704   1.23159   1.23897   1.25146   1.25652
  Beta virt. eigenvalues --    1.25860   1.27771   1.28629   1.29074   1.29929
  Beta virt. eigenvalues --    1.30675   1.31225   1.31440   1.32081   1.32764
  Beta virt. eigenvalues --    1.33335   1.34218   1.34867   1.35470   1.36338
  Beta virt. eigenvalues --    1.36996   1.37617   1.38015   1.38365   1.38703
  Beta virt. eigenvalues --    1.39242   1.40119   1.40605   1.40826   1.41128
  Beta virt. eigenvalues --    1.42288   1.43207   1.44466   1.45040   1.45520
  Beta virt. eigenvalues --    1.46308   1.46855   1.47929   1.48358   1.48555
  Beta virt. eigenvalues --    1.49042   1.50608   1.51903   1.53318   1.53641
  Beta virt. eigenvalues --    1.54791   1.54991   1.55612   1.55799   1.56725
  Beta virt. eigenvalues --    1.57621   1.57948   1.59776   1.60079   1.61153
  Beta virt. eigenvalues --    1.62014   1.63269   1.63447   1.64500   1.65975
  Beta virt. eigenvalues --    1.66390   1.66779   1.69149   1.69459   1.70256
  Beta virt. eigenvalues --    1.70983   1.72326   1.73119   1.74441   1.76354
  Beta virt. eigenvalues --    1.79385   1.79766   1.80364   1.80411   1.81176
  Beta virt. eigenvalues --    1.81632   1.81886   1.82240   1.82714   1.83513
  Beta virt. eigenvalues --    1.83784   1.83993   1.84204   1.85160   1.85386
  Beta virt. eigenvalues --    1.86662   1.86911   1.87408   1.88246   1.88624
  Beta virt. eigenvalues --    1.88748   1.89640   1.90662   1.91078   1.91379
  Beta virt. eigenvalues --    1.92392   1.93257   1.93603   1.93838   1.94376
  Beta virt. eigenvalues --    1.95585   1.96318   1.96887   1.97605   1.97832
  Beta virt. eigenvalues --    2.00066   2.00548   2.01053   2.01483   2.01816
  Beta virt. eigenvalues --    2.02482   2.02858   2.03311   2.03938   2.04724
  Beta virt. eigenvalues --    2.05175   2.06221   2.07109   2.07777   2.08070
  Beta virt. eigenvalues --    2.09248   2.09592   2.10207   2.10357   2.12590
  Beta virt. eigenvalues --    2.12750   2.13246   2.14274   2.14864   2.15511
  Beta virt. eigenvalues --    2.15645   2.16955   2.17060   2.17412   2.18873
  Beta virt. eigenvalues --    2.20181   2.20663   2.21235   2.22547   2.23183
  Beta virt. eigenvalues --    2.23549   2.23645   2.24749   2.25712   2.26354
  Beta virt. eigenvalues --    2.27039   2.27298   2.27642   2.28027   2.28378
  Beta virt. eigenvalues --    2.28559   2.29654   2.30299   2.30432   2.31107
  Beta virt. eigenvalues --    2.31290   2.31683   2.32370   2.32806   2.33451
  Beta virt. eigenvalues --    2.34135   2.35276   2.35823   2.36133   2.36569
  Beta virt. eigenvalues --    2.37153   2.38094   2.38670   2.38863   2.39350
  Beta virt. eigenvalues --    2.39753   2.40304   2.41362   2.42014   2.42378
  Beta virt. eigenvalues --    2.42703   2.43291   2.43359   2.44584   2.45021
  Beta virt. eigenvalues --    2.45939   2.46235   2.47339   2.49009   2.49928
  Beta virt. eigenvalues --    2.51614   2.52163   2.53056   2.53491   2.53640
  Beta virt. eigenvalues --    2.54482   2.55628   2.56885   2.57304   2.58308
  Beta virt. eigenvalues --    2.58628   2.58822   2.61441   2.61813   2.62655
  Beta virt. eigenvalues --    2.63422   2.64092   2.66951   2.67876   2.69318
  Beta virt. eigenvalues --    2.70262   2.70728   2.71109   2.71884   2.73279
  Beta virt. eigenvalues --    2.75206   2.76025   2.76938   2.78476   2.80125
  Beta virt. eigenvalues --    2.80893   2.81157   2.82066   2.88412   2.88801
  Beta virt. eigenvalues --    2.89276   2.90248   2.91556   2.92603   2.93966
  Beta virt. eigenvalues --    2.96737   2.97382   2.98432   2.99840   3.00210
  Beta virt. eigenvalues --    3.01231   3.01340   3.02133   3.06273   3.06632
  Beta virt. eigenvalues --    3.06735   3.14010   3.15338   3.16019   3.21687
  Beta virt. eigenvalues --    3.24441   3.27140   3.31031   3.31184   3.40209
  Beta virt. eigenvalues --    3.40842   3.42711   3.47972   3.48154   3.60789
  Beta virt. eigenvalues --    3.68144   3.75241   3.99023   4.14652   4.32824
          Condensed to atoms (all electrons):
          Atomic-Atomic Spin Densities.
 Mulliken charges and spin densities:
               1          2
     1  Fe   0.982395   3.851805
     2  N   -0.727812   0.034718
     3  N   -0.695943   0.043453
     4  N   -0.731206   0.031086
     5  N   -0.720317   0.047629
     6  C    0.309668  -0.023669
     7  C    0.038143   0.019915
     8  C    0.024743  -0.011853
     9  C    0.333829   0.009278
    10  C    0.329655   0.005669
    11  C    0.029306  -0.014194
    12  C    0.033718   0.014773
    13  C    0.318202  -0.022494
    14  C    0.323903  -0.018539
    15  C   -0.008419   0.018854
    16  C    0.033452  -0.013116
    17  C    0.327951   0.006859
    18  C    0.327230   0.002700
    19  C   -0.006827  -0.019681
    20  C    0.031954   0.020983
    21  C    0.302233  -0.028414
    22  C   -0.321615   0.013175
    23  H    0.163037  -0.000268
    24  C   -0.316856  -0.011132
    25  H    0.162356   0.000744
    26  C   -0.325492   0.006228
    27  H    0.163998   0.000049
    28  C   -0.307170  -0.011021
    29  H    0.164305   0.000770
    30  C   -0.608519  -0.001024
    31  H    0.193570   0.000679
    32  H    0.184042   0.000677
    33  H    0.183608   0.000371
    34  C   -0.609281   0.001551
    35  H    0.187365  -0.000478
    36  H    0.192057  -0.000672
    37  H    0.182209   0.000292
    38  C   -0.611153  -0.000858
    39  H    0.177993   0.000040
    40  H    0.190363   0.000737
    41  H    0.194466   0.000417
    42  C   -0.144939   0.007309
    43  H    0.164359  -0.000777
    44  C   -0.404952  -0.010573
    45  H    0.173753   0.000534
    46  H    0.164622   0.000571
    47  C   -0.613490   0.001610
    48  H    0.185542  -0.000770
    49  H    0.188230  -0.000288
    50  H    0.194698   0.000154
    51  C   -0.149441  -0.004755
    52  H    0.166482   0.000414
    53  C   -0.400810   0.007522
    54  H    0.173896  -0.000374
    55  H    0.165497  -0.000246
    56  C   -0.609233  -0.000471
    57  H    0.187463   0.000141
    58  H    0.190499   0.000197
    59  H    0.182897   0.000323
    60  C   -0.608409   0.001822
    61  H    0.182350   0.000234
    62  H    0.189891  -0.001022
    63  H    0.186451  -0.000925
    64  C   -0.601413   0.000441
    65  H    0.193912   0.000339
    66  H    0.192532   0.000237
    67  H    0.210505   0.000061
    68  N   -0.635545  -0.000092
    69  H    0.362379   0.002173
    70  C    0.272820   0.007292
    71  C    0.241354  -0.017400
    72  H    0.216225   0.001833
    73  N   -0.470271   0.053869
    74  C   -0.041091  -0.006886
    75  H    0.198094   0.001465
 Sum of Mulliken charges =  -0.00000   4.00000
 Mulliken charges and spin densities with hydrogens summed into heavy atoms:
               1          2
     1  Fe   0.982395   3.851805
     2  N   -0.727812   0.034718
     3  N   -0.695943   0.043453
     4  N   -0.731206   0.031086
     5  N   -0.720317   0.047629
     6  C    0.309668  -0.023669
     7  C    0.038143   0.019915
     8  C    0.024743  -0.011853
     9  C    0.333829   0.009278
    10  C    0.329655   0.005669
    11  C    0.029306  -0.014194
    12  C    0.033718   0.014773
    13  C    0.318202  -0.022494
    14  C    0.323903  -0.018539
    15  C   -0.008419   0.018854
    16  C    0.033452  -0.013116
    17  C    0.327951   0.006859
    18  C    0.327230   0.002700
    19  C   -0.006827  -0.019681
    20  C    0.031954   0.020983
    21  C    0.302233  -0.028414
    22  C   -0.158577   0.012907
    24  C   -0.154500  -0.010388
    26  C   -0.161495   0.006276
    28  C   -0.142865  -0.010251
    30  C   -0.047299   0.000703
    34  C   -0.047650   0.000693
    38  C   -0.048331   0.000335
    42  C    0.019420   0.006532
    44  C   -0.066577  -0.009468
    47  C   -0.045021   0.000705
    51  C    0.017040  -0.004341
    53  C   -0.061417   0.006903
    56  C   -0.048373   0.000189
    60  C   -0.049717   0.000109
    64  C   -0.004463   0.001079
    68  N   -0.273166   0.002082
    70  C    0.272820   0.007292
    71  C    0.457579  -0.015567
    73  N   -0.470271   0.053869
    74  C    0.157003  -0.005421
 Electronic spatial extent (au):  <R**2>=          19867.5591
 Charge=             -0.0000 electrons
 Dipole moment (field-independent basis, Debye):
    X=             -0.6884    Y=             -1.7450    Z=              5.3911  Tot=              5.7081
 Quadrupole moment (field-independent basis, Debye-Ang):
   XX=           -224.1964   YY=           -230.0536   ZZ=           -222.1553
   XY=              2.3542   XZ=             -3.6101   YZ=             -0.3326
 Traceless Quadrupole moment (field-independent basis, Debye-Ang):
   XX=              1.2720   YY=             -4.5851   ZZ=              3.3131
   XY=              2.3542   XZ=             -3.6101   YZ=             -0.3326
 Octapole moment (field-independent basis, Debye-Ang**2):
  XXX=             -0.8393  YYY=            -21.6312  ZZZ=            161.8572  XYY=              0.0429
  XXY=            -23.7273  XXZ=             -7.7833  XZZ=            -14.6045  YZZ=            -28.3146
  YYZ=             -6.4610  XYZ=              8.7076
 Hexadecapole moment (field-independent basis, Debye-Ang**3):
 XXXX=         -11549.0594 YYYY=         -11190.4063 ZZZZ=          -2704.9087 XXXY=             49.0286
 XXXZ=            -16.8308 YYYX=              2.9934 YYYZ=            106.2950 ZZZX=            -62.1875
 ZZZY=            -64.3511 XXYY=          -3822.7420 XXZZ=          -2535.3544 YYZZ=          -2596.0971
 XXYZ=            -28.0694 YYXZ=             29.3028 ZZXY=             17.4074
 N-N= 5.564592472757D+03 E-N=-1.796018389672D+04  KE= 2.897181272643D+03
                          Isotropic Fermi Contact Couplings
        Atom                 a.u.       MegaHertz       Gauss      10(-4) cm-1
     1  Fe(57)             0.46759      16.95480       6.04989       5.65551
     2  N(14)              0.09286       7.50065       2.67642       2.50195
     3  N(14)              0.09335       7.54075       2.69073       2.51532
     4  N(14)              0.09107       7.35623       2.62488       2.45377
     5  N(14)              0.08666       6.99967       2.49766       2.33484
     6  C(13)              0.00190       0.53420       0.19062       0.17819
     7  C(13)              0.00630       1.77113       0.63198       0.59079
     8  C(13)              0.00140       0.39271       0.14013       0.13099
     9  C(13)              0.00748       2.10146       0.74985       0.70097
    10  C(13)              0.00605       1.70086       0.60691       0.56734
    11  C(13)              0.00079       0.22194       0.07919       0.07403
    12  C(13)              0.00536       1.50560       0.53724       0.50221
    13  C(13)              0.00180       0.50634       0.18068       0.16890
    14  C(13)              0.00377       1.05886       0.37783       0.35320
    15  C(13)              0.00600       1.68767       0.60220       0.56294
    16  C(13)              0.00123       0.34465       0.12298       0.11496
    17  C(13)              0.00628       1.76424       0.62953       0.58849
    18  C(13)              0.00662       1.86064       0.66392       0.62064
    19  C(13)              0.00026       0.07274       0.02596       0.02426
    20  C(13)              0.00662       1.86013       0.66374       0.62047
    21  C(13)              0.00133       0.37319       0.13316       0.12448
    22  C(13)              0.00226       0.63524       0.22667       0.21189
    23  H(1)              -0.00009      -0.09908      -0.03535      -0.03305
    24  C(13)             -0.00193      -0.54213      -0.19344      -0.18083
    25  H(1)               0.00024       0.26598       0.09491       0.08872
    26  C(13)              0.00126       0.35405       0.12633       0.11810
    27  H(1)               0.00001       0.01120       0.00400       0.00374
    28  C(13)             -0.00171      -0.48161      -0.17185      -0.16065
    29  H(1)               0.00023       0.26150       0.09331       0.08723
    30  C(13)              0.00003       0.00974       0.00347       0.00325
    31  H(1)               0.00029       0.32150       0.11472       0.10724
    32  H(1)               0.00028       0.31238       0.11147       0.10420
    33  H(1)               0.00011       0.12658       0.04517       0.04222
    34  C(13)              0.00098       0.27491       0.09809       0.09170
    35  H(1)              -0.00023      -0.25773      -0.09197      -0.08597
    36  H(1)              -0.00031      -0.34799      -0.12417      -0.11608
    37  H(1)               0.00008       0.09066       0.03235       0.03024
    38  C(13)              0.00010       0.02810       0.01003       0.00937
    39  H(1)               0.00016       0.18010       0.06426       0.06008
    40  H(1)               0.00040       0.44737       0.15963       0.14923
    41  H(1)               0.00014       0.15905       0.05675       0.05305
    42  C(13)              0.00181       0.50805       0.18129       0.16947
    43  H(1)              -0.00022      -0.24237      -0.08648      -0.08085
    44  C(13)             -0.00146      -0.40941      -0.14609      -0.13656
    45  H(1)               0.00016       0.18325       0.06539       0.06113
    46  H(1)               0.00018       0.20532       0.07326       0.06849
    47  C(13)              0.00099       0.27820       0.09927       0.09280
    48  H(1)              -0.00039      -0.43856      -0.15649      -0.14629
    49  H(1)              -0.00014      -0.15308      -0.05462      -0.05106
    50  H(1)              -0.00001      -0.00630      -0.00225      -0.00210
    51  C(13)             -0.00042      -0.11766      -0.04198      -0.03925
    52  H(1)               0.00014       0.15172       0.05414       0.05061
    53  C(13)              0.00132       0.36963       0.13189       0.12330
    54  H(1)              -0.00011      -0.12546      -0.04477      -0.04185
    55  H(1)              -0.00007      -0.08248      -0.02943      -0.02751
    56  C(13)              0.00026       0.07194       0.02567       0.02400
    57  H(1)               0.00020       0.22230       0.07932       0.07415
    58  H(1)               0.00022       0.24680       0.08806       0.08232
    59  H(1)               0.00010       0.10785       0.03848       0.03597
    60  C(13)              0.00105       0.29596       0.10561       0.09872
    61  H(1)               0.00006       0.07110       0.02537       0.02372
    62  H(1)              -0.00034      -0.38143      -0.13610      -0.12723
    63  H(1)              -0.00027      -0.30081      -0.10734      -0.10034
    64  C(13)              0.00049       0.13748       0.04906       0.04586
    65  H(1)               0.00015       0.16304       0.05818       0.05438
    66  H(1)               0.00010       0.11641       0.04154       0.03883
    67  H(1)               0.00005       0.05031       0.01795       0.01678
    68  N(14)              0.00750       0.60565       0.21611       0.20202
    69  H(1)               0.00066       0.74309       0.26515       0.24787
    70  C(13)              0.00419       1.17873       0.42060       0.39318
    71  C(13)              0.00058       0.16217       0.05787       0.05409
    72  H(1)               0.00059       0.65686       0.23438       0.21910
    73  N(14)              0.12063       9.74424       3.47699       3.25033
    74  C(13)             -0.00010      -0.02803      -0.01000      -0.00935
    75  H(1)               0.00048       0.53567       0.19114       0.17868
 --------------------------------------------------------
       Center         ----  Spin Dipole Couplings  ----
                      3XX-RR        3YY-RR        3ZZ-RR
 --------------------------------------------------------
     1   Atom        0.995545      0.180618     -1.176163
     2   Atom       -0.000212      0.089261     -0.089049
     3   Atom        0.063170     -0.010159     -0.053011
     4   Atom        0.002733      0.085354     -0.088087
     5   Atom        0.066172     -0.011690     -0.054482
     6   Atom        0.047334      0.003657     -0.050991
     7   Atom       -0.003769     -0.001461      0.005230
     8   Atom        0.006066      0.016728     -0.022794
     9   Atom       -0.022808      0.043097     -0.020288
    10   Atom       -0.009447      0.031549     -0.022102
    11   Atom        0.013811      0.012270     -0.026081
    12   Atom        0.005929     -0.005745     -0.000184
    13   Atom        0.055338     -0.006581     -0.048758
    14   Atom        0.044290      0.000766     -0.045056
    15   Atom       -0.002407     -0.001204      0.003612
    16   Atom        0.005705      0.017687     -0.023391
    17   Atom       -0.021028      0.044060     -0.023033
    18   Atom       -0.008502      0.037400     -0.028897
    19   Atom        0.016784      0.015408     -0.032193
    20   Atom        0.003952     -0.008784      0.004831
    21   Atom        0.062266     -0.004687     -0.057579
    22   Atom        0.025760     -0.017289     -0.008471
    23   Atom        0.013312     -0.006663     -0.006649
    24   Atom       -0.005770      0.032588     -0.026818
    25   Atom       -0.005407      0.011652     -0.006245
    26   Atom        0.027005     -0.013703     -0.013302
    27   Atom        0.012458     -0.006195     -0.006263
    28   Atom       -0.006067      0.035640     -0.029573
    29   Atom       -0.005629      0.012307     -0.006678
    30   Atom        0.004224     -0.000460     -0.003764
    31   Atom        0.003679     -0.001070     -0.002608
    32   Atom        0.003832     -0.000881     -0.002951
    33   Atom        0.001496      0.000882     -0.002378
    34   Atom       -0.002517      0.006374     -0.003858
    35   Atom       -0.002476      0.005415     -0.002939
    36   Atom       -0.002354      0.004690     -0.002336
    37   Atom       -0.000870      0.003193     -0.002323
    38   Atom        0.006313     -0.002836     -0.003478
    39   Atom        0.005840     -0.002774     -0.003065
    40   Atom        0.004661     -0.002168     -0.002492
    41   Atom        0.003219     -0.000870     -0.002348
    42   Atom       -0.001249      0.002170     -0.000921
    43   Atom       -0.001241      0.004188     -0.002947
    44   Atom        0.000369      0.006219     -0.006589
    45   Atom        0.000926      0.000719     -0.001645
    46   Atom        0.000510      0.000593     -0.001102
    47   Atom       -0.002367      0.006398     -0.004032
    48   Atom       -0.001862      0.004468     -0.002607
    49   Atom       -0.002804      0.005641     -0.002837
    50   Atom       -0.000928      0.003177     -0.002249
    51   Atom        0.005790      0.000012     -0.005803
    52   Atom        0.004079     -0.001352     -0.002728
    53   Atom       -0.001193     -0.000282      0.001475
    54   Atom        0.000475      0.001284     -0.001759
    55   Atom        0.001714     -0.000290     -0.001424
    56   Atom        0.005914     -0.002702     -0.003212
    57   Atom        0.005318     -0.002423     -0.002894
    58   Atom        0.004733     -0.002428     -0.002305
    59   Atom        0.002934     -0.000718     -0.002216
    60   Atom       -0.000347      0.003754     -0.003407
    61   Atom        0.000870      0.001337     -0.002207
    62   Atom       -0.000831      0.003082     -0.002252
    63   Atom       -0.000851      0.003732     -0.002881
    64   Atom       -0.002708     -0.004052      0.006759
    65   Atom       -0.002111     -0.002258      0.004369
    66   Atom       -0.002255     -0.002431      0.004686
    67   Atom       -0.000900     -0.003206      0.004106
    68   Atom       -0.005909     -0.015948      0.021858
    69   Atom       -0.003740     -0.004594      0.008334
    70   Atom       -0.010215     -0.004102      0.014317
    71   Atom        0.003410     -0.047734      0.044324
    72   Atom        0.001847     -0.017116      0.015269
    73   Atom       -0.126122     -0.094903      0.221025
    74   Atom       -0.001633     -0.032705      0.034338
    75   Atom        0.007143     -0.018281      0.011138
 --------------------------------------------------------
                        XY            XZ            YZ
 --------------------------------------------------------
     1   Atom        1.583331      0.003506      0.089110
     2   Atom        0.154154      0.015533      0.018758
     3   Atom       -0.141276     -0.027066      0.020759
     4   Atom        0.150463     -0.022550     -0.031701
     5   Atom       -0.148288      0.009471     -0.008483
     6   Atom        0.027243      0.007314      0.005285
     7   Atom        0.013061      0.000502     -0.001047
     8   Atom        0.011209      0.002467      0.004453
     9   Atom        0.011624      0.000958      0.005282
    10   Atom       -0.026132     -0.003579      0.004600
    11   Atom       -0.012497     -0.002567      0.002328
    12   Atom       -0.011471     -0.000927      0.000084
    13   Atom       -0.012031     -0.009034      0.006678
    14   Atom        0.026021     -0.011578     -0.003784
    15   Atom        0.012931      0.001525     -0.002092
    16   Atom        0.010975     -0.004483     -0.004146
    17   Atom        0.013136      0.000341     -0.002164
    18   Atom       -0.027545      0.000806     -0.000319
    19   Atom       -0.013118     -0.001105     -0.000427
    20   Atom       -0.011771      0.001303      0.000504
    21   Atom       -0.012481     -0.003064      0.001043
    22   Atom        0.005669      0.001770      0.000990
    23   Atom        0.002501      0.000743      0.000067
    24   Atom       -0.005504     -0.002469      0.007996
    25   Atom       -0.002651     -0.000408      0.002296
    26   Atom        0.005062     -0.004822     -0.000031
    27   Atom        0.002132     -0.001816     -0.000190
    28   Atom       -0.005587     -0.000616     -0.001103
    29   Atom       -0.002648      0.000089     -0.000400
    30   Atom        0.004983      0.000581      0.000379
    31   Atom        0.003525      0.001785      0.000872
    32   Atom        0.003743     -0.000791     -0.000352
    33   Atom        0.003558      0.000395      0.000366
    34   Atom        0.003009      0.000312      0.001036
    35   Atom        0.001940     -0.000061     -0.000413
    36   Atom        0.001980      0.000514      0.002088
    37   Atom        0.002673      0.000239      0.000504
    38   Atom       -0.003313     -0.000247      0.000004
    39   Atom       -0.001710     -0.001273      0.000190
    40   Atom       -0.002334      0.001299     -0.000323
    41   Atom       -0.003039     -0.000476      0.000355
    42   Atom       -0.004194     -0.002704     -0.000861
    43   Atom       -0.003365     -0.000350      0.000771
    44   Atom       -0.003511      0.007693      0.000139
    45   Atom       -0.003276      0.000603     -0.000883
    46   Atom       -0.001762      0.000493     -0.000261
    47   Atom        0.003120     -0.000195     -0.000842
    48   Atom        0.002307      0.000170      0.000653
    49   Atom        0.001691     -0.000287     -0.001672
    50   Atom        0.002635     -0.000462     -0.000954
    51   Atom        0.005666     -0.001835      0.001623
    52   Atom        0.003580     -0.001825     -0.000871
    53   Atom        0.001703      0.002044     -0.004481
    54   Atom        0.002430      0.000129      0.000458
    55   Atom        0.001987     -0.000325     -0.000364
    56   Atom       -0.003176     -0.000971      0.000342
    57   Atom       -0.002056      0.000465     -0.000012
    58   Atom       -0.001829     -0.002137      0.000423
    59   Atom       -0.002816     -0.000630      0.000345
    60   Atom       -0.004855     -0.000608      0.000826
    61   Atom       -0.003179     -0.000395      0.000427
    62   Atom       -0.003423     -0.000992      0.001795
    63   Atom       -0.003759      0.000150     -0.000375
    64   Atom       -0.000061      0.003595     -0.000262
    65   Atom       -0.000337      0.001912     -0.001347
    66   Atom        0.000143      0.001549      0.000875
    67   Atom        0.000090      0.003939      0.000096
    68   Atom        0.003430     -0.002035     -0.000052
    69   Atom        0.000410     -0.002728     -0.001091
    70   Atom       -0.000331      0.003934     -0.001594
    71   Atom        0.002658     -0.024640     -0.002857
    72   Atom        0.003700     -0.025648     -0.005080
    73   Atom       -0.005396      0.012613     -0.017213
    74   Atom       -0.000907      0.028572     -0.004659
    75   Atom        0.001197      0.026883      0.001265
 --------------------------------------------------------


 ---------------------------------------------------------------------------------
              Anisotropic Spin Dipole Couplings in Principal Axis System
 ---------------------------------------------------------------------------------

       Atom             a.u.   MegaHertz   Gauss  10(-4) cm-1        Axes

              Baa    -1.2063   -20.885    -7.452    -6.967  0.2289 -0.3204  0.9192
     1 Fe(57) Bbb    -1.0176   -17.618    -6.287    -5.877 -0.5688  0.7223  0.3934
              Bcc     2.2240    38.503    13.739    12.843  0.7900  0.6129  0.0169
 
              Baa    -0.1160    -4.476    -1.597    -1.493  0.8008 -0.5971 -0.0459
     2 N(14)  Bbb    -0.0910    -3.509    -1.252    -1.171 -0.0124 -0.0930  0.9956
              Bcc     0.2070     7.985     2.849     2.664  0.5988  0.7967  0.0819
 
              Baa    -0.1195    -4.607    -1.644    -1.537  0.6121  0.7908  0.0023
     3 N(14)  Bbb    -0.0581    -2.239    -0.799    -0.747  0.1144 -0.0914  0.9892
              Bcc     0.1775     6.846     2.443     2.284  0.7825 -0.6052 -0.1464
 
              Baa    -0.1121    -4.322    -1.542    -1.442  0.7883 -0.6116 -0.0672
     4 N(14)  Bbb    -0.0932    -3.593    -1.282    -1.198  0.1333  0.0632  0.9890
              Bcc     0.2052     7.915     2.824     2.640  0.6006  0.7887 -0.1314
 
              Baa    -0.1261    -4.863    -1.735    -1.622  0.6103  0.7921  0.0131
     5 N(14)  Bbb    -0.0552    -2.127    -0.759    -0.710 -0.0505  0.0224  0.9985
              Bcc     0.1812     6.990     2.494     2.332  0.7906 -0.6100  0.0537
 
              Baa    -0.0518    -6.945    -2.478    -2.317 -0.0548 -0.0681  0.9962
     6 C(13)  Bbb    -0.0094    -1.256    -0.448    -0.419 -0.4367  0.8988  0.0374
              Bcc     0.0611     8.201     2.926     2.736  0.8979  0.4330  0.0790
 
              Baa    -0.0158    -2.118    -0.756    -0.706  0.7360 -0.6750 -0.0512
     7 C(13)  Bbb     0.0052     0.704     0.251     0.235  0.0932  0.0261  0.9953
              Bcc     0.0105     1.413     0.504     0.471  0.6705  0.7373 -0.0821
 
              Baa    -0.0233    -3.133    -1.118    -1.045 -0.0462 -0.0975  0.9942
     8 C(13)  Bbb    -0.0010    -0.136    -0.048    -0.045  0.8468 -0.5318 -0.0128
              Bcc     0.0244     3.268     1.166     1.090  0.5300  0.8412  0.1072
 
              Baa    -0.0248    -3.328    -1.187    -1.110  0.9857 -0.1678 -0.0130
     9 C(13)  Bbb    -0.0207    -2.781    -0.992    -0.928 -0.0009 -0.0823  0.9966
              Bcc     0.0455     6.109     2.180     2.038  0.1683  0.9824  0.0813
 
              Baa    -0.0236    -3.166    -1.130    -1.056  0.6055  0.2232  0.7639
    10 C(13)  Bbb    -0.0212    -2.839    -1.013    -0.947  0.6649  0.3855 -0.6398
              Bcc     0.0447     6.005     2.143     2.003 -0.4373  0.8953  0.0850
 
              Baa    -0.0263    -3.531    -1.260    -1.178  0.0501 -0.0440  0.9978
    11 C(13)  Bbb     0.0005     0.070     0.025     0.023  0.6848  0.7287 -0.0023
              Bcc     0.0258     3.461     1.235     1.155  0.7270 -0.6834 -0.0667
 
              Baa    -0.0128    -1.717    -0.612    -0.573  0.5234  0.8515  0.0328
    12 C(13)  Bbb    -0.0002    -0.030    -0.011    -0.010  0.0366 -0.0610  0.9975
              Bcc     0.0130     1.746     0.623     0.583  0.8513 -0.5208 -0.0631
 
              Baa    -0.0503    -6.748    -2.408    -2.251  0.0695 -0.1320  0.9888
    13 C(13)  Bbb    -0.0083    -1.109    -0.396    -0.370  0.2004  0.9728  0.1157
              Bcc     0.0585     7.857     2.803     2.621  0.9772 -0.1902 -0.0941
 
              Baa    -0.0465    -6.245    -2.228    -2.083  0.1232  0.0116  0.9923
    14 C(13)  Bbb    -0.0113    -1.521    -0.543    -0.507 -0.4164  0.9083  0.0410
              Bcc     0.0579     7.766     2.771     2.590  0.9008  0.4182 -0.1167
 
              Baa    -0.0151    -2.026    -0.723    -0.676  0.7151 -0.6859 -0.1350
    15 C(13)  Bbb     0.0039     0.527     0.188     0.176  0.1411 -0.0474  0.9889
              Bcc     0.0112     1.499     0.535     0.500  0.6846  0.7262 -0.0629
 
              Baa    -0.0242    -3.251    -1.160    -1.084  0.1243  0.0654  0.9901
    16 C(13)  Bbb    -0.0007    -0.092    -0.033    -0.031  0.8490 -0.5235 -0.0720
              Bcc     0.0249     3.343     1.193     1.115  0.5136  0.8495 -0.1206
 
              Baa    -0.0241    -3.237    -1.155    -1.080  0.7909 -0.1710 -0.5875
    17 C(13)  Bbb    -0.0226    -3.026    -1.080    -1.009  0.5816 -0.0884  0.8087
              Bcc     0.0467     6.263     2.235     2.089  0.1902  0.9813 -0.0295
 
              Baa    -0.0289    -3.885    -1.386    -1.296 -0.0745 -0.0261  0.9969
    18 C(13)  Bbb    -0.0214    -2.866    -1.023    -0.956  0.9025  0.4235  0.0786
              Bcc     0.0503     6.751     2.409     2.252 -0.4242  0.9055 -0.0080
 
              Baa    -0.0322    -4.325    -1.543    -1.443  0.0269  0.0164  0.9995
    19 C(13)  Bbb     0.0030     0.402     0.143     0.134  0.6876  0.7255 -0.0304
              Bcc     0.0292     3.923     1.400     1.309  0.7256 -0.6881 -0.0083
 
              Baa    -0.0159    -2.128    -0.759    -0.710  0.5127  0.8569 -0.0532
    20 C(13)  Bbb     0.0048     0.640     0.228     0.214 -0.0910  0.1158  0.9891
              Bcc     0.0111     1.488     0.531     0.496  0.8537 -0.5022  0.1374
 
              Baa    -0.0577    -7.738    -2.761    -2.581  0.0241 -0.0140  0.9996
    21 C(13)  Bbb    -0.0069    -0.930    -0.332    -0.310  0.1779  0.9840  0.0095
              Bcc     0.0646     8.669     3.093     2.892  0.9838 -0.1776 -0.0262
 
              Baa    -0.0181    -2.427    -0.866    -0.809 -0.1247  0.9890 -0.0789
    22 C(13)  Bbb    -0.0085    -1.142    -0.408    -0.381 -0.0632  0.0715  0.9954
              Bcc     0.0266     3.569     1.273     1.190  0.9902  0.1291  0.0536
 
              Baa    -0.0070    -3.721    -1.328    -1.241 -0.1249  0.9889  0.0807
    23 H(1)   Bbb    -0.0067    -3.561    -1.271    -1.188 -0.0265 -0.0846  0.9961
              Bcc     0.0136     7.282     2.598     2.429  0.9918  0.1222  0.0367
 
              Baa    -0.0280    -3.759    -1.341    -1.254  0.0793 -0.1233  0.9892
    24 C(13)  Bbb    -0.0065    -0.867    -0.310    -0.289  0.9866  0.1514 -0.0602
              Bcc     0.0345     4.626     1.651     1.543 -0.1423  0.9808  0.1337
 
              Baa    -0.0065    -3.490    -1.245    -1.164  0.0972 -0.1107  0.9891
    25 H(1)   Bbb    -0.0058    -3.097    -1.105    -1.033  0.9840  0.1598 -0.0788
              Bcc     0.0123     6.588     2.351     2.197 -0.1493  0.9809  0.1244
 
              Baa    -0.0147    -1.971    -0.703    -0.657 -0.1630  0.8199 -0.5488
    26 C(13)  Bbb    -0.0135    -1.810    -0.646    -0.604  0.0286  0.5599  0.8281
              Bcc     0.0282     3.781     1.349     1.261  0.9862  0.1193 -0.1147
 
              Baa    -0.0065    -3.442    -1.228    -1.148  0.1456 -0.6757  0.7226
    27 H(1)   Bbb    -0.0064    -3.427    -1.223    -1.143 -0.0164  0.7286  0.6847
              Bcc     0.0129     6.868     2.451     2.291  0.9892  0.1115 -0.0950
 
              Baa    -0.0296    -3.974    -1.418    -1.326  0.0308  0.0195  0.9993
    28 C(13)  Bbb    -0.0068    -0.909    -0.325    -0.303  0.9910  0.1297 -0.0330
              Bcc     0.0364     4.883     1.742     1.629 -0.1302  0.9914 -0.0154
 
              Baa    -0.0067    -3.569    -1.273    -1.190 -0.0475  0.0144  0.9988
    29 H(1)   Bbb    -0.0060    -3.207    -1.144    -1.070  0.9886  0.1439  0.0450
              Bcc     0.0127     6.775     2.418     2.260 -0.1431  0.9895 -0.0211
 
              Baa    -0.0038    -0.511    -0.182    -0.170 -0.0275 -0.0720  0.9970
    30 C(13)  Bbb    -0.0036    -0.486    -0.174    -0.162 -0.5379  0.8418  0.0460
              Bcc     0.0074     0.997     0.356     0.333  0.8426  0.5350  0.0619
 
              Baa    -0.0031    -1.651    -0.589    -0.551 -0.3721  0.2647  0.8896
    31 H(1)   Bbb    -0.0029    -1.556    -0.555    -0.519 -0.3465  0.8496 -0.3977
              Bcc     0.0060     3.207     1.144     1.070  0.8611  0.4562  0.2244
 
              Baa    -0.0031    -1.642    -0.586    -0.548  0.3118 -0.3928  0.8651
    32 H(1)   Bbb    -0.0029    -1.550    -0.553    -0.517 -0.3779  0.7841  0.4923
              Bcc     0.0060     3.191     1.139     1.065  0.8718  0.4804 -0.0961
 
              Baa    -0.0024    -1.290    -0.460    -0.430 -0.0151 -0.0940  0.9955
    33 H(1)   Bbb    -0.0024    -1.271    -0.454    -0.424 -0.6781  0.7326  0.0589
              Bcc     0.0048     2.562     0.914     0.854  0.7348  0.6741  0.0748
 
              Baa    -0.0040    -0.532    -0.190    -0.177 -0.0172 -0.0948  0.9953
    34 C(13)  Bbb    -0.0034    -0.462    -0.165    -0.154  0.9563 -0.2920 -0.0113
              Bcc     0.0074     0.993     0.354     0.331  0.2918  0.9517  0.0957
 
              Baa    -0.0030    -1.590    -0.567    -0.530 -0.5169  0.1608  0.8408
    35 H(1)   Bbb    -0.0029    -1.550    -0.553    -0.517  0.8256 -0.1658  0.5393
              Bcc     0.0059     3.141     1.121     1.048  0.2261  0.9730 -0.0471
 
              Baa    -0.0029    -1.560    -0.557    -0.520  0.4367 -0.3418  0.8321
    36 H(1)   Bbb    -0.0029    -1.523    -0.543    -0.508  0.8659 -0.0911 -0.4919
              Bcc     0.0058     3.083     1.100     1.028  0.2439  0.9354  0.2562
 
              Baa    -0.0024    -1.264    -0.451    -0.422  0.0168 -0.0983  0.9950
    37 H(1)   Bbb    -0.0022    -1.171    -0.418    -0.391  0.8965 -0.4392 -0.0586
              Bcc     0.0046     2.435     0.869     0.812  0.4428  0.8930  0.0808
 
              Baa    -0.0039    -0.526    -0.188    -0.176  0.3074  0.9375  0.1634
    38 C(13)  Bbb    -0.0035    -0.466    -0.166    -0.155 -0.0300 -0.1620  0.9863
              Bcc     0.0074     0.992     0.354     0.331  0.9511 -0.3081 -0.0217
 
              Baa    -0.0033    -1.739    -0.620    -0.580  0.1852  0.2856  0.9403
    39 H(1)   Bbb    -0.0031    -1.645    -0.587    -0.549  0.1356  0.9403 -0.3123
              Bcc     0.0063     3.384     1.207     1.129  0.9733 -0.1854 -0.1354
 
              Baa    -0.0029    -1.556    -0.555    -0.519  0.3295  0.8815 -0.3382
    40 H(1)   Bbb    -0.0027    -1.433    -0.511    -0.478 -0.0455  0.3726  0.9269
              Bcc     0.0056     2.989     1.067     0.997  0.9431 -0.2900  0.1629
 
              Baa    -0.0025    -1.357    -0.484    -0.453  0.3655  0.7739 -0.5172
    41 H(1)   Bbb    -0.0023    -1.249    -0.446    -0.417  0.3054  0.4252  0.8520
              Bcc     0.0049     2.606     0.930     0.869  0.8793 -0.4693 -0.0809
 
              Baa    -0.0057    -0.759    -0.271    -0.253  0.7375  0.4505  0.5031
    42 C(13)  Bbb     0.0005     0.073     0.026     0.024 -0.3322 -0.4066  0.8511
              Bcc     0.0051     0.686     0.245     0.229 -0.5880  0.7948  0.1502
 
              Baa    -0.0030    -1.617    -0.577    -0.539 -0.0414 -0.1252  0.9913
    43 H(1)   Bbb    -0.0028    -1.520    -0.542    -0.507  0.9022  0.4216  0.0909
              Bcc     0.0059     3.136     1.119     1.046 -0.4293  0.8981  0.0955
 
              Baa    -0.0118    -1.582    -0.564    -0.528 -0.5547 -0.1145  0.8241
    44 C(13)  Bbb     0.0030     0.400     0.143     0.134  0.6005  0.6305  0.4918
              Bcc     0.0088     1.181     0.421     0.394 -0.5759  0.7677 -0.2810
 
              Baa    -0.0025    -1.344    -0.480    -0.448  0.6322  0.7184  0.2901
    45 H(1)   Bbb    -0.0018    -0.942    -0.336    -0.314 -0.3250 -0.0940  0.9410
              Bcc     0.0043     2.286     0.816     0.763  0.7033 -0.6892  0.1741
 
              Baa    -0.0014    -0.729    -0.260    -0.243 -0.5941 -0.4450  0.6701
    46 H(1)   Bbb    -0.0010    -0.549    -0.196    -0.183  0.4036  0.5557  0.7268
              Bcc     0.0024     1.277     0.456     0.426 -0.6958  0.7023 -0.1505
 
              Baa    -0.0041    -0.551    -0.196    -0.184 -0.0674  0.0996  0.9927
    47 C(13)  Bbb    -0.0034    -0.450    -0.161    -0.150  0.9506 -0.2959  0.0942
              Bcc     0.0075     1.001     0.357     0.334  0.3031  0.9500 -0.0748
 
              Baa    -0.0027    -1.433    -0.511    -0.478  0.4375 -0.2206  0.8717
    48 H(1)   Bbb    -0.0026    -1.383    -0.493    -0.461  0.8447 -0.2315 -0.4825
              Bcc     0.0053     2.816     1.005     0.939  0.3083  0.9475  0.0851
 
              Baa    -0.0032    -1.695    -0.605    -0.565 -0.5464  0.2560  0.7975
    49 H(1)   Bbb    -0.0031    -1.657    -0.591    -0.553  0.8168 -0.0480  0.5750
              Bcc     0.0063     3.352     1.196     1.118  0.1855  0.9655 -0.1829
 
              Baa    -0.0024    -1.287    -0.459    -0.429  0.0507  0.1447  0.9882
    50 H(1)   Bbb    -0.0022    -1.182    -0.422    -0.394  0.8996 -0.4364  0.0177
              Bcc     0.0046     2.469     0.881     0.824  0.4338  0.8880 -0.1523
 
              Baa    -0.0073    -0.976    -0.348    -0.326  0.3047 -0.4267  0.8515
    51 C(13)  Bbb    -0.0020    -0.272    -0.097    -0.091 -0.4169  0.7441  0.5220
              Bcc     0.0093     1.248     0.445     0.416  0.8563  0.5141 -0.0488
 
              Baa    -0.0032    -1.705    -0.608    -0.569  0.3676 -0.2977  0.8811
    52 H(1)   Bbb    -0.0031    -1.662    -0.593    -0.554 -0.3169  0.8506  0.4196
              Bcc     0.0063     3.367     1.201     1.123  0.8743  0.4334 -0.2184
 
              Baa    -0.0055    -0.744    -0.266    -0.248 -0.5165  0.6457  0.5624
    53 C(13)  Bbb     0.0003     0.046     0.016     0.015  0.8518  0.4545  0.2606
              Bcc     0.0052     0.699     0.249     0.233  0.0873 -0.6136  0.7847
 
              Baa    -0.0019    -1.021    -0.364    -0.341  0.3463 -0.3857  0.8552
    54 H(1)   Bbb    -0.0015    -0.782    -0.279    -0.261  0.6844 -0.5195 -0.5115
              Bcc     0.0034     1.803     0.643     0.601  0.6416  0.7624  0.0841
 
              Baa    -0.0016    -0.872    -0.311    -0.291 -0.3398  0.6788  0.6509
    55 H(1)   Bbb    -0.0014    -0.722    -0.258    -0.241  0.4129 -0.5142  0.7517
              Bcc     0.0030     1.594     0.569     0.532  0.8451  0.5242 -0.1055
 
              Baa    -0.0037    -0.503    -0.179    -0.168  0.3074  0.9503 -0.0504
    56 C(13)  Bbb    -0.0033    -0.445    -0.159    -0.148  0.1104  0.0170  0.9937
              Bcc     0.0071     0.948     0.338     0.316  0.9452 -0.3110 -0.0997
 
              Baa    -0.0030    -1.616    -0.576    -0.539  0.2118  0.7072 -0.6745
    57 H(1)   Bbb    -0.0028    -1.508    -0.538    -0.503  0.1258  0.6647  0.7364
              Bcc     0.0059     3.123     1.114     1.042  0.9692 -0.2409  0.0519
 
              Baa    -0.0030    -1.583    -0.565    -0.528  0.3431  0.5904  0.7306
    58 H(1)   Bbb    -0.0028    -1.491    -0.532    -0.497  0.0092  0.7756 -0.6311
              Bcc     0.0058     3.074     1.097     1.025  0.9393 -0.2233 -0.2606
 
              Baa    -0.0023    -1.223    -0.436    -0.408  0.0704 -0.0917  0.9933
    59 H(1)   Bbb    -0.0022    -1.200    -0.428    -0.400  0.4814  0.8753  0.0467
              Bcc     0.0045     2.423     0.864     0.808  0.8737 -0.4748 -0.1058
 
              Baa    -0.0036    -0.482    -0.172    -0.161  0.7507  0.4406  0.4923
    60 C(13)  Bbb    -0.0035    -0.467    -0.167    -0.156 -0.3654 -0.3440  0.8650
              Bcc     0.0071     0.949     0.339     0.317 -0.5504  0.8292  0.0973
 
              Baa    -0.0023    -1.205    -0.430    -0.402  0.0556 -0.0692  0.9961
    61 H(1)   Bbb    -0.0021    -1.112    -0.397    -0.371  0.7330  0.6802  0.0064
              Bcc     0.0043     2.317     0.827     0.773 -0.6780  0.7297  0.0885
 
              Baa    -0.0028    -1.518    -0.542    -0.507  0.6352  0.5354 -0.5566
    62 H(1)   Bbb    -0.0028    -1.472    -0.525    -0.491  0.6014  0.1092  0.7914
              Bcc     0.0056     2.990     1.067     0.997 -0.4845  0.8375  0.2526
 
              Baa    -0.0030    -1.597    -0.570    -0.533  0.7451  0.4443  0.4975
    63 H(1)   Bbb    -0.0029    -1.531    -0.546    -0.511 -0.4537 -0.2091  0.8663
              Bcc     0.0059     3.127     1.116     1.043 -0.4889  0.8711 -0.0458
 
              Baa    -0.0041    -0.545    -0.195    -0.182 -0.1600  0.9841  0.0769
    64 C(13)  Bbb    -0.0039    -0.525    -0.187    -0.175  0.9342  0.1761 -0.3104
              Bcc     0.0080     1.070     0.382     0.357  0.3190 -0.0222  0.9475
 
              Baa    -0.0026    -1.409    -0.503    -0.470  0.9266 -0.2304 -0.2971
    65 H(1)   Bbb    -0.0025    -1.340    -0.478    -0.447  0.2732  0.9555  0.1112
              Bcc     0.0052     2.749     0.981     0.917  0.2582 -0.1842  0.9484
 
              Baa    -0.0026    -1.392    -0.497    -0.464  0.8369  0.4935 -0.2369
    66 H(1)   Bbb    -0.0025    -1.340    -0.478    -0.447 -0.5071  0.8619  0.0043
              Bcc     0.0051     2.732     0.975     0.911  0.2063  0.1166  0.9715
 
              Baa    -0.0032    -1.716    -0.612    -0.572 -0.1942  0.9767  0.0917
    67 H(1)   Bbb    -0.0031    -1.631    -0.582    -0.544  0.8547  0.2143 -0.4729
              Bcc     0.0063     3.346     1.194     1.116  0.4815  0.0134  0.8763
 
              Baa    -0.0170    -0.656    -0.234    -0.219 -0.2975  0.9546 -0.0143
    68 N(14)  Bbb    -0.0050    -0.193    -0.069    -0.064  0.9519  0.2977  0.0727
              Bcc     0.0220     0.849     0.303     0.283 -0.0737 -0.0080  0.9972
 
              Baa    -0.0048    -2.539    -0.906    -0.847 -0.3755  0.9268 -0.0010
    69 H(1)   Bbb    -0.0043    -2.273    -0.811    -0.758  0.9025  0.3659  0.2272
              Bcc     0.0090     4.812     1.717     1.605 -0.2109 -0.0844  0.9739
 
              Baa    -0.0108    -1.453    -0.519    -0.485  0.9880  0.0122 -0.1538
    70 C(13)  Bbb    -0.0042    -0.569    -0.203    -0.190  0.0010  0.9963  0.0854
              Bcc     0.0151     2.022     0.722     0.675  0.1543 -0.0845  0.9844
 
              Baa    -0.0479    -6.428    -2.294    -2.144 -0.0423  0.9989  0.0196
    71 C(13)  Bbb    -0.0081    -1.090    -0.389    -0.364  0.9041  0.0299  0.4264
              Bcc     0.0560     7.518     2.683     2.508 -0.4253 -0.0358  0.9043
 
              Baa    -0.0181    -9.651    -3.444    -3.219  0.5831  0.6063  0.5407
    72 H(1)   Bbb    -0.0177    -9.458    -3.375    -3.155 -0.5405  0.7864 -0.2990
              Bcc     0.0358    19.109     6.819     6.374 -0.6065 -0.1178  0.7863
 
              Baa    -0.1273    -4.910    -1.752    -1.638  0.9883  0.1495 -0.0284
    73 N(14)  Bbb    -0.0951    -3.669    -1.309    -1.224 -0.1476  0.9872  0.0596
              Bcc     0.2224     8.579     3.061     2.862  0.0370 -0.0548  0.9978
 
              Baa    -0.0331    -4.440    -1.584    -1.481 -0.0549  0.9942  0.0920
    74 C(13)  Bbb    -0.0173    -2.318    -0.827    -0.773  0.8747  0.0923 -0.4759
              Bcc     0.0504     6.758     2.411     2.254  0.4816 -0.0543  0.8747
 
              Baa    -0.0183    -9.784    -3.491    -3.264 -0.0451  0.9990 -0.0017
    75 H(1)   Bbb    -0.0178    -9.506    -3.392    -3.171  0.7318  0.0319 -0.6808
              Bcc     0.0362    19.290     6.883     6.434  0.6801  0.0320  0.7325
 

 ---------------------------------------------------------------------------------

 Unable to Open any file for archive entry.
 1\1\GINC-BGN1012\SP\UAPFD\Gen\C34H34Fe1N6(5)\BEBJONES\15-Oct-2024\0\\#
  apfd/gen scf=maxcycle=999 geom=check\\1vxa_II_Q\\0,5\Fe,0,14.45902542
 83,27.9349639699,4.7846206065\N,0,14.7022670634,29.2358666073,6.282435
 2174\N,0,15.514431601,29.1839367245,3.5853622731\N,0,14.3795754549,26.
 6282223762,3.2654468326\N,0,13.6900798863,26.6042826615,6.0207691282\C
 ,0,14.4124584902,29.013825093,7.5982298169\C,0,14.7902024354,30.146130
 5842,8.4119600052\C,0,15.3764374621,31.037686175,7.5700249956\C,0,15.3
 498199061,30.4337147438,6.2565709868\C,0,16.009858762,30.4123595568,3.
 9044657823\C,0,16.6009236299,31.0507896182,2.7498385013\C,0,16.5282143
 248,30.1470375762,1.7378339269\C,0,15.8477023128,28.9905874253,2.27775
 72696\C,0,14.9142581097,26.7453139108,2.0226266159\C,0,14.8336719584,2
 5.4943888799,1.2983014184\C,0,14.1774446882,24.6231657179,2.1261548439
 \C,0,13.9452333233,25.33510564,3.3575275135\C,0,13.3134984835,25.32927
 43488,5.731689189\C,0,12.8178116845,24.6551260309,6.9145865712\C,0,12.
 8799980976,25.5768204096,7.9263834322\C,0,13.4535839841,26.7674931901,
 7.3555120485\C,0,13.8006976961,27.8821711885,8.0995352677\H,0,13.61094
 73477,27.8495277421,9.1615817984\C,0,15.9646980815,30.9932167206,5.155
 0130204\H,0,16.4348095031,31.9564099209,5.2782165114\C,0,15.5432137163
 ,27.8736259976,1.528392378\H,0,15.8828548331,27.8504339088,0.504407622
 6\C,0,13.4092586114,24.7414569931,4.4863314339\H,0,13.0943706578,23.71
 30723297,4.3979657849\C,0,14.569200158,30.2374576592,9.8829007113\H,0,
 15.1035866709,29.4402401527,10.3998292977\H,0,13.5091572419,30.1431645
 353,10.1203836058\H,0,14.9230786652,31.1906362604,10.2676585593\C,0,15
 .9684060533,32.3717431659,7.8701674307\H,0,15.520386202,33.1406281928,
 7.2408101442\H,0,17.042560532,32.3646556497,7.6831996222\H,0,15.805387
 3676,32.6413634231,8.9107583195\C,0,12.4267508147,25.4383868269,9.3379
 201092\H,0,11.9816187265,26.3669945606,9.6925167273\H,0,13.2633148451,
 25.1927868235,9.9940567009\H,0,11.6864805261,24.6445679099,9.415172646
 8\C,0,12.3239125503,23.2962455811,6.9435453146\H,0,11.8555146521,22.94
 87210621,6.0300248297\C,0,12.4098656732,22.46638493,7.9781592465\H,0,1
 2.9072454016,22.7388422171,8.8923663625\H,0,12.0069091843,21.468173716
 9,7.9337139283\C,0,13.8866672063,23.1807138266,1.8985118641\H,0,12.834
 5426721,23.0329265588,1.6499495965\H,0,14.1088531179,22.5941051151,2.7
 885052251\H,0,14.4906791329,22.8044573137,1.0757317735\C,0,15.34673158
 29,25.2808107514,-0.0381262496\H,0,16.2671482692,25.8021204059,-0.2742
 208998\C,0,14.781762528,24.5154830209,-0.9656459742\H,0,13.8449197236,
 24.0125035474,-0.7996041804\H,0,15.2270007504,24.386841548,-1.93828588
 66\C,0,17.0075422236,30.2603575965,0.3316129345\H,0,16.1789232675,30.1
 548944091,-0.3691002986\H,0,17.736073742,29.4791835656,0.113861827\H,0
 ,17.4805248087,31.2243955707,0.1616930381\C,0,17.1991650365,32.4153770
 599,2.7579582513\H,0,17.5267085815,32.6992975618,1.7609365503\H,0,18.0
 609277906,32.4526728755,3.4250568425\H,0,16.4716205627,33.1496272395,3
 .1032997412\C,0,10.0355927712,30.061750635,2.1149325237\H,0,9.81647890
 95,31.1179533436,2.2715193478\H,0,9.0957639753,29.510777469,2.14351922
 41\H,0,10.4808291471,29.9410342674,1.1323901394\N,0,10.6542991492,29.5
 389988591,4.4835339943\H,0,9.78528381,29.8504498149,4.8855655658\C,0,1
 0.9722400364,29.5584431521,3.151112579\C,0,11.7122097409,29.0270582217
 ,5.1513229145\H,0,11.7443407214,28.8931870501,6.2137881174\N,0,12.6842
 093334,28.7204115408,4.3226534236\C,0,12.2360661654,29.0469320129,3.07
 33334259\H,0,12.8501724457,28.8922369586,2.2094702414\\Version=ES64L-G
 16RevC.02\State=5-A\HF=-2907.0184393\S2=6.090203\S2-1=0.\S2A=6.00044\R
 MSD=6.943e-09\Dipole=-1.8196859,1.3154009,-0.0428145\Quadrupole=2.7683
 544,-3.1927723,0.4244179,-2.2573154,-1.8519841,1.440744\PG=C01 [X(C34H
 34Fe1N6)]\\@
 The archive entry for this job was punched.


 IF YOU WANT TO LEARN FROM THE THEORETICAL PHYSICISTS ABOUT THE
 METHODS WHICH THEY USE, I ADVISE YOU TO FOLLOW THIS PRINCIPLE VERY STRICTLY:
 DON'T LISTEN TO THEIR WORDS; PAY ATTENTION, INSTEAD, TO THEIR ACTIONS.
 -- A.EINSTEIN, 1934
 Job cpu time:       0 days  6 hours 40 minutes  3.8 seconds.
 Elapsed time:       0 days  0 hours  6 minutes 53.1 seconds.
 File lengths (MBytes):  RWF=    408 Int=      0 D2E=      0 Chk=    150 Scr=      1
 Normal termination of Gaussian 16 at Tue Oct 15 16:47:12 2024.
