 Entering Gaussian System, Link 0=g16
 Input=1x3k16re.com
 Output=1x3k16re.log
 Initial command:
 /sw/chem/gaussian/g16_C02/a100/g16/l1.exe "/local/bebjones_8051553/Gau-470852.inp" -scrdir="/local/bebjones_8051553/"
 Entering Link 1 = /sw/chem/gaussian/g16_C02/a100/g16/l1.exe PID=    470854.
  
 Copyright (c) 1988-2021, Gaussian, Inc.  All Rights Reserved.
  
 This is part of the Gaussian(R) 16 program.  It is based on
 the Gaussian(R) 09 system (copyright 2009, Gaussian, Inc.),
 the Gaussian(R) 03 system (copyright 2003, Gaussian, Inc.),
 the Gaussian(R) 98 system (copyright 1998, Gaussian, Inc.),
 the Gaussian(R) 94 system (copyright 1995, Gaussian, Inc.),
 the Gaussian 92(TM) system (copyright 1992, Gaussian, Inc.),
 the Gaussian 90(TM) system (copyright 1990, Gaussian, Inc.),
 the Gaussian 88(TM) system (copyright 1988, Gaussian, Inc.),
 the Gaussian 86(TM) system (copyright 1986, Carnegie Mellon
 University), and the Gaussian 82(TM) system (copyright 1983,
 Carnegie Mellon University). Gaussian is a federally registered
 trademark of Gaussian, Inc.
  
 This software contains proprietary and confidential information,
 including trade secrets, belonging to Gaussian, Inc.
  
 This software is provided under written license and may be
 used, copied, transmitted, or stored only in accord with that
 written license.
  
 The following legend is applicable only to US Government
 contracts under FAR:
  
                    RESTRICTED RIGHTS LEGEND
  
 Use, reproduction and disclosure by the US Government is
 subject to restrictions as set forth in subparagraphs (a)
 and (c) of the Commercial Computer Software - Restricted
 Rights clause in FAR 52.227-19.
  
 Gaussian, Inc.
 340 Quinnipiac St., Bldg. 40, Wallingford CT 06492
  
  
 ---------------------------------------------------------------
 Warning -- This program may not be used in any manner that
 competes with the business of Gaussian, Inc. or will provide
 assistance to any competitor of Gaussian, Inc.  The licensee
 of this program is prohibited from giving any competitor of
 Gaussian, Inc. access to this program.  By using this program,
 the user acknowledges that Gaussian, Inc. is engaged in the
 business of creating and licensing software in the field of
 computational chemistry and represents and warrants to the
 licensee that it is not a competitor of Gaussian, Inc. and that
 it will not use this program in any manner prohibited above.
 ---------------------------------------------------------------
  

 Cite this work as:
 Gaussian 16, Revision C.02,
 M. J. Frisch, G. W. Trucks, H. B. Schlegel, G. E. Scuseria, 
 M. A. Robb, J. R. Cheeseman, G. Scalmani, V. Barone, 
 G. A. Petersson, H. Nakatsuji, X. Li, M. Caricato, A. V. Marenich, 
 J. Bloino, B. G. Janesko, R. Gomperts, B. Mennucci, H. P. Hratchian, 
 J. V. Ortiz, A. F. Izmaylov, J. L. Sonnenberg, D. Williams-Young, 
 F. Ding, F. Lipparini, F. Egidi, J. Goings, B. Peng, A. Petrone, 
 T. Henderson, D. Ranasinghe, V. G. Zakrzewski, J. Gao, N. Rega, 
 G. Zheng, W. Liang, M. Hada, M. Ehara, K. Toyota, R. Fukuda, 
 J. Hasegawa, M. Ishida, T. Nakajima, Y. Honda, O. Kitao, H. Nakai, 
 T. Vreven, K. Throssell, J. A. Montgomery, Jr., J. E. Peralta, 
 F. Ogliaro, M. J. Bearpark, J. J. Heyd, E. N. Brothers, K. N. Kudin, 
 V. N. Staroverov, T. A. Keith, R. Kobayashi, J. Normand, 
 K. Raghavachari, A. P. Rendell, J. C. Burant, S. S. Iyengar, 
 J. Tomasi, M. Cossi, J. M. Millam, M. Klene, C. Adamo, R. Cammi, 
 J. W. Ochterski, R. L. Martin, K. Morokuma, O. Farkas, 
 J. B. Foresman, and D. J. Fox, Gaussian, Inc., Wallingford CT, 2019.
 
 ******************************************
 Gaussian 16:  ES64L-G16RevC.02  7-Dec-2021
                17-Oct-2024 
 ******************************************
 %mem=16GB
 %CPU=0-71
 SetSPE:  set environment variable "OMP_PROC_BIND" = "true"
 SetSPE:  set environment variable "OMP_PLACES" = "{0},{1},{2},{3},{4},{5},{6},{7},{8},{9},{10},{11},{12},{13},{14},{15},{16},{17},{18},{19},{20},{21},{22},{23},{24},{25},{26},{27},{28},{29},{30},{31},{32},{33},{34},{35},{36},{37},{38},{39},{40},{41},{42},{43},{44},{45},{46},{47},{48},{49},{50},{51},{52},{53},{54},{55},{56},{57},{58},{59},{60},{61},{62},{63},{64},{65},{66},{67},{68},{69},{70},{71}"
 Will use up to   72 processors via shared memory.
 %gpucpu=0,1,2,3=0,1,2,3
 Will use    4 GPUs:
 Thread  CPU   GPU
      0    0     0
      1    1     1
      2    2     2
      3    3     3
      4    4    -1
      5    5    -1
      6    6    -1
      7    7    -1
      8    8    -1
      9    9    -1
     10   10    -1
     11   11    -1
     12   12    -1
     13   13    -1
     14   14    -1
     15   15    -1
     16   16    -1
     17   17    -1
     18   18    -1
     19   19    -1
     20   20    -1
     21   21    -1
     22   22    -1
     23   23    -1
     24   24    -1
     25   25    -1
     26   26    -1
     27   27    -1
     28   28    -1
     29   29    -1
     30   30    -1
     31   31    -1
     32   32    -1
     33   33    -1
     34   34    -1
     35   35    -1
     36   36    -1
     37   37    -1
     38   38    -1
     39   39    -1
     40   40    -1
     41   41    -1
     42   42    -1
     43   43    -1
     44   44    -1
     45   45    -1
     46   46    -1
     47   47    -1
     48   48    -1
     49   49    -1
     50   50    -1
     51   51    -1
     52   52    -1
     53   53    -1
     54   54    -1
     55   55    -1
     56   56    -1
     57   57    -1
     58   58    -1
     59   59    -1
     60   60    -1
     61   61    -1
     62   62    -1
     63   63    -1
     64   64    -1
     65   65    -1
     66   66    -1
     67   67    -1
     68   68    -1
     69   69    -1
     70   70    -1
     71   71    -1
 SetGPE:  set environment variable "OMP_PROC_BIND" = "true"
 SetGPE:  set environment variable "OMP_PLACES" = "{0},{1},{2},{3},{4},{5},{6},{7},{8},{9},{10},{11},{12},{13},{14},{15},{16},{17},{18},{19},{20},{21},{22},{23},{24},{25},{26},{27},{28},{29},{30},{31},{32},{33},{34},{35},{36},{37},{38},{39},{40},{41},{42},{43},{44},{45},{46},{47},{48},{49},{50},{51},{52},{53},{54},{55},{56},{57},{58},{59},{60},{61},{62},{63},{64},{65},{66},{67},{68},{69},{70},{71}"
 %oldchk=1x3k_III_D.chk
 %chk=1x3k_III_Dre.chk
 Properties for Device   0
 Minimum vector length:                              32
 Maximum vector length:                            1024
 Number of SMPs:                                    108
 Maximum number of threads per SMP:                2048
 Number of ASync Engines:                             5
 Memory:                                           9207742464
 Properties for Device   1
 Minimum vector length:                              32
 Maximum vector length:                            1024
 Number of SMPs:                                    108
 Maximum number of threads per SMP:                2048
 Number of ASync Engines:                             5
 Memory:                                           9207742464
 Properties for Device   2
 Minimum vector length:                              32
 Maximum vector length:                            1024
 Number of SMPs:                                    108
 Maximum number of threads per SMP:                2048
 Number of ASync Engines:                             5
 Memory:                                           9207742464
 Properties for Device   3
 Minimum vector length:                              32
 Maximum vector length:                            1024
 Number of SMPs:                                    108
 Maximum number of threads per SMP:                2048
 Number of ASync Engines:                             5
 Memory:                                           9207742464
   8286968217 words of memory will be used on each GPU.
 Copying data from "1x3k_III_D.chk" to current chk file "1x3k_III_Dre.chk"
 IOpt=  2 FromEx=T IUOpen= 4 IOptOp= 5 NList=   0 IFRang= 0 IUIn= 4 IUOut= 2.
 --------------------------------------
 # apfd/gen scf=maxcycle=999 geom=check
 --------------------------------------
 1/29=2,38=1,172=1/1;
 2/12=2,40=1/2;
 3/5=7,11=2,14=-4,25=1,30=1,74=-44/1,2,3;
 4//1;
 5/5=2,7=999,38=5/2;
 6/7=2,8=2,9=2,10=2,28=1/1;
 99/5=1,9=1/99;
 ----------
 1x3k_III_H
 ----------
 Structure from the checkpoint file:  "1x3k_III_Dre.chk"
 Charge =  1 Multiplicity = 6
 Z-Matrix found in chk file.
 Fe,0,6.9420699407,4.5284146671,-1.5538945465
 N,0,6.760990861,2.9587048506,-0.3255352286
 N,0,5.0795274887,4.1784862185,-2.2449985367
 N,0,7.04121328,6.1395172339,-2.7519100048
 N,0,8.7589497226,4.9167029656,-0.8529027949
 C,0,7.6972891347,2.5198460787,0.5617623079
 C,0,7.2104466244,1.368609953,1.2875560342
 C,0,5.9550178276,1.1262213546,0.8211830599
 C,0,5.6942844385,2.1289178315,-0.186484482
 C,0,4.241058533,3.1813324784,-1.8557705577
 C,0,2.9902779196,3.2486426302,-2.5809651171
 C,0,3.0910310409,4.3166074869,-3.4150702805
 C,0,4.3994637442,4.8894050593,-3.1821534195
 C,0,6.0997940514,6.5988201774,-3.6127731107
 C,0,6.5498568817,7.8088491752,-4.2737320756
 C,0,7.8011944699,8.0639631275,-3.777753243
 C,0,8.084582271,7.0113775431,-2.8354652246
 C,0,9.5789287273,5.9371270724,-1.2105598415
 C,0,10.8256187598,5.8715701104,-0.4723025167
 C,0,10.7167415737,4.7875644514,0.3554755819
 C,0,9.4235373461,4.2082712914,0.1002195632
 C,0,8.9382547169,3.093195486,0.7643856557
 H,0,9.5801249647,2.6399108073,1.5049236886
 C,0,4.5124608126,2.2243671563,-0.8969957914
 H,0,3.7446895331,1.4954303458,-0.6874585881
 C,0,4.8618376204,6.0205890223,-3.8252410145
 H,0,4.2001503555,6.4950657771,-4.5336378712
 C,0,9.2630512883,6.9309055562,-2.1146166008
 H,0,9.9847952801,7.721211797,-2.2490097729
 C,0,7.9848737148,0.6448562034,2.3358031001
 H,0,8.2337854019,1.3139843706,3.1600154316
 H,0,8.9169024179,0.2550783382,1.9254979868
 H,0,7.4117124379,-0.1888738838,2.7338663762
 C,0,4.9883335263,0.0639346875,1.2193637873
 H,0,4.7334971463,-0.5620787854,0.3639142574
 H,0,4.0670500684,0.5063917377,1.5992490526
 H,0,5.4080343113,-0.5711519197,1.9957545556
 C,0,11.7212507856,4.2556350612,1.3191253016
 H,0,11.2877199375,4.1617464782,2.3149522588
 H,0,12.5827808379,4.9161275947,1.3755148021
 H,0,12.0686378583,3.2691172482,1.0093406729
 C,0,11.9673450597,6.7557694684,-0.5979582158
 H,0,12.4602778643,7.0111333438,0.3344288837
 C,0,12.4619631187,7.2253266452,-1.7372396636
 H,0,12.0446389823,6.9583502116,-2.6934554491
 H,0,13.3206475051,7.8761236944,-1.7542069029
 C,0,8.7458426466,9.147529836,-4.1656233577
 H,0,9.7698494068,8.7785083243,-4.1864134835
 H,0,8.7011546923,9.97549975,-3.4560787407
 H,0,8.4920208051,9.5279925337,-5.1532096868
 C,0,5.7920983758,8.5346567399,-5.26819959
 H,0,5.1429764177,7.9319520986,-5.8933346377
 C,0,5.8273522312,9.8493987742,-5.4619106666
 H,0,6.4145233616,10.5049172518,-4.8431076219
 H,0,5.2440738049,10.3200584749,-6.2360998645
 C,0,2.0999906236,4.8520596018,-4.3910002535
 H,0,2.5089891053,4.8351061277,-5.4016878216
 H,0,1.8412807999,5.8830923443,-4.1488495064
 H,0,1.188416208,4.2595086991,-4.3814431312
 C,0,1.8580944656,2.2967606981,-2.3978243895
 H,0,1.0254630432,2.5567371414,-3.0469866981
 H,0,1.5058735112,2.3125444939,-1.3661105618
 H,0,2.1713492231,1.2790054871,-2.6323980142
 C,0,8.1285210012,1.9377526231,-6.3534919884
 H,0,9.1197642655,2.0754253703,-6.7852799335
 H,0,7.4149464994,2.5199595022,-6.9278716426
 H,0,7.8649583912,0.883223183,-6.4347109541
 N,0,8.9048851354,1.8184170723,-3.9759330601
 H,0,9.5701141669,1.0774120467,-4.1241652191
 C,0,8.1041364313,2.3796379844,-4.9360649059
 C,0,8.637932195,2.4402154124,-2.8051797581
 H,0,9.1183177822,2.2057307623,-1.8777340552
 N,0,7.7175637743,3.3599667531,-2.9655853541
 C,0,7.3761001412,3.3345944647,-4.2859595227
 H,0,6.63406565,3.9999351792,-4.6759655227
 O,0,6.066,5.73,0.168
 H,0,5.9339999998,5.0560000002,0.8350000008
 H,0,5.7930000006,6.5749999998,0.214
 Recover connectivity data from disk.
 Stoichiometry    C34H36FeN6O(1+,6)
 Framework group  C1[X(C34H36FeN6O)]
 Deg. of freedom   228
 Full point group                 C1      NOp   1
 Largest Abelian subgroup         C1      NOp   1
 Largest concise Abelian subgroup C1      NOp   1
                         Standard orientation:                         
 ---------------------------------------------------------------------
 Center     Atomic      Atomic             Coordinates (Angstroms)
 Number     Number       Type             X           Y           Z
 ---------------------------------------------------------------------
      1         26           0       -0.203977   -0.010277   -0.384183
      2          7           0       -2.194490    0.194331   -0.424695
      3          7           0       -0.427992   -2.014514   -0.428762
      4          7           0        1.788732   -0.271845   -0.421762
      5          7           0        0.037580    1.960726   -0.386954
      6          6           0       -2.881880    1.370762   -0.431915
      7          6           0       -4.305971    1.127791   -0.477366
      8          6           0       -4.461949   -0.224007   -0.503258
      9          6           0       -3.131819   -0.788165   -0.467831
     10          6           0       -1.600762   -2.701747   -0.462917
     11          6           0       -1.360264   -4.128880   -0.481414
     12          6           0       -0.010846   -4.287622   -0.463918
     13          6           0        0.552694   -2.954857   -0.441484
     14          6           0        2.477011   -1.439723   -0.447237
     15          6           0        3.906039   -1.196753   -0.496594
     16          6           0        4.055059    0.165120   -0.500789
     17          6           0        2.725031    0.717187   -0.451775
     18          6           0        1.208310    2.646917   -0.396099
     19          6           0        0.961211    4.076063   -0.389553
     20          6           0       -0.399092    4.223254   -0.396493
     21          6           0       -0.952734    2.894125   -0.393199
     22          6           0       -2.312795    2.629983   -0.414990
     23          1           0       -2.981490    3.477676   -0.426144
     24          6           0       -2.864627   -2.144238   -0.485679
     25          1           0       -3.707185   -2.817838   -0.518657
     26          6           0        1.910002   -2.700872   -0.453128
     27          1           0        2.574422   -3.550763   -0.485005
     28          6           0        2.463608    2.076063   -0.451285
     29          1           0        3.305804    2.745943   -0.525626
     30          6           0       -5.342609    2.198909   -0.498964
     31          1           0       -5.217538    2.836749   -1.374482
     32          1           0       -5.265490    2.827142    0.388916
     33          1           0       -6.341335    1.770251   -0.528521
     34          6           0       -5.715003   -1.029265   -0.557064
     35          1           0       -5.788713   -1.681485    0.313456
     36          1           0       -5.730542   -1.655588   -1.449434
     37          1           0       -6.590049   -0.384156   -0.576929
     38          6           0       -1.192617    5.484427   -0.377278
     39          1           0       -1.901542    5.506187   -1.205159
     40          1           0       -0.537746    6.348391   -0.457115
     41          1           0       -1.757846    5.570708    0.551664
     42          6           0        1.948308    5.137080   -0.357626
     43          1           0        1.720442    6.000439   -0.974251
     44          6           0        3.052568    5.146039    0.379682
     45          1           0        3.297615    4.339584    1.050029
     46          1           0        3.740096    5.975459    0.356620
     47          6           0        5.315724    0.956952   -0.475382
     48          1           0        5.208026    1.834886    0.159308
     49          1           0        5.582094    1.297166   -1.477523
     50          1           0        6.131634    0.347236   -0.091921
     51          6           0        4.917199   -2.229898   -0.507908
     52          1           0        4.664415   -3.137592    0.028374
     53          6           0        6.097046   -2.152741   -1.115626
     54          1           0        6.385294   -1.298419   -1.702515
     55          1           0        6.808918   -2.960208   -1.067255
     56          6           0        0.794762   -5.541517   -0.471066
     57          1           0        1.417873   -5.602404    0.421729
     58          1           0        1.449438   -5.572220   -1.342302
     59          1           0        0.149293   -6.416075   -0.497383
     60          6           0       -2.432670   -5.163532   -0.511422
     61          1           0       -2.005179   -6.163133   -0.529442
     62          1           0       -3.058520   -5.042712   -1.395987
     63          1           0       -3.071251   -5.079199    0.368397
     64          6           0        0.588423   -1.223484    5.006138
     65          1           0        1.115346   -0.499900    5.628018
     66          1           0        1.256104   -2.052969    4.795846
     67          1           0       -0.266923   -1.597448    5.568836
     68          7           0       -0.701321    0.470459    3.688229
     69          1           0       -1.102153    0.935219    4.486304
     70          6           0        0.149730   -0.602829    3.730485
     71          6           0       -0.898881    0.785641    2.388156
     72          1           0       -1.523118    1.588150    2.053169
     73          7           0       -0.225425   -0.022253    1.605523
     74          6           0        0.432311   -0.891064    2.425998
     75          1           0        1.059280   -1.660111    2.024907
     76          8           0       -0.346762    0.045574   -2.654143
     77          1           0       -1.288998    0.143620   -2.792588
     78          1           0        0.264328   -0.099031   -3.283689
 ---------------------------------------------------------------------
 Rotational constants (GHZ):           0.0949740           0.0912909           0.0598400
 General basis read from cards:  (5D, 7F)
 There are   723 symmetry adapted cartesian basis functions of A   symmetry.
 There are   679 symmetry adapted basis functions of A   symmetry.
   679 basis functions,  1378 primitive gaussians,   723 cartesian basis functions
   160 alpha electrons      155 beta electrons
       nuclear repulsion energy      5976.9982478817 Hartrees.
 NAtoms=   78 NActive=   78 NUniq=   78 SFac= 1.00D+00 NAtFMM=   60 NAOKFM=T Big=T
 Integral buffers will be    131072 words long.
 Raffenetti 2 integral format.
 Two-electron integral symmetry is turned on.
 R6APFD:  NTU= -4 IXU= 1 FactS= 1.050
 Nuclear repulsion after empirical dispersion term =     5976.8452194352 Hartrees.
 One-electron integrals computed using PRISM.
 NBasis=   679 RedAO= T EigKep=  2.52D-04  NBF=   679
 NBsUse=   679 1.00D-06 EigRej= -1.00D+00 NBFU=   679
 ExpMin= 4.20D-02 ExpMax= 3.01D+05 ExpMxC= 2.91D+03 IAcc=3 IRadAn=         5 AccDes= 0.00D+00
 Harris functional with IExCor= 3731 and IRadAn=       5 diagonalized for initial guess.
 HarFok:  IExCor= 3731 AccDes= 0.00D+00 IRadAn=         5 IDoV= 1 UseB2=F ITyADJ=14
 ICtDFT=  3500011 ScaDFX=  1.000000  1.000000  1.000000  1.000000
 FoFCou: FMM=F IPFlag=           0 FMFlag=      100000 FMFlg1=        2001
         NFxFlg=           0 DoJE=T BraDBF=F KetDBF=T FulRan=T
         wScrn=  0.000000 ICntrl=       500 IOpCl=  0 I1Cent=   200000004 NGrid=           0
         NMat0=    1 NMatS0=      1 NMatT0=    0 NMatD0=    1 NMtDS0=    0 NMtDT0=    0
 Petite list used in FoFCou.
 Initial guess <Sx>= 0.0000 <Sy>= 0.0000 <Sz>= 2.5000 <S**2>= 8.7500 S= 2.5000
 Requested convergence on RMS density matrix=1.00D-08 within 999 cycles.
 Requested convergence on MAX density matrix=1.00D-06.
 Requested convergence on             energy=1.00D-06.
 No special actions if energy rises.
 EnCoef did   100 forward-backward iterations
 EnCoef did   100 forward-backward iterations
 EnCoef did   100 forward-backward iterations
 EnCoef did   100 forward-backward iterations
 EnCoef did    12 forward-backward iterations
 EnCoef did   100 forward-backward iterations
 Restarting incremental Fock formation.
 SCF Done:  E(UAPFD) =  -2983.21074954     A.U. after   32 cycles
            NFock= 32  Conv=0.70D-08     -V/T= 2.0034
 <Sx>= 0.0000 <Sy>= 0.0000 <Sz>= 2.5000 <S**2>= 8.7583 S= 2.5014
 <L.S>=  0.00000000000    
 Annihilation of the first spin contaminant:
 S**2 before annihilation     8.7583,   after     8.7500

 **********************************************************************

            Population analysis using the SCF Density.

 **********************************************************************

 Orbital symmetries:
 Alpha Orbitals:
       Occupied  (A) (A) (A) (A) (A) (A) (A) (A) (A) (A) (A) (A)
                 (A) (A) (A) (A) (A) (A) (A) (A) (A) (A) (A) (A)
                 (A) (A) (A) (A) (A) (A) (A) (A) (A) (A) (A) (A)
                 (A) (A) (A) (A) (A) (A) (A) (A) (A) (A) (A) (A)
                 (A) (A) (A) (A) (A) (A) (A) (A) (A) (A) (A) (A)
                 (A) (A) (A) (A) (A) (A) (A) (A) (A) (A) (A) (A)
                 (A) (A) (A) (A) (A) (A) (A) (A) (A) (A) (A) (A)
                 (A) (A) (A) (A) (A) (A) (A) (A) (A) (A) (A) (A)
                 (A) (A) (A) (A) (A) (A) (A) (A) (A) (A) (A) (A)
                 (A) (A) (A) (A) (A) (A) (A) (A) (A) (A) (A) (A)
                 (A) (A) (A) (A) (A) (A) (A) (A) (A) (A) (A) (A)
                 (A) (A) (A) (A) (A) (A) (A) (A) (A) (A) (A) (A)
                 (A) (A) (A) (A) (A) (A) (A) (A) (A) (A) (A) (A)
                 (A) (A) (A) (A)
       Virtual   (A) (A) (A) (A) (A) (A) (A) (A) (A) (A) (A) (A)
                 (A) (A) (A) (A) (A) (A) (A) (A) (A) (A) (A) (A)
                 (A) (A) (A) (A) (A) (A) (A) (A) (A) (A) (A) (A)
                 (A) (A) (A) (A) (A) (A) (A) (A) (A) (A) (A) (A)
                 (A) (A) (A) (A) (A) (A) (A) (A) (A) (A) (A) (A)
                 (A) (A) (A) (A) (A) (A) (A) (A) (A) (A) (A) (A)
                 (A) (A) (A) (A) (A) (A) (A) (A) (A) (A) (A) (A)
                 (A) (A) (A) (A) (A) (A) (A) (A) (A) (A) (A) (A)
                 (A) (A) (A) (A) (A) (A) (A) (A) (A) (A) (A) (A)
                 (A) (A) (A) (A) (A) (A) (A) (A) (A) (A) (A) (A)
                 (A) (A) (A) (A) (A) (A) (A) (A) (A) (A) (A) (A)
                 (A) (A) (A) (A) (A) (A) (A) (A) (A) (A) (A) (A)
                 (A) (A) (A) (A) (A) (A) (A) (A) (A) (A) (A) (A)
                 (A) (A) (A) (A) (A) (A) (A) (A) (A) (A) (A) (A)
                 (A) (A) (A) (A) (A) (A) (A) (A) (A) (A) (A) (A)
                 (A) (A) (A) (A) (A) (A) (A) (A) (A) (A) (A) (A)
                 (A) (A) (A) (A) (A) (A) (A) (A) (A) (A) (A) (A)
                 (A) (A) (A) (A) (A) (A) (A) (A) (A) (A) (A) (A)
                 (A) (A) (A) (A) (A) (A) (A) (A) (A) (A) (A) (A)
                 (A) (A) (A) (A) (A) (A) (A) (A) (A) (A) (A) (A)
                 (A) (A) (A) (A) (A) (A) (A) (A) (A) (A) (A) (A)
                 (A) (A) (A) (A) (A) (A) (A) (A) (A) (A) (A) (A)
                 (A) (A) (A) (A) (A) (A) (A) (A) (A) (A) (A) (A)
                 (A) (A) (A) (A) (A) (A) (A) (A) (A) (A) (A) (A)
                 (A) (A) (A) (A) (A) (A) (A) (A) (A) (A) (A) (A)
                 (A) (A) (A) (A) (A) (A) (A) (A) (A) (A) (A) (A)
                 (A) (A) (A) (A) (A) (A) (A) (A) (A) (A) (A) (A)
                 (A) (A) (A) (A) (A) (A) (A) (A) (A) (A) (A) (A)
                 (A) (A) (A) (A) (A) (A) (A) (A) (A) (A) (A) (A)
                 (A) (A) (A) (A) (A) (A) (A) (A) (A) (A) (A) (A)
                 (A) (A) (A) (A) (A) (A) (A) (A) (A) (A) (A) (A)
                 (A) (A) (A) (A) (A) (A) (A) (A) (A) (A) (A) (A)
                 (A) (A) (A) (A) (A) (A) (A) (A) (A) (A) (A) (A)
                 (A) (A) (A) (A) (A) (A) (A) (A) (A) (A) (A) (A)
                 (A) (A) (A) (A) (A) (A) (A) (A) (A) (A) (A) (A)
                 (A) (A) (A) (A) (A) (A) (A) (A) (A) (A) (A) (A)
                 (A) (A) (A) (A) (A) (A) (A) (A) (A) (A) (A) (A)
                 (A) (A) (A) (A) (A) (A) (A) (A) (A) (A) (A) (A)
                 (A) (A) (A) (A) (A) (A) (A) (A) (A) (A) (A) (A)
                 (A) (A) (A) (A) (A) (A) (A) (A) (A) (A) (A) (A)
                 (A) (A) (A) (A) (A) (A) (A) (A) (A) (A) (A) (A)
                 (A) (A) (A) (A) (A) (A) (A) (A) (A) (A) (A) (A)
                 (A) (A) (A) (A) (A) (A) (A) (A) (A) (A) (A) (A)
                 (A) (A) (A)
 Beta  Orbitals:
       Occupied  (A) (A) (A) (A) (A) (A) (A) (A) (A) (A) (A) (A)
                 (A) (A) (A) (A) (A) (A) (A) (A) (A) (A) (A) (A)
                 (A) (A) (A) (A) (A) (A) (A) (A) (A) (A) (A) (A)
                 (A) (A) (A) (A) (A) (A) (A) (A) (A) (A) (A) (A)
                 (A) (A) (A) (A) (A) (A) (A) (A) (A) (A) (A) (A)
                 (A) (A) (A) (A) (A) (A) (A) (A) (A) (A) (A) (A)
                 (A) (A) (A) (A) (A) (A) (A) (A) (A) (A) (A) (A)
                 (A) (A) (A) (A) (A) (A) (A) (A) (A) (A) (A) (A)
                 (A) (A) (A) (A) (A) (A) (A) (A) (A) (A) (A) (A)
                 (A) (A) (A) (A) (A) (A) (A) (A) (A) (A) (A) (A)
                 (A) (A) (A) (A) (A) (A) (A) (A) (A) (A) (A) (A)
                 (A) (A) (A) (A) (A) (A) (A) (A) (A) (A) (A) (A)
                 (A) (A) (A) (A) (A) (A) (A) (A) (A) (A) (A)
       Virtual   (A) (A) (A) (A) (A) (A) (A) (A) (A) (A) (A) (A)
                 (A) (A) (A) (A) (A) (A) (A) (A) (A) (A) (A) (A)
                 (A) (A) (A) (A) (A) (A) (A) (A) (A) (A) (A) (A)
                 (A) (A) (A) (A) (A) (A) (A) (A) (A) (A) (A) (A)
                 (A) (A) (A) (A) (A) (A) (A) (A) (A) (A) (A) (A)
                 (A) (A) (A) (A) (A) (A) (A) (A) (A) (A) (A) (A)
                 (A) (A) (A) (A) (A) (A) (A) (A) (A) (A) (A) (A)
                 (A) (A) (A) (A) (A) (A) (A) (A) (A) (A) (A) (A)
                 (A) (A) (A) (A) (A) (A) (A) (A) (A) (A) (A) (A)
                 (A) (A) (A) (A) (A) (A) (A) (A) (A) (A) (A) (A)
                 (A) (A) (A) (A) (A) (A) (A) (A) (A) (A) (A) (A)
                 (A) (A) (A) (A) (A) (A) (A) (A) (A) (A) (A) (A)
                 (A) (A) (A) (A) (A) (A) (A) (A) (A) (A) (A) (A)
                 (A) (A) (A) (A) (A) (A) (A) (A) (A) (A) (A) (A)
                 (A) (A) (A) (A) (A) (A) (A) (A) (A) (A) (A) (A)
                 (A) (A) (A) (A) (A) (A) (A) (A) (A) (A) (A) (A)
                 (A) (A) (A) (A) (A) (A) (A) (A) (A) (A) (A) (A)
                 (A) (A) (A) (A) (A) (A) (A) (A) (A) (A) (A) (A)
                 (A) (A) (A) (A) (A) (A) (A) (A) (A) (A) (A) (A)
                 (A) (A) (A) (A) (A) (A) (A) (A) (A) (A) (A) (A)
                 (A) (A) (A) (A) (A) (A) (A) (A) (A) (A) (A) (A)
                 (A) (A) (A) (A) (A) (A) (A) (A) (A) (A) (A) (A)
                 (A) (A) (A) (A) (A) (A) (A) (A) (A) (A) (A) (A)
                 (A) (A) (A) (A) (A) (A) (A) (A) (A) (A) (A) (A)
                 (A) (A) (A) (A) (A) (A) (A) (A) (A) (A) (A) (A)
                 (A) (A) (A) (A) (A) (A) (A) (A) (A) (A) (A) (A)
                 (A) (A) (A) (A) (A) (A) (A) (A) (A) (A) (A) (A)
                 (A) (A) (A) (A) (A) (A) (A) (A) (A) (A) (A) (A)
                 (A) (A) (A) (A) (A) (A) (A) (A) (A) (A) (A) (A)
                 (A) (A) (A) (A) (A) (A) (A) (A) (A) (A) (A) (A)
                 (A) (A) (A) (A) (A) (A) (A) (A) (A) (A) (A) (A)
                 (A) (A) (A) (A) (A) (A) (A) (A) (A) (A) (A) (A)
                 (A) (A) (A) (A) (A) (A) (A) (A) (A) (A) (A) (A)
                 (A) (A) (A) (A) (A) (A) (A) (A) (A) (A) (A) (A)
                 (A) (A) (A) (A) (A) (A) (A) (A) (A) (A) (A) (A)
                 (A) (A) (A) (A) (A) (A) (A) (A) (A) (A) (A) (A)
                 (A) (A) (A) (A) (A) (A) (A) (A) (A) (A) (A) (A)
                 (A) (A) (A) (A) (A) (A) (A) (A) (A) (A) (A) (A)
                 (A) (A) (A) (A) (A) (A) (A) (A) (A) (A) (A) (A)
                 (A) (A) (A) (A) (A) (A) (A) (A) (A) (A) (A) (A)
                 (A) (A) (A) (A) (A) (A) (A) (A) (A) (A) (A) (A)
                 (A) (A) (A) (A) (A) (A) (A) (A) (A) (A) (A) (A)
                 (A) (A) (A) (A) (A) (A) (A) (A) (A) (A) (A) (A)
                 (A) (A) (A) (A) (A) (A) (A) (A)
 The electronic state is 6-A.
 Alpha  occ. eigenvalues -- -256.41582 -30.32688 -26.15688 -26.15565 -26.15542
 Alpha  occ. eigenvalues --  -19.29790 -14.53639 -14.48843 -14.46223 -14.45994
 Alpha  occ. eigenvalues --  -14.45968 -14.45681 -10.37661 -10.34870 -10.33278
 Alpha  occ. eigenvalues --  -10.33236 -10.33222 -10.33197 -10.33159 -10.32945
 Alpha  occ. eigenvalues --  -10.32929 -10.32913 -10.32254 -10.30303 -10.30255
 Alpha  occ. eigenvalues --  -10.30219 -10.30207 -10.30193 -10.30191 -10.30013
 Alpha  occ. eigenvalues --  -10.29890 -10.29889 -10.29851 -10.29845 -10.29819
 Alpha  occ. eigenvalues --  -10.29719 -10.29368 -10.29172 -10.28411 -10.28274
 Alpha  occ. eigenvalues --  -10.28254 -10.28026 -10.28026 -10.28010 -10.27862
 Alpha  occ. eigenvalues --  -10.27743  -3.78205  -2.54846  -2.54765  -2.54718
 Alpha  occ. eigenvalues --   -1.16436  -1.16380  -1.08835  -1.07878  -1.07693
 Alpha  occ. eigenvalues --   -1.06786  -1.02280  -0.93261  -0.92028  -0.91722
 Alpha  occ. eigenvalues --   -0.91323  -0.90906  -0.90506  -0.90413  -0.90222
 Alpha  occ. eigenvalues --   -0.86693  -0.85410  -0.84902  -0.84164  -0.82783
 Alpha  occ. eigenvalues --   -0.81827  -0.80860  -0.80002  -0.78532  -0.78286
 Alpha  occ. eigenvalues --   -0.78015  -0.75708  -0.75053  -0.74769  -0.72149
 Alpha  occ. eigenvalues --   -0.71949  -0.70666  -0.70201  -0.68295  -0.68174
 Alpha  occ. eigenvalues --   -0.66609  -0.64880  -0.64579  -0.63907  -0.63336
 Alpha  occ. eigenvalues --   -0.61834  -0.61683  -0.61358  -0.60902  -0.59901
 Alpha  occ. eigenvalues --   -0.58367  -0.58207  -0.57951  -0.57671  -0.56362
 Alpha  occ. eigenvalues --   -0.55968  -0.55817  -0.55458  -0.55308  -0.54814
 Alpha  occ. eigenvalues --   -0.54682  -0.54132  -0.53789  -0.53371  -0.53115
 Alpha  occ. eigenvalues --   -0.53041  -0.52971  -0.52652  -0.52511  -0.52304
 Alpha  occ. eigenvalues --   -0.51973  -0.51444  -0.51379  -0.51160  -0.50765
 Alpha  occ. eigenvalues --   -0.50620  -0.50292  -0.49944  -0.49687  -0.49553
 Alpha  occ. eigenvalues --   -0.49342  -0.49051  -0.48922  -0.48751  -0.48595
 Alpha  occ. eigenvalues --   -0.48360  -0.48029  -0.47716  -0.47546  -0.46799
 Alpha  occ. eigenvalues --   -0.46652  -0.46437  -0.45582  -0.44882  -0.44598
 Alpha  occ. eigenvalues --   -0.44252  -0.43685  -0.43400  -0.42651  -0.42347
 Alpha  occ. eigenvalues --   -0.41910  -0.40849  -0.39219  -0.38772  -0.37596
 Alpha  occ. eigenvalues --   -0.37070  -0.36981  -0.34281  -0.33616  -0.33094
 Alpha  occ. eigenvalues --   -0.32366  -0.32085  -0.31773  -0.29111  -0.28403
 Alpha virt. eigenvalues --   -0.17178  -0.16996  -0.11302  -0.08511  -0.07773
 Alpha virt. eigenvalues --   -0.06566  -0.04769  -0.04027  -0.03616  -0.01685
 Alpha virt. eigenvalues --   -0.01288  -0.00912   0.01039   0.01128   0.01987
 Alpha virt. eigenvalues --    0.03057   0.03156   0.03719   0.03965   0.04208
 Alpha virt. eigenvalues --    0.04468   0.05106   0.05261   0.05382   0.05528
 Alpha virt. eigenvalues --    0.06048   0.06540   0.06705   0.06833   0.07254
 Alpha virt. eigenvalues --    0.07592   0.07725   0.07903   0.08118   0.08303
 Alpha virt. eigenvalues --    0.08647   0.09350   0.09527   0.09671   0.09762
 Alpha virt. eigenvalues --    0.09997   0.10236   0.10657   0.10868   0.11320
 Alpha virt. eigenvalues --    0.11820   0.12068   0.12448   0.12758   0.12932
 Alpha virt. eigenvalues --    0.13027   0.13382   0.13737   0.14165   0.14772
 Alpha virt. eigenvalues --    0.14984   0.15029   0.15848   0.16235   0.16801
 Alpha virt. eigenvalues --    0.17187   0.17304   0.17837   0.18044   0.18295
 Alpha virt. eigenvalues --    0.19565   0.19819   0.20838   0.21626   0.22017
 Alpha virt. eigenvalues --    0.22623   0.22867   0.24231   0.24956   0.25762
 Alpha virt. eigenvalues --    0.25891   0.26329   0.26887   0.27233   0.28412
 Alpha virt. eigenvalues --    0.28933   0.30339   0.31017   0.31841   0.32696
 Alpha virt. eigenvalues --    0.33507   0.33644   0.34512   0.34735   0.35792
 Alpha virt. eigenvalues --    0.37174   0.37956   0.38349   0.38779   0.39209
 Alpha virt. eigenvalues --    0.39926   0.40073   0.40617   0.40969   0.41603
 Alpha virt. eigenvalues --    0.41709   0.42529   0.42882   0.43139   0.43417
 Alpha virt. eigenvalues --    0.43526   0.43794   0.44234   0.44809   0.45258
 Alpha virt. eigenvalues --    0.45314   0.45700   0.46316   0.46664   0.47445
 Alpha virt. eigenvalues --    0.47838   0.48279   0.48411   0.48786   0.49395
 Alpha virt. eigenvalues --    0.49997   0.50514   0.50757   0.51265   0.51688
 Alpha virt. eigenvalues --    0.52014   0.52599   0.52937   0.53095   0.53600
 Alpha virt. eigenvalues --    0.54156   0.54523   0.54672   0.55273   0.55611
 Alpha virt. eigenvalues --    0.56039   0.56241   0.56512   0.56748   0.57102
 Alpha virt. eigenvalues --    0.57501   0.57735   0.58147   0.58212   0.59057
 Alpha virt. eigenvalues --    0.59722   0.60350   0.60708   0.60993   0.61322
 Alpha virt. eigenvalues --    0.61857   0.62643   0.62865   0.63036   0.63579
 Alpha virt. eigenvalues --    0.63717   0.64583   0.65432   0.66026   0.66191
 Alpha virt. eigenvalues --    0.66845   0.67212   0.67675   0.68194   0.68356
 Alpha virt. eigenvalues --    0.68477   0.68974   0.69087   0.69553   0.69953
 Alpha virt. eigenvalues --    0.70202   0.70451   0.70892   0.71566   0.72233
 Alpha virt. eigenvalues --    0.73073   0.73363   0.73970   0.74220   0.75028
 Alpha virt. eigenvalues --    0.76439   0.76671   0.77094   0.77335   0.77968
 Alpha virt. eigenvalues --    0.78277   0.78613   0.78878   0.79482   0.79504
 Alpha virt. eigenvalues --    0.79691   0.80070   0.80592   0.80915   0.81467
 Alpha virt. eigenvalues --    0.81706   0.81884   0.82117   0.82817   0.83090
 Alpha virt. eigenvalues --    0.83330   0.83963   0.84225   0.84628   0.84838
 Alpha virt. eigenvalues --    0.85297   0.85587   0.85816   0.86147   0.86548
 Alpha virt. eigenvalues --    0.87119   0.87473   0.87728   0.88083   0.88241
 Alpha virt. eigenvalues --    0.89029   0.89388   0.89921   0.90250   0.90323
 Alpha virt. eigenvalues --    0.90722   0.91107   0.92042   0.92223   0.92601
 Alpha virt. eigenvalues --    0.92765   0.93251   0.93964   0.94473   0.94696
 Alpha virt. eigenvalues --    0.95738   0.95984   0.96932   0.97362   0.97780
 Alpha virt. eigenvalues --    0.98239   0.98761   0.98839   1.00378   1.01492
 Alpha virt. eigenvalues --    1.02044   1.03716   1.04105   1.04727   1.05209
 Alpha virt. eigenvalues --    1.05957   1.07168   1.07471   1.07735   1.08287
 Alpha virt. eigenvalues --    1.08627   1.09170   1.09502   1.10400   1.10752
 Alpha virt. eigenvalues --    1.11346   1.11531   1.11961   1.12197   1.12715
 Alpha virt. eigenvalues --    1.13310   1.14181   1.15434   1.16060   1.16586
 Alpha virt. eigenvalues --    1.17520   1.18141   1.18686   1.20806   1.20942
 Alpha virt. eigenvalues --    1.21090   1.21447   1.22327   1.23350   1.23940
 Alpha virt. eigenvalues --    1.24459   1.24999   1.26350   1.26981   1.27512
 Alpha virt. eigenvalues --    1.27625   1.28074   1.28275   1.28639   1.28783
 Alpha virt. eigenvalues --    1.29238   1.29657   1.30557   1.30857   1.32238
 Alpha virt. eigenvalues --    1.33052   1.34184   1.34349   1.34560   1.35089
 Alpha virt. eigenvalues --    1.37173   1.37479   1.38260   1.39014   1.39101
 Alpha virt. eigenvalues --    1.40460   1.40939   1.42000   1.42675   1.43565
 Alpha virt. eigenvalues --    1.43705   1.44235   1.45164   1.45605   1.46011
 Alpha virt. eigenvalues --    1.47314   1.48279   1.49059   1.50219   1.51149
 Alpha virt. eigenvalues --    1.51770   1.52919   1.53547   1.54705   1.55877
 Alpha virt. eigenvalues --    1.57577   1.57843   1.58233   1.59873   1.60268
 Alpha virt. eigenvalues --    1.60726   1.61964   1.62615   1.63710   1.65057
 Alpha virt. eigenvalues --    1.65836   1.68836   1.69682   1.70387   1.70555
 Alpha virt. eigenvalues --    1.71287   1.71451   1.71809   1.72264   1.72722
 Alpha virt. eigenvalues --    1.73255   1.74141   1.74262   1.74918   1.75262
 Alpha virt. eigenvalues --    1.75673   1.76366   1.76733   1.77572   1.78199
 Alpha virt. eigenvalues --    1.78469   1.79494   1.80063   1.80656   1.81599
 Alpha virt. eigenvalues --    1.81939   1.82643   1.83098   1.83574   1.84412
 Alpha virt. eigenvalues --    1.85066   1.85531   1.86052   1.86583   1.86693
 Alpha virt. eigenvalues --    1.87243   1.88541   1.88983   1.90426   1.90573
 Alpha virt. eigenvalues --    1.90837   1.91761   1.92328   1.94048   1.94272
 Alpha virt. eigenvalues --    1.94748   1.95352   1.95490   1.96144   1.96566
 Alpha virt. eigenvalues --    1.97324   1.98110   1.98841   1.99314   2.00252
 Alpha virt. eigenvalues --    2.01337   2.01643   2.02796   2.03732   2.04241
 Alpha virt. eigenvalues --    2.05345   2.05689   2.05905   2.07073   2.07252
 Alpha virt. eigenvalues --    2.09156   2.09455   2.10694   2.11413   2.11901
 Alpha virt. eigenvalues --    2.12159   2.12950   2.13640   2.13857   2.14494
 Alpha virt. eigenvalues --    2.14818   2.15844   2.16104   2.16912   2.17507
 Alpha virt. eigenvalues --    2.17967   2.18342   2.18528   2.19526   2.19742
 Alpha virt. eigenvalues --    2.20251   2.20656   2.20781   2.21611   2.21852
 Alpha virt. eigenvalues --    2.23534   2.23769   2.23927   2.24587   2.24764
 Alpha virt. eigenvalues --    2.25739   2.25896   2.26730   2.27273   2.27852
 Alpha virt. eigenvalues --    2.28281   2.28468   2.28854   2.29712   2.31361
 Alpha virt. eigenvalues --    2.31677   2.32410   2.32736   2.32878   2.33231
 Alpha virt. eigenvalues --    2.33604   2.34377   2.34718   2.35336   2.37153
 Alpha virt. eigenvalues --    2.38551   2.39225   2.39918   2.41245   2.42524
 Alpha virt. eigenvalues --    2.43309   2.43398   2.43803   2.44226   2.44829
 Alpha virt. eigenvalues --    2.45367   2.46134   2.46490   2.47268   2.47814
 Alpha virt. eigenvalues --    2.48878   2.49855   2.50193   2.50729   2.52503
 Alpha virt. eigenvalues --    2.54353   2.55590   2.57055   2.58911   2.59027
 Alpha virt. eigenvalues --    2.59183   2.59690   2.61689   2.62345   2.64873
 Alpha virt. eigenvalues --    2.65480   2.66841   2.68134   2.69008   2.70159
 Alpha virt. eigenvalues --    2.70843   2.73004   2.77660   2.77954   2.78226
 Alpha virt. eigenvalues --    2.79469   2.81434   2.82870   2.83421   2.86029
 Alpha virt. eigenvalues --    2.87337   2.87988   2.89599   2.90100   2.91061
 Alpha virt. eigenvalues --    2.91389   2.93868   2.94273   2.96775   2.97108
 Alpha virt. eigenvalues --    3.02977   3.04273   3.05515   3.09171   3.13329
 Alpha virt. eigenvalues --    3.15323   3.19432   3.20540   3.29026   3.29640
 Alpha virt. eigenvalues --    3.30423   3.36964   3.37202   3.40534   3.46533
 Alpha virt. eigenvalues --    3.67571   3.69658   3.96182   4.06422
  Beta  occ. eigenvalues -- -256.41420 -30.23010 -26.07603 -26.07472 -26.07452
  Beta  occ. eigenvalues --  -19.29643 -14.53622 -14.48504 -14.45931 -14.45696
  Beta  occ. eigenvalues --  -14.45676 -14.45388 -10.37643 -10.34855 -10.33260
  Beta  occ. eigenvalues --  -10.33211 -10.33200 -10.33174 -10.33141 -10.32922
  Beta  occ. eigenvalues --  -10.32907 -10.32890 -10.32251 -10.30268 -10.30221
  Beta  occ. eigenvalues --  -10.30218 -10.30190 -10.30177 -10.30156 -10.29981
  Beta  occ. eigenvalues --  -10.29894 -10.29857 -10.29851 -10.29813 -10.29787
  Beta  occ. eigenvalues --  -10.29725 -10.29374 -10.29180 -10.28410 -10.28274
  Beta  occ. eigenvalues --  -10.28254 -10.28026 -10.28013 -10.28009 -10.27843
  Beta  occ. eigenvalues --  -10.27743  -3.55440  -2.30686  -2.30396  -2.30326
  Beta  occ. eigenvalues --   -1.16218  -1.16152  -1.08463  -1.07511  -1.07330
  Beta  occ. eigenvalues --   -1.06400  -1.01926  -0.93202  -0.91851  -0.91563
  Beta  occ. eigenvalues --   -0.91135  -0.90752  -0.90397  -0.90309  -0.90172
  Beta  occ. eigenvalues --   -0.86632  -0.85339  -0.84850  -0.84106  -0.82753
  Beta  occ. eigenvalues --   -0.81733  -0.80748  -0.79861  -0.78356  -0.78169
  Beta  occ. eigenvalues --   -0.77823  -0.75338  -0.74957  -0.74678  -0.71973
  Beta  occ. eigenvalues --   -0.71837  -0.70477  -0.70021  -0.68168  -0.67763
  Beta  occ. eigenvalues --   -0.66404  -0.64742  -0.64402  -0.63727  -0.62565
  Beta  occ. eigenvalues --   -0.61549  -0.61181  -0.60692  -0.58689  -0.58383
  Beta  occ. eigenvalues --   -0.58023  -0.57703  -0.57333  -0.55971  -0.55309
  Beta  occ. eigenvalues --   -0.54701  -0.54355  -0.54029  -0.53530  -0.53280
  Beta  occ. eigenvalues --   -0.53169  -0.53090  -0.52824  -0.52748  -0.52294
  Beta  occ. eigenvalues --   -0.52141  -0.51827  -0.51626  -0.51026  -0.50795
  Beta  occ. eigenvalues --   -0.50603  -0.50280  -0.50069  -0.49850  -0.49759
  Beta  occ. eigenvalues --   -0.49519  -0.49331  -0.49279  -0.49053  -0.48794
  Beta  occ. eigenvalues --   -0.48324  -0.47836  -0.47544  -0.47462  -0.47265
  Beta  occ. eigenvalues --   -0.46810  -0.46591  -0.46524  -0.45559  -0.45514
  Beta  occ. eigenvalues --   -0.44459  -0.44305  -0.43826  -0.43526  -0.42797
  Beta  occ. eigenvalues --   -0.42527  -0.42147  -0.41211  -0.40391  -0.39120
  Beta  occ. eigenvalues --   -0.38576  -0.37110  -0.36972  -0.34403  -0.33600
  Beta  occ. eigenvalues --   -0.33286  -0.32141  -0.31724  -0.29058  -0.28278
  Beta virt. eigenvalues --   -0.20603  -0.20397  -0.19249  -0.15936  -0.15793
  Beta virt. eigenvalues --   -0.13818  -0.11228  -0.10982  -0.08026  -0.07580
  Beta virt. eigenvalues --   -0.06401  -0.04368  -0.03728  -0.03260  -0.01322
  Beta virt. eigenvalues --   -0.01152  -0.00569   0.01155   0.01256   0.02001
  Beta virt. eigenvalues --    0.03077   0.03195   0.03790   0.04019   0.04317
  Beta virt. eigenvalues --    0.04787   0.05204   0.05415   0.05472   0.05704
  Beta virt. eigenvalues --    0.06106   0.06622   0.06759   0.06957   0.07277
  Beta virt. eigenvalues --    0.07691   0.07773   0.07974   0.08216   0.08400
  Beta virt. eigenvalues --    0.08758   0.09477   0.09630   0.09740   0.09778
  Beta virt. eigenvalues --    0.10081   0.10315   0.10734   0.10907   0.11365
  Beta virt. eigenvalues --    0.12079   0.12150   0.12519   0.12845   0.13055
  Beta virt. eigenvalues --    0.13320   0.13609   0.14053   0.14408   0.15021
  Beta virt. eigenvalues --    0.15134   0.15485   0.15944   0.16664   0.16978
  Beta virt. eigenvalues --    0.17361   0.17598   0.17979   0.18310   0.19681
  Beta virt. eigenvalues --    0.20333   0.20420   0.21262   0.21917   0.22636
  Beta virt. eigenvalues --    0.23130   0.23446   0.24507   0.25219   0.26042
  Beta virt. eigenvalues --    0.26165   0.26583   0.26998   0.27434   0.28665
  Beta virt. eigenvalues --    0.29586   0.30623   0.31578   0.32309   0.33301
  Beta virt. eigenvalues --    0.33594   0.33751   0.34797   0.34867   0.36795
  Beta virt. eigenvalues --    0.37786   0.38235   0.38698   0.39068   0.39485
  Beta virt. eigenvalues --    0.40152   0.40474   0.40799   0.41402   0.41866
  Beta virt. eigenvalues --    0.42393   0.42719   0.42991   0.43255   0.43495
  Beta virt. eigenvalues --    0.43616   0.43921   0.44372   0.44947   0.45471
  Beta virt. eigenvalues --    0.45604   0.45824   0.46465   0.46999   0.47586
  Beta virt. eigenvalues --    0.48114   0.48374   0.48554   0.48901   0.49472
  Beta virt. eigenvalues --    0.50264   0.50602   0.50835   0.51427   0.51776
  Beta virt. eigenvalues --    0.52108   0.52697   0.53029   0.53475   0.53788
  Beta virt. eigenvalues --    0.54246   0.54867   0.54949   0.55613   0.55999
  Beta virt. eigenvalues --    0.56435   0.56502   0.56751   0.56985   0.57190
  Beta virt. eigenvalues --    0.57606   0.57850   0.58228   0.58253   0.59220
  Beta virt. eigenvalues --    0.59817   0.60422   0.61185   0.61426   0.61653
  Beta virt. eigenvalues --    0.62342   0.62919   0.63142   0.63233   0.63793
  Beta virt. eigenvalues --    0.63998   0.64836   0.65515   0.66115   0.66293
  Beta virt. eigenvalues --    0.66977   0.67387   0.67808   0.68470   0.68503
  Beta virt. eigenvalues --    0.68905   0.69166   0.69367   0.69705   0.70182
  Beta virt. eigenvalues --    0.70512   0.70617   0.71365   0.71690   0.72471
  Beta virt. eigenvalues --    0.73191   0.73473   0.74075   0.74338   0.75239
  Beta virt. eigenvalues --    0.76599   0.76842   0.77298   0.77471   0.78080
  Beta virt. eigenvalues --    0.78409   0.78869   0.79063   0.79577   0.79637
  Beta virt. eigenvalues --    0.79949   0.80192   0.80780   0.80962   0.81588
  Beta virt. eigenvalues --    0.81831   0.82130   0.82318   0.82888   0.83146
  Beta virt. eigenvalues --    0.83426   0.84311   0.84455   0.84763   0.84993
  Beta virt. eigenvalues --    0.85380   0.85749   0.86308   0.86702   0.87016
  Beta virt. eigenvalues --    0.87370   0.87671   0.87974   0.88292   0.88473
  Beta virt. eigenvalues --    0.89175   0.89626   0.90183   0.90383   0.90611
  Beta virt. eigenvalues --    0.91078   0.91207   0.92141   0.92414   0.92703
  Beta virt. eigenvalues --    0.92985   0.93549   0.94094   0.94720   0.95259
  Beta virt. eigenvalues --    0.96006   0.96323   0.97174   0.97505   0.97912
  Beta virt. eigenvalues --    0.98527   0.99108   0.99739   1.01117   1.01871
  Beta virt. eigenvalues --    1.02417   1.04046   1.04928   1.05206   1.06643
  Beta virt. eigenvalues --    1.06875   1.07686   1.07838   1.07875   1.08544
  Beta virt. eigenvalues --    1.08833   1.09501   1.09900   1.10624   1.10937
  Beta virt. eigenvalues --    1.11542   1.11757   1.12096   1.12708   1.13488
  Beta virt. eigenvalues --    1.14174   1.14548   1.15744   1.16333   1.16760
  Beta virt. eigenvalues --    1.17947   1.18478   1.18840   1.20926   1.21136
  Beta virt. eigenvalues --    1.21291   1.21584   1.22454   1.23574   1.24098
  Beta virt. eigenvalues --    1.24642   1.25362   1.26483   1.27083   1.27645
  Beta virt. eigenvalues --    1.27729   1.28184   1.28378   1.28777   1.28919
  Beta virt. eigenvalues --    1.29369   1.29950   1.30751   1.31544   1.32469
  Beta virt. eigenvalues --    1.33515   1.34384   1.34597   1.34749   1.35304
  Beta virt. eigenvalues --    1.37490   1.37642   1.38354   1.39164   1.39236
  Beta virt. eigenvalues --    1.41154   1.41526   1.42198   1.42975   1.43698
  Beta virt. eigenvalues --    1.43827   1.44394   1.45383   1.45755   1.46291
  Beta virt. eigenvalues --    1.47582   1.48424   1.49361   1.50481   1.51822
  Beta virt. eigenvalues --    1.52124   1.53310   1.53977   1.54845   1.56108
  Beta virt. eigenvalues --    1.57795   1.58329   1.58405   1.60120   1.60454
  Beta virt. eigenvalues --    1.60897   1.62155   1.63034   1.64047   1.65300
  Beta virt. eigenvalues --    1.66029   1.69028   1.69815   1.70519   1.70680
  Beta virt. eigenvalues --    1.71490   1.71699   1.71908   1.72504   1.72932
  Beta virt. eigenvalues --    1.73510   1.74220   1.74492   1.75245   1.75549
  Beta virt. eigenvalues --    1.75819   1.76500   1.76850   1.77760   1.78283
  Beta virt. eigenvalues --    1.78642   1.79729   1.80431   1.80766   1.81801
  Beta virt. eigenvalues --    1.82125   1.82977   1.83432   1.84155   1.84633
  Beta virt. eigenvalues --    1.85370   1.86257   1.86582   1.86979   1.87344
  Beta virt. eigenvalues --    1.88901   1.89171   1.89367   1.90599   1.90817
  Beta virt. eigenvalues --    1.91048   1.92133   1.92571   1.94495   1.94909
  Beta virt. eigenvalues --    1.95003   1.95565   1.95738   1.96315   1.97213
  Beta virt. eigenvalues --    1.97624   1.98435   1.99122   2.00229   2.01030
  Beta virt. eigenvalues --    2.01586   2.01926   2.03208   2.03910   2.04584
  Beta virt. eigenvalues --    2.05541   2.05882   2.05998   2.07334   2.08856
  Beta virt. eigenvalues --    2.09511   2.09738   2.10884   2.11799   2.12308
  Beta virt. eigenvalues --    2.12423   2.13248   2.13981   2.14297   2.14934
  Beta virt. eigenvalues --    2.15124   2.15981   2.16502   2.17034   2.17610
  Beta virt. eigenvalues --    2.18171   2.18485   2.19766   2.19988   2.20379
  Beta virt. eigenvalues --    2.20708   2.20849   2.21513   2.21895   2.22306
  Beta virt. eigenvalues --    2.23711   2.23905   2.24480   2.25372   2.25523
  Beta virt. eigenvalues --    2.25947   2.26578   2.26858   2.27401   2.28464
  Beta virt. eigenvalues --    2.28591   2.28645   2.29092   2.30405   2.31733
  Beta virt. eigenvalues --    2.31897   2.32569   2.32994   2.33121   2.33732
  Beta virt. eigenvalues --    2.33869   2.34702   2.34865   2.35858   2.37645
  Beta virt. eigenvalues --    2.38813   2.39939   2.40649   2.42261   2.42760
  Beta virt. eigenvalues --    2.43550   2.43638   2.44207   2.44884   2.45468
  Beta virt. eigenvalues --    2.45643   2.46578   2.46720   2.47444   2.48148
  Beta virt. eigenvalues --    2.49156   2.50022   2.50590   2.51021   2.52640
  Beta virt. eigenvalues --    2.54556   2.55795   2.57162   2.59146   2.59402
  Beta virt. eigenvalues --    2.59578   2.60203   2.61878   2.62584   2.65110
  Beta virt. eigenvalues --    2.65770   2.67149   2.68230   2.69501   2.70286
  Beta virt. eigenvalues --    2.70983   2.73128   2.77885   2.78152   2.78522
  Beta virt. eigenvalues --    2.79715   2.81708   2.83140   2.83679   2.86250
  Beta virt. eigenvalues --    2.87497   2.88134   2.89725   2.90244   2.91493
  Beta virt. eigenvalues --    2.91567   2.94399   2.94559   2.97126   2.97567
  Beta virt. eigenvalues --    3.03210   3.04508   3.05603   3.09342   3.13565
  Beta virt. eigenvalues --    3.16046   3.19539   3.20616   3.29204   3.29912
  Beta virt. eigenvalues --    3.31270   3.37222   3.37445   3.53726   3.59232
  Beta virt. eigenvalues --    3.77262   3.81501   4.06668   4.16759
          Condensed to atoms (all electrons):
          Atomic-Atomic Spin Densities.
 Mulliken charges and spin densities:
               1          2
     1  Fe   1.186052   4.319808
     2  N   -0.746782   0.080948
     3  N   -0.723235   0.081329
     4  N   -0.742365   0.082986
     5  N   -0.739843   0.082233
     6  C    0.293986   0.003916
     7  C    0.042628   0.020383
     8  C    0.038809   0.015513
     9  C    0.317045   0.007001
    10  C    0.333187   0.007138
    11  C    0.039232   0.017311
    12  C    0.043517   0.018432
    13  C    0.316022   0.006989
    14  C    0.315907   0.006384
    15  C    0.008691   0.022111
    16  C    0.043436   0.019590
    17  C    0.323057   0.006681
    18  C    0.341575   0.007582
    19  C   -0.002308   0.017480
    20  C    0.039993   0.021639
    21  C    0.309884   0.004141
    22  C   -0.313437  -0.002619
    23  H    0.189538   0.000352
    24  C   -0.304183  -0.004462
    25  H    0.189964   0.000441
    26  C   -0.305233  -0.004053
    27  H    0.191291   0.000405
    28  C   -0.299519  -0.004067
    29  H    0.199611   0.000461
    30  C   -0.610677  -0.000841
    31  H    0.205367   0.000864
    32  H    0.199881   0.000852
    33  H    0.204558   0.000418
    34  C   -0.611568  -0.000513
    35  H    0.204357   0.000683
    36  H    0.204704   0.000672
    37  H    0.203133   0.000417
    38  C   -0.603593  -0.000906
    39  H    0.202827   0.000837
    40  H    0.204451   0.000404
    41  H    0.202429   0.001001
    42  C   -0.158594  -0.004999
    43  H    0.189339   0.000832
    44  C   -0.393745   0.009322
    45  H    0.182099  -0.000433
    46  H    0.194395  -0.000472
    47  C   -0.614609  -0.000840
    48  H    0.195081   0.000593
    49  H    0.208562   0.001089
    50  H    0.210771   0.000538
    51  C   -0.152308  -0.007210
    52  H    0.176857   0.000610
    53  C   -0.390349   0.013338
    54  H    0.189313  -0.000653
    55  H    0.193307  -0.000506
    56  C   -0.612297  -0.000728
    57  H    0.200479   0.000801
    58  H    0.206833   0.000783
    59  H    0.203567   0.000412
    60  C   -0.612253  -0.000678
    61  H    0.203323   0.000408
    62  H    0.203815   0.000739
    63  H    0.203089   0.000770
    64  C   -0.602578   0.000765
    65  H    0.213068   0.000260
    66  H    0.220123   0.000048
    67  H    0.212439   0.000282
    68  N   -0.629864   0.004998
    69  H    0.384836   0.001486
    70  C    0.280409   0.006798
    71  C    0.263187   0.006103
    72  H    0.230833   0.000682
    73  N   -0.483521   0.097074
    74  C   -0.038811  -0.003307
    75  H    0.208718   0.001353
    76  O   -0.820176   0.026218
    77  H    0.476828   0.001069
    78  H    0.465444   0.002517
 Sum of Mulliken charges =   1.00000   5.00000
 Mulliken charges and spin densities with hydrogens summed into heavy atoms:
               1          2
     1  Fe   1.186052   4.319808
     2  N   -0.746782   0.080948
     3  N   -0.723235   0.081329
     4  N   -0.742365   0.082986
     5  N   -0.739843   0.082233
     6  C    0.293986   0.003916
     7  C    0.042628   0.020383
     8  C    0.038809   0.015513
     9  C    0.317045   0.007001
    10  C    0.333187   0.007138
    11  C    0.039232   0.017311
    12  C    0.043517   0.018432
    13  C    0.316022   0.006989
    14  C    0.315907   0.006384
    15  C    0.008691   0.022111
    16  C    0.043436   0.019590
    17  C    0.323057   0.006681
    18  C    0.341575   0.007582
    19  C   -0.002308   0.017480
    20  C    0.039993   0.021639
    21  C    0.309884   0.004141
    22  C   -0.123900  -0.002267
    24  C   -0.114219  -0.004022
    26  C   -0.113943  -0.003648
    28  C   -0.099908  -0.003606
    30  C   -0.000871   0.001292
    34  C    0.000627   0.001259
    38  C    0.006114   0.001336
    42  C    0.030745  -0.004167
    44  C   -0.017251   0.008416
    47  C   -0.000195   0.001380
    51  C    0.024549  -0.006600
    53  C   -0.007728   0.012179
    56  C   -0.001418   0.001268
    60  C   -0.002026   0.001239
    64  C    0.043051   0.001355
    68  N   -0.245028   0.006484
    70  C    0.280409   0.006798
    71  C    0.494020   0.006785
    73  N   -0.483521   0.097074
    74  C    0.169907  -0.001953
    76  O    0.122097   0.029803
 Electronic spatial extent (au):  <R**2>=          19719.9221
 Charge=              1.0000 electrons
 Dipole moment (field-independent basis, Debye):
    X=             -1.9927    Y=              0.2435    Z=              2.8571  Tot=              3.4918
 Quadrupole moment (field-independent basis, Debye-Ang):
   XX=           -184.9450   YY=           -188.1972   ZZ=           -202.1857
   XY=             -3.9304   XZ=             -2.5601   YZ=              1.5834
 Traceless Quadrupole moment (field-independent basis, Debye-Ang):
   XX=              6.8309   YY=              3.5788   ZZ=            -10.4097
   XY=             -3.9304   XZ=             -2.5601   YZ=              1.5834
 Octapole moment (field-independent basis, Debye-Ang**2):
  XXX=            -13.8214  YYY=              0.2219  ZZZ=            125.5965  XYY=              2.7035
  XXY=             -1.7892  XXZ=            -43.1332  XZZ=            -28.0980  YZZ=              4.2971
  YYZ=            -17.4839  XYZ=            -10.5982
 Hexadecapole moment (field-independent basis, Debye-Ang**3):
 XXXX=         -10141.1348 YYYY=          -9705.5606 ZZZZ=          -2285.3993 XXXY=           -114.4328
 XXXZ=            -89.8976 YYYX=            103.8125 YYYZ=            -48.0065 ZZZX=            -66.0904
 ZZZY=             14.7846 XXYY=          -3358.3051 XXZZ=          -2500.5569 YYZZ=          -2444.0114
 XXYZ=             47.9758 YYXZ=             27.7798 ZZXY=            -50.7012
 N-N= 5.976845219435D+03 E-N=-1.892813735687D+04  KE= 2.973057298130D+03
                          Isotropic Fermi Contact Couplings
        Atom                 a.u.       MegaHertz       Gauss      10(-4) cm-1
     1  Fe(57)             0.52784      15.31149       5.46352       5.10736
     2  N(14)              0.13137       8.48936       3.02922       2.83175
     3  N(14)              0.13445       8.68812       3.10014       2.89805
     4  N(14)              0.13323       8.60926       3.07200       2.87174
     5  N(14)              0.13191       8.52393       3.04155       2.84328
     6  C(13)              0.00540       1.21464       0.43342       0.40516
     7  C(13)              0.00612       1.37527       0.49073       0.45874
     8  C(13)              0.00549       1.23397       0.44031       0.41161
     9  C(13)              0.00615       1.38269       0.49338       0.46121
    10  C(13)              0.00583       1.31025       0.46753       0.43705
    11  C(13)              0.00568       1.27723       0.45575       0.42604
    12  C(13)              0.00584       1.31238       0.46829       0.43776
    13  C(13)              0.00597       1.34128       0.47860       0.44740
    14  C(13)              0.00610       1.37233       0.48968       0.45776
    15  C(13)              0.00645       1.45101       0.51776       0.48401
    16  C(13)              0.00602       1.35402       0.48315       0.45165
    17  C(13)              0.00546       1.22831       0.43829       0.40972
    18  C(13)              0.00652       1.46599       0.52310       0.48900
    19  C(13)              0.00603       1.35540       0.48364       0.45211
    20  C(13)              0.00647       1.45548       0.51935       0.48550
    21  C(13)              0.00559       1.25762       0.44875       0.41950
    22  C(13)             -0.00052      -0.11603      -0.04140      -0.03870
    23  H(1)               0.00011       0.09995       0.03567       0.03334
    24  C(13)             -0.00099      -0.22171      -0.07911      -0.07395
    25  H(1)               0.00014       0.12892       0.04600       0.04300
    26  C(13)             -0.00074      -0.16720      -0.05966      -0.05577
    27  H(1)               0.00013       0.11909       0.04249       0.03972
    28  C(13)             -0.00097      -0.21781      -0.07772      -0.07265
    29  H(1)               0.00014       0.12371       0.04414       0.04127
    30  C(13)             -0.00009      -0.01994      -0.00712      -0.00665
    31  H(1)               0.00044       0.39223       0.13996       0.13083
    32  H(1)               0.00043       0.38173       0.13621       0.12733
    33  H(1)               0.00016       0.14255       0.05086       0.04755
    34  C(13)              0.00005       0.01072       0.00382       0.00358
    35  H(1)               0.00034       0.30176       0.10768       0.10066
    36  H(1)               0.00034       0.30049       0.10722       0.10023
    37  H(1)               0.00016       0.14108       0.05034       0.04706
    38  C(13)             -0.00012      -0.02789      -0.00995      -0.00930
    39  H(1)               0.00041       0.37075       0.13229       0.12367
    40  H(1)               0.00016       0.14724       0.05254       0.04911
    41  H(1)               0.00050       0.44275       0.15799       0.14769
    42  C(13)             -0.00050      -0.11322      -0.04040      -0.03777
    43  H(1)               0.00036       0.32466       0.11585       0.10829
    44  C(13)              0.00139       0.31180       0.11126       0.10400
    45  H(1)              -0.00013      -0.11280      -0.04025      -0.03762
    46  H(1)              -0.00014      -0.12785      -0.04562      -0.04265
    47  C(13)             -0.00011      -0.02575      -0.00919      -0.00859
    48  H(1)               0.00028       0.24636       0.08791       0.08218
    49  H(1)               0.00057       0.50785       0.18121       0.16940
    50  H(1)               0.00019       0.17218       0.06144       0.05743
    51  C(13)             -0.00103      -0.23057      -0.08227      -0.07691
    52  H(1)               0.00023       0.20605       0.07352       0.06873
    53  C(13)              0.00212       0.47582       0.16979       0.15872
    54  H(1)              -0.00020      -0.17546      -0.06261      -0.05853
    55  H(1)              -0.00014      -0.12960      -0.04625      -0.04323
    56  C(13)             -0.00006      -0.01286      -0.00459      -0.00429
    57  H(1)               0.00040       0.35854       0.12793       0.11959
    58  H(1)               0.00040       0.35684       0.12733       0.11903
    59  H(1)               0.00016       0.14005       0.04997       0.04672
    60  C(13)             -0.00004      -0.00979      -0.00349      -0.00326
    61  H(1)               0.00016       0.13906       0.04962       0.04638
    62  H(1)               0.00037       0.32948       0.11757       0.10990
    63  H(1)               0.00038       0.33942       0.12111       0.11322
    64  C(13)              0.00053       0.11874       0.04237       0.03961
    65  H(1)               0.00015       0.13129       0.04685       0.04379
    66  H(1)               0.00004       0.03967       0.01416       0.01323
    67  H(1)               0.00016       0.14140       0.05046       0.04717
    68  N(14)              0.00877       0.56665       0.20220       0.18901
    69  H(1)               0.00059       0.53024       0.18920       0.17687
    70  C(13)              0.00490       1.10164       0.39309       0.36747
    71  C(13)              0.00621       1.39563       0.49800       0.46553
    72  H(1)               0.00021       0.19114       0.06820       0.06376
    73  N(14)              0.17622      11.38782       4.06346       3.79857
    74  C(13)              0.00123       0.27699       0.09884       0.09239
    75  H(1)               0.00049       0.44252       0.15790       0.14761
    76  O(17)              0.08566     -10.38527      -3.70572      -3.46415
    77  H(1)              -0.00007      -0.06155      -0.02196      -0.02053
    78  H(1)               0.00109       0.97398       0.34754       0.32489
 --------------------------------------------------------
       Center         ----  Spin Dipole Couplings  ----
                      3XX-RR        3YY-RR        3ZZ-RR
 --------------------------------------------------------
     1   Atom        0.025506      0.030260     -0.055766
     2   Atom        0.271434     -0.168156     -0.103278
     3   Atom       -0.166000      0.272322     -0.106322
     4   Atom        0.268302     -0.168791     -0.099511
     5   Atom       -0.168545      0.278451     -0.109905
     6   Atom        0.031229     -0.001704     -0.029525
     7   Atom        0.012605     -0.018066      0.005461
     8   Atom        0.015735     -0.017018      0.001283
     9   Atom        0.044041     -0.018426     -0.025615
    10   Atom       -0.003617      0.028580     -0.024963
    11   Atom       -0.016652      0.013567      0.003085
    12   Atom       -0.018234      0.014264      0.003970
    13   Atom       -0.018660      0.043795     -0.025134
    14   Atom        0.027691     -0.002363     -0.025328
    15   Atom        0.011446     -0.018829      0.007383
    16   Atom        0.013389     -0.019480      0.006091
    17   Atom        0.044584     -0.019325     -0.025259
    18   Atom       -0.002618      0.027920     -0.025302
    19   Atom       -0.016670      0.013823      0.002847
    20   Atom       -0.020198      0.013213      0.006985
    21   Atom       -0.017390      0.047302     -0.029911
    22   Atom        0.006237      0.016918     -0.023155
    23   Atom        0.001727      0.006804     -0.008532
    24   Atom        0.017126      0.007066     -0.024191
    25   Atom        0.006607      0.001744     -0.008351
    26   Atom        0.006160      0.017436     -0.023596
    27   Atom        0.001507      0.006823     -0.008330
    28   Atom        0.018059      0.006204     -0.024263
    29   Atom        0.006881      0.001678     -0.008559
    30   Atom        0.006477     -0.001988     -0.004490
    31   Atom        0.004125     -0.000670     -0.003455
    32   Atom        0.004302     -0.000707     -0.003596
    33   Atom        0.005265     -0.002129     -0.003136
    34   Atom        0.008522     -0.003959     -0.004563
    35   Atom        0.006089     -0.002475     -0.003614
    36   Atom        0.005877     -0.002514     -0.003363
    37   Atom        0.005937     -0.002822     -0.003115
    38   Atom       -0.004151      0.008766     -0.004615
    39   Atom       -0.002416      0.006053     -0.003637
    40   Atom       -0.002917      0.006103     -0.003186
    41   Atom       -0.002645      0.006096     -0.003452
    42   Atom       -0.001067      0.007182     -0.006115
    43   Atom       -0.001822      0.004954     -0.003131
    44   Atom        0.000380      0.001519     -0.001899
    45   Atom        0.000288      0.002762     -0.003050
    46   Atom       -0.000039      0.002333     -0.002294
    47   Atom        0.008556     -0.003995     -0.004561
    48   Atom        0.006224     -0.002188     -0.004035
    49   Atom        0.005798     -0.002750     -0.003048
    50   Atom        0.006049     -0.002827     -0.003222
    51   Atom        0.008205     -0.000424     -0.007781
    52   Atom        0.004259     -0.000209     -0.004050
    53   Atom        0.002055     -0.005187      0.003133
    54   Atom        0.003739     -0.001679     -0.002060
    55   Atom        0.002575     -0.000587     -0.001988
    56   Atom       -0.004004      0.008448     -0.004444
    57   Atom       -0.002537      0.006075     -0.003538
    58   Atom       -0.002463      0.005910     -0.003447
    59   Atom       -0.002824      0.005933     -0.003109
    60   Atom       -0.001895      0.006396     -0.004501
    61   Atom       -0.002077      0.005185     -0.003108
    62   Atom       -0.000680      0.004083     -0.003403
    63   Atom       -0.000655      0.004238     -0.003583
    64   Atom       -0.004666     -0.004166      0.008832
    65   Atom       -0.002717     -0.003068      0.005785
    66   Atom       -0.003064     -0.002235      0.005300
    67   Atom       -0.003115     -0.002541      0.005656
    68   Atom       -0.010257     -0.012134      0.022391
    69   Atom       -0.005321     -0.005117      0.010438
    70   Atom       -0.009882     -0.010596      0.020478
    71   Atom       -0.018356     -0.016389      0.034745
    72   Atom       -0.009793     -0.004342      0.014135
    73   Atom       -0.163393     -0.171790      0.335183
    74   Atom       -0.025155     -0.016689      0.041844
    75   Atom       -0.010987     -0.003459      0.014446
    76   Atom       -0.114928     -0.088402      0.203330
    77   Atom       -0.011182     -0.039489      0.050671
    78   Atom       -0.021323     -0.030712      0.052036
 --------------------------------------------------------
                        XY            XZ            YZ
 --------------------------------------------------------
     1   Atom        0.016947     -0.004506     -0.004237
     2   Atom       -0.049975      0.028062     -0.004584
     3   Atom        0.050681      0.001920      0.024973
     4   Atom       -0.053540     -0.023234      0.003416
     5   Atom        0.052817     -0.001265     -0.017012
     6   Atom       -0.039319      0.001162     -0.000553
     7   Atom       -0.006216     -0.000000     -0.000452
     8   Atom       -0.000978      0.000414     -0.000426
     9   Atom        0.028445      0.001892      0.000488
    10   Atom        0.038383      0.000637      0.001653
    11   Atom        0.006188     -0.000318      0.000495
    12   Atom        0.001184     -0.000247      0.000208
    13   Atom       -0.027284     -0.000402      0.001587
    14   Atom       -0.038753     -0.001148      0.001183
    15   Atom       -0.006322     -0.000292      0.000681
    16   Atom       -0.000999     -0.001147     -0.000265
    17   Atom        0.027294     -0.001742     -0.000426
    18   Atom        0.040025      0.000454      0.000049
    19   Atom        0.006316     -0.000584     -0.000820
    20   Atom        0.000892      0.000106     -0.000261
    21   Atom       -0.028783     -0.000010     -0.000220
    22   Atom       -0.023802      0.001129     -0.001227
    23   Atom       -0.011146      0.000253     -0.000282
    24   Atom        0.023093      0.002101      0.001718
    25   Atom        0.010870      0.000660      0.000529
    26   Atom       -0.022723     -0.001408      0.001761
    27   Atom       -0.010768     -0.000428      0.000537
    28   Atom        0.023400     -0.002125     -0.001115
    29   Atom        0.011046     -0.000738     -0.000473
    30   Atom       -0.005712      0.000229     -0.000120
    31   Atom       -0.004723      0.001698     -0.001257
    32   Atom       -0.004770     -0.001301      0.001014
    33   Atom       -0.002520      0.000223     -0.000062
    34   Atom        0.003297      0.000430      0.000098
    35   Atom        0.003226     -0.001336     -0.000622
    36   Atom        0.003135      0.002047      0.000863
    37   Atom        0.000683      0.000304      0.000027
    38   Atom       -0.003311     -0.000013      0.000119
    39   Atom       -0.003363      0.000766     -0.001665
    40   Atom       -0.000628     -0.000011     -0.000148
    41   Atom       -0.003061     -0.000773      0.001789
    42   Atom        0.007038      0.002410     -0.002067
    43   Atom        0.002812     -0.000165     -0.000876
    44   Atom        0.000707     -0.004709      0.004862
    45   Atom        0.004831      0.001804      0.001766
    46   Atom        0.003154      0.000129      0.000655
    47   Atom        0.003207     -0.000247      0.000065
    48   Atom        0.003759      0.001118      0.000587
    49   Atom        0.002424     -0.002008     -0.000684
    50   Atom        0.000666      0.000519      0.000094
    51   Atom       -0.007128     -0.003533     -0.002411
    52   Atom       -0.005276      0.000537     -0.000474
    53   Atom        0.000770      0.005942      0.006101
    54   Atom       -0.000864     -0.001486     -0.000107
    55   Atom       -0.002562     -0.000119      0.000368
    56   Atom       -0.003203     -0.000035      0.000151
    57   Atom       -0.003125      0.000697     -0.001544
    58   Atom       -0.003149     -0.000804      0.001847
    59   Atom       -0.000634     -0.000006      0.000177
    60   Atom        0.005651      0.000119      0.000271
    61   Atom        0.002526      0.000067      0.000218
    62   Atom        0.004666      0.001249      0.001707
    63   Atom        0.004754     -0.000972     -0.001254
    64   Atom       -0.000561      0.002203     -0.003401
    65   Atom       -0.000110      0.002125     -0.000718
    66   Atom       -0.001263      0.002688     -0.003761
    67   Atom        0.000077     -0.000145     -0.002521
    68   Atom        0.003720     -0.003216      0.002479
    69   Atom       -0.000966     -0.003419      0.003639
    70   Atom        0.001638      0.001531     -0.003295
    71   Atom       -0.009247     -0.021588      0.025447
    72   Atom       -0.013933     -0.019293      0.023368
    73   Atom        0.017083     -0.006729     -0.006817
    74   Atom       -0.014088      0.019954     -0.028027
    75   Atom       -0.013961      0.018881     -0.024694
    76   Atom        0.002587      0.048630     -0.018011
    77   Atom       -0.003775      0.040769     -0.005858
    78   Atom       -0.002245     -0.017264      0.003420
 --------------------------------------------------------


 ---------------------------------------------------------------------------------
              Anisotropic Spin Dipole Couplings in Principal Axis System
 ---------------------------------------------------------------------------------

       Atom             a.u.   MegaHertz   Gauss  10(-4) cm-1        Axes

              Baa    -0.0561    -0.972    -0.347    -0.324  0.0468  0.0398  0.9981
     1 Fe(57) Bbb     0.0108     0.187     0.067     0.062  0.7535 -0.6574 -0.0092
              Bcc     0.0454     0.785     0.280     0.262  0.6558  0.7525 -0.0607
 
              Baa    -0.1738    -6.703    -2.392    -2.236  0.1102  0.9937  0.0207
     2 N(14)  Bbb    -0.1054    -4.063    -1.450    -1.355 -0.0759 -0.0124  0.9970
              Bcc     0.2792    10.766     3.842     3.591  0.9910 -0.1115  0.0741
 
              Baa    -0.1718    -6.626    -2.364    -2.210  0.9934 -0.1142  0.0144
     3 N(14)  Bbb    -0.1079    -4.163    -1.485    -1.389 -0.0217 -0.0626  0.9978
              Bcc     0.2797    10.788     3.850     3.599  0.1130  0.9915  0.0647
 
              Baa    -0.1753    -6.759    -2.412    -2.255  0.1194  0.9928 -0.0082
     4 N(14)  Bbb    -0.1010    -3.894    -1.390    -1.299  0.0629  0.0006  0.9980
              Bcc     0.2762    10.654     3.801     3.554  0.9909 -0.1197 -0.0624
 
              Baa    -0.1747    -6.738    -2.404    -2.248  0.9932 -0.1162 -0.0111
     5 N(14)  Bbb    -0.1106    -4.267    -1.523    -1.423  0.0160  0.0415  0.9990
              Bcc     0.2853    11.005     3.927     3.671  0.1156  0.9924 -0.0431
 
              Baa    -0.0296    -3.967    -1.416    -1.323 -0.0714 -0.0810  0.9942
     6 C(13)  Bbb    -0.0278    -3.737    -1.333    -1.246  0.5494  0.8287  0.1069
              Bcc     0.0574     7.704     2.749     2.570  0.8325 -0.5539  0.0147
 
              Baa    -0.0193    -2.588    -0.923    -0.863  0.1913  0.9814  0.0179
     7 C(13)  Bbb     0.0055     0.734     0.262     0.245 -0.0136 -0.0156  0.9998
              Bcc     0.0138     1.854     0.662     0.618  0.9814 -0.1915  0.0103
 
              Baa    -0.0171    -2.289    -0.817    -0.763  0.0295  0.9993  0.0226
     8 C(13)  Bbb     0.0013     0.172     0.061     0.057 -0.0301 -0.0217  0.9993
              Bcc     0.0158     2.117     0.755     0.706  0.9991 -0.0302  0.0294
 
              Baa    -0.0295    -3.952    -1.410    -1.318 -0.3616  0.9304  0.0601
     9 C(13)  Bbb    -0.0256    -3.442    -1.228    -1.148 -0.0007 -0.0647  0.9979
              Bcc     0.0551     7.394     2.638     2.466  0.9323  0.3608  0.0240
 
              Baa    -0.0292    -3.915    -1.397    -1.306  0.8281 -0.5530  0.0917
    10 C(13)  Bbb    -0.0250    -3.350    -1.195    -1.117 -0.0884  0.0327  0.9955
              Bcc     0.0541     7.265     2.592     2.423  0.5535  0.8326  0.0219
 
              Baa    -0.0179    -2.399    -0.856    -0.800  0.9809 -0.1933  0.0194
    11 C(13)  Bbb     0.0031     0.413     0.147     0.138 -0.0261 -0.0318  0.9992
              Bcc     0.0148     1.986     0.709     0.662  0.1926  0.9806  0.0362
 
              Baa    -0.0183    -2.453    -0.875    -0.818  0.9993 -0.0364  0.0114
    12 C(13)  Bbb     0.0040     0.533     0.190     0.178 -0.0121 -0.0188  0.9997
              Bcc     0.0143     1.920     0.685     0.641  0.0362  0.9992  0.0192
 
              Baa    -0.0289    -3.879    -1.384    -1.294  0.9348  0.3519 -0.0483
    13 C(13)  Bbb    -0.0252    -3.376    -1.205    -1.126  0.0524 -0.0022  0.9986
              Bcc     0.0541     7.255     2.589     2.420 -0.3513  0.9360  0.0205
 
              Baa    -0.0289    -3.882    -1.385    -1.295  0.5612  0.8226 -0.0914
    14 C(13)  Bbb    -0.0253    -3.399    -1.213    -1.134  0.0684  0.0640  0.9956
              Bcc     0.0543     7.281     2.598     2.429  0.8249 -0.5650 -0.0203
 
              Baa    -0.0201    -2.698    -0.963    -0.900  0.1962  0.9803 -0.0222
    15 C(13)  Bbb     0.0074     0.988     0.353     0.330  0.0812  0.0063  0.9967
              Bcc     0.0127     1.710     0.610     0.571  0.9772 -0.1973 -0.0783
 
              Baa    -0.0195    -2.619    -0.934    -0.873  0.0308  0.9995  0.0117
    16 C(13)  Bbb     0.0059     0.795     0.284     0.265  0.1496 -0.0162  0.9886
              Bcc     0.0136     1.824     0.651     0.608  0.9883 -0.0287 -0.1500
 
              Baa    -0.0294    -3.946    -1.408    -1.316 -0.3467  0.9367 -0.0495
    17 C(13)  Bbb    -0.0253    -3.394    -1.211    -1.132  0.0037  0.0542  0.9985
              Bcc     0.0547     7.339     2.619     2.448  0.9380  0.3460 -0.0223
 
              Baa    -0.0302    -4.054    -1.447    -1.352  0.8216 -0.5657 -0.0703
    18 C(13)  Bbb    -0.0253    -3.392    -1.210    -1.131  0.0558 -0.0429  0.9975
              Bcc     0.0555     7.446     2.657     2.484  0.5673  0.8235  0.0037
 
              Baa    -0.0179    -2.407    -0.859    -0.803  0.9807 -0.1945  0.0199
    19 C(13)  Bbb     0.0028     0.374     0.133     0.125 -0.0050  0.0769  0.9970
              Bcc     0.0151     2.033     0.725     0.678  0.1955  0.9779 -0.0744
 
              Baa    -0.0202    -2.714    -0.968    -0.905  0.9996 -0.0267 -0.0041
    20 C(13)  Bbb     0.0070     0.936     0.334     0.312  0.0052  0.0411  0.9991
              Bcc     0.0132     1.778     0.634     0.593  0.0265  0.9988 -0.0412
 
              Baa    -0.0299    -4.015    -1.432    -1.339  0.0510  0.0218  0.9985
    21 C(13)  Bbb    -0.0283    -3.803    -1.357    -1.268  0.9332  0.3550 -0.0554
              Bcc     0.0583     7.817     2.789     2.608 -0.3556  0.9346 -0.0023
 
              Baa    -0.0232    -3.114    -1.111    -1.039 -0.0261  0.0151  0.9995
    22 C(13)  Bbb    -0.0128    -1.720    -0.614    -0.574  0.7804  0.6252  0.0110
              Bcc     0.0360     4.833     1.725     1.612 -0.6247  0.7803 -0.0281
 
              Baa    -0.0085    -4.555    -1.625    -1.520 -0.0222  0.0022  0.9998
    23 H(1)   Bbb    -0.0072    -3.823    -1.364    -1.275  0.7814  0.6238  0.0160
              Bcc     0.0157     8.378     2.990     2.795 -0.6236  0.7816 -0.0156
 
              Baa    -0.0243    -3.263    -1.164    -1.088 -0.0342 -0.0295  0.9990
    24 C(13)  Bbb    -0.0115    -1.548    -0.553    -0.517 -0.6274  0.7787  0.0016
              Bcc     0.0359     4.811     1.717     1.605  0.7779  0.6267  0.0452
 
              Baa    -0.0084    -4.472    -1.596    -1.492 -0.0278 -0.0223  0.9994
    25 H(1)   Bbb    -0.0070    -3.715    -1.326    -1.239 -0.6252  0.7805  0.0001
              Bcc     0.0153     8.187     2.921     2.731  0.7800  0.6248  0.0356
 
              Baa    -0.0237    -3.178    -1.134    -1.060  0.0251 -0.0289  0.9993
    26 C(13)  Bbb    -0.0116    -1.558    -0.556    -0.520  0.7876  0.6162 -0.0020
              Bcc     0.0353     4.736     1.690     1.580 -0.6157  0.7871  0.0383
 
              Baa    -0.0084    -4.455    -1.590    -1.486  0.0213 -0.0203  0.9996
    27 H(1)   Bbb    -0.0069    -3.696    -1.319    -1.233  0.7872  0.6167 -0.0042
              Bcc     0.0153     8.151     2.908     2.719 -0.6163  0.7870  0.0291
 
              Baa    -0.0244    -3.270    -1.167    -1.091  0.0518 -0.0032  0.9987
    28 C(13)  Bbb    -0.0120    -1.609    -0.574    -0.537 -0.6125  0.7897  0.0343
              Bcc     0.0364     4.879     1.741     1.628  0.7888  0.6134 -0.0389
 
              Baa    -0.0086    -4.586    -1.636    -1.530  0.0638 -0.0227  0.9977
    29 H(1)   Bbb    -0.0071    -3.769    -1.345    -1.257 -0.6180  0.7841  0.0573
              Bcc     0.0157     8.355     2.981     2.787  0.7836  0.6203 -0.0360
 
              Baa    -0.0049    -0.653    -0.233    -0.218  0.4496  0.8932  0.0121
    30 C(13)  Bbb    -0.0045    -0.603    -0.215    -0.201 -0.0221 -0.0024  0.9998
              Bcc     0.0094     1.256     0.448     0.419  0.8930 -0.4497  0.0187
 
              Baa    -0.0039    -2.106    -0.752    -0.703  0.0798  0.4551  0.8869
    31 H(1)   Bbb    -0.0035    -1.859    -0.663    -0.620  0.5443  0.7255 -0.4212
              Bcc     0.0074     3.965     1.415     1.323  0.8351 -0.5163  0.1898
 
              Baa    -0.0039    -2.104    -0.751    -0.702 -0.1380 -0.4754  0.8689
    32 H(1)   Bbb    -0.0035    -1.860    -0.664    -0.620  0.5164  0.7141  0.4727
              Bcc     0.0074     3.964     1.414     1.322  0.8452 -0.5139 -0.1470
 
              Baa    -0.0031    -1.676    -0.598    -0.559 -0.0328 -0.0208  0.9992
    33 H(1)   Bbb    -0.0029    -1.550    -0.553    -0.517  0.2938  0.9554  0.0295
              Bcc     0.0060     3.227     1.151     1.076  0.9553 -0.2945  0.0252
 
              Baa    -0.0048    -0.641    -0.229    -0.214 -0.2417  0.9694  0.0438
    34 C(13)  Bbb    -0.0046    -0.614    -0.219    -0.205 -0.0202 -0.0502  0.9985
              Bcc     0.0094     1.255     0.448     0.419  0.9701  0.2405  0.0317
 
              Baa    -0.0039    -2.075    -0.741    -0.692 -0.0276  0.4542  0.8905
    35 H(1)   Bbb    -0.0035    -1.853    -0.661    -0.618 -0.3418  0.8329 -0.4354
              Bcc     0.0074     3.929     1.402     1.311  0.9394  0.3164 -0.1322
 
              Baa    -0.0039    -2.082    -0.743    -0.695 -0.0320 -0.4744  0.8797
    36 H(1)   Bbb    -0.0035    -1.853    -0.661    -0.618 -0.3702  0.8232  0.4305
              Bcc     0.0074     3.935     1.404     1.313  0.9284  0.3119  0.2020
 
              Baa    -0.0031    -1.668    -0.595    -0.556 -0.0324 -0.0151  0.9994
    37 H(1)   Bbb    -0.0029    -1.534    -0.547    -0.512 -0.0777  0.9969  0.0125
              Bcc     0.0060     3.201     1.142     1.068  0.9965  0.0772  0.0335
 
              Baa    -0.0050    -0.664    -0.237    -0.222  0.9709  0.2347 -0.0465
    38 C(13)  Bbb    -0.0046    -0.619    -0.221    -0.207  0.0472  0.0028  0.9989
              Bcc     0.0096     1.284     0.458     0.428 -0.2346  0.9721  0.0084
 
              Baa    -0.0040    -2.137    -0.763    -0.713 -0.4091  0.0143  0.9124
    39 H(1)   Bbb    -0.0035    -1.877    -0.670    -0.626  0.8518  0.3647  0.3762
              Bcc     0.0075     4.014     1.432     1.339 -0.3274  0.9310 -0.1614
 
              Baa    -0.0032    -1.702    -0.607    -0.568  0.0896  0.0219  0.9957
    40 H(1)   Bbb    -0.0030    -1.579    -0.563    -0.527  0.9936  0.0673 -0.0908
              Bcc     0.0061     3.281     1.171     1.094 -0.0690  0.9975 -0.0157
 
              Baa    -0.0039    -2.092    -0.747    -0.698  0.5528  0.0202  0.8330
    41 H(1)   Bbb    -0.0035    -1.861    -0.664    -0.621  0.7777  0.3464 -0.5245
              Bcc     0.0074     3.953     1.410     1.318 -0.2991  0.9379  0.1758
 
              Baa    -0.0088    -1.178    -0.420    -0.393 -0.5498  0.3412  0.7624
    42 C(13)  Bbb    -0.0025    -0.330    -0.118    -0.110  0.6758 -0.3548  0.6461
              Bcc     0.0112     1.508     0.538     0.503  0.4910  0.8704 -0.0355
 
              Baa    -0.0033    -1.741    -0.621    -0.581 -0.2657  0.1917  0.9448
    43 H(1)   Bbb    -0.0028    -1.489    -0.531    -0.497  0.9034 -0.2926  0.3134
              Bcc     0.0061     3.229     1.152     1.077  0.3365  0.9368 -0.0954
 
              Baa    -0.0077    -1.032    -0.368    -0.344  0.4814 -0.4379  0.7593
    44 C(13)  Bbb     0.0016     0.216     0.077     0.072  0.7490  0.6554 -0.0969
              Bcc     0.0061     0.816     0.291     0.272 -0.4552  0.6153  0.6435
 
              Baa    -0.0039    -2.087    -0.745    -0.696 -0.5854  0.2171  0.7812
    45 H(1)   Bbb    -0.0032    -1.716    -0.612    -0.572 -0.5436  0.6097 -0.5768
              Bcc     0.0071     3.803     1.357     1.269  0.6015  0.7623  0.2389
 
              Baa    -0.0026    -1.365    -0.487    -0.455  0.4714 -0.4086  0.7816
    46 H(1)   Bbb    -0.0020    -1.074    -0.383    -0.358  0.6779 -0.3990 -0.6175
              Bcc     0.0046     2.439     0.870     0.814  0.5641  0.8209  0.0889
 
              Baa    -0.0048    -0.647    -0.231    -0.216 -0.2186  0.8793 -0.4231
    47 C(13)  Bbb    -0.0045    -0.605    -0.216    -0.202 -0.0847  0.4149  0.9059
              Bcc     0.0093     1.252     0.447     0.418  0.9721  0.2338 -0.0162
 
              Baa    -0.0042    -2.244    -0.801    -0.749 -0.0068 -0.2675  0.9635
    48 H(1)   Bbb    -0.0036    -1.913    -0.683    -0.638 -0.3712  0.8954  0.2460
              Bcc     0.0078     4.157     1.483     1.387  0.9285  0.3560  0.1054
 
              Baa    -0.0036    -1.920    -0.685    -0.641  0.0180  0.5953  0.8033
    49 H(1)   Bbb    -0.0033    -1.755    -0.626    -0.585 -0.3268  0.7628 -0.5580
              Bcc     0.0069     3.675     1.311     1.226  0.9449  0.2525 -0.2083
 
              Baa    -0.0033    -1.739    -0.620    -0.580 -0.0446 -0.1465  0.9882
    50 H(1)   Bbb    -0.0029    -1.531    -0.546    -0.511 -0.0820  0.9864  0.1426
              Bcc     0.0061     3.270     1.167     1.091  0.9956  0.0747  0.0560
 
              Baa    -0.0104    -1.396    -0.498    -0.466  0.3261  0.4356  0.8390
    51 C(13)  Bbb    -0.0020    -0.269    -0.096    -0.090  0.3512  0.7682 -0.5353
              Bcc     0.0124     1.665     0.594     0.555  0.8777 -0.4692 -0.0976
 
              Baa    -0.0041    -2.196    -0.784    -0.733  0.0799  0.2256  0.9710
    52 H(1)   Bbb    -0.0037    -1.964    -0.701    -0.655  0.5492  0.8029 -0.2317
              Bcc     0.0078     4.160     1.484     1.388  0.8318 -0.5518  0.0598
 
              Baa    -0.0089    -1.195    -0.426    -0.399  0.2285  0.8183 -0.5275
    53 C(13)  Bbb    -0.0014    -0.186    -0.066    -0.062  0.7871 -0.4741 -0.3946
              Bcc     0.0103     1.381     0.493     0.461  0.5730  0.3250  0.7524
 
              Baa    -0.0025    -1.356    -0.484    -0.452  0.2619  0.3723  0.8904
    54 H(1)   Bbb    -0.0017    -0.891    -0.318    -0.297  0.0380  0.9179 -0.3950
              Bcc     0.0042     2.247     0.802     0.749  0.9643 -0.1373 -0.2262
 
              Baa    -0.0023    -1.212    -0.433    -0.404 -0.3224 -0.6422  0.6955
    55 H(1)   Bbb    -0.0017    -0.931    -0.332    -0.311  0.3700  0.5908  0.7170
              Bcc     0.0040     2.144     0.765     0.715  0.8713 -0.4885 -0.0471
 
              Baa    -0.0048    -0.641    -0.229    -0.214  0.9719  0.2354 -0.0048
    56 C(13)  Bbb    -0.0044    -0.597    -0.213    -0.199  0.0074 -0.0098  0.9999
              Bcc     0.0092     1.238     0.442     0.413 -0.2353  0.9718  0.0113
 
              Baa    -0.0039    -2.079    -0.742    -0.693 -0.4888 -0.0181  0.8722
    57 H(1)   Bbb    -0.0035    -1.843    -0.658    -0.615  0.8164  0.3430  0.4646
              Bcc     0.0074     3.922     1.399     1.308 -0.3076  0.9392 -0.1529
 
              Baa    -0.0039    -2.081    -0.742    -0.694  0.4442 -0.0260  0.8956
    58 H(1)   Bbb    -0.0034    -1.833    -0.654    -0.611  0.8390  0.3628 -0.4055
              Bcc     0.0073     3.914     1.397     1.305 -0.3144  0.9315  0.1830
 
              Baa    -0.0031    -1.661    -0.593    -0.554 -0.0272 -0.0215  0.9994
    59 H(1)   Bbb    -0.0029    -1.531    -0.546    -0.511  0.9970  0.0713  0.0287
              Bcc     0.0060     3.192     1.139     1.065 -0.0718  0.9972  0.0195
 
              Baa    -0.0048    -0.639    -0.228    -0.213  0.8896 -0.4522  0.0633
    60 C(13)  Bbb    -0.0045    -0.605    -0.216    -0.202 -0.0661  0.0095  0.9978
              Bcc     0.0093     1.243     0.444     0.415  0.4518  0.8918  0.0214
 
              Baa    -0.0031    -1.661    -0.593    -0.554 -0.0014 -0.0259  0.9997
    61 H(1)   Bbb    -0.0029    -1.531    -0.546    -0.511  0.9542 -0.2991 -0.0064
              Bcc     0.0060     3.192     1.139     1.065  0.2992  0.9539  0.0251
 
              Baa    -0.0039    -2.079    -0.742    -0.694 -0.4546  0.0759  0.8875
    62 H(1)   Bbb    -0.0035    -1.844    -0.658    -0.615  0.7267 -0.5446  0.4188
              Bcc     0.0074     3.923     1.400     1.309  0.5151  0.8353  0.1924
 
              Baa    -0.0039    -2.080    -0.742    -0.694  0.4529 -0.1286  0.8822
    63 H(1)   Bbb    -0.0035    -1.849    -0.660    -0.617  0.7261 -0.5210 -0.4487
              Bcc     0.0074     3.930     1.402     1.311  0.5174  0.8438 -0.1426
 
              Baa    -0.0050    -0.675    -0.241    -0.225  0.8298  0.5581  0.0050
    64 C(13)  Bbb    -0.0050    -0.670    -0.239    -0.223 -0.5368  0.7955  0.2813
              Bcc     0.0100     1.345     0.480     0.448  0.1530 -0.2361  0.9596
 
              Baa    -0.0032    -1.732    -0.618    -0.578  0.8725 -0.4260 -0.2392
    65 H(1)   Bbb    -0.0031    -1.652    -0.590    -0.551  0.4318  0.9015 -0.0305
              Bcc     0.0063     3.384     1.207     1.129  0.2286 -0.0767  0.9705
 
              Baa    -0.0040    -2.124    -0.758    -0.708  0.7847  0.6194  0.0237
    66 H(1)   Bbb    -0.0037    -1.971    -0.703    -0.658 -0.5597  0.6916  0.4564
              Bcc     0.0077     4.095     1.461     1.366  0.2663 -0.3715  0.8894
 
              Baa    -0.0033    -1.741    -0.621    -0.581 -0.2336  0.9367  0.2609
    67 H(1)   Bbb    -0.0031    -1.659    -0.592    -0.553  0.9722  0.2204  0.0794
              Bcc     0.0064     3.400     1.213     1.134 -0.0169 -0.2722  0.9621
 
              Baa    -0.0154    -0.596    -0.213    -0.199 -0.6214  0.7766 -0.1037
    68 N(14)  Bbb    -0.0074    -0.285    -0.102    -0.095  0.7783  0.6271  0.0318
              Bcc     0.0228     0.881     0.314     0.294 -0.0898  0.0609  0.9941
 
              Baa    -0.0062    -3.304    -1.179    -1.102  0.7888  0.6140  0.0278
    69 H(1)   Bbb    -0.0058    -3.085    -1.101    -1.029 -0.5809  0.7595 -0.2928
              Bcc     0.0120     6.389     2.280     2.131 -0.2009  0.2149  0.9558
 
              Baa    -0.0123    -1.650    -0.589    -0.550 -0.6039  0.7897  0.1076
    70 C(13)  Bbb    -0.0086    -1.152    -0.411    -0.384  0.7958  0.6049  0.0267
              Bcc     0.0209     2.802     1.000     0.935  0.0440 -0.1017  0.9938
 
              Baa    -0.0270    -3.622    -1.292    -1.208  0.2936  0.9156 -0.2748
    71 C(13)  Bbb    -0.0260    -3.488    -1.245    -1.163  0.9034 -0.1717  0.3930
              Bcc     0.0530     7.110     2.537     2.371 -0.3127  0.3636  0.8775
 
              Baa    -0.0213   -11.346    -4.049    -3.785  0.7809  0.6245  0.0134
    72 H(1)   Bbb    -0.0199   -10.603    -3.783    -3.537  0.4594 -0.5887  0.6651
              Bcc     0.0411    21.949     7.832     7.321 -0.4232  0.5133  0.7466
 
              Baa    -0.1852    -7.142    -2.549    -2.382 -0.6165  0.7874  0.0023
    73 N(14)  Bbb    -0.1502    -5.792    -2.067    -1.932  0.7872  0.6163  0.0196
              Bcc     0.3354    12.935     4.615     4.315 -0.0140 -0.0139  0.9998
 
              Baa    -0.0356    -4.783    -1.707    -1.596  0.7887  0.6144  0.0191
    74 C(13)  Bbb    -0.0241    -3.238    -1.156    -1.080 -0.5520  0.6942  0.4619
              Bcc     0.0598     8.022     2.862     2.676  0.2705 -0.3748  0.8867
 
              Baa    -0.0217   -11.569    -4.128    -3.859  0.7867  0.6172  0.0107
    75 H(1)   Bbb    -0.0205   -10.912    -3.894    -3.640 -0.4665  0.5831  0.6650
              Bcc     0.0421    22.481     8.022     7.499  0.4042 -0.5282  0.7467
 
              Baa    -0.1230     8.900     3.176     2.969  0.9761 -0.1531 -0.1539
    76 O(17)  Bbb    -0.0886     6.411     2.288     2.139  0.1601  0.9865  0.0342
              Bcc     0.2116   -15.312    -5.464    -5.107  0.1466 -0.0580  0.9875
 
              Baa    -0.0400   -21.338    -7.614    -7.117  0.1082  0.9940  0.0156
    77 H(1)   Bbb    -0.0314   -16.731    -5.970    -5.581  0.8893 -0.0898 -0.4484
              Bcc     0.0713    38.069    13.584    12.698  0.4443 -0.0624  0.8937
 
              Baa    -0.0312   -16.661    -5.945    -5.557  0.2361  0.9717  0.0090
    78 H(1)   Bbb    -0.0248   -13.253    -4.729    -4.421  0.9468 -0.2321  0.2230
              Bcc     0.0561    29.913    10.674     9.978 -0.2187  0.0441  0.9748
 

 ---------------------------------------------------------------------------------

 Unable to Open any file for archive entry.
 1\1\GINC-BGN1024\SP\UAPFD\Gen\C34H36Fe1N6O1(1+,6)\BEBJONES\17-Oct-2024
 \0\\# apfd/gen scf=maxcycle=999 geom=check\\1x3k_III_H\\1,6\Fe,0,6.942
 0699407,4.5284146671,-1.5538945465\N,0,6.760990861,2.9587048506,-0.325
 5352286\N,0,5.0795274887,4.1784862185,-2.2449985367\N,0,7.04121328,6.1
 395172339,-2.7519100048\N,0,8.7589497226,4.9167029656,-0.8529027949\C,
 0,7.6972891347,2.5198460787,0.5617623079\C,0,7.2104466244,1.368609953,
 1.2875560342\C,0,5.9550178276,1.1262213546,0.8211830599\C,0,5.69428443
 85,2.1289178315,-0.186484482\C,0,4.241058533,3.1813324784,-1.855770557
 7\C,0,2.9902779196,3.2486426302,-2.5809651171\C,0,3.0910310409,4.31660
 74869,-3.4150702805\C,0,4.3994637442,4.8894050593,-3.1821534195\C,0,6.
 0997940514,6.5988201774,-3.6127731107\C,0,6.5498568817,7.8088491752,-4
 .2737320756\C,0,7.8011944699,8.0639631275,-3.777753243\C,0,8.084582271
 ,7.0113775431,-2.8354652246\C,0,9.5789287273,5.9371270724,-1.210559841
 5\C,0,10.8256187598,5.8715701104,-0.4723025167\C,0,10.7167415737,4.787
 5644514,0.3554755819\C,0,9.4235373461,4.2082712914,0.1002195632\C,0,8.
 9382547169,3.093195486,0.7643856557\H,0,9.5801249647,2.6399108073,1.50
 49236886\C,0,4.5124608126,2.2243671563,-0.8969957914\H,0,3.7446895331,
 1.4954303458,-0.6874585881\C,0,4.8618376204,6.0205890223,-3.8252410145
 \H,0,4.2001503555,6.4950657771,-4.5336378712\C,0,9.2630512883,6.930905
 5562,-2.1146166008\H,0,9.9847952801,7.721211797,-2.2490097729\C,0,7.98
 48737148,0.6448562034,2.3358031001\H,0,8.2337854019,1.3139843706,3.160
 0154316\H,0,8.9169024179,0.2550783382,1.9254979868\H,0,7.4117124379,-0
 .1888738838,2.7338663762\C,0,4.9883335263,0.0639346875,1.2193637873\H,
 0,4.7334971463,-0.5620787854,0.3639142574\H,0,4.0670500684,0.506391737
 7,1.5992490526\H,0,5.4080343113,-0.5711519197,1.9957545556\C,0,11.7212
 507856,4.2556350612,1.3191253016\H,0,11.2877199375,4.1617464782,2.3149
 522588\H,0,12.5827808379,4.9161275947,1.3755148021\H,0,12.0686378583,3
 .2691172482,1.0093406729\C,0,11.9673450597,6.7557694684,-0.5979582158\
 H,0,12.4602778643,7.0111333438,0.3344288837\C,0,12.4619631187,7.225326
 6452,-1.7372396636\H,0,12.0446389823,6.9583502116,-2.6934554491\H,0,13
 .3206475051,7.8761236944,-1.7542069029\C,0,8.7458426466,9.147529836,-4
 .1656233577\H,0,9.7698494068,8.7785083243,-4.1864134835\H,0,8.70115469
 23,9.97549975,-3.4560787407\H,0,8.4920208051,9.5279925337,-5.153209686
 8\C,0,5.7920983758,8.5346567399,-5.26819959\H,0,5.1429764177,7.9319520
 986,-5.8933346377\C,0,5.8273522312,9.8493987742,-5.4619106666\H,0,6.41
 45233616,10.5049172518,-4.8431076219\H,0,5.2440738049,10.3200584749,-6
 .2360998645\C,0,2.0999906236,4.8520596018,-4.3910002535\H,0,2.50898910
 53,4.8351061277,-5.4016878216\H,0,1.8412807999,5.8830923443,-4.1488495
 064\H,0,1.188416208,4.2595086991,-4.3814431312\C,0,1.8580944656,2.2967
 606981,-2.3978243895\H,0,1.0254630432,2.5567371414,-3.0469866981\H,0,1
 .5058735112,2.3125444939,-1.3661105618\H,0,2.1713492231,1.2790054871,-
 2.6323980142\C,0,8.1285210012,1.9377526231,-6.3534919884\H,0,9.1197642
 655,2.0754253703,-6.7852799335\H,0,7.4149464994,2.5199595022,-6.927871
 6426\H,0,7.8649583912,0.883223183,-6.4347109541\N,0,8.9048851354,1.818
 4170723,-3.9759330601\H,0,9.5701141669,1.0774120467,-4.1241652191\C,0,
 8.1041364313,2.3796379844,-4.9360649059\C,0,8.637932195,2.4402154124,-
 2.8051797581\H,0,9.1183177822,2.2057307623,-1.8777340552\N,0,7.7175637
 743,3.3599667531,-2.9655853541\C,0,7.3761001412,3.3345944647,-4.285959
 5227\H,0,6.63406565,3.9999351792,-4.6759655227\O,0,6.066,5.73,0.168\H,
 0,5.9339999998,5.0560000002,0.8350000008\H,0,5.7930000006,6.5749999998
 ,0.214\\Version=ES64L-G16RevC.02\State=6-A\HF=-2983.2107495\S2=8.75832
 2\S2-1=0.\S2A=8.750021\RMSD=6.982e-09\Dipole=0.3950341,-1.2756229,-0.3
 225782\Quadrupole=0.7484845,1.9668328,-2.7153173,-0.4393474,4.0642214,
 -6.1090963\PG=C01 [X(C34H36Fe1N6O1)]\\@
 The archive entry for this job was punched.


 IN THE LONG RUN, DIGGING FOR TRUTH HAS ALWAYS PROVED NOT ONLY 
 MORE INTERESTING BUT MORE PROFITABLE THAN DIGGING FOR GOLD.

                             -- GEORGE R. HARRISON
 Job cpu time:       0 days  1 hours 53 minutes 52.2 seconds.
 Elapsed time:       0 days  0 hours  1 minutes 58.2 seconds.
 File lengths (MBytes):  RWF=    430 Int=      0 D2E=      0 Chk=    155 Scr=      1
 Normal termination of Gaussian 16 at Thu Oct 17 14:51:14 2024.
