 Entering Gaussian System, Link 0=g16
 Input=1y5l01.com
 Output=1y5l01.log
 Initial command:
 /sw/chem/gaussian/g16_C02/a100/g16/l1.exe "/local/bebjones_8041952/Gau-325068.inp" -scrdir="/local/bebjones_8041952/"
 Entering Link 1 = /sw/chem/gaussian/g16_C02/a100/g16/l1.exe PID=    325069.
  
 Copyright (c) 1988-2021, Gaussian, Inc.  All Rights Reserved.
  
 This is part of the Gaussian(R) 16 program.  It is based on
 the Gaussian(R) 09 system (copyright 2009, Gaussian, Inc.),
 the Gaussian(R) 03 system (copyright 2003, Gaussian, Inc.),
 the Gaussian(R) 98 system (copyright 1998, Gaussian, Inc.),
 the Gaussian(R) 94 system (copyright 1995, Gaussian, Inc.),
 the Gaussian 92(TM) system (copyright 1992, Gaussian, Inc.),
 the Gaussian 90(TM) system (copyright 1990, Gaussian, Inc.),
 the Gaussian 88(TM) system (copyright 1988, Gaussian, Inc.),
 the Gaussian 86(TM) system (copyright 1986, Carnegie Mellon
 University), and the Gaussian 82(TM) system (copyright 1983,
 Carnegie Mellon University). Gaussian is a federally registered
 trademark of Gaussian, Inc.
  
 This software contains proprietary and confidential information,
 including trade secrets, belonging to Gaussian, Inc.
  
 This software is provided under written license and may be
 used, copied, transmitted, or stored only in accord with that
 written license.
  
 The following legend is applicable only to US Government
 contracts under FAR:
  
                    RESTRICTED RIGHTS LEGEND
  
 Use, reproduction and disclosure by the US Government is
 subject to restrictions as set forth in subparagraphs (a)
 and (c) of the Commercial Computer Software - Restricted
 Rights clause in FAR 52.227-19.
  
 Gaussian, Inc.
 340 Quinnipiac St., Bldg. 40, Wallingford CT 06492
  
  
 ---------------------------------------------------------------
 Warning -- This program may not be used in any manner that
 competes with the business of Gaussian, Inc. or will provide
 assistance to any competitor of Gaussian, Inc.  The licensee
 of this program is prohibited from giving any competitor of
 Gaussian, Inc. access to this program.  By using this program,
 the user acknowledges that Gaussian, Inc. is engaged in the
 business of creating and licensing software in the field of
 computational chemistry and represents and warrants to the
 licensee that it is not a competitor of Gaussian, Inc. and that
 it will not use this program in any manner prohibited above.
 ---------------------------------------------------------------
  

 Cite this work as:
 Gaussian 16, Revision C.02,
 M. J. Frisch, G. W. Trucks, H. B. Schlegel, G. E. Scuseria, 
 M. A. Robb, J. R. Cheeseman, G. Scalmani, V. Barone, 
 G. A. Petersson, H. Nakatsuji, X. Li, M. Caricato, A. V. Marenich, 
 J. Bloino, B. G. Janesko, R. Gomperts, B. Mennucci, H. P. Hratchian, 
 J. V. Ortiz, A. F. Izmaylov, J. L. Sonnenberg, D. Williams-Young, 
 F. Ding, F. Lipparini, F. Egidi, J. Goings, B. Peng, A. Petrone, 
 T. Henderson, D. Ranasinghe, V. G. Zakrzewski, J. Gao, N. Rega, 
 G. Zheng, W. Liang, M. Hada, M. Ehara, K. Toyota, R. Fukuda, 
 J. Hasegawa, M. Ishida, T. Nakajima, Y. Honda, O. Kitao, H. Nakai, 
 T. Vreven, K. Throssell, J. A. Montgomery, Jr., J. E. Peralta, 
 F. Ogliaro, M. J. Bearpark, J. J. Heyd, E. N. Brothers, K. N. Kudin, 
 V. N. Staroverov, T. A. Keith, R. Kobayashi, J. Normand, 
 K. Raghavachari, A. P. Rendell, J. C. Burant, S. S. Iyengar, 
 J. Tomasi, M. Cossi, J. M. Millam, M. Klene, C. Adamo, R. Cammi, 
 J. W. Ochterski, R. L. Martin, K. Morokuma, O. Farkas, 
 J. B. Foresman, and D. J. Fox, Gaussian, Inc., Wallingford CT, 2019.
 
 ******************************************
 Gaussian 16:  ES64L-G16RevC.02  7-Dec-2021
                12-Oct-2024 
 ******************************************
 %mem=16GB
 %CPU=0-71
 SetSPE:  set environment variable "OMP_PROC_BIND" = "true"
 SetSPE:  set environment variable "OMP_PLACES" = "{0},{1},{2},{3},{4},{5},{6},{7},{8},{9},{10},{11},{12},{13},{14},{15},{16},{17},{18},{19},{20},{21},{22},{23},{24},{25},{26},{27},{28},{29},{30},{31},{32},{33},{34},{35},{36},{37},{38},{39},{40},{41},{42},{43},{44},{45},{46},{47},{48},{49},{50},{51},{52},{53},{54},{55},{56},{57},{58},{59},{60},{61},{62},{63},{64},{65},{66},{67},{68},{69},{70},{71}"
 Will use up to   72 processors via shared memory.
 %gpucpu=0,1,2,3=0,1,2,3
 Will use    4 GPUs:
 Thread  CPU   GPU
      0    0     0
      1    1     1
      2    2     2
      3    3     3
      4    4    -1
      5    5    -1
      6    6    -1
      7    7    -1
      8    8    -1
      9    9    -1
     10   10    -1
     11   11    -1
     12   12    -1
     13   13    -1
     14   14    -1
     15   15    -1
     16   16    -1
     17   17    -1
     18   18    -1
     19   19    -1
     20   20    -1
     21   21    -1
     22   22    -1
     23   23    -1
     24   24    -1
     25   25    -1
     26   26    -1
     27   27    -1
     28   28    -1
     29   29    -1
     30   30    -1
     31   31    -1
     32   32    -1
     33   33    -1
     34   34    -1
     35   35    -1
     36   36    -1
     37   37    -1
     38   38    -1
     39   39    -1
     40   40    -1
     41   41    -1
     42   42    -1
     43   43    -1
     44   44    -1
     45   45    -1
     46   46    -1
     47   47    -1
     48   48    -1
     49   49    -1
     50   50    -1
     51   51    -1
     52   52    -1
     53   53    -1
     54   54    -1
     55   55    -1
     56   56    -1
     57   57    -1
     58   58    -1
     59   59    -1
     60   60    -1
     61   61    -1
     62   62    -1
     63   63    -1
     64   64    -1
     65   65    -1
     66   66    -1
     67   67    -1
     68   68    -1
     69   69    -1
     70   70    -1
     71   71    -1
 SetGPE:  set environment variable "OMP_PROC_BIND" = "true"
 SetGPE:  set environment variable "OMP_PLACES" = "{0},{1},{2},{3},{4},{5},{6},{7},{8},{9},{10},{11},{12},{13},{14},{15},{16},{17},{18},{19},{20},{21},{22},{23},{24},{25},{26},{27},{28},{29},{30},{31},{32},{33},{34},{35},{36},{37},{38},{39},{40},{41},{42},{43},{44},{45},{46},{47},{48},{49},{50},{51},{52},{53},{54},{55},{56},{57},{58},{59},{60},{61},{62},{63},{64},{65},{66},{67},{68},{69},{70},{71}"
 %chk=1y5l_II_O.chk
 Properties for Device   0
 Minimum vector length:                              32
 Maximum vector length:                            1024
 Number of SMPs:                                    108
 Maximum number of threads per SMP:                2048
 Number of ASync Engines:                             5
 Memory:                                           9207742464
 Properties for Device   1
 Minimum vector length:                              32
 Maximum vector length:                            1024
 Number of SMPs:                                    108
 Maximum number of threads per SMP:                2048
 Number of ASync Engines:                             5
 Memory:                                           9207742464
 Properties for Device   2
 Minimum vector length:                              32
 Maximum vector length:                            1024
 Number of SMPs:                                    108
 Maximum number of threads per SMP:                2048
 Number of ASync Engines:                             5
 Memory:                                           9207742464
 Properties for Device   3
 Minimum vector length:                              32
 Maximum vector length:                            1024
 Number of SMPs:                                    108
 Maximum number of threads per SMP:                2048
 Number of ASync Engines:                             5
 Memory:                                           9207742464
   8286968217 words of memory will be used on each GPU.
 ------------------------------------------
 # polar def2tzvp apfd int=(grid=ultrafine)
 ------------------------------------------
 1/38=1,172=1/1;
 2/12=2,17=6,18=5,40=1/2;
 3/5=44,7=101,11=2,25=1,30=1,74=-44,75=-5/1,2,3;
 4//1;
 5/5=2,38=5,98=1/2;
 8/6=4,10=90,11=11/1;
 10/6=1,13=10/2;
 6/7=2,8=2,9=2,10=2,28=1/1;
 99/5=1,9=1/99;
 ---------
 1y5l_II_S
 ---------
 Symbolic Z-matrix:
 Charge =  0 Multiplicity = 1
 Fe                    147.36   -13.462   -13.501 
 N                     147.067  -15.378   -13.044 
 N                     149.195  -13.559   -12.651 
 N                     147.678  -11.488   -13.97 
 N                     145.554  -13.304   -14.362 
 C                     145.933  -16.118   -13.321 
 C                     146.12   -17.484   -12.822 
 C                     147.326  -17.568   -12.256 
 C                     147.942  -16.245   -12.385 
 C                     149.794  -14.663   -12.044 
 C                     151.135  -14.307   -11.562 
 C                     151.339  -12.999   -11.877 
 C                     150.123  -12.528   -12.558 
 C                     148.815  -10.738   -13.691 
 C                     148.653  -9.364    -14.18 
 C                     147.432  -9.281    -14.756 
 C                     146.814  -10.608   -14.633 
 C                     144.966  -12.189   -14.975 
 C                     143.612  -12.54    -15.468 
 C                     143.417  -13.841   -15.139 
 C                     144.64   -14.318   -14.452 
 C                     144.825  -15.61    -13.969 
 H                     143.997  -16.303   -14.12 
 C                     149.202  -15.916   -11.922 
 H                     149.775  -16.698   -11.423 
 C                     149.919  -11.246   -13.041 
 H                     150.74   -10.547   -12.887 
 C                     145.554  -10.946   -15.097 
 H                     144.98   -10.167   -15.599 
 C                     148.028  -18.784   -11.574 
 H                     147.356  -19.668   -11.609 
 H                     148.251  -18.542   -10.513 
 H                     148.968  -19.026   -12.114 
 C                     145.066  -18.611   -12.957 
 H                     144.463  -18.447   -13.876 
 H                     144.39   -18.6     -12.076 
 H                     145.576  -19.595   -13.032 
 C                     152.076  -15.317   -10.838 
 H                     152.288  -16.175   -11.511 
 H                     151.583  -15.695   -9.917 
 H                     153.034  -14.818   -10.579 
 C                     152.608  -12.101   -11.603 
 H                     153.158  -11.693   -12.463 
 C                     153.091  -11.781   -10.358 
 H                     152.591  -12.154   -9.452 
 H                     153.984  -11.147   -10.251 
 C                     149.745  -8.241    -14.027 
 H                     150.677  -8.557    -14.543 
 H                     149.967  -8.077    -12.951 
 H                     149.38   -7.298    -14.487 
 C                     146.713  -8.07     -15.44 
 H                     145.866  -7.558    -14.961 
 C                     147.154  -7.648    -16.657 
 H                     148.     -8.15     -17.149 
 H                     146.67   -6.8      -17.163 
 C                     142.636  -11.573   -16.205 
 H                     143.112  -11.207   -17.14 
 H                     142.407  -10.703   -15.554 
 H                     141.699  -12.111   -16.464 
 C                     142.185  -14.807   -15.362 
 H                     141.373  -14.258   -15.885 
 H                     141.805  -15.163   -14.381 
 H                     142.495  -15.672   -15.986 
 C                     146.733  -11.272   -8.47 
 H                     146.785  -11.955   -7.595 
 H                     145.884  -10.569   -8.329 
 H                     147.686  -10.706   -8.542 
 N                     145.45   -12.921   -9.896 
 H                     144.759  -13.112   -9.199 
 C                     146.524  -12.075   -9.722 
 C                     145.485  -13.428   -11.117 
 H                     144.751  -14.127   -11.516 
 N                     146.543  -12.943   -11.742 
 C                     147.212  -12.099   -10.89 
 H                     148.119  -11.593   -11.196 
 C                     150.329  -16.174   -17.296 
 H                     150.971  -15.68    -18.056 
 H                     149.698  -16.938   -17.799 
 H                     150.979  -16.659   -16.536 
 N                     148.606  -14.32    -17.34 
 H                     148.58   -14.256   -18.337 
 C                     149.453  -15.147   -16.634 
 C                     147.848  -13.639   -16.499 
 H                     147.087  -12.919   -16.798 
 N                     148.176  -13.985   -15.266 
 C                     149.183  -14.921   -15.323 
 H                     149.614  -15.339   -14.422 
 
 Stoichiometry    C38H40FeN8
 Framework group  C1[X(C38H40FeN8)]
 Deg. of freedom   255
 Full point group                 C1      NOp   1
 Largest Abelian subgroup         C1      NOp   1
 Largest concise Abelian subgroup C1      NOp   1
                         Standard orientation:                         
 ---------------------------------------------------------------------
 Center     Atomic      Atomic             Coordinates (Angstroms)
 Number     Number       Type             X           Y           Z
 ---------------------------------------------------------------------
      1         26           0        0.093863   -0.201916   -0.024849
      2          7           0       -0.838555   -1.959373   -0.112567
      3          7           0       -1.701638    0.722710    0.117899
      4          7           0        1.042022    1.617285    0.071413
      5          7           0        1.903149   -1.060099   -0.158747
      6          6           0       -0.235311   -3.197344   -0.230074
      7          6           0       -1.272297   -4.233594   -0.257876
      8          6           0       -2.465708   -3.642725   -0.165724
      9          6           0       -2.213692   -2.202434   -0.073648
     10          6           0       -2.964816    0.130812    0.128054
     11          6           0       -4.003316    1.161864    0.253720
     12          6           0       -3.368076    2.363546    0.318028
     13          6           0       -1.925172    2.090199    0.231040
     14          6           0        0.440341    2.865440    0.186302
     15          6           0        1.458092    3.922126    0.215266
     16          6           0        2.666896    3.322006    0.124972
     17          6           0        2.417496    1.876938    0.038027
     18          6           0        3.166744   -0.453420   -0.161198
     19          6           0        4.222562   -1.487628   -0.284600
     20          6           0        3.577012   -2.677878   -0.358342
     21          6           0        2.123177   -2.405640   -0.271880
     22          6           0        1.130887   -3.380891   -0.303866
     23          1           0        1.472723   -4.411820   -0.398566
     24          6           0       -3.197258   -1.237779    0.037025
     25          1           0       -4.233874   -1.575416    0.053850
     26          6           0       -0.924020    3.047003    0.256532
     27          1           0       -1.259544    4.079535    0.344050
     28          6           0        3.397312    0.904575   -0.069727
     29          1           0        4.434762    1.238972   -0.083756
     30          6           0       -3.894148   -4.271830   -0.146505
     31          1           0       -3.813969   -5.377149   -0.224639
     32          1           0       -4.483608   -3.890999   -1.007619
     33          1           0       -4.404439   -4.015342    0.806166
     34          6           0       -0.982503   -5.750968   -0.371303
     35          1           0       -0.001621   -5.977632    0.099398
     36          1           0       -0.945581   -6.046965   -1.441014
     37          1           0       -1.775146   -6.324905    0.154332
     38          6           0       -5.526785    0.835320    0.300265
     39          1           0       -5.739575    0.179681    1.171411
     40          1           0       -5.825635    0.306518   -0.629913
     41          1           0       -6.108986    1.775260    0.407046
     42          6           0       -3.991559    3.806359    0.464314
     43          1           0       -3.750599    4.393857    1.361726
     44          6           0       -4.824585    4.399708   -0.452049
     45          1           0       -5.108359    3.870669   -1.373762
     46          1           0       -5.218311    5.412066   -0.276081
     47          6           0        1.129968    5.456976    0.331765
     48          1           0        0.578033    5.647672    1.277143
     49          1           0        0.496577    5.771782   -0.524780
     50          1           0        2.073965    6.042520    0.340816
     51          6           0        4.106162    3.937853    0.100750
     52          1           0        4.709092    3.956274   -0.818559
     53          6           0        4.614974    4.460579    1.250325
     54          1           0        4.024168    4.449423    2.178014
     55          1           0        5.622747    4.900532    1.265523
     56          6           0        5.757384   -1.216681   -0.326338
     57          1           0        6.069902   -0.707750    0.610720
     58          1           0        5.999315   -0.560945   -1.189253
     59          1           0        6.306081   -2.178793   -0.414469
     60          6           0        4.115630   -4.156345   -0.515613
     61          1           0        5.225249   -4.143240   -0.568990
     62          1           0        3.715534   -4.604001   -1.449970
     63          1           0        3.804238   -4.763953    0.360486
     64          6           0       -1.001822    1.608801   -5.125924
     65          1           0       -1.811609    1.103350   -5.694766
     66          1           0       -0.133527    1.770003   -5.800438
     67          1           0       -1.378842    2.584895   -4.753307
     68          7           0       -0.132874   -0.543284   -4.119829
     69          1           0       -0.086478   -1.029017   -4.992573
     70          6           0       -0.590106    0.747757   -3.966145
     71          6           0        0.228511   -1.023224   -2.941621
     72          1           0        0.627497   -2.023695   -2.779061
     73          7           0        0.021762   -0.091460   -2.028229
     74          6           0       -0.494490    1.023200   -2.642085
     75          1           0       -0.746923    1.911333   -2.076561
     76          6           0       -1.368232   -1.162829    5.220230
     77          1           0       -1.203698   -0.448554    6.054820
     78          1           0       -1.020384   -2.170383    5.534397
     79          1           0       -2.453212   -1.193266    4.981031
     80          7           0        0.765763   -0.490482    4.036171
     81          1           0        1.326334   -0.504489    4.863423
     82          6           0       -0.594505   -0.711601    4.012717
     83          6           0        1.199276   -0.261871    2.809220
     84          1           0        2.238442   -0.064350    2.548369
     85          7           0        0.167865   -0.316626    1.984125
     86          6           0       -0.966991   -0.588647    2.713165
     87          1           0       -1.935850   -0.668975    2.236568
 ---------------------------------------------------------------------
 Rotational constants (GHZ):           0.0754526           0.0744491           0.0568332
 Standard basis: def2TZVP (5D, 7F)
 There are  1948 symmetry adapted cartesian basis functions of A   symmetry.
 There are  1711 symmetry adapted basis functions of A   symmetry.
  1711 basis functions,  2768 primitive gaussians,  1948 cartesian basis functions
   175 alpha electrons      175 beta electrons
       nuclear repulsion energy      7081.9675207321 Hartrees.
 NAtoms=   87 NActive=   87 NUniq=   87 SFac= 1.00D+00 NAtFMM=   60 NAOKFM=T Big=T
 Integral buffers will be    131072 words long.
 Raffenetti 2 integral format.
 Two-electron integral symmetry is turned on.
 R6APFD:  NTU= -4 IXU= 1 FactS= 1.050
 Nuclear repulsion after empirical dispersion term =     7081.8028149676 Hartrees.
 One-electron integrals computed using PRISM.
   1 Symmetry operations used in ECPInt.
 ECPInt:  NShTT=  232221 NPrTT=  716997 LenC2=  181797 LenP2D=  367711.
 LDataN:  DoStor=T MaxTD1= 6 Len=  172
 Number of processors reduced to  20 by ecpmxn.
 NBasis=  1711 RedAO= T EigKep=  3.72D-06  NBF=  1711
 NBsUse=  1711 1.00D-06 EigRej= -1.00D+00 NBFU=  1711
 ExpMin= 4.20D-02 ExpMax= 3.01D+05 ExpMxC= 2.91D+03 IAcc=3 IRadAn=         5 AccDes= 0.00D+00
 Harris functional with IExCor= 3731 and IRadAn=       5 diagonalized for initial guess.
 HarFok:  IExCor= 3731 AccDes= 0.00D+00 IRadAn=         5 IDoV= 1 UseB2=F ITyADJ=14
 ICtDFT=  3500011 ScaDFX=  1.000000  1.000000  1.000000  1.000000
 FoFCou: FMM=F IPFlag=           0 FMFlag=      100000 FMFlg1=        2001
         NFxFlg=           0 DoJE=T BraDBF=F KetDBF=T FulRan=T
         wScrn=  0.000000 ICntrl=       500 IOpCl=  0 I1Cent=   200000004 NGrid=           0
         NMat0=    1 NMatS0=      1 NMatT0=    0 NMatD0=    1 NMtDS0=    0 NMtDT0=    0
 Petite list used in FoFCou.
 Requested convergence on RMS density matrix=1.00D-08 within 128 cycles.
 Requested convergence on MAX density matrix=1.00D-06.
 Requested convergence on             energy=1.00D-06.
 No special actions if energy rises.
 EnCoef did     4 forward-backward iterations
 EnCoef did   100 forward-backward iterations
 EnCoef did   100 forward-backward iterations
 EnCoef did   100 forward-backward iterations
 EnCoef did     3 forward-backward iterations
 EnCoef did     6 forward-backward iterations
 EnCoef did     4 forward-backward iterations
 Restarting incremental Fock formation.
 SCF Done:  E(RAPFD) =  -3173.01194240     A.U. after   25 cycles
            NFock= 25  Conv=0.36D-08     -V/T= 2.0046
 DoSCS=F DFT=T ScalE2(SS,OS)=  1.000000  1.000000
 Range of M.O.s used for correlation:     1  1711
 NBasis=  1711 NAE=   175 NBE=   175 NFC=     0 NFV=     0
 NROrb=   1711 NOA=   175 NOB=   175 NVA=  1536 NVB=  1536

 **** Warning!!: The largest alpha MO coefficient is  0.59655192D+02

          Differentiating once with respect to electric field.
                with respect to dipole field.
          Electric field/nuclear overlap derivatives assumed to be zero.
          There are     3 degrees of freedom in the 1st order CPHF.  IDoFFX=0 NUNeed=     3.
      3 vectors produced by pass  0 Test12= 8.96D-12 3.33D-08 XBig12= 1.80D+03 2.81D+01.
 AX will form     3 AO Fock derivatives at one time.
      3 vectors produced by pass  1 Test12= 8.96D-12 3.33D-08 XBig12= 1.28D+03 9.67D+00.
      3 vectors produced by pass  2 Test12= 8.96D-12 3.33D-08 XBig12= 3.65D+02 3.17D+00.
      3 vectors produced by pass  3 Test12= 8.96D-12 3.33D-08 XBig12= 5.23D+02 8.75D+00.
      3 vectors produced by pass  4 Test12= 8.96D-12 3.33D-08 XBig12= 2.10D+03 1.50D+01.
      3 vectors produced by pass  5 Test12= 8.96D-12 3.33D-08 XBig12= 1.07D+03 8.00D+00.
      3 vectors produced by pass  6 Test12= 8.96D-12 3.33D-08 XBig12= 6.31D+02 9.29D+00.
      3 vectors produced by pass  7 Test12= 8.96D-12 3.33D-08 XBig12= 3.15D+02 5.21D+00.
      3 vectors produced by pass  8 Test12= 8.96D-12 3.33D-08 XBig12= 2.08D+02 2.52D+00.
      3 vectors produced by pass  9 Test12= 8.96D-12 3.33D-08 XBig12= 8.32D+01 1.69D+00.
      3 vectors produced by pass 10 Test12= 8.96D-12 3.33D-08 XBig12= 3.83D+01 1.05D+00.
      3 vectors produced by pass 11 Test12= 8.96D-12 3.33D-08 XBig12= 1.89D+01 1.12D+00.
      3 vectors produced by pass 12 Test12= 8.96D-12 3.33D-08 XBig12= 1.06D+01 8.87D-01.
      3 vectors produced by pass 13 Test12= 8.96D-12 3.33D-08 XBig12= 4.87D+00 4.28D-01.
      3 vectors produced by pass 14 Test12= 8.96D-12 3.33D-08 XBig12= 2.01D+00 2.06D-01.
      3 vectors produced by pass 15 Test12= 8.96D-12 3.33D-08 XBig12= 5.08D-01 9.54D-02.
      3 vectors produced by pass 16 Test12= 8.96D-12 3.33D-08 XBig12= 1.16D-01 4.47D-02.
      3 vectors produced by pass 17 Test12= 8.96D-12 3.33D-08 XBig12= 3.87D-02 3.64D-02.
      3 vectors produced by pass 18 Test12= 8.96D-12 3.33D-08 XBig12= 1.02D-02 1.90D-02.
      3 vectors produced by pass 19 Test12= 8.96D-12 3.33D-08 XBig12= 5.01D-03 1.83D-02.
      3 vectors produced by pass 20 Test12= 8.96D-12 3.33D-08 XBig12= 1.76D-03 9.32D-03.
      3 vectors produced by pass 21 Test12= 8.96D-12 3.33D-08 XBig12= 5.20D-04 5.24D-03.
      3 vectors produced by pass 22 Test12= 8.96D-12 3.33D-08 XBig12= 9.98D-05 1.71D-03.
      3 vectors produced by pass 23 Test12= 8.96D-12 3.33D-08 XBig12= 2.98D-05 8.51D-04.
      3 vectors produced by pass 24 Test12= 8.96D-12 3.33D-08 XBig12= 7.28D-06 3.64D-04.
      3 vectors produced by pass 25 Test12= 8.96D-12 3.33D-08 XBig12= 1.48D-06 1.93D-04.
      3 vectors produced by pass 26 Test12= 8.96D-12 3.33D-08 XBig12= 3.24D-07 7.90D-05.
      3 vectors produced by pass 27 Test12= 8.96D-12 3.33D-08 XBig12= 5.97D-08 2.91D-05.
      3 vectors produced by pass 28 Test12= 8.96D-12 3.33D-08 XBig12= 7.84D-09 8.43D-06.
      3 vectors produced by pass 29 Test12= 8.96D-12 3.33D-08 XBig12= 1.49D-09 4.23D-06.
      3 vectors produced by pass 30 Test12= 8.96D-12 3.33D-08 XBig12= 1.94D-10 1.52D-06.
      3 vectors produced by pass 31 Test12= 8.96D-12 3.33D-08 XBig12= 3.36D-11 5.54D-07.
      1 vectors produced by pass 32 Test12= 8.96D-12 3.33D-08 XBig12= 8.68D-12 3.33D-07.
      1 vectors produced by pass 33 Test12= 8.96D-12 3.33D-08 XBig12= 9.77D-13 1.53D-07.
      1 vectors produced by pass 34 Test12= 8.96D-12 3.33D-08 XBig12= 1.86D-13 8.97D-08.
      1 vectors produced by pass 35 Test12= 8.96D-12 3.33D-08 XBig12= 2.56D-14 4.77D-08.
 InvSVY:  IOpt=1 It=  1 EMax= 3.55D-14
 Solved reduced A of dimension   100 with     3 vectors.
 Isotropic polarizability for W=    0.000000      619.75 Bohr**3.
 End of Minotr F.D. properties file   721 does not exist.
 End of Minotr F.D. properties file   722 does not exist.
 End of Minotr F.D. properties file   788 does not exist.

 **********************************************************************

            Population analysis using the SCF Density.

 **********************************************************************

 Orbital symmetries:
       Occupied  (A) (A) (A) (A) (A) (A) (A) (A) (A) (A) (A) (A)
                 (A) (A) (A) (A) (A) (A) (A) (A) (A) (A) (A) (A)
                 (A) (A) (A) (A) (A) (A) (A) (A) (A) (A) (A) (A)
                 (A) (A) (A) (A) (A) (A) (A) (A) (A) (A) (A) (A)
                 (A) (A) (A) (A) (A) (A) (A) (A) (A) (A) (A) (A)
                 (A) (A) (A) (A) (A) (A) (A) (A) (A) (A) (A) (A)
                 (A) (A) (A) (A) (A) (A) (A) (A) (A) (A) (A) (A)
                 (A) (A) (A) (A) (A) (A) (A) (A) (A) (A) (A) (A)
                 (A) (A) (A) (A) (A) (A) (A) (A) (A) (A) (A) (A)
                 (A) (A) (A) (A) (A) (A) (A) (A) (A) (A) (A) (A)
                 (A) (A) (A) (A) (A) (A) (A) (A) (A) (A) (A) (A)
                 (A) (A) (A) (A) (A) (A) (A) (A) (A) (A) (A) (A)
                 (A) (A) (A) (A) (A) (A) (A) (A) (A) (A) (A) (A)
                 (A) (A) (A) (A) (A) (A) (A) (A) (A) (A) (A) (A)
                 (A) (A) (A) (A) (A) (A) (A)
       Virtual   (A) (A) (A) (A) (A) (A) (A) (A) (A) (A) (A) (A)
                 (A) (A) (A) (A) (A) (A) (A) (A) (A) (A) (A) (A)
                 (A) (A) (A) (A) (A) (A) (A) (A) (A) (A) (A) (A)
                 (A) (A) (A) (A) (A) (A) (A) (A) (A) (A) (A) (A)
                 (A) (A) (A) (A) (A) (A) (A) (A) (A) (A) (A) (A)
                 (A) (A) (A) (A) (A) (A) (A) (A) (A) (A) (A) (A)
                 (A) (A) (A) (A) (A) (A) (A) (A) (A) (A) (A) (A)
                 (A) (A) (A) (A) (A) (A) (A) (A) (A) (A) (A) (A)
                 (A) (A) (A) (A) (A) (A) (A) (A) (A) (A) (A) (A)
                 (A) (A) (A) (A) (A) (A) (A) (A) (A) (A) (A) (A)
                 (A) (A) (A) (A) (A) (A) (A) (A) (A) (A) (A) (A)
                 (A) (A) (A) (A) (A) (A) (A) (A) (A) (A) (A) (A)
                 (A) (A) (A) (A) (A) (A) (A) (A) (A) (A) (A) (A)
                 (A) (A) (A) (A) (A) (A) (A) (A) (A) (A) (A) (A)
                 (A) (A) (A) (A) (A) (A) (A) (A) (A) (A) (A) (A)
                 (A) (A) (A) (A) (A) (A) (A) (A) (A) (A) (A) (A)
                 (A) (A) (A) (A) (A) (A) (A) (A) (A) (A) (A) (A)
                 (A) (A) (A) (A) (A) (A) (A) (A) (A) (A) (A) (A)
                 (A) (A) (A) (A) (A) (A) (A) (A) (A) (A) (A) (A)
                 (A) (A) (A) (A) (A) (A) (A) (A) (A) (A) (A) (A)
                 (A) (A) (A) (A) (A) (A) (A) (A) (A) (A) (A) (A)
                 (A) (A) (A) (A) (A) (A) (A) (A) (A) (A) (A) (A)
                 (A) (A) (A) (A) (A) (A) (A) (A) (A) (A) (A) (A)
                 (A) (A) (A) (A) (A) (A) (A) (A) (A) (A) (A) (A)
                 (A) (A) (A) (A) (A) (A) (A) (A) (A) (A) (A) (A)
                 (A) (A) (A) (A) (A) (A) (A) (A) (A) (A) (A) (A)
                 (A) (A) (A) (A) (A) (A) (A) (A) (A) (A) (A) (A)
                 (A) (A) (A) (A) (A) (A) (A) (A) (A) (A) (A) (A)
                 (A) (A) (A) (A) (A) (A) (A) (A) (A) (A) (A) (A)
                 (A) (A) (A) (A) (A) (A) (A) (A) (A) (A) (A) (A)
                 (A) (A) (A) (A) (A) (A) (A) (A) (A) (A) (A) (A)
                 (A) (A) (A) (A) (A) (A) (A) (A) (A) (A) (A) (A)
                 (A) (A) (A) (A) (A) (A) (A) (A) (A) (A) (A) (A)
                 (A) (A) (A) (A) (A) (A) (A) (A) (A) (A) (A) (A)
                 (A) (A) (A) (A) (A) (A) (A) (A) (A) (A) (A) (A)
                 (A) (A) (A) (A) (A) (A) (A) (A) (A) (A) (A) (A)
                 (A) (A) (A) (A) (A) (A) (A) (A) (A) (A) (A) (A)
                 (A) (A) (A) (A) (A) (A) (A) (A) (A) (A) (A) (A)
                 (A) (A) (A) (A) (A) (A) (A) (A) (A) (A) (A) (A)
                 (A) (A) (A) (A) (A) (A) (A) (A) (A) (A) (A) (A)
                 (A) (A) (A) (A) (A) (A) (A) (A) (A) (A) (A) (A)
                 (A) (A) (A) (A) (A) (A) (A) (A) (A) (A) (A) (A)
                 (A) (A) (A) (A) (A) (A) (A) (A) (A) (A) (A) (A)
                 (A) (A) (A) (A) (A) (A) (A) (A) (A) (A) (A) (A)
                 (A) (A) (A) (A) (A) (A) (A) (A) (A) (A) (A) (A)
                 (A) (A) (A) (A) (A) (A) (A) (A) (A) (A) (A) (A)
                 (A) (A) (A) (A) (A) (A) (A) (A) (A) (A) (A) (A)
                 (A) (A) (A) (A) (A) (A) (A) (A) (A) (A) (A) (A)
                 (A) (A) (A) (A) (A) (A) (A) (A) (A) (A) (A) (A)
                 (A) (A) (A) (A) (A) (A) (A) (A) (A) (A) (A) (A)
                 (A) (A) (A) (A) (A) (A) (A) (A) (A) (A) (A) (A)
                 (A) (A) (A) (A) (A) (A) (A) (A) (A) (A) (A) (A)
                 (A) (A) (A) (A) (A) (A) (A) (A) (A) (A) (A) (A)
                 (A) (A) (A) (A) (A) (A) (A) (A) (A) (A) (A) (A)
                 (A) (A) (A) (A) (A) (A) (A) (A) (A) (A) (A) (A)
                 (A) (A) (A) (A) (A) (A) (A) (A) (A) (A) (A) (A)
                 (A) (A) (A) (A) (A) (A) (A) (A) (A) (A) (A) (A)
                 (A) (A) (A) (A) (A) (A) (A) (A) (A) (A) (A) (A)
                 (A) (A) (A) (A) (A) (A) (A) (A) (A) (A) (A) (A)
                 (A) (A) (A) (A) (A) (A) (A) (A) (A) (A) (A) (A)
                 (A) (A) (A) (A) (A) (A) (A) (A) (A) (A) (A) (A)
                 (A) (A) (A) (A) (A) (A) (A) (A) (A) (A) (A) (A)
                 (A) (A) (A) (A) (A) (A) (A) (A) (A) (A) (A) (A)
                 (A) (A) (A) (A) (A) (A) (A) (A) (A) (A) (A) (A)
                 (A) (A) (A) (A) (A) (A) (A) (A) (A) (A) (A) (A)
                 (A) (A) (A) (A) (A) (A) (A) (A) (A) (A) (A) (A)
                 (A) (A) (A) (A) (A) (A) (A) (A) (A) (A) (A) (A)
                 (A) (A) (A) (A) (A) (A) (A) (A) (A) (A) (A) (A)
                 (A) (A) (A) (A) (A) (A) (A) (A) (A) (A) (A) (A)
                 (A) (A) (A) (A) (A) (A) (A) (A) (A) (A) (A) (A)
                 (A) (A) (A) (A) (A) (A) (A) (A) (A) (A) (A) (A)
                 (A) (A) (A) (A) (A) (A) (A) (A) (A) (A) (A) (A)
                 (A) (A) (A) (A) (A) (A) (A) (A) (A) (A) (A) (A)
                 (A) (A) (A) (A) (A) (A) (A) (A) (A) (A) (A) (A)
                 (A) (A) (A) (A) (A) (A) (A) (A) (A) (A) (A) (A)
                 (A) (A) (A) (A) (A) (A) (A) (A) (A) (A) (A) (A)
                 (A) (A) (A) (A) (A) (A) (A) (A) (A) (A) (A) (A)
                 (A) (A) (A) (A) (A) (A) (A) (A) (A) (A) (A) (A)
                 (A) (A) (A) (A) (A) (A) (A) (A) (A) (A) (A) (A)
                 (A) (A) (A) (A) (A) (A) (A) (A) (A) (A) (A) (A)
                 (A) (A) (A) (A) (A) (A) (A) (A) (A) (A) (A) (A)
                 (A) (A) (A) (A) (A) (A) (A) (A) (A) (A) (A) (A)
                 (A) (A) (A) (A) (A) (A) (A) (A) (A) (A) (A) (A)
                 (A) (A) (A) (A) (A) (A) (A) (A) (A) (A) (A) (A)
                 (A) (A) (A) (A) (A) (A) (A) (A) (A) (A) (A) (A)
                 (A) (A) (A) (A) (A) (A) (A) (A) (A) (A) (A) (A)
                 (A) (A) (A) (A) (A) (A) (A) (A) (A) (A) (A) (A)
                 (A) (A) (A) (A) (A) (A) (A) (A) (A) (A) (A) (A)
                 (A) (A) (A) (A) (A) (A) (A) (A) (A) (A) (A) (A)
                 (A) (A) (A) (A) (A) (A) (A) (A) (A) (A) (A) (A)
                 (A) (A) (A) (A) (A) (A) (A) (A) (A) (A) (A) (A)
                 (A) (A) (A) (A) (A) (A) (A) (A) (A) (A) (A) (A)
                 (A) (A) (A) (A) (A) (A) (A) (A) (A) (A) (A) (A)
                 (A) (A) (A) (A) (A) (A) (A) (A) (A) (A) (A) (A)
                 (A) (A) (A) (A) (A) (A) (A) (A) (A) (A) (A) (A)
                 (A) (A) (A) (A) (A) (A) (A) (A) (A) (A) (A) (A)
                 (A) (A) (A) (A) (A) (A) (A) (A) (A) (A) (A) (A)
                 (A) (A) (A) (A) (A) (A) (A) (A) (A) (A) (A) (A)
                 (A) (A) (A) (A) (A) (A) (A) (A) (A) (A) (A) (A)
                 (A) (A) (A) (A) (A) (A) (A) (A) (A) (A) (A) (A)
                 (A) (A) (A) (A) (A) (A) (A) (A) (A) (A) (A) (A)
                 (A) (A) (A) (A) (A) (A) (A) (A) (A) (A) (A) (A)
                 (A) (A) (A) (A) (A) (A) (A) (A) (A) (A) (A) (A)
                 (A) (A) (A) (A) (A) (A) (A) (A) (A) (A) (A) (A)
                 (A) (A) (A) (A) (A) (A) (A) (A) (A) (A) (A) (A)
                 (A) (A) (A) (A) (A) (A) (A) (A) (A) (A) (A) (A)
                 (A) (A) (A) (A) (A) (A) (A) (A) (A) (A) (A) (A)
                 (A) (A) (A) (A) (A) (A) (A) (A) (A) (A) (A) (A)
                 (A) (A) (A) (A) (A) (A) (A) (A) (A) (A) (A) (A)
                 (A) (A) (A) (A) (A) (A) (A) (A) (A) (A) (A) (A)
                 (A) (A) (A) (A) (A) (A) (A) (A) (A) (A) (A) (A)
                 (A) (A) (A) (A) (A) (A) (A) (A) (A) (A) (A) (A)
                 (A) (A) (A) (A) (A) (A) (A) (A) (A) (A) (A) (A)
                 (A) (A) (A) (A) (A) (A) (A) (A) (A) (A) (A) (A)
                 (A) (A) (A) (A) (A) (A) (A) (A) (A) (A) (A) (A)
                 (A) (A) (A) (A) (A) (A) (A) (A) (A) (A) (A) (A)
                 (A) (A) (A) (A) (A) (A) (A) (A) (A) (A) (A) (A)
                 (A) (A) (A) (A) (A) (A) (A) (A) (A) (A) (A) (A)
                 (A) (A) (A) (A) (A) (A) (A) (A) (A) (A) (A) (A)
                 (A) (A) (A) (A) (A) (A) (A) (A) (A) (A) (A) (A)
                 (A) (A) (A) (A) (A) (A) (A) (A) (A) (A) (A) (A)
                 (A) (A) (A) (A) (A) (A) (A) (A) (A) (A) (A) (A)
                 (A) (A) (A) (A) (A) (A) (A) (A) (A) (A) (A) (A)
                 (A) (A) (A) (A) (A) (A) (A) (A) (A) (A) (A) (A)
                 (A) (A) (A) (A) (A) (A) (A) (A) (A) (A) (A) (A)
                 (A) (A) (A) (A) (A) (A) (A) (A) (A) (A) (A) (A)
                 (A) (A) (A) (A) (A) (A) (A) (A) (A) (A) (A) (A)
                 (A) (A) (A) (A) (A) (A) (A) (A) (A) (A) (A) (A)
 The electronic state is 1-A.
 Alpha  occ. eigenvalues -- -256.16529 -30.01683 -25.85785 -25.85495 -25.85396
 Alpha  occ. eigenvalues --  -14.40595 -14.40582 -14.34561 -14.34533 -14.32800
 Alpha  occ. eigenvalues --  -14.32775 -14.32618 -14.32609 -10.24509 -10.24506
 Alpha  occ. eigenvalues --  -10.22600 -10.22563 -10.21327 -10.21140 -10.21093
 Alpha  occ. eigenvalues --  -10.21011 -10.20843 -10.20829 -10.20707 -10.20657
 Alpha  occ. eigenvalues --  -10.20613 -10.20584 -10.20562 -10.20431 -10.19737
 Alpha  occ. eigenvalues --  -10.19708 -10.19652 -10.19563 -10.19555 -10.19552
 Alpha  occ. eigenvalues --  -10.19500 -10.19379 -10.19276 -10.19256 -10.19199
 Alpha  occ. eigenvalues --  -10.19163 -10.19137 -10.19098 -10.19033 -10.19031
 Alpha  occ. eigenvalues --  -10.18533 -10.18440 -10.18033 -10.17922 -10.17903
 Alpha  occ. eigenvalues --  -10.17811  -3.39006  -2.15443  -2.14968  -2.14821
 Alpha  occ. eigenvalues --   -1.04583  -1.04553  -0.94487  -0.93503  -0.93416
 Alpha  occ. eigenvalues --   -0.92411  -0.89039  -0.88932  -0.80759  -0.79476
 Alpha  occ. eigenvalues --   -0.79312  -0.79279  -0.79139  -0.78868  -0.78417
 Alpha  occ. eigenvalues --   -0.78046  -0.77688  -0.75058  -0.74489  -0.72916
 Alpha  occ. eigenvalues --   -0.72548  -0.71299  -0.70407  -0.70392  -0.69452
 Alpha  occ. eigenvalues --   -0.68512  -0.67167  -0.66957  -0.66470  -0.63404
 Alpha  occ. eigenvalues --   -0.63220  -0.63008  -0.62879  -0.60431  -0.60402
 Alpha  occ. eigenvalues --   -0.58796  -0.58333  -0.56858  -0.55022  -0.54612
 Alpha  occ. eigenvalues --   -0.54563  -0.53218  -0.52240  -0.52215  -0.50822
 Alpha  occ. eigenvalues --   -0.49541  -0.49470  -0.48924  -0.47482  -0.46756
 Alpha  occ. eigenvalues --   -0.46558  -0.46476  -0.46371  -0.46224  -0.45803
 Alpha  occ. eigenvalues --   -0.44327  -0.43948  -0.43573  -0.43205  -0.42911
 Alpha  occ. eigenvalues --   -0.42683  -0.42324  -0.41950  -0.41911  -0.41818
 Alpha  occ. eigenvalues --   -0.41717  -0.41543  -0.41389  -0.41354  -0.41246
 Alpha  occ. eigenvalues --   -0.41016  -0.40809  -0.40756  -0.40545  -0.40483
 Alpha  occ. eigenvalues --   -0.40449  -0.40405  -0.39177  -0.38896  -0.38778
 Alpha  occ. eigenvalues --   -0.38580  -0.38275  -0.37692  -0.37653  -0.37536
 Alpha  occ. eigenvalues --   -0.37256  -0.36859  -0.36541  -0.36125  -0.35787
 Alpha  occ. eigenvalues --   -0.35596  -0.35301  -0.34936  -0.34040  -0.33470
 Alpha  occ. eigenvalues --   -0.33072  -0.32601  -0.31936  -0.31163  -0.30731
 Alpha  occ. eigenvalues --   -0.30611  -0.30489  -0.30072  -0.28347  -0.28141
 Alpha  occ. eigenvalues --   -0.27046  -0.26748  -0.25988  -0.25924  -0.23773
 Alpha  occ. eigenvalues --   -0.23643  -0.23024  -0.22898  -0.22541  -0.21866
 Alpha  occ. eigenvalues --   -0.18070  -0.17482  -0.17055  -0.16681  -0.16545
 Alpha virt. eigenvalues --   -0.05662  -0.05506  -0.00654   0.00295   0.01000
 Alpha virt. eigenvalues --    0.02570   0.02665   0.02821   0.03495   0.04364
 Alpha virt. eigenvalues --    0.04804   0.05239   0.05415   0.05542   0.05779
 Alpha virt. eigenvalues --    0.06227   0.06476   0.06508   0.06907   0.07090
 Alpha virt. eigenvalues --    0.07453   0.07642   0.07907   0.08428   0.08596
 Alpha virt. eigenvalues --    0.09007   0.09552   0.09765   0.09964   0.10049
 Alpha virt. eigenvalues --    0.10255   0.10433   0.10619   0.11140   0.11514
 Alpha virt. eigenvalues --    0.11944   0.12006   0.12102   0.12453   0.12499
 Alpha virt. eigenvalues --    0.12709   0.12744   0.13097   0.13204   0.13377
 Alpha virt. eigenvalues --    0.13441   0.13745   0.13843   0.14072   0.14346
 Alpha virt. eigenvalues --    0.14477   0.14600   0.14692   0.14834   0.14934
 Alpha virt. eigenvalues --    0.15207   0.15287   0.15398   0.15580   0.15608
 Alpha virt. eigenvalues --    0.15818   0.16010   0.16252   0.16478   0.16768
 Alpha virt. eigenvalues --    0.16822   0.17039   0.17927   0.18272   0.18388
 Alpha virt. eigenvalues --    0.18666   0.19162   0.19518   0.19545   0.19643
 Alpha virt. eigenvalues --    0.20454   0.20834   0.20889   0.21105   0.21124
 Alpha virt. eigenvalues --    0.21531   0.21607   0.21934   0.22020   0.22137
 Alpha virt. eigenvalues --    0.22352   0.22904   0.22946   0.23165   0.23505
 Alpha virt. eigenvalues --    0.23630   0.24055   0.24366   0.24534   0.24808
 Alpha virt. eigenvalues --    0.25271   0.25423   0.25807   0.25972   0.26384
 Alpha virt. eigenvalues --    0.26513   0.26640   0.26994   0.27205   0.27302
 Alpha virt. eigenvalues --    0.27548   0.27839   0.27911   0.28473   0.28573
 Alpha virt. eigenvalues --    0.28663   0.29001   0.29203   0.29425   0.29543
 Alpha virt. eigenvalues --    0.29790   0.30260   0.30384   0.30647   0.30795
 Alpha virt. eigenvalues --    0.30962   0.31311   0.31379   0.31741   0.32171
 Alpha virt. eigenvalues --    0.32682   0.32910   0.32964   0.33237   0.33549
 Alpha virt. eigenvalues --    0.34102   0.34192   0.34559   0.34640   0.34779
 Alpha virt. eigenvalues --    0.34975   0.35566   0.36017   0.36154   0.36439
 Alpha virt. eigenvalues --    0.36630   0.36992   0.37153   0.37361   0.37797
 Alpha virt. eigenvalues --    0.37842   0.37996   0.38202   0.38343   0.38434
 Alpha virt. eigenvalues --    0.38854   0.39017   0.39156   0.39292   0.39453
 Alpha virt. eigenvalues --    0.39568   0.39605   0.40076   0.40258   0.40469
 Alpha virt. eigenvalues --    0.40633   0.40724   0.41035   0.41142   0.41331
 Alpha virt. eigenvalues --    0.41774   0.41985   0.42319   0.42483   0.42612
 Alpha virt. eigenvalues --    0.42746   0.42958   0.43065   0.43221   0.43387
 Alpha virt. eigenvalues --    0.43637   0.43746   0.43937   0.44197   0.44373
 Alpha virt. eigenvalues --    0.44484   0.44751   0.45047   0.45108   0.45433
 Alpha virt. eigenvalues --    0.45771   0.45851   0.45963   0.46132   0.46251
 Alpha virt. eigenvalues --    0.46444   0.46668   0.46759   0.46863   0.46947
 Alpha virt. eigenvalues --    0.47181   0.47389   0.47618   0.47638   0.47766
 Alpha virt. eigenvalues --    0.47964   0.47979   0.48353   0.48519   0.48746
 Alpha virt. eigenvalues --    0.48923   0.49067   0.49220   0.49431   0.49571
 Alpha virt. eigenvalues --    0.49917   0.50080   0.50206   0.50507   0.50725
 Alpha virt. eigenvalues --    0.51211   0.51378   0.51651   0.51708   0.51855
 Alpha virt. eigenvalues --    0.52078   0.52163   0.52746   0.52819   0.53153
 Alpha virt. eigenvalues --    0.53189   0.53385   0.53566   0.53993   0.54311
 Alpha virt. eigenvalues --    0.54416   0.54576   0.54769   0.55134   0.55548
 Alpha virt. eigenvalues --    0.55574   0.55978   0.56181   0.56311   0.56608
 Alpha virt. eigenvalues --    0.56939   0.57062   0.57248   0.57611   0.57880
 Alpha virt. eigenvalues --    0.58172   0.58292   0.58492   0.58694   0.59241
 Alpha virt. eigenvalues --    0.59356   0.59425   0.59870   0.59983   0.60399
 Alpha virt. eigenvalues --    0.60651   0.60927   0.61019   0.61160   0.61321
 Alpha virt. eigenvalues --    0.61611   0.61809   0.62801   0.62928   0.63182
 Alpha virt. eigenvalues --    0.63694   0.63920   0.64054   0.64606   0.64746
 Alpha virt. eigenvalues --    0.65008   0.65237   0.65370   0.65618   0.65930
 Alpha virt. eigenvalues --    0.66219   0.66657   0.66791   0.67111   0.67486
 Alpha virt. eigenvalues --    0.67603   0.68238   0.68620   0.69127   0.69360
 Alpha virt. eigenvalues --    0.69860   0.70157   0.70299   0.70618   0.71112
 Alpha virt. eigenvalues --    0.71403   0.71555   0.72113   0.72302   0.73027
 Alpha virt. eigenvalues --    0.73332   0.73423   0.73860   0.74094   0.74267
 Alpha virt. eigenvalues --    0.74607   0.74848   0.75152   0.75420   0.75661
 Alpha virt. eigenvalues --    0.75728   0.75799   0.75979   0.76639   0.76995
 Alpha virt. eigenvalues --    0.77425   0.77592   0.77805   0.77967   0.78162
 Alpha virt. eigenvalues --    0.78553   0.78728   0.79328   0.79941   0.80111
 Alpha virt. eigenvalues --    0.80374   0.80689   0.80860   0.81201   0.82113
 Alpha virt. eigenvalues --    0.82563   0.82793   0.82983   0.83160   0.83308
 Alpha virt. eigenvalues --    0.83915   0.84083   0.84590   0.84749   0.84870
 Alpha virt. eigenvalues --    0.85847   0.85914   0.86590   0.86769   0.86939
 Alpha virt. eigenvalues --    0.87179   0.87361   0.88112   0.88356   0.88641
 Alpha virt. eigenvalues --    0.89080   0.89661   0.90108   0.90172   0.90807
 Alpha virt. eigenvalues --    0.91068   0.91632   0.91971   0.92276   0.92495
 Alpha virt. eigenvalues --    0.92611   0.93110   0.93433   0.93576   0.93943
 Alpha virt. eigenvalues --    0.94267   0.94302   0.94993   0.95291   0.95405
 Alpha virt. eigenvalues --    0.95974   0.96438   0.96624   0.96913   0.97344
 Alpha virt. eigenvalues --    0.97558   0.97913   0.98109   0.98345   0.98576
 Alpha virt. eigenvalues --    0.99069   0.99122   0.99455   0.99511   0.99799
 Alpha virt. eigenvalues --    1.00004   1.00557   1.00779   1.00937   1.01291
 Alpha virt. eigenvalues --    1.01666   1.01695   1.02069   1.02342   1.02527
 Alpha virt. eigenvalues --    1.02813   1.03145   1.03550   1.03910   1.04128
 Alpha virt. eigenvalues --    1.04489   1.04800   1.04882   1.05702   1.06029
 Alpha virt. eigenvalues --    1.06241   1.06489   1.06677   1.07176   1.07405
 Alpha virt. eigenvalues --    1.07654   1.07745   1.08144   1.08609   1.08964
 Alpha virt. eigenvalues --    1.09034   1.09776   1.09900   1.10320   1.10625
 Alpha virt. eigenvalues --    1.10913   1.11215   1.11535   1.11744   1.11921
 Alpha virt. eigenvalues --    1.13016   1.13455   1.13691   1.14141   1.14472
 Alpha virt. eigenvalues --    1.15011   1.15822   1.15963   1.16221   1.16580
 Alpha virt. eigenvalues --    1.16701   1.17100   1.17426   1.18063   1.18310
 Alpha virt. eigenvalues --    1.18431   1.18718   1.19094   1.19393   1.19793
 Alpha virt. eigenvalues --    1.19910   1.20193   1.20934   1.21127   1.21449
 Alpha virt. eigenvalues --    1.21985   1.22271   1.22491   1.22958   1.23150
 Alpha virt. eigenvalues --    1.23825   1.24169   1.24652   1.24873   1.25016
 Alpha virt. eigenvalues --    1.25536   1.25560   1.25977   1.26387   1.26637
 Alpha virt. eigenvalues --    1.26952   1.27306   1.27732   1.27815   1.28347
 Alpha virt. eigenvalues --    1.28680   1.29043   1.29192   1.29704   1.29983
 Alpha virt. eigenvalues --    1.30398   1.30792   1.31244   1.31418   1.31734
 Alpha virt. eigenvalues --    1.32066   1.32910   1.33085   1.33436   1.33777
 Alpha virt. eigenvalues --    1.34209   1.34794   1.35761   1.35959   1.36637
 Alpha virt. eigenvalues --    1.36803   1.37609   1.37878   1.38269   1.38455
 Alpha virt. eigenvalues --    1.38799   1.39266   1.39967   1.40562   1.40670
 Alpha virt. eigenvalues --    1.41120   1.41517   1.41951   1.42477   1.42993
 Alpha virt. eigenvalues --    1.43236   1.43824   1.44284   1.45523   1.45614
 Alpha virt. eigenvalues --    1.46370   1.46645   1.47350   1.47467   1.47915
 Alpha virt. eigenvalues --    1.48313   1.48577   1.48942   1.49469   1.49549
 Alpha virt. eigenvalues --    1.49819   1.49954   1.50477   1.50792   1.50997
 Alpha virt. eigenvalues --    1.51159   1.51292   1.51377   1.51692   1.51992
 Alpha virt. eigenvalues --    1.52310   1.52822   1.52844   1.53220   1.53327
 Alpha virt. eigenvalues --    1.53336   1.53662   1.53888   1.54133   1.54231
 Alpha virt. eigenvalues --    1.54457   1.54632   1.54764   1.54952   1.55084
 Alpha virt. eigenvalues --    1.55176   1.55541   1.56149   1.56377   1.56501
 Alpha virt. eigenvalues --    1.56730   1.57126   1.57171   1.57641   1.58225
 Alpha virt. eigenvalues --    1.58475   1.58727   1.59138   1.59269   1.59836
 Alpha virt. eigenvalues --    1.59888   1.60297   1.60391   1.60574   1.60680
 Alpha virt. eigenvalues --    1.61123   1.61387   1.61632   1.62065   1.62481
 Alpha virt. eigenvalues --    1.62553   1.62865   1.63274   1.63374   1.63461
 Alpha virt. eigenvalues --    1.63754   1.63852   1.64168   1.64350   1.64667
 Alpha virt. eigenvalues --    1.64969   1.65280   1.65356   1.65607   1.65730
 Alpha virt. eigenvalues --    1.65927   1.66174   1.66782   1.67026   1.67375
 Alpha virt. eigenvalues --    1.67837   1.68347   1.68463   1.68772   1.68916
 Alpha virt. eigenvalues --    1.69185   1.69456   1.69846   1.70024   1.70292
 Alpha virt. eigenvalues --    1.70520   1.70899   1.71488   1.71693   1.72075
 Alpha virt. eigenvalues --    1.72196   1.72448   1.72778   1.72926   1.73216
 Alpha virt. eigenvalues --    1.73802   1.74176   1.74332   1.74943   1.75475
 Alpha virt. eigenvalues --    1.75717   1.76356   1.76423   1.77496   1.78538
 Alpha virt. eigenvalues --    1.79692   1.80227   1.80633   1.80787   1.81348
 Alpha virt. eigenvalues --    1.81768   1.82069   1.82278   1.82581   1.82873
 Alpha virt. eigenvalues --    1.83181   1.83549   1.83663   1.84371   1.85167
 Alpha virt. eigenvalues --    1.85604   1.85941   1.86226   1.86331   1.86709
 Alpha virt. eigenvalues --    1.87389   1.87650   1.87996   1.88290   1.88809
 Alpha virt. eigenvalues --    1.88896   1.89457   1.89747   1.90292   1.90779
 Alpha virt. eigenvalues --    1.91168   1.91635   1.92552   1.93047   1.93434
 Alpha virt. eigenvalues --    1.93687   1.94397   1.94580   1.95126   1.95249
 Alpha virt. eigenvalues --    1.95476   1.95783   1.96161   1.96653   1.96829
 Alpha virt. eigenvalues --    1.97466   1.97852   1.98326   1.98343   1.98588
 Alpha virt. eigenvalues --    1.98919   1.99380   1.99790   1.99967   2.00029
 Alpha virt. eigenvalues --    2.00765   2.01711   2.02142   2.02792   2.03023
 Alpha virt. eigenvalues --    2.03525   2.03781   2.04494   2.05099   2.05418
 Alpha virt. eigenvalues --    2.05870   2.06470   2.06789   2.06936   2.07364
 Alpha virt. eigenvalues --    2.07818   2.08285   2.08768   2.08877   2.09632
 Alpha virt. eigenvalues --    2.09798   2.10531   2.10674   2.11234   2.11593
 Alpha virt. eigenvalues --    2.12029   2.12054   2.12833   2.13029   2.13512
 Alpha virt. eigenvalues --    2.13743   2.14371   2.14610   2.14719   2.15044
 Alpha virt. eigenvalues --    2.15350   2.15838   2.15914   2.16565   2.16724
 Alpha virt. eigenvalues --    2.17148   2.17255   2.17612   2.18349   2.18680
 Alpha virt. eigenvalues --    2.19103   2.19439   2.19684   2.19833   2.20397
 Alpha virt. eigenvalues --    2.20673   2.20864   2.21592   2.21916   2.22065
 Alpha virt. eigenvalues --    2.22467   2.23300   2.23518   2.24198   2.25093
 Alpha virt. eigenvalues --    2.25180   2.25551   2.26170   2.26688   2.27037
 Alpha virt. eigenvalues --    2.27924   2.28414   2.29083   2.29454   2.29520
 Alpha virt. eigenvalues --    2.29933   2.30279   2.30621   2.30682   2.31322
 Alpha virt. eigenvalues --    2.31408   2.31757   2.31934   2.32200   2.32480
 Alpha virt. eigenvalues --    2.32956   2.33274   2.33447   2.33741   2.34195
 Alpha virt. eigenvalues --    2.34257   2.34538   2.35031   2.35386   2.36041
 Alpha virt. eigenvalues --    2.36388   2.36654   2.37023   2.37182   2.37421
 Alpha virt. eigenvalues --    2.38014   2.38412   2.38791   2.39139   2.39219
 Alpha virt. eigenvalues --    2.40095   2.40313   2.40747   2.40773   2.41894
 Alpha virt. eigenvalues --    2.42119   2.42317   2.42575   2.43048   2.43441
 Alpha virt. eigenvalues --    2.43568   2.44106   2.44548   2.44924   2.45026
 Alpha virt. eigenvalues --    2.45183   2.46136   2.46370   2.46595   2.47077
 Alpha virt. eigenvalues --    2.47899   2.48090   2.48699   2.49119   2.49469
 Alpha virt. eigenvalues --    2.49797   2.50498   2.50748   2.51209   2.51505
 Alpha virt. eigenvalues --    2.51772   2.52256   2.52655   2.52900   2.52999
 Alpha virt. eigenvalues --    2.53348   2.53620   2.53980   2.54254   2.54931
 Alpha virt. eigenvalues --    2.55133   2.55194   2.55806   2.56004   2.56371
 Alpha virt. eigenvalues --    2.56651   2.57056   2.57433   2.57825   2.57925
 Alpha virt. eigenvalues --    2.58399   2.58729   2.59146   2.59960   2.60331
 Alpha virt. eigenvalues --    2.60542   2.61240   2.61751   2.61881   2.62184
 Alpha virt. eigenvalues --    2.62490   2.62864   2.63555   2.63773   2.64098
 Alpha virt. eigenvalues --    2.64309   2.65101   2.65635   2.65809   2.66037
 Alpha virt. eigenvalues --    2.66768   2.67356   2.67662   2.67752   2.68167
 Alpha virt. eigenvalues --    2.68272   2.68563   2.68814   2.68925   2.69427
 Alpha virt. eigenvalues --    2.69928   2.70208   2.70819   2.70991   2.71449
 Alpha virt. eigenvalues --    2.72006   2.72114   2.72556   2.73030   2.73353
 Alpha virt. eigenvalues --    2.74081   2.74326   2.74851   2.75206   2.75649
 Alpha virt. eigenvalues --    2.75869   2.76276   2.76544   2.77109   2.77584
 Alpha virt. eigenvalues --    2.77866   2.78097   2.78930   2.78997   2.79463
 Alpha virt. eigenvalues --    2.79886   2.80087   2.81004   2.81344   2.81624
 Alpha virt. eigenvalues --    2.81904   2.82136   2.82440   2.82575   2.82945
 Alpha virt. eigenvalues --    2.83376   2.83639   2.83941   2.84058   2.84377
 Alpha virt. eigenvalues --    2.84749   2.84934   2.85210   2.85804   2.85980
 Alpha virt. eigenvalues --    2.86752   2.87210   2.88097   2.88295   2.88684
 Alpha virt. eigenvalues --    2.89298   2.89598   2.89928   2.90415   2.90847
 Alpha virt. eigenvalues --    2.91228   2.91389   2.91656   2.92131   2.92344
 Alpha virt. eigenvalues --    2.92611   2.92900   2.93526   2.93603   2.93844
 Alpha virt. eigenvalues --    2.94166   2.94917   2.95339   2.95894   2.96195
 Alpha virt. eigenvalues --    2.96286   2.96782   2.97115   2.97248   2.97667
 Alpha virt. eigenvalues --    2.98563   2.98928   2.99002   2.99291   2.99496
 Alpha virt. eigenvalues --    3.00250   3.00391   3.00490   3.00908   3.01060
 Alpha virt. eigenvalues --    3.01439   3.01804   3.01981   3.02280   3.03525
 Alpha virt. eigenvalues --    3.03772   3.03996   3.04097   3.04468   3.05320
 Alpha virt. eigenvalues --    3.05470   3.05840   3.06223   3.06460   3.06554
 Alpha virt. eigenvalues --    3.06860   3.07357   3.07750   3.08057   3.08221
 Alpha virt. eigenvalues --    3.08306   3.08856   3.08922   3.09130   3.09454
 Alpha virt. eigenvalues --    3.09610   3.09970   3.10181   3.10483   3.10939
 Alpha virt. eigenvalues --    3.11155   3.11496   3.11616   3.11723   3.11861
 Alpha virt. eigenvalues --    3.12328   3.12542   3.12972   3.13196   3.13457
 Alpha virt. eigenvalues --    3.13664   3.13905   3.14185   3.14543   3.14955
 Alpha virt. eigenvalues --    3.15050   3.15253   3.15583   3.15732   3.16062
 Alpha virt. eigenvalues --    3.16299   3.16511   3.16683   3.16849   3.16920
 Alpha virt. eigenvalues --    3.17457   3.17648   3.18004   3.18486   3.18596
 Alpha virt. eigenvalues --    3.19055   3.19351   3.19525   3.19666   3.20058
 Alpha virt. eigenvalues --    3.20552   3.20822   3.21072   3.21229   3.21699
 Alpha virt. eigenvalues --    3.22058   3.22123   3.22390   3.22789   3.23497
 Alpha virt. eigenvalues --    3.23599   3.23975   3.24439   3.24510   3.24906
 Alpha virt. eigenvalues --    3.25203   3.25292   3.25447   3.25660   3.26108
 Alpha virt. eigenvalues --    3.26454   3.26856   3.27204   3.27390   3.27414
 Alpha virt. eigenvalues --    3.27865   3.28033   3.28287   3.28537   3.28640
 Alpha virt. eigenvalues --    3.28978   3.29412   3.29685   3.29748   3.30043
 Alpha virt. eigenvalues --    3.30389   3.30699   3.30927   3.30998   3.31359
 Alpha virt. eigenvalues --    3.31467   3.31662   3.32113   3.32239   3.32332
 Alpha virt. eigenvalues --    3.32562   3.32876   3.33221   3.33593   3.33742
 Alpha virt. eigenvalues --    3.33990   3.34688   3.34812   3.34930   3.35048
 Alpha virt. eigenvalues --    3.35525   3.35732   3.36007   3.36198   3.36477
 Alpha virt. eigenvalues --    3.36600   3.36842   3.37113   3.37294   3.37761
 Alpha virt. eigenvalues --    3.38179   3.38269   3.38695   3.38811   3.38985
 Alpha virt. eigenvalues --    3.39439   3.39877   3.39984   3.40142   3.40416
 Alpha virt. eigenvalues --    3.40710   3.41045   3.41106   3.41596   3.41788
 Alpha virt. eigenvalues --    3.41900   3.42310   3.42625   3.42715   3.43287
 Alpha virt. eigenvalues --    3.43672   3.43754   3.44261   3.44356   3.44759
 Alpha virt. eigenvalues --    3.45291   3.45677   3.45890   3.46056   3.46547
 Alpha virt. eigenvalues --    3.46941   3.47217   3.47419   3.47859   3.48020
 Alpha virt. eigenvalues --    3.48274   3.48623   3.48882   3.49767   3.50332
 Alpha virt. eigenvalues --    3.50655   3.50933   3.51791   3.52029   3.52417
 Alpha virt. eigenvalues --    3.52985   3.53279   3.53677   3.54133   3.54514
 Alpha virt. eigenvalues --    3.54805   3.55111   3.55587   3.56194   3.56381
 Alpha virt. eigenvalues --    3.56978   3.57306   3.57466   3.57733   3.58212
 Alpha virt. eigenvalues --    3.59153   3.59483   3.59685   3.60179   3.60682
 Alpha virt. eigenvalues --    3.60877   3.61178   3.61320   3.61803   3.62628
 Alpha virt. eigenvalues --    3.63339   3.63688   3.64106   3.64524   3.64733
 Alpha virt. eigenvalues --    3.65098   3.65439   3.65774   3.65933   3.66442
 Alpha virt. eigenvalues --    3.66588   3.66971   3.67179   3.67301   3.67334
 Alpha virt. eigenvalues --    3.68002   3.68157   3.68434   3.68553   3.68833
 Alpha virt. eigenvalues --    3.69278   3.69580   3.69772   3.70328   3.70804
 Alpha virt. eigenvalues --    3.71400   3.71492   3.71820   3.72179   3.72686
 Alpha virt. eigenvalues --    3.72917   3.73597   3.73678   3.73927   3.74830
 Alpha virt. eigenvalues --    3.75065   3.75195   3.75429   3.76495   3.76673
 Alpha virt. eigenvalues --    3.77371   3.77956   3.78287   3.79148   3.79468
 Alpha virt. eigenvalues --    3.79622   3.80690   3.81687   3.82255   3.82443
 Alpha virt. eigenvalues --    3.82472   3.83284   3.83617   3.83746   3.83796
 Alpha virt. eigenvalues --    3.84193   3.85004   3.85711   3.86459   3.86819
 Alpha virt. eigenvalues --    3.87399   3.87758   3.88087   3.89168   3.89369
 Alpha virt. eigenvalues --    3.89979   3.90178   3.90902   3.90957   3.91527
 Alpha virt. eigenvalues --    3.91566   3.92412   3.93270   3.93783   3.94362
 Alpha virt. eigenvalues --    3.94751   3.95692   3.96077   3.96641   3.98288
 Alpha virt. eigenvalues --    3.98461   3.99054   3.99215   3.99729   4.00354
 Alpha virt. eigenvalues --    4.00694   4.00763   4.01274   4.02827   4.03634
 Alpha virt. eigenvalues --    4.03959   4.04367   4.05111   4.05880   4.06223
 Alpha virt. eigenvalues --    4.07218   4.08005   4.09741   4.09996   4.11657
 Alpha virt. eigenvalues --    4.11968   4.12637   4.13563   4.13922   4.15145
 Alpha virt. eigenvalues --    4.15437   4.15747   4.15971   4.16165   4.17322
 Alpha virt. eigenvalues --    4.17614   4.17974   4.18133   4.18398   4.18914
 Alpha virt. eigenvalues --    4.19450   4.19639   4.20283   4.20857   4.21006
 Alpha virt. eigenvalues --    4.21446   4.21883   4.22362   4.22800   4.23206
 Alpha virt. eigenvalues --    4.23544   4.24350   4.24737   4.24966   4.25514
 Alpha virt. eigenvalues --    4.26152   4.26750   4.26891   4.27483   4.27539
 Alpha virt. eigenvalues --    4.28258   4.28872   4.29584   4.29789   4.30607
 Alpha virt. eigenvalues --    4.30765   4.31335   4.32162   4.32445   4.33024
 Alpha virt. eigenvalues --    4.33681   4.34061   4.35090   4.35475   4.35811
 Alpha virt. eigenvalues --    4.36049   4.36689   4.37041   4.37554   4.37964
 Alpha virt. eigenvalues --    4.38274   4.38568   4.39257   4.39355   4.39883
 Alpha virt. eigenvalues --    4.40229   4.40307   4.40769   4.41274   4.41574
 Alpha virt. eigenvalues --    4.42222   4.42461   4.42672   4.43152   4.43375
 Alpha virt. eigenvalues --    4.43834   4.44448   4.45374   4.45477   4.45829
 Alpha virt. eigenvalues --    4.46587   4.47565   4.47753   4.48318   4.50188
 Alpha virt. eigenvalues --    4.50390   4.50987   4.51095   4.52259   4.53427
 Alpha virt. eigenvalues --    4.54190   4.54742   4.56021   4.56258   4.58380
 Alpha virt. eigenvalues --    4.58772   4.59424   4.60315   4.61391   4.62106
 Alpha virt. eigenvalues --    4.62821   4.63132   4.63890   4.65335   4.65600
 Alpha virt. eigenvalues --    4.66196   4.66571   4.67590   4.68256   4.68572
 Alpha virt. eigenvalues --    4.69228   4.70059   4.70473   4.70604   4.71276
 Alpha virt. eigenvalues --    4.72247   4.73256   4.73660   4.73901   4.74502
 Alpha virt. eigenvalues --    4.76393   4.77783   4.78375   4.79166   4.79758
 Alpha virt. eigenvalues --    4.80251   4.80810   4.81146   4.81902   4.82386
 Alpha virt. eigenvalues --    4.82781   4.83071   4.83617   4.84062   4.85158
 Alpha virt. eigenvalues --    4.85562   4.87080   4.87135   4.88735   4.89353
 Alpha virt. eigenvalues --    4.90288   4.90848   4.91577   4.92562   4.93352
 Alpha virt. eigenvalues --    4.93924   4.94321   4.94966   4.95751   4.96444
 Alpha virt. eigenvalues --    4.96923   4.97406   4.97657   4.98808   4.99386
 Alpha virt. eigenvalues --    5.00244   5.01114   5.01724   5.02396   5.02906
 Alpha virt. eigenvalues --    5.04179   5.04462   5.04795   5.06622   5.06894
 Alpha virt. eigenvalues --    5.07399   5.08145   5.08413   5.09659   5.10969
 Alpha virt. eigenvalues --    5.12002   5.12233   5.12989   5.14310   5.15255
 Alpha virt. eigenvalues --    5.15716   5.16288   5.17254   5.17976   5.18987
 Alpha virt. eigenvalues --    5.20716   5.21810   5.22592   5.23871   5.24216
 Alpha virt. eigenvalues --    5.26845   5.28572   5.28817   5.30145   5.30517
 Alpha virt. eigenvalues --    5.31422   5.32704   5.33562   5.34115   5.36307
 Alpha virt. eigenvalues --    5.36864   5.38744   5.38998   5.39289   5.39578
 Alpha virt. eigenvalues --    5.41185   5.41508   5.43188   5.43575   5.44437
 Alpha virt. eigenvalues --    5.45435   5.45770   5.46005   5.46459   5.46797
 Alpha virt. eigenvalues --    5.48160   5.50860   5.51190   5.52681   5.53998
 Alpha virt. eigenvalues --    5.56288   5.57211   5.57990   5.58942   5.59442
 Alpha virt. eigenvalues --    5.60737   5.61160   5.61663   5.62296   5.63719
 Alpha virt. eigenvalues --    5.64675   5.65219   5.70018   5.70420   5.72872
 Alpha virt. eigenvalues --    5.76349   5.76847   5.77341   5.77897   5.81892
 Alpha virt. eigenvalues --    5.82343   5.83140   5.88729   5.95980   5.96353
 Alpha virt. eigenvalues --    5.98228   5.99031   6.00079   6.01942   6.02528
 Alpha virt. eigenvalues --    6.02955   6.06995   6.07771   6.09371   6.11281
 Alpha virt. eigenvalues --    6.11621   6.12760   6.17842   6.18408   6.19966
 Alpha virt. eigenvalues --    6.25128   6.27256   6.28400   6.28702   6.30949
 Alpha virt. eigenvalues --   22.19913  22.22125  22.29481  22.30283  22.33392
 Alpha virt. eigenvalues --   22.33840  22.36832  22.38143  22.42809  22.43793
 Alpha virt. eigenvalues --   22.62885  22.64856  22.78498  22.79355  22.85262
 Alpha virt. eigenvalues --   22.87262  22.88086  22.89628  22.96809  22.99028
 Alpha virt. eigenvalues --   23.01403  23.06836  23.07728  23.12277  23.12967
 Alpha virt. eigenvalues --   23.17363  23.19452  23.26563  23.27774  23.31038
 Alpha virt. eigenvalues --   23.33280  23.37926  23.40519  23.48526  23.61073
 Alpha virt. eigenvalues --   23.65710  23.71904  23.81819  32.44267  32.45465
 Alpha virt. eigenvalues --   32.81290  32.84174  33.00525  33.01681  33.04130
 Alpha virt. eigenvalues --   33.40985
          Condensed to atoms (all electrons):
 Mulliken charges:
               1
     1  Fe  -0.347724
     2  N   -0.003320
     3  N   -0.039631
     4  N   -0.037160
     5  N   -0.015139
     6  C    0.250134
     7  C   -0.044362
     8  C   -0.078094
     9  C    0.282360
    10  C    0.206227
    11  C   -0.015121
    12  C   -0.000915
    13  C    0.239400
    14  C    0.275695
    15  C   -0.022312
    16  C   -0.033829
    17  C    0.270166
    18  C    0.231550
    19  C   -0.059844
    20  C   -0.049864
    21  C    0.203585
    22  C   -0.541038
    23  H    0.116825
    24  C   -0.549301
    25  H    0.132356
    26  C   -0.538429
    27  H    0.123796
    28  C   -0.510975
    29  H    0.129592
    30  C   -0.412888
    31  H    0.124245
    32  H    0.136433
    33  H    0.134711
    34  C   -0.434190
    35  H    0.127901
    36  H    0.134334
    37  H    0.126238
    38  C   -0.434790
    39  H    0.130487
    40  H    0.133534
    41  H    0.151515
    42  C   -0.303711
    43  H    0.123796
    44  C   -0.255689
    45  H    0.129271
    46  H    0.126482
    47  C   -0.434469
    48  H    0.131984
    49  H    0.134481
    50  H    0.148636
    51  C   -0.298755
    52  H    0.129420
    53  C   -0.242731
    54  H    0.130548
    55  H    0.120759
    56  C   -0.419726
    57  H    0.132480
    58  H    0.134583
    59  H    0.122900
    60  C   -0.407944
    61  H    0.120962
    62  H    0.132512
    63  H    0.136467
    64  C   -0.396249
    65  H    0.128915
    66  H    0.132689
    67  H    0.148221
    68  N   -0.222228
    69  H    0.225372
    70  C    0.162227
    71  C    0.023444
    72  H    0.176332
    73  N    0.083846
    74  C   -0.184170
    75  H    0.179573
    76  C   -0.387087
    77  H    0.126936
    78  H    0.134841
    79  H    0.145214
    80  N   -0.220296
    81  H    0.225079
    82  C    0.143871
    83  C    0.022662
    84  H    0.175904
    85  N    0.081859
    86  C   -0.164715
    87  H    0.173350
 Sum of Mulliken charges =  -0.00000
 Mulliken charges with hydrogens summed into heavy atoms:
               1
     1  Fe  -0.347724
     2  N   -0.003320
     3  N   -0.039631
     4  N   -0.037160
     5  N   -0.015139
     6  C    0.250134
     7  C   -0.044362
     8  C   -0.078094
     9  C    0.282360
    10  C    0.206227
    11  C   -0.015121
    12  C   -0.000915
    13  C    0.239400
    14  C    0.275695
    15  C   -0.022312
    16  C   -0.033829
    17  C    0.270166
    18  C    0.231550
    19  C   -0.059844
    20  C   -0.049864
    21  C    0.203585
    22  C   -0.424212
    24  C   -0.416946
    26  C   -0.414632
    28  C   -0.381383
    30  C   -0.017499
    34  C   -0.045717
    38  C   -0.019253
    42  C   -0.179915
    44  C    0.000064
    47  C   -0.019368
    51  C   -0.169335
    53  C    0.008575
    56  C   -0.029763
    60  C   -0.018004
    64  C    0.013576
    68  N    0.003143
    70  C    0.162227
    71  C    0.199777
    73  N    0.083846
    74  C   -0.004597
    76  C    0.019904
    80  N    0.004783
    82  C    0.143871
    83  C    0.198566
    85  N    0.081859
    86  C    0.008635
 Electronic spatial extent (au):  <R**2>=          22948.0627
 Charge=             -0.0000 electrons
 Dipole moment (field-independent basis, Debye):
    X=              0.5706    Y=             -1.7700    Z=             -0.1484  Tot=              1.8657
 Quadrupole moment (field-independent basis, Debye-Ang):
   XX=           -272.3325   YY=           -274.7426   ZZ=           -231.3516
   XY=              0.0332   XZ=              6.0450   YZ=              1.6256
 Traceless Quadrupole moment (field-independent basis, Debye-Ang):
   XX=            -12.8569   YY=            -15.2670   ZZ=             28.1240
   XY=              0.0332   XZ=              6.0450   YZ=              1.6256
 Octapole moment (field-independent basis, Debye-Ang**2):
  XXX=             33.7821  YYY=            -27.9950  ZZZ=             -9.0086  XYY=             -9.4737
  XXY=             -8.0080  XXZ=              8.8363  XZZ=             17.6892  YZZ=            -38.2501
  YYZ=            -10.3924  XYZ=              9.0080
 Hexadecapole moment (field-independent basis, Debye-Ang**3):
 XXXX=         -12685.5049 YYYY=         -12540.2840 ZZZZ=          -4989.8728 XXXY=            121.3013
 XXXZ=             32.7824 YYYX=           -110.0927 YYYZ=             69.7069 ZZZX=            191.1729
 ZZZY=              7.0879 XXYY=          -4102.3418 XXZZ=          -3179.0757 YYZZ=          -3139.1302
 XXYZ=            -40.6466 YYXZ=             -3.2557 ZZXY=             -3.0428
 N-N= 7.081802814968D+03 E-N=-2.161417812202D+04  KE= 3.158591470714D+03
  Exact polarizability:     728.424      -3.219     716.421       4.079      15.333     414.417
 Approx polarizability:    1363.418      -2.440    1331.562      -3.996      55.714     638.822

 ----------------------------------------------------------------------

 Electric dipole moment (input orientation):
 (Debye = 10**-18 statcoulomb cm , SI units = C m)
                  (au)            (Debye)         (10**-30 SI)
   Tot        0.734007D+00      0.186566D+01      0.622317D+01
   x         -0.552142D+00     -0.140340D+01     -0.468125D+01
   y         -0.472434D+00     -0.120081D+01     -0.400546D+01
   z         -0.103496D+00     -0.263060D+00     -0.877473D+00

 Dipole polarizability, Alpha (input orientation).
 (esu units = cm**3 , SI units = C**2 m**2 J**-1)
 Alpha(0;0):
               (au)            (10**-24 esu)      (10**-40 SI)
   iso        0.619754D+03      0.918380D+02      0.102184D+03
   aniso      0.309454D+03      0.458564D+02      0.510221D+02
   xx         0.665122D+03      0.985610D+02      0.109664D+03
   yx         0.348564D+02      0.516519D+01      0.574705D+01
   yy         0.693789D+03      0.102809D+03      0.114390D+03
   zx         0.120065D+03      0.177918D+02      0.197961D+02
   zy        -0.734273D+02     -0.108808D+02     -0.121065D+02
   zz         0.500350D+03      0.741442D+02      0.824966D+02

 First dipole hyperpolarizability, Beta (input orientation).
 ||, _|_  parallel and perpendicular components, (z) with respect to z axis,
 vector components x,y,z.  Values do not include the 1/n! factor of 1/2.
 (esu units = statvolt**-1 cm**4 , SI units = C**3 m**3 J**-2)
 Beta(0;0,0):
               (au)            (10**-30 esu)      (10**-50 SI)
   || (z)     0.714120D+02      0.616944D+00      0.228973D+00
   _|_(z)     0.238040D+02      0.205648D+00      0.763242D-01
   x          0.141964D+04      0.122646D+02      0.455188D+01
   y          0.127482D+04      0.110134D+02      0.408753D+01
   z          0.357060D+03      0.308472D+01      0.114486D+01
   ||         0.388228D+03      0.335399D+01      0.124480D+01
   xxx        0.406734D+03      0.351386D+01      0.130413D+01
   xxy        0.151166D+02      0.130596D+00      0.484693D-01
   yxy       -0.992096D+02     -0.857094D+00     -0.318102D+00
   yyy        0.285480D+03      0.246633D+01      0.915353D+00
   xxz        0.255571D+03      0.220794D+01      0.819453D+00
   yxz        0.763440D+02      0.659553D+00      0.244786D+00
   yyz       -0.254985D+03     -0.220288D+01     -0.817575D+00
   zxz        0.165689D+03      0.143142D+01      0.531259D+00
   zyz        0.124343D+03      0.107423D+01      0.398688D+00
   zzz        0.118434D+03      0.102318D+01      0.379743D+00

 ----------------------------------------------------------------------

 Dipole orientation:
    26        170.35674200        117.94553445       -189.50220655
     7        170.96439620        120.57255760       -186.87704554
     7        170.97420097        120.56757255       -192.21917800
     7        169.74345152        115.25415292       -192.23025315
     7        169.73362989        115.25995092       -186.89772207
     6        170.87132839        120.21699465       -184.29118689
     6        171.43548192        122.61801327       -183.02850504
     6        171.84706060        124.37459856       -184.79148712
     6        171.55634036        123.11926843       -187.24192675
     6        171.56719871        123.11497572       -191.88960465
     6        171.87395718        124.34805472       -194.35727966
     6        171.46720815        122.55417628       -196.15425322
     6        170.89925305        120.18389961       -194.81712153
     6        169.82851530        115.60251795       -194.83307222
     6        169.26754587        113.22408019       -196.14368670
     6        168.85669565        111.44450746       -194.35550116
     6        169.15724729        112.69575051       -191.89575460
     6        169.15081884        112.70083079       -187.25471258
     6        168.84330424        111.43793011       -184.77170847
     6        169.23311216        113.24762829       -182.99977292
     6        169.80401740        115.63803752       -184.34115610
     6        170.32967146        117.92892425       -183.16137407
     1        170.31129100        117.91541772       -181.10123602
     6        171.83460012        124.29678374       -189.55655694
     1        172.29815147        126.30441455       -189.55289561
     6        170.36351895        117.88981347       -195.95773191
     1        170.36615570        117.89413412       -198.01601656
     6        168.88762588        111.52785141       -189.56991126
     1        168.42979211        109.51938068       -189.56770283
     6        172.52136916        127.23062156       -184.49208762
     1        172.63985153        127.71318771       -182.45230034
     1        171.03151871        128.40865741       -185.38613524
     1        174.37844862        127.61885357       -185.39007594
     6        171.52708945        122.96511276       -180.12349579
     1        172.12755086        121.16641330       -179.22092883
     1        169.62198556        123.48136726       -179.41068116
     1        172.90855265        124.46720006       -179.63164286
     6        172.55104028        127.19886516       -194.65936915
     1        174.39766468        127.58299293       -193.73782137
     1        171.07532361        128.37871958       -193.74420840
     1        172.69529453        127.68147618       -196.69711824
     6        171.56644129        122.82417206       -199.12339128
     1        172.98568612        121.72811012       -200.17232060
     6        170.00015466        124.34061157       -200.53092968
     1        168.53508329        125.49059035       -199.60790307
     1        170.19030869        124.42373576       -202.59998018
     6        169.18975621        112.93415964       -199.10264421
     1        171.06443741        113.43423524       -199.90564924
     1        167.74017652        114.22351994       -199.90439582
     1        168.73979858        110.94697198       -199.60819497
     6        168.17304584        108.57843812       -194.62412062
     1        166.27476180        107.86561034       -194.17047955
     6        169.98471307        106.94390299       -195.44000990
     1        171.89250543        107.62808088       -195.90092856
     1        169.56296719        104.91968616       -195.64859598
     6        168.18584138        108.59499766       -184.36410147
     1        169.67488800        107.39892661       -185.23677065
     1        166.34467408        108.15603615       -185.27021722
     1        168.09286401        108.17616686       -182.30876839
     6        169.15115432        113.15117868       -180.01411147
     1        168.68089181        111.20315136       -179.38823992
     1        167.68014600        114.46814298       -179.30232689
     1        171.02708943        113.68191376       -179.23641359
     6        160.85177858        120.92604727       -192.61514238
     1        160.20517064        122.85407379       -192.09147547
     1        159.27890169        119.57061665       -192.30091010
     1        161.40806375        120.92141196       -194.63907988
     7        162.97899193        120.14756265       -188.40570854
     1        161.48313498        120.67111998       -187.37685152
     6        163.07632273        120.20215155       -191.00775968
     6        165.15454163        119.30075927       -187.51345826
     1        165.58304760        119.06820822       -185.51356371
     7        166.66189171        118.80519990       -189.44078516
     6        165.41125452        119.36208874       -191.64534839
     1        166.30446676        119.10817024       -193.46856850
     6        180.75420872        118.97463536       -189.41287074
     1        182.04997794        117.97046472       -190.72382582
     1        181.48078747        118.77641684       -187.45262094
     1        180.68193835        121.00399110       -189.94945058
     7        177.68881406        115.30799523       -189.20690651
     1        179.02997098        113.99746549       -188.98213639
     6        178.15520064        117.84127518       -189.59316076
     6        175.22520632        114.90342350       -189.18179026
     1        174.34798694        113.06292467       -188.89608826
     7        174.06237625        117.08258378       -189.55574253
     6        175.85318795        118.94732103       -189.83355754
     1        175.31814756        120.89192301       -190.17788909

 Electric dipole moment (dipole orientation):
 (Debye = 10**-18 statcoulomb cm , SI units = C m)
                  (au)            (Debye)         (10**-30 SI)
   Tot        0.734007D+00      0.186566D+01      0.622317D+01
   x          0.000000D+00      0.000000D+00      0.000000D+00
   y          0.000000D+00      0.000000D+00      0.000000D+00
   z          0.734007D+00      0.186566D+01      0.622317D+01

 Dipole polarizability, Alpha (dipole orientation).
 (esu units = cm**3 , SI units = C**2 m**2 J**-1)
 Alpha(0;0):
               (au)            (10**-24 esu)      (10**-40 SI)
   iso        0.619754D+03      0.918380D+02      0.102184D+03
   aniso      0.309454D+03      0.458564D+02      0.510221D+02
   xx         0.424208D+03      0.628611D+02      0.699425D+02
   yx         0.555615D+02      0.823336D+01      0.916085D+01
   yy         0.715437D+03      0.106017D+03      0.117960D+03
   zx         0.963101D+01      0.142717D+01      0.158794D+01
   zy        -0.760449D+01     -0.112687D+01     -0.125381D+01
   zz         0.719617D+03      0.106636D+03      0.118649D+03

 First dipole hyperpolarizability, Beta (dipole orientation).
 ||, _|_  parallel and perpendicular components, (z) with respect to z axis,
 vector components x,y,z.  Values do not include the 1/n! factor of 1/2.
 (esu units = statvolt**-1 cm**4 , SI units = C**3 m**3 J**-2)
 Beta(0;0,0):
               (au)            (10**-30 esu)      (10**-50 SI)
   || (z)    -0.387752D+03     -0.334988D+01     -0.124327D+01
   _|_(z)    -0.129251D+03     -0.111663D+01     -0.414425D+00
   x         -0.939308D+02     -0.811489D+00     -0.301176D+00
   y          0.202518D+02      0.174960D+00      0.649346D-01
   z         -0.193876D+04     -0.167494D+02     -0.621637D+01
   ||         0.388228D+03      0.335399D+01      0.124480D+01
   xxx        0.309452D+02      0.267343D+00      0.992216D-01
   xxy        0.498511D+02      0.430674D+00      0.159841D+00
   yxy       -0.694521D+02     -0.600012D+00     -0.222688D+00
   yyy       -0.269152D+03     -0.232527D+01     -0.863000D+00
   xxz        0.120408D+02      0.104023D+00      0.386071D-01
   yxz        0.824283D+01      0.712117D-01      0.264295D-01
   yyz       -0.424981D+03     -0.367151D+01     -0.136264D+01
   zxz        0.719655D+01      0.621726D-01      0.230747D-01
   zyz        0.226052D+03      0.195291D+01      0.724804D+00
   zzz       -0.233313D+03     -0.201564D+01     -0.748086D+00

 ----------------------------------------------------------------------
 Unable to Open any file for archive entry.
 1\1\GINC-BGN1037\SP\RAPFD\def2TZVP\C38H40Fe1N8\BEBJONES\12-Oct-2024\0\
 \# polar def2tzvp apfd int=(grid=ultrafine)\\1y5l_II_S\\0,1\Fe,0,147.3
 6,-13.462,-13.501\N,0,147.067,-15.378,-13.044\N,0,149.195,-13.559,-12.
 651\N,0,147.678,-11.488,-13.97\N,0,145.554,-13.304,-14.362\C,0,145.933
 ,-16.118,-13.321\C,0,146.12,-17.484,-12.822\C,0,147.326,-17.568,-12.25
 6\C,0,147.942,-16.245,-12.385\C,0,149.794,-14.663,-12.044\C,0,151.135,
 -14.307,-11.562\C,0,151.339,-12.999,-11.877\C,0,150.123,-12.528,-12.55
 8\C,0,148.815,-10.738,-13.691\C,0,148.653,-9.364,-14.18\C,0,147.432,-9
 .281,-14.756\C,0,146.814,-10.608,-14.633\C,0,144.966,-12.189,-14.975\C
 ,0,143.612,-12.54,-15.468\C,0,143.417,-13.841,-15.139\C,0,144.64,-14.3
 18,-14.452\C,0,144.825,-15.61,-13.969\H,0,143.997,-16.303,-14.12\C,0,1
 49.202,-15.916,-11.922\H,0,149.775,-16.698,-11.423\C,0,149.919,-11.246
 ,-13.041\H,0,150.74,-10.547,-12.887\C,0,145.554,-10.946,-15.097\H,0,14
 4.98,-10.167,-15.599\C,0,148.028,-18.784,-11.574\H,0,147.356,-19.668,-
 11.609\H,0,148.251,-18.542,-10.513\H,0,148.968,-19.026,-12.114\C,0,145
 .066,-18.611,-12.957\H,0,144.463,-18.447,-13.876\H,0,144.39,-18.6,-12.
 076\H,0,145.576,-19.595,-13.032\C,0,152.076,-15.317,-10.838\H,0,152.28
 8,-16.175,-11.511\H,0,151.583,-15.695,-9.917\H,0,153.034,-14.818,-10.5
 79\C,0,152.608,-12.101,-11.603\H,0,153.158,-11.693,-12.463\C,0,153.091
[...]
                                                    183(r),1519(v),185(r),184(r)
                                                    1708(g),1365(r),209(r)
                                                    288(r),235(r),1362(r),262(r)
                                                    182(r),289(r),190(r),291(r)
                                                    263(r)
   107. BD (   1) C  86 - H  87          1.97998    -0.52681  1708(v),1703(v),1491(v)
                                                    1705(g),1550(v),177(r)
                                                    168(r),171(r),170(r),167(r)
                                                    1610(r),188(r),236(r)
                                                    1625(r),189(r),1621(r)
                                                    1609(r),184(r)
   157. CR (   1) C  76                  1.99943   -10.06863  1705(v),1703(v),1499(v)
                                                    1491(v)
   158. CR (   1) N  80                  1.99935   -14.20414  1519(v),1493(v),1701(v)
   159. CR (   1) C  82                  1.99908   -10.07975  1705(g),1576(v),1711(v)
                                                    1421(v)
   160. CR (   1) C  83                  1.99931   -10.11102  1550(v),1702(v),1464(v)
                                                    1710(v),167(r),168(r),171(r)
                                                    170(r)
   161. CR (   1) N  85                  1.99936   -14.13962  171(r),167(r),170(r),168(r)
                                                    1517(v),1574(v),169(r)
                                                    1707(v),185(r),191(r),193(r)
   162. CR (   1) C  86                  1.99892   -10.04883  1491(v),1701(v),1705(g)
                                                    1549(v),1601(v),167(r)
                                                    168(r),171(r)
   180. LP (   1) N  80                  1.57635    -0.27560  1709(v),1706(v),1520(v)
                                                    1518(v),1486(v),1492(v)
                                                    186(r)
   181. LP (   1) N  85                  1.62427    -0.33691  167(r),171(r),168(r),170(r)
                                                    1704(v),169(r),1705(v)
                                                    1517(v),1707(v),1711(v)
                                                    1708(g),1574(v),1710(g)
                                                    187(r),1551(g),199(r),176(r)
                                                    212(r),1608(r),1614(r)
                                                    1612(r),1607(r),290(r)
                                                    238(r),1611(r),1609(r)
                                                    264(r),237(r),196(r),1605(r)
                                                    211(r),1615(r),1365(r)
                                                    289(r),263(r),295(r),217(r)
                                                    269(r),262(r),209(r),235(r)
                                                    287(r),288(r),243(r),210(r)
                                                    261(r)
  1419. RY*(   1) C  76                  0.00113     1.11141   
  1420. RY*(   2) C  76                  0.00083     1.94870   
  1421. RY*(   3) C  76                  0.00049     1.35004   
  1422. RY*(   4) C  76                  0.00011     1.56413   
  1423. RY*(   5) C  76                  0.00009     1.76475   
  1424. RY*(   6) C  76                  0.00006     1.27939   
  1425. RY*(   7) C  76                  0.00004     1.79938   
  1426. RY*(   8) C  76                  0.00003     1.85025   
  1427. RY*(   9) C  76                  0.00000    21.52433   
  1428. RY*(  10) C  76                  0.00000     3.03492   
  1429. RY*(  11) C  76                  0.00001     1.66249   
  1430. RY*(  12) C  76                  0.00000     3.47464   
  1431. RY*(  13) C  76                  0.00000     2.64764   
  1432. RY*(  14) C  76                  0.00000     2.80433   
  1433. RY*(  15) C  76                  0.00000     2.35847   
  1434. RY*(  16) C  76                  0.00000     2.57678   
  1435. RY*(  17) C  76                  0.00000     2.56048   
  1436. RY*(  18) C  76                  0.00000     1.59519   
  1437. RY*(  19) C  76                  0.00000     2.60205   
  1438. RY*(  20) C  76                  0.00000     3.33608   
  1439. RY*(  21) C  76                  0.00000     3.14503   
  1440. RY*(  22) C  76                  0.00000     3.57399   
  1441. RY*(  23) C  76                  0.00000     3.48880   
  1442. RY*(  24) C  76                  0.00000     3.32187   
  1443. RY*(  25) C  76                  0.00000     3.40857   
  1444. RY*(  26) C  76                  0.00000     3.13113   
  1445. RY*(   1) H  77                  0.00073     0.98036   
  1446. RY*(   2) H  77                  0.00014     1.75308   
  1447. RY*(   3) H  77                  0.00009     1.88143   
  1448. RY*(   4) H  77                  0.00006     2.02307   
  1449. RY*(   5) H  77                  0.00000     2.85832   
  1450. RY*(   1) H  78                  0.00079     1.01831   
  1451. RY*(   2) H  78                  0.00013     1.67276   
  1452. RY*(   3) H  78                  0.00008     1.94957   
  1453. RY*(   4) H  78                  0.00005     1.97069   
  1454. RY*(   5) H  78                  0.00001     2.85493   
  1455. RY*(   1) H  79                  0.00024     1.24444   
  1456. RY*(   2) H  79                  0.00012     1.85158   
  1457. RY*(   3) H  79                  0.00007     2.01551   
  1458. RY*(   4) H  79                  0.00002     1.60042   
  1459. RY*(   5) H  79                  0.00001     2.85313   
  1460. RY*(   1) N  80                  0.00296     0.66266   
  1461. RY*(   2) N  80                  0.00236     1.81381   
  1462. RY*(   3) N  80                  0.00111     2.05335   
  1463. RY*(   4) N  80                  0.00086     2.16362   
  1464. RY*(   5) N  80                  0.00049     1.20618   
  1465. RY*(   6) N  80                  0.00027     2.13657   
  1466. RY*(   7) N  80                  0.00021     1.78589   
  1467. RY*(   8) N  80                  0.00007     2.32221   
  1468. RY*(   9) N  80                  0.00006     2.25822   
  1469. RY*(  10) N  80                  0.00006     3.72802   
  1470. RY*(  11) N  80                  0.00004     2.93509   
  1471. RY*(  12) N  80                  0.00000     2.14110   
  1472. RY*(  13) N  80                  0.00001     4.31207   
  1473. RY*(  14) N  80                  0.00001     3.98001   
  1474. RY*(  15) N  80                  0.00000     3.67504   
  1475. RY*(  16) N  80                  0.00001     2.47017   
  1476. RY*(  17) N  80                  0.00000     4.51868   
  1477. RY*(  18) N  80                  0.00000    30.64875   
  1478. RY*(  19) N  80                  0.00001     3.98567   
  1479. RY*(  20) N  80                  0.00000     4.68035   
  1480. RY*(  21) N  80                  0.00000     4.87126   
  1481. RY*(  22) N  80                  0.00000     4.39647   
  1482. RY*(  23) N  80                  0.00000     4.58450   
  1483. RY*(  24) N  80                  0.00000     4.31212   
  1484. RY*(  25) N  80                  0.00000     4.46533   
  1485. RY*(  26) N  80                  0.00000     4.40171   
  1486. RY*(   1) H  81                  0.00056     2.16806   
  1487. RY*(   2) H  81                  0.00040     1.74608   
  1488. RY*(   3) H  81                  0.00035     1.35536   
  1489. RY*(   4) H  81                  0.00021     2.67184   
  1490. RY*(   5) H  81                  0.00001     3.10784   
  1491. RY*(   1) C  82                  0.00421     1.69326   
  1492. RY*(   2) C  82                  0.00264     0.93427   
  1493. RY*(   3) C  82                  0.00195     1.46258   
  1494. RY*(   4) C  82                  0.00158     2.03110   
  1495. RY*(   5) C  82                  0.00128     1.88427   
  1496. RY*(   6) C  82                  0.00120     1.79164   
  1497. RY*(   7) C  82                  0.00037     2.83796   
  1498. RY*(   8) C  82                  0.00021     2.89373   
  1499. RY*(   9) C  82                  0.00014     2.42466   
  1500. RY*(  10) C  82                  0.00008     3.46285   
  1501. RY*(  11) C  82                  0.00003     2.79499   
  1502. RY*(  12) C  82                  0.00002     1.67040   
  1503. RY*(  13) C  82                  0.00001     1.97057   
  1504. RY*(  14) C  82                  0.00001     2.09106   
  1505. RY*(  15) C  82                  0.00001     2.67097   
  1506. RY*(  16) C  82                  0.00000    20.99684   
  1507. RY*(  17) C  82                  0.00001     3.62094   
  1508. RY*(  18) C  82                  0.00001     1.67270   
  1509. RY*(  19) C  82                  0.00000     1.43549   
  1510. RY*(  20) C  82                  0.00000     3.99983   
  1511. RY*(  21) C  82                  0.00001     3.32978   
  1512. RY*(  22) C  82                  0.00000     3.46275   
  1513. RY*(  23) C  82                  0.00000     3.71878   
  1514. RY*(  24) C  82                  0.00000     3.43169   
  1515. RY*(  25) C  82                  0.00000     3.63404   
  1516. RY*(  26) C  82                  0.00000     3.55416   
  1517. RY*(   1) C  83                  0.00408     1.64842   
  1518. RY*(   2) C  83                  0.00336     0.62337   
  1519. RY*(   3) C  83                  0.00219     1.30293   
  1520. RY*(   4) C  83                  0.00141     2.57137   
  1521. RY*(   5) C  83                  0.00086     1.64807   
  1522. RY*(   6) C  83                  0.00041     1.77505   
  1523. RY*(   7) C  83                  0.00023     1.78930   
  1524. RY*(   8) C  83                  0.00006     2.29902   
  1525. RY*(   9) C  83                  0.00007     3.16469   
  1526. RY*(  10) C  83                  0.00005     2.01439   
  1527. RY*(  11) C  83                  0.00002     3.39312   
  1528. RY*(  12) C  83                  0.00002     2.37834   
  1529. RY*(  13) C  83                  0.00002     1.69694   
  1530. RY*(  14) C  83                  0.00002     3.74663   
  1531. RY*(  15) C  83                  0.00002     3.09364   
  1532. RY*(  16) C  83                  0.00000     3.54580   
  1533. RY*(  17) C  83                  0.00000     2.79131   
  1534. RY*(  18) C  83                  0.00000     3.24046   
  1535. RY*(  19) C  83                  0.00000    21.33796   
  1536. RY*(  20) C  83                  0.00001     2.54587   
  1537. RY*(  21) C  83                  0.00001     4.08695   
  1538. RY*(  22) C  83                  0.00000     3.52271   
  1539. RY*(  23) C  83                  0.00000     3.75118   
  1540. RY*(  24) C  83                  0.00000     3.67470   
  1541. RY*(  25) C  83                  0.00000     3.55680   
  1542. RY*(  26) C  83                  0.00000     3.42588   
  1543. RY*(   1) H  84                  0.00060     0.75416   
  1544. RY*(   2) H  84                  0.00029     2.40736   
  1545. RY*(   3) H  84                  0.00020     2.07620   
  1546. RY*(   4) H  84                  0.00011     2.37642   
  1547. RY*(   5) H  84                  0.00002     3.11291   
  1548. RY*(   1) N  85                  0.00869     0.89192   
  1549. RY*(   2) N  85                  0.00700     1.32497   
  1550. RY*(   3) N  85                  0.00658     1.36524   
  1551. RY*(   4) N  85                  0.00091     1.74641   
  1552. RY*(   5) N  85                  0.00074     1.64193   
  1553. RY*(   6) N  85                  0.00052     2.00264   
  1554. RY*(   7) N  85                  0.00038     3.46165   
  1555. RY*(   8) N  85                  0.00029     3.37034   
  1556. RY*(   9) N  85                  0.00014     3.34972   
  1557. RY*(  10) N  85                  0.00011     3.20528   
  1558. RY*(  11) N  85                  0.00011     3.24977   
  1559. RY*(  12) N  85                  0.00009     2.70500   
  1560. RY*(  13) N  85                  0.00006     3.43050   
  1561. RY*(  14) N  85                  0.00004     4.88163   
  1562. RY*(  15) N  85                  0.00004     3.50808   
  1563. RY*(  16) N  85                  0.00000    31.62867   
  1564. RY*(  17) N  85                  0.00000     4.84835   
  1565. RY*(  18) N  85                  0.00001     4.16640   
  1566. RY*(  19) N  85                  0.00001     3.97230   
  1567. RY*(  20) N  85                  0.00000     4.42624   
  1568. RY*(  21) N  85                  0.00001     4.87262   
  1569. RY*(  22) N  85                  0.00000     4.15413   
  1570. RY*(  23) N  85                  0.00000     4.70698   
  1571. RY*(  24) N  85                  0.00000     4.64632   
  1572. RY*(  25) N  85                  0.00000     4.70690   
  1573. RY*(  26) N  85                  0.00000     4.55306   
  1574. RY*(   1) C  86                  0.00396     1.49529   
  1575. RY*(   2) C  86                  0.00244     0.80416   
  1576. RY*(   3) C  86                  0.00164     1.76552   
  1577. RY*(   4) C  86                  0.00073     1.95554   
  1578. RY*(   5) C  86                  0.00063     1.51037   
  1579. RY*(   6) C  86                  0.00053     1.92245   
  1580. RY*(   7) C  86                  0.00049     2.11840   
  1581. RY*(   8) C  86                  0.00036     1.31452   
  1582. RY*(   9) C  86                  0.00024     1.66083   
  1583. RY*(  10) C  86                  0.00021     1.75013   
  1584. RY*(  11) C  86                  0.00011     1.70379   
  1585. RY*(  12) C  86                  0.00008     2.14077   
  1586. RY*(  13) C  86                  0.00005     1.97529   
  1587. RY*(  14) C  86                  0.00005     3.12170   
  1588. RY*(  15) C  86                  0.00002     3.63494   
  1589. RY*(  16) C  86                  0.00003     1.55328   
  1590. RY*(  17) C  86                  0.00001     3.64342   
  1591. RY*(  18) C  86                  0.00000     3.30042   
  1592. RY*(  19) C  86                  0.00000    21.61247   
  1593. RY*(  20) C  86                  0.00001     3.92200   
  1594. RY*(  21) C  86                  0.00001     4.02138   
  1595. RY*(  22) C  86                  0.00000     3.48282   
  1596. RY*(  23) C  86                  0.00000     3.70139   
  1597. RY*(  24) C  86                  0.00000     3.37086   
  1598. RY*(  25) C  86                  0.00000     3.75806   
  1599. RY*(  26) C  86                  0.00000     3.51378   
  1600. RY*(   1) H  87                  0.00071     0.77983   
  1601. RY*(   2) H  87                  0.00037     2.47005   
  1602. RY*(   3) H  87                  0.00023     2.34969   
  1603. RY*(   4) H  87                  0.00010     2.76307   
  1604. RY*(   5) H  87                  0.00002     3.13619   
  1698. BD*(   1) C  76 - H  77          0.01050     0.34180   
  1699. BD*(   1) C  76 - H  78          0.01245     0.34307   
  1700. BD*(   1) C  76 - H  79          0.00322     0.34992   
  1701. BD*(   1) C  76 - C  82          0.01472     0.37624   
  1702. BD*(   1) N  80 - H  81          0.01580     0.38519   
  1703. BD*(   1) N  80 - C  82          0.02861     0.42931   
  1704. BD*(   1) N  80 - C  83          0.01961     0.50277   
  1705. BD*(   1) C  82 - C  86          0.02059     0.58852   
  1706. BD*(   2) C  82 - C  86          0.29375     0.04801  1709(v),1699(v),1698(v)
                                                    1606(r),1624(r),1610(r)
  1707. BD*(   1) C  83 - H  84          0.01838     0.37120   
  1708. BD*(   1) C  83 - N  85          0.01695     0.53978   
  1709. BD*(   2) C  83 - N  85          0.42553     0.00423  1706(v),1518(g),1548(g)
                                                    1613(r),1606(r),171(r)
                                                    170(r),1610(r),197(r)
                                                    1695(r),169(r),184(r)
  1710. BD*(   1) N  85 - C  86          0.01628     0.47912   
  1711. BD*(   1) C  86 - H  87          0.01618     0.43182   
       -------------------------------
              Total Lewis   42.69296  ( 97.7233%)
        Valence non-Lewis    0.91257  (  2.0888%)
        Rydberg non-Lewis    0.08205  (  0.1878%)
       -------------------------------
            Total unit  4   43.68758  (100.0000%)
           Charge unit  4    0.31242
 Unable to Open any file for archive entry.
 1\1\GINC-BGN1037\SP\RAPFD\def2TZVP\C38H40Fe1N8\BEBJONES\12-Oct-2024\0\
 \# apfd/def2TZVP int=(grid=ultrafine) geom=check guess=read pop=nbo sc
 f=qc\\1y5l_II_S_nbo\\0,1\Fe,0,147.36,-13.462,-13.501\N,0,147.067,-15.3
 78,-13.044\N,0,149.195,-13.559,-12.651\N,0,147.678,-11.488,-13.97\N,0,
 145.554,-13.304,-14.362\C,0,145.933,-16.118,-13.321\C,0,146.12,-17.484
 ,-12.822\C,0,147.326,-17.568,-12.256\C,0,147.942,-16.245,-12.385\C,0,1
 49.794,-14.663,-12.044\C,0,151.135,-14.307,-11.562\C,0,151.339,-12.999
 ,-11.877\C,0,150.123,-12.528,-12.558\C,0,148.815,-10.738,-13.691\C,0,1
 48.653,-9.364,-14.18\C,0,147.432,-9.281,-14.756\C,0,146.814,-10.608,-1
 4.633\C,0,144.966,-12.189,-14.975\C,0,143.612,-12.54,-15.468\C,0,143.4
 17,-13.841,-15.139\C,0,144.64,-14.318,-14.452\C,0,144.825,-15.61,-13.9
 69\H,0,143.997,-16.303,-14.12\C,0,149.202,-15.916,-11.922\H,0,149.775,
 -16.698,-11.423\C,0,149.919,-11.246,-13.041\H,0,150.74,-10.547,-12.887
 \C,0,145.554,-10.946,-15.097\H,0,144.98,-10.167,-15.599\C,0,148.028,-1
 8.784,-11.574\H,0,147.356,-19.668,-11.609\H,0,148.251,-18.542,-10.513\
 H,0,148.968,-19.026,-12.114\C,0,145.066,-18.611,-12.957\H,0,144.463,-1
 8.447,-13.876\H,0,144.39,-18.6,-12.076\H,0,145.576,-19.595,-13.032\C,0
 ,152.076,-15.317,-10.838\H,0,152.288,-16.175,-11.511\H,0,151.583,-15.6
 95,-9.917\H,0,153.034,-14.818,-10.579\C,0,152.608,-12.101,-11.603\H,0,
 153.158,-11.693,-12.463\C,0,153.091,-11.781,-10.358\H,0,152.591,-12.15
 4,-9.452\H,0,153.984,-11.147,-10.251\C,0,149.745,-8.241,-14.027\H,0,15
 0.677,-8.557,-14.543\H,0,149.967,-8.077,-12.951\H,0,149.38,-7.298,-14.
 487\C,0,146.713,-8.07,-15.44\H,0,145.866,-7.558,-14.961\C,0,147.154,-7
 .648,-16.657\H,0,148.,-8.15,-17.149\H,0,146.67,-6.8,-17.163\C,0,142.63
 6,-11.573,-16.205\H,0,143.112,-11.207,-17.14\H,0,142.407,-10.703,-15.5
 54\H,0,141.699,-12.111,-16.464\C,0,142.185,-14.807,-15.362\H,0,141.373
 ,-14.258,-15.885\H,0,141.805,-15.163,-14.381\H,0,142.495,-15.672,-15.9
 86\C,0,146.733,-11.272,-8.47\H,0,146.785,-11.955,-7.595\H,0,145.884,-1
 0.569,-8.329\H,0,147.686,-10.706,-8.542\N,0,145.45,-12.921,-9.896\H,0,
 144.759,-13.112,-9.199\C,0,146.524,-12.075,-9.722\C,0,145.485,-13.428,
 -11.117\H,0,144.751,-14.127,-11.516\N,0,146.543,-12.943,-11.742\C,0,14
 7.212,-12.099,-10.89\H,0,148.119,-11.593,-11.196\C,0,150.329,-16.174,-
 17.296\H,0,150.971,-15.68,-18.056\H,0,149.698,-16.938,-17.799\H,0,150.
 979,-16.659,-16.536\N,0,148.606,-14.32,-17.34\H,0,148.58,-14.256,-18.3
 37\C,0,149.453,-15.147,-16.634\C,0,147.848,-13.639,-16.499\H,0,147.087
 ,-12.919,-16.798\N,0,148.176,-13.985,-15.266\C,0,149.183,-14.921,-15.3
 23\H,0,149.614,-15.339,-14.422\\Version=ES64L-G16RevC.02\State=1-A\HF=
 -3173.0119424\RMSD=1.921e-09\Dipole=-0.5521415,-0.4724343,-0.1034957\Q
 uadrupole=-5.9428318,-10.680746,16.6235778,-1.983952,-10.9493338,3.697
 8878\PG=C01 [X(C38H40Fe1N8)]\\@
 The archive entry for this job was punched.


 The most important thing in communication is to hear what isn't being said.
 -- Peter F. Drucker
 Job cpu time:       0 days  1 hours  1 minutes 54.8 seconds.
 Elapsed time:       0 days  0 hours  1 minutes 16.2 seconds.
 File lengths (MBytes):  RWF=    987 Int=      0 D2E=      0 Chk=    233 Scr=      1
 Normal termination of Gaussian 16 at Sat Oct 12 04:59:36 2024.
