 Entering Gaussian System, Link 0=g16
 Input=1zby12.com
 Output=1zby12.log
 Initial command:
 /sw/chem/gaussian/g16_C02/a100/g16/l1.exe "/local/bebjones_8061553/Gau-727713.inp" -scrdir="/local/bebjones_8061553/"
 Entering Link 1 = /sw/chem/gaussian/g16_C02/a100/g16/l1.exe PID=    727714.
  
 Copyright (c) 1988-2021, Gaussian, Inc.  All Rights Reserved.
  
 This is part of the Gaussian(R) 16 program.  It is based on
 the Gaussian(R) 09 system (copyright 2009, Gaussian, Inc.),
 the Gaussian(R) 03 system (copyright 2003, Gaussian, Inc.),
 the Gaussian(R) 98 system (copyright 1998, Gaussian, Inc.),
 the Gaussian(R) 94 system (copyright 1995, Gaussian, Inc.),
 the Gaussian 92(TM) system (copyright 1992, Gaussian, Inc.),
 the Gaussian 90(TM) system (copyright 1990, Gaussian, Inc.),
 the Gaussian 88(TM) system (copyright 1988, Gaussian, Inc.),
 the Gaussian 86(TM) system (copyright 1986, Carnegie Mellon
 University), and the Gaussian 82(TM) system (copyright 1983,
 Carnegie Mellon University). Gaussian is a federally registered
 trademark of Gaussian, Inc.
  
 This software contains proprietary and confidential information,
 including trade secrets, belonging to Gaussian, Inc.
  
 This software is provided under written license and may be
 used, copied, transmitted, or stored only in accord with that
 written license.
  
 The following legend is applicable only to US Government
 contracts under FAR:
  
                    RESTRICTED RIGHTS LEGEND
  
 Use, reproduction and disclosure by the US Government is
 subject to restrictions as set forth in subparagraphs (a)
 and (c) of the Commercial Computer Software - Restricted
 Rights clause in FAR 52.227-19.
  
 Gaussian, Inc.
 340 Quinnipiac St., Bldg. 40, Wallingford CT 06492
  
  
 ---------------------------------------------------------------
 Warning -- This program may not be used in any manner that
 competes with the business of Gaussian, Inc. or will provide
 assistance to any competitor of Gaussian, Inc.  The licensee
 of this program is prohibited from giving any competitor of
 Gaussian, Inc. access to this program.  By using this program,
 the user acknowledges that Gaussian, Inc. is engaged in the
 business of creating and licensing software in the field of
 computational chemistry and represents and warrants to the
 licensee that it is not a competitor of Gaussian, Inc. and that
 it will not use this program in any manner prohibited above.
 ---------------------------------------------------------------
  

 Cite this work as:
 Gaussian 16, Revision C.02,
 M. J. Frisch, G. W. Trucks, H. B. Schlegel, G. E. Scuseria, 
 M. A. Robb, J. R. Cheeseman, G. Scalmani, V. Barone, 
 G. A. Petersson, H. Nakatsuji, X. Li, M. Caricato, A. V. Marenich, 
 J. Bloino, B. G. Janesko, R. Gomperts, B. Mennucci, H. P. Hratchian, 
 J. V. Ortiz, A. F. Izmaylov, J. L. Sonnenberg, D. Williams-Young, 
 F. Ding, F. Lipparini, F. Egidi, J. Goings, B. Peng, A. Petrone, 
 T. Henderson, D. Ranasinghe, V. G. Zakrzewski, J. Gao, N. Rega, 
 G. Zheng, W. Liang, M. Hada, M. Ehara, K. Toyota, R. Fukuda, 
 J. Hasegawa, M. Ishida, T. Nakajima, Y. Honda, O. Kitao, H. Nakai, 
 T. Vreven, K. Throssell, J. A. Montgomery, Jr., J. E. Peralta, 
 F. Ogliaro, M. J. Bearpark, J. J. Heyd, E. N. Brothers, K. N. Kudin, 
 V. N. Staroverov, T. A. Keith, R. Kobayashi, J. Normand, 
 K. Raghavachari, A. P. Rendell, J. C. Burant, S. S. Iyengar, 
 J. Tomasi, M. Cossi, J. M. Millam, M. Klene, C. Adamo, R. Cammi, 
 J. W. Ochterski, R. L. Martin, K. Morokuma, O. Farkas, 
 J. B. Foresman, and D. J. Fox, Gaussian, Inc., Wallingford CT, 2019.
 
 ******************************************
 Gaussian 16:  ES64L-G16RevC.02  7-Dec-2021
                27-Oct-2024 
 ******************************************
 %mem=16GB
 %CPU=0-71
 SetSPE:  set environment variable "OMP_PROC_BIND" = "true"
 SetSPE:  set environment variable "OMP_PLACES" = "{0},{1},{2},{3},{4},{5},{6},{7},{8},{9},{10},{11},{12},{13},{14},{15},{16},{17},{18},{19},{20},{21},{22},{23},{24},{25},{26},{27},{28},{29},{30},{31},{32},{33},{34},{35},{36},{37},{38},{39},{40},{41},{42},{43},{44},{45},{46},{47},{48},{49},{50},{51},{52},{53},{54},{55},{56},{57},{58},{59},{60},{61},{62},{63},{64},{65},{66},{67},{68},{69},{70},{71}"
 Will use up to   72 processors via shared memory.
 %gpucpu=0,1,2,3=0,1,2,3
 Will use    4 GPUs:
 Thread  CPU   GPU
      0    0     0
      1    1     1
      2    2     2
      3    3     3
      4    4    -1
      5    5    -1
      6    6    -1
      7    7    -1
      8    8    -1
      9    9    -1
     10   10    -1
     11   11    -1
     12   12    -1
     13   13    -1
     14   14    -1
     15   15    -1
     16   16    -1
     17   17    -1
     18   18    -1
     19   19    -1
     20   20    -1
     21   21    -1
     22   22    -1
     23   23    -1
     24   24    -1
     25   25    -1
     26   26    -1
     27   27    -1
     28   28    -1
     29   29    -1
     30   30    -1
     31   31    -1
     32   32    -1
     33   33    -1
     34   34    -1
     35   35    -1
     36   36    -1
     37   37    -1
     38   38    -1
     39   39    -1
     40   40    -1
     41   41    -1
     42   42    -1
     43   43    -1
     44   44    -1
     45   45    -1
     46   46    -1
     47   47    -1
     48   48    -1
     49   49    -1
     50   50    -1
     51   51    -1
     52   52    -1
     53   53    -1
     54   54    -1
     55   55    -1
     56   56    -1
     57   57    -1
     58   58    -1
     59   59    -1
     60   60    -1
     61   61    -1
     62   62    -1
     63   63    -1
     64   64    -1
     65   65    -1
     66   66    -1
     67   67    -1
     68   68    -1
     69   69    -1
     70   70    -1
     71   71    -1
 SetGPE:  set environment variable "OMP_PROC_BIND" = "true"
 SetGPE:  set environment variable "OMP_PLACES" = "{0},{1},{2},{3},{4},{5},{6},{7},{8},{9},{10},{11},{12},{13},{14},{15},{16},{17},{18},{19},{20},{21},{22},{23},{24},{25},{26},{27},{28},{29},{30},{31},{32},{33},{34},{35},{36},{37},{38},{39},{40},{41},{42},{43},{44},{45},{46},{47},{48},{49},{50},{51},{52},{53},{54},{55},{56},{57},{58},{59},{60},{61},{62},{63},{64},{65},{66},{67},{68},{69},{70},{71}"
 %oldchk=1zby_II_Sre.chk
 %chk=1zby_III_Dn.chk
 Properties for Device   0
 Minimum vector length:                              32
 Maximum vector length:                            1024
 Number of SMPs:                                    108
 Maximum number of threads per SMP:                2048
 Number of ASync Engines:                             5
 Memory:                                           9207742464
 Properties for Device   1
 Minimum vector length:                              32
 Maximum vector length:                            1024
 Number of SMPs:                                    108
 Maximum number of threads per SMP:                2048
 Number of ASync Engines:                             5
 Memory:                                           9207742464
 Properties for Device   2
 Minimum vector length:                              32
 Maximum vector length:                            1024
 Number of SMPs:                                    108
 Maximum number of threads per SMP:                2048
 Number of ASync Engines:                             5
 Memory:                                           9207742464
 Properties for Device   3
 Minimum vector length:                              32
 Maximum vector length:                            1024
 Number of SMPs:                                    108
 Maximum number of threads per SMP:                2048
 Number of ASync Engines:                             5
 Memory:                                           9207742464
   8286968217 words of memory will be used on each GPU.
 Copying data from "1zby_II_Sre.chk" to current chk file "1zby_III_Dn.chk"
 IOpt=  2 FromEx=T IUOpen= 4 IOptOp= 5 NList=   0 IFRang= 0 IUIn= 4 IUOut= 2.
 --------------------------------------------------------------
 # apfd/def2TZVP guess=read scf=maxcycle=999 geom=check pop=nbo
 --------------------------------------------------------------
 1/29=2,38=1,172=1/1;
 2/12=2,40=1/2;
 3/5=44,7=101,11=2,14=-4,25=1,30=1,74=-44,116=-2/1,2,3;
 4/5=1/1;
 5/5=2,7=999,38=6/2;
 6/7=2,8=2,9=2,10=2,28=1,40=1/1,7;
 99/5=1,9=1/99;
 ----------
 1zby_III_D
 ----------
 Structure from the checkpoint file:  "1zby_III_Dn.chk"
 Charge =  1 Multiplicity = 2
 Z-Matrix found in chk file.
 Fe,0,28.0864985031,91.8822101409,52.0029814545
 N,0,28.9175136352,93.6661687954,51.5099121526
 N,0,29.1647832005,91.9025314517,53.7106075677
 N,0,26.993743034,90.383286644,52.7208904569
 N,0,26.785558446,92.1216299362,50.4821472953
 C,0,28.6899078489,94.379692946,50.3729694546
 C,0,29.5629097994,95.530134062,50.3073690718
 C,0,30.3313463036,95.4926091647,51.4296086982
 C,0,29.9227856893,94.3146748655,52.161932186
 C,0,30.1534468431,92.7702062099,54.0573561199
 C,0,30.8323486148,92.3308986146,55.2489990511
 C,0,30.2284376677,91.1596645051,55.6250267923
 C,0,29.1683240472,90.9316869204,54.6610476263
 C,0,27.2187037168,89.6729337017,53.8593129645
 C,0,26.2103230926,88.6592970059,54.0400018651
 C,0,25.3854943094,88.7389641958,52.9490411628
 C,0,25.9082577745,89.8185329326,52.1318882817
 C,0,25.8775175113,91.1867682397,50.0936392566
 C,0,25.4554176373,91.4118097403,48.729245335
 C,0,26.1429444814,92.5024324705,48.2944463867
 C,0,26.9670784667,92.928130703,49.4028209769
 C,0,27.7963596241,94.0349882126,49.3749202737
 H,0,27.7787980361,94.6511642038,48.4886621038
 C,0,30.4939015635,93.9148502959,53.3542868335
 H,0,31.2933568963,94.5235056352,53.7490027725
 C,0,28.2622413054,89.8916640767,54.7414673669
 H,0,28.3640498273,89.2031358097,55.5664693612
 C,0,25.3946325183,90.1671816297,50.8957028912
 H,0,24.5954359776,89.5592078089,50.4984333529
 C,0,31.3969385,96.434062209,51.877103419
 H,0,31.5079838603,97.2554552547,51.1735032896
 H,0,32.3555045285,95.9203861983,51.957603904
 H,0,31.154884325,96.8507454285,52.8551009354
 C,0,29.5596562514,96.5263561127,49.1989000702
 H,0,28.5715832254,96.9732533377,49.0881916945
 H,0,29.8214774023,96.0490692878,48.2540959572
 H,0,30.2762367683,97.3215100448,49.3900392358
 C,0,31.9199016926,93.0770159597,55.9407461807
 H,0,31.7261072447,94.1484909706,55.9177576578
 H,0,32.8840424927,92.8986372619,55.4612308481
 H,0,31.9891697225,92.75871964,56.9788157442
 C,0,30.5112836426,90.3127185506,56.7616849694
 H,0,29.6548177819,89.8136356039,57.1997439094
 C,0,31.7138149198,90.1003764153,57.2871493859
 H,0,32.6074263187,90.5286236205,56.867633066
 H,0,31.8481065078,89.4644405317,58.1464897909
 C,0,26.093109292,87.7710591952,55.2291900365
 H,0,26.3594243841,88.308244626,56.1381608673
 H,0,26.7575805896,86.9100166917,55.1387420557
 H,0,25.0718096059,87.4079899038,55.32548557
 C,0,24.2017708057,87.970816594,52.6341835663
 H,0,23.4305118123,88.5046833141,52.0907593878
 C,0,24.0023910044,86.6938399679,52.945595337
 H,0,24.7508898115,86.1007374297,53.4411619456
 H,0,23.0860645063,86.1883250477,52.6889865686
 C,0,24.4628333766,90.5681273012,48.0052254972
 H,0,23.4892596083,90.6191235746,48.4937687389
 H,0,24.7797091569,89.525067985,47.9942781305
 H,0,24.3462407289,90.9027034958,46.9772652429
 C,0,26.1044972656,93.1772865343,46.9662616158
 H,0,25.4498400975,92.6453961782,46.2801342729
 H,0,27.1020019796,93.2188434554,46.5286112082
 H,0,25.7370551006,94.1991414296,47.0665430726
 O,0,26.663,93.271,53.157
 H,0,27.018,94.137,52.956
 H,0,25.947,93.099,53.655
 C,0,30.4801407791,88.1735982078,48.6193789443
 H,0,31.01615092,88.5410566742,47.7444090691
 H,0,29.535125724,87.747654539,48.2968326775
 H,0,31.0779522532,87.3868625907,49.0800281054
 N,0,31.2332043484,90.0433464659,50.1044160422
 H,0,32.213999598,89.9460564062,49.899874046
 C,0,30.2261146075,89.274991226,49.5823177282
 C,0,30.6689051058,90.9459738331,50.9403117193
 H,0,31.2167289448,91.6816222408,51.4923170115
 N,0,29.3660386403,90.7954284666,50.9778704294
 C,0,29.0765742678,89.757975403,50.1391778384
 H,0,28.066074608,89.434547215,49.9944403226
 Recover connectivity data from disk.
 Stoichiometry    C34H36FeN6O(1+,2)
 Framework group  C1[X(C34H36FeN6O)]
 Deg. of freedom   228
 Full point group                 C1      NOp   1
 Largest Abelian subgroup         C1      NOp   1
 Largest concise Abelian subgroup C1      NOp   1
                         Standard orientation:                         
 ---------------------------------------------------------------------
 Center     Atomic      Atomic             Coordinates (Angstroms)
 Number     Number       Type             X           Y           Z
 ---------------------------------------------------------------------
      1         26           0        0.052195   -0.145729   -0.339360
      2          7           0        1.406939   -1.636552   -0.580874
      3          7           0        1.572608    1.182897   -0.386237
      4          7           0       -1.246963    1.346730   -0.541934
      5          7           0       -1.413582   -1.487140   -0.678208
      6          6           0        1.142532   -2.970972   -0.635375
      7          6           0        2.369424   -3.734580   -0.675273
      8          6           0        3.385201   -2.830159   -0.635990
      9          6           0        2.764796   -1.526043   -0.564365
     10          6           0        2.906814    0.917983   -0.369975
     11          6           0        3.671404    2.125169   -0.191046
     12          6           0        2.761316    3.145246   -0.095772
     13          6           0        1.456685    2.529882   -0.251772
     14          6           0       -0.982173    2.680364   -0.491732
     15          6           0       -2.186503    3.450426   -0.674853
     16          6           0       -3.207846    2.544743   -0.790959
     17          6           0       -2.592193    1.234312   -0.689808
     18          6           0       -2.742293   -1.213812   -0.581967
     19          6           0       -3.506273   -2.425307   -0.384491
     20          6           0       -2.602851   -3.442080   -0.349809
     21          6           0       -1.304387   -2.834557   -0.533707
     22          6           0       -0.116926   -3.541502   -0.595213
     23          1           0       -0.173899   -4.619083   -0.563444
     24          6           0        3.471877   -0.342410   -0.481951
     25          1           0        4.549228   -0.409294   -0.466662
     26          6           0        0.270875    3.237088   -0.304812
     27          1           0        0.325014    4.310920   -0.209842
     28          6           0       -3.303027    0.047636   -0.683780
     29          1           0       -4.380900    0.112090   -0.698136
     30          6           0        4.857674   -3.061507   -0.655318
     31          1           0        5.081643   -4.122301   -0.736719
     32          1           0        5.318789   -2.683412    0.257703
     33          1           0        5.315633   -2.548518   -1.501374
     34          6           0        2.432501   -5.221576   -0.752978
     35          1           0        1.901326   -5.582162   -1.633940
     36          1           0        1.970598   -5.671094    0.126560
     37          1           0        3.463080   -5.563545   -0.810035
     38          6           0        5.158467    2.206508   -0.192741
     39          1           0        5.579932    1.527657   -0.932789
     40          1           0        5.566879    1.937013    0.782909
     41          1           0        5.476626    3.219600   -0.429634
     42          6           0        2.994693    4.561650    0.073484
     43          1           0        2.285317    5.216339   -0.419141
     44          6           0        3.983223    5.103349    0.778222
     45          1           0        4.689731    4.506877    1.328674
     46          1           0        4.103753    6.171670    0.849484
     47          6           0       -2.246005    4.934581   -0.777890
     48          1           0       -1.380449    5.317703   -1.316173
     49          1           0       -2.258099    5.393212    0.212367
     50          1           0       -3.147431    5.236796   -1.307270
     51          6           0       -4.618208    2.773788   -1.011879
     52          1           0       -5.126549    2.018532   -1.600387
     53          6           0       -5.315877    3.807329   -0.550957
     54          1           0       -4.876061    4.561535    0.077806
     55          1           0       -6.365414    3.919511   -0.767604
     56          6           0       -4.989584   -2.472055   -0.247264
     57          1           0       -5.469225   -2.116825   -1.159885
     58          1           0       -5.320033   -1.837731    0.575499
     59          1           0       -5.329427   -3.487128   -0.056552
     60          6           0       -2.830060   -4.903563   -0.166988
     61          1           0       -3.883192   -5.113694    0.003346
     62          1           0       -2.261938   -5.275918    0.685578
     63          1           0       -2.510314   -5.454389   -1.052205
     64          8           0        0.239176   -0.091363   -2.630414
     65          1           0        0.877545   -0.784771   -2.797903
     66          1           0       -0.167136    0.408318   -3.243172
     67          6           0       -1.605166   -0.525187    4.956039
     68          1           0       -1.385052   -1.441694    5.503276
     69          1           0       -2.660953   -0.513927    4.703641
     70          1           0       -1.393975    0.321389    5.609673
     71          7           0        0.572394   -0.512246    3.720539
     72          1           0        1.152305   -0.615451    4.536820
     73          6           0       -0.796116   -0.446558    3.713420
     74          6           0        0.994377   -0.410199    2.438584
     75          1           0        2.021708   -0.431096    2.138328
     76          7           0       -0.024324   -0.284695    1.621253
     77          6           0       -1.144762   -0.303743    2.400843
     78          1           0       -2.118703   -0.215680    1.964553
 ---------------------------------------------------------------------
 Rotational constants (GHZ):           0.0930522           0.0911669           0.0593775
 Standard basis: def2TZVP (5D, 7F)
 There are  1744 symmetry adapted cartesian basis functions of A   symmetry.
 There are  1532 symmetry adapted basis functions of A   symmetry.
  1532 basis functions,  2481 primitive gaussians,  1744 cartesian basis functions
   158 alpha electrons      157 beta electrons
       nuclear repulsion energy      5961.5948097506 Hartrees.
 NAtoms=   78 NActive=   78 NUniq=   78 SFac= 1.00D+00 NAtFMM=   60 NAOKFM=T Big=T
 Integral buffers will be    131072 words long.
 Raffenetti 2 integral format.
 Two-electron integral symmetry is turned on.
 R6APFD:  NTU= -4 IXU= 1 FactS= 1.050
 Nuclear repulsion after empirical dispersion term =     5961.4422865947 Hartrees.
 One-electron integrals computed using PRISM.
   1 Symmetry operations used in ECPInt.
 ECPInt:  NShTT=  186355 NPrTT=  576197 LenC2=  147178 LenP2D=  301149.
 LDataN:  DoStor=T MaxTD1= 6 Len=  172
 Number of processors reduced to  23 by ecpmxn.
 NBasis=  1532 RedAO= T EigKep=  3.15D-06  NBF=  1532
 NBsUse=  1532 1.00D-06 EigRej= -1.00D+00 NBFU=  1532
 Initial guess from the checkpoint file:  "1zby_III_Dn.chk"
 B after Tr=     0.000000    0.000000    0.000000
         Rot=    1.000000    0.000000    0.000000    0.000000 Ang=   0.00 deg.
 Initial guess <Sx>= 0.0000 <Sy>= 0.0000 <Sz>= 0.5000 <S**2>= 0.8304 S= 0.5394
 Requested convergence on RMS density matrix=1.00D-08 within 999 cycles.
 Requested convergence on MAX density matrix=1.00D-06.
 Requested convergence on             energy=1.00D-06.
 No special actions if energy rises.
 Restarting incremental Fock formation.
 Restarting incremental Fock formation.
 SCF Done:  E(UAPFD) =  -2983.82975846     A.U. after   56 cycles
            NFock= 56  Conv=0.21D-08     -V/T= 2.0035
 <Sx>= 0.0000 <Sy>= 0.0000 <Sz>= 0.5000 <S**2>= 0.8331 S= 0.5407
 <L.S>=  0.00000000000    
 Annihilation of the first spin contaminant:
 S**2 before annihilation     0.8331,   after     0.7520

 **********************************************************************

            Population analysis using the SCF Density.

 **********************************************************************

 Orbital symmetries:
 Alpha Orbitals:
       Occupied  (A) (A) (A) (A) (A) (A) (A) (A) (A) (A) (A) (A)
                 (A) (A) (A) (A) (A) (A) (A) (A) (A) (A) (A) (A)
                 (A) (A) (A) (A) (A) (A) (A) (A) (A) (A) (A) (A)
                 (A) (A) (A) (A) (A) (A) (A) (A) (A) (A) (A) (A)
                 (A) (A) (A) (A) (A) (A) (A) (A) (A) (A) (A) (A)
                 (A) (A) (A) (A) (A) (A) (A) (A) (A) (A) (A) (A)
                 (A) (A) (A) (A) (A) (A) (A) (A) (A) (A) (A) (A)
                 (A) (A) (A) (A) (A) (A) (A) (A) (A) (A) (A) (A)
                 (A) (A) (A) (A) (A) (A) (A) (A) (A) (A) (A) (A)
                 (A) (A) (A) (A) (A) (A) (A) (A) (A) (A) (A) (A)
                 (A) (A) (A) (A) (A) (A) (A) (A) (A) (A) (A) (A)
                 (A) (A) (A) (A) (A) (A) (A) (A) (A) (A) (A) (A)
                 (A) (A) (A) (A) (A) (A) (A) (A) (A) (A) (A) (A)
                 (A) (A)
       Virtual   (A) (A) (A) (A) (A) (A) (A) (A) (A) (A) (A) (A)
                 (A) (A) (A) (A) (A) (A) (A) (A) (A) (A) (A) (A)
                 (A) (A) (A) (A) (A) (A) (A) (A) (A) (A) (A) (A)
                 (A) (A) (A) (A) (A) (A) (A) (A) (A) (A) (A) (A)
                 (A) (A) (A) (A) (A) (A) (A) (A) (A) (A) (A) (A)
                 (A) (A) (A) (A) (A) (A) (A) (A) (A) (A) (A) (A)
                 (A) (A) (A) (A) (A) (A) (A) (A) (A) (A) (A) (A)
                 (A) (A) (A) (A) (A) (A) (A) (A) (A) (A) (A) (A)
                 (A) (A) (A) (A) (A) (A) (A) (A) (A) (A) (A) (A)
                 (A) (A) (A) (A) (A) (A) (A) (A) (A) (A) (A) (A)
                 (A) (A) (A) (A) (A) (A) (A) (A) (A) (A) (A) (A)
                 (A) (A) (A) (A) (A) (A) (A) (A) (A) (A) (A) (A)
                 (A) (A) (A) (A) (A) (A) (A) (A) (A) (A) (A) (A)
                 (A) (A) (A) (A) (A) (A) (A) (A) (A) (A) (A) (A)
                 (A) (A) (A) (A) (A) (A) (A) (A) (A) (A) (A) (A)
                 (A) (A) (A) (A) (A) (A) (A) (A) (A) (A) (A) (A)
                 (A) (A) (A) (A) (A) (A) (A) (A) (A) (A) (A) (A)
                 (A) (A) (A) (A) (A) (A) (A) (A) (A) (A) (A) (A)
                 (A) (A) (A) (A) (A) (A) (A) (A) (A) (A) (A) (A)
                 (A) (A) (A) (A) (A) (A) (A) (A) (A) (A) (A) (A)
                 (A) (A) (A) (A) (A) (A) (A) (A) (A) (A) (A) (A)
                 (A) (A) (A) (A) (A) (A) (A) (A) (A) (A) (A) (A)
                 (A) (A) (A) (A) (A) (A) (A) (A) (A) (A) (A) (A)
                 (A) (A) (A) (A) (A) (A) (A) (A) (A) (A) (A) (A)
                 (A) (A) (A) (A) (A) (A) (A) (A) (A) (A) (A) (A)
                 (A) (A) (A) (A) (A) (A) (A) (A) (A) (A) (A) (A)
                 (A) (A) (A) (A) (A) (A) (A) (A) (A) (A) (A) (A)
                 (A) (A) (A) (A) (A) (A) (A) (A) (A) (A) (A) (A)
                 (A) (A) (A) (A) (A) (A) (A) (A) (A) (A) (A) (A)
                 (A) (A) (A) (A) (A) (A) (A) (A) (A) (A) (A) (A)
                 (A) (A) (A) (A) (A) (A) (A) (A) (A) (A) (A) (A)
                 (A) (A) (A) (A) (A) (A) (A) (A) (A) (A) (A) (A)
                 (A) (A) (A) (A) (A) (A) (A) (A) (A) (A) (A) (A)
                 (A) (A) (A) (A) (A) (A) (A) (A) (A) (A) (A) (A)
                 (A) (A) (A) (A) (A) (A) (A) (A) (A) (A) (A) (A)
                 (A) (A) (A) (A) (A) (A) (A) (A) (A) (A) (A) (A)
                 (A) (A) (A) (A) (A) (A) (A) (A) (A) (A) (A) (A)
                 (A) (A) (A) (A) (A) (A) (A) (A) (A) (A) (A) (A)
                 (A) (A) (A) (A) (A) (A) (A) (A) (A) (A) (A) (A)
                 (A) (A) (A) (A) (A) (A) (A) (A) (A) (A) (A) (A)
                 (A) (A) (A) (A) (A) (A) (A) (A) (A) (A) (A) (A)
                 (A) (A) (A) (A) (A) (A) (A) (A) (A) (A) (A) (A)
                 (A) (A) (A) (A) (A) (A) (A) (A) (A) (A) (A) (A)
                 (A) (A) (A) (A) (A) (A) (A) (A) (A) (A) (A) (A)
                 (A) (A) (A) (A) (A) (A) (A) (A) (A) (A) (A) (A)
                 (A) (A) (A) (A) (A) (A) (A) (A) (A) (A) (A) (A)
                 (A) (A) (A) (A) (A) (A) (A) (A) (A) (A) (A) (A)
                 (A) (A) (A) (A) (A) (A) (A) (A) (A) (A) (A) (A)
                 (A) (A) (A) (A) (A) (A) (A) (A) (A) (A) (A) (A)
                 (A) (A) (A) (A) (A) (A) (A) (A) (A) (A) (A) (A)
                 (A) (A) (A) (A) (A) (A) (A) (A) (A) (A) (A) (A)
                 (A) (A) (A) (A) (A) (A) (A) (A) (A) (A) (A) (A)
                 (A) (A) (A) (A) (A) (A) (A) (A) (A) (A) (A) (A)
                 (A) (A) (A) (A) (A) (A) (A) (A) (A) (A) (A) (A)
                 (A) (A) (A) (A) (A) (A) (A) (A) (A) (A) (A) (A)
                 (A) (A) (A) (A) (A) (A) (A) (A) (A) (A) (A) (A)
                 (A) (A) (A) (A) (A) (A) (A) (A) (A) (A) (A) (A)
                 (A) (A) (A) (A) (A) (A) (A) (A) (A) (A) (A) (A)
                 (A) (A) (A) (A) (A) (A) (A) (A) (A) (A) (A) (A)
                 (A) (A) (A) (A) (A) (A) (A) (A) (A) (A) (A) (A)
                 (A) (A) (A) (A) (A) (A) (A) (A) (A) (A) (A) (A)
                 (A) (A) (A) (A) (A) (A) (A) (A) (A) (A) (A) (A)
                 (A) (A) (A) (A) (A) (A) (A) (A) (A) (A) (A) (A)
                 (A) (A) (A) (A) (A) (A) (A) (A) (A) (A) (A) (A)
                 (A) (A) (A) (A) (A) (A) (A) (A) (A) (A) (A) (A)
                 (A) (A) (A) (A) (A) (A) (A) (A) (A) (A) (A) (A)
                 (A) (A) (A) (A) (A) (A) (A) (A) (A) (A) (A) (A)
                 (A) (A) (A) (A) (A) (A) (A) (A) (A) (A) (A) (A)
                 (A) (A) (A) (A) (A) (A) (A) (A) (A) (A) (A) (A)
                 (A) (A) (A) (A) (A) (A) (A) (A) (A) (A) (A) (A)
                 (A) (A) (A) (A) (A) (A) (A) (A) (A) (A) (A) (A)
                 (A) (A) (A) (A) (A) (A) (A) (A) (A) (A) (A) (A)
                 (A) (A) (A) (A) (A) (A) (A) (A) (A) (A) (A) (A)
                 (A) (A) (A) (A) (A) (A) (A) (A) (A) (A) (A) (A)
                 (A) (A) (A) (A) (A) (A) (A) (A) (A) (A) (A) (A)
                 (A) (A) (A) (A) (A) (A) (A) (A) (A) (A) (A) (A)
                 (A) (A) (A) (A) (A) (A) (A) (A) (A) (A) (A) (A)
                 (A) (A) (A) (A) (A) (A) (A) (A) (A) (A) (A) (A)
                 (A) (A) (A) (A) (A) (A) (A) (A) (A) (A) (A) (A)
                 (A) (A) (A) (A) (A) (A) (A) (A) (A) (A) (A) (A)
                 (A) (A) (A) (A) (A) (A) (A) (A) (A) (A) (A) (A)
                 (A) (A) (A) (A) (A) (A) (A) (A) (A) (A) (A) (A)
                 (A) (A) (A) (A) (A) (A) (A) (A) (A) (A) (A) (A)
                 (A) (A) (A) (A) (A) (A) (A) (A) (A) (A) (A) (A)
                 (A) (A) (A) (A) (A) (A) (A) (A) (A) (A) (A) (A)
                 (A) (A) (A) (A) (A) (A) (A) (A) (A) (A) (A) (A)
                 (A) (A) (A) (A) (A) (A) (A) (A) (A) (A) (A) (A)
                 (A) (A) (A) (A) (A) (A) (A) (A) (A) (A) (A) (A)
                 (A) (A) (A) (A) (A) (A) (A) (A) (A) (A) (A) (A)
                 (A) (A) (A) (A) (A) (A) (A) (A) (A) (A) (A) (A)
                 (A) (A) (A) (A) (A) (A) (A) (A) (A) (A) (A) (A)
                 (A) (A) (A) (A) (A) (A) (A) (A) (A) (A) (A) (A)
                 (A) (A) (A) (A) (A) (A) (A) (A) (A) (A) (A) (A)
                 (A) (A) (A) (A) (A) (A) (A) (A) (A) (A) (A) (A)
                 (A) (A) (A) (A) (A) (A) (A) (A) (A) (A) (A) (A)
                 (A) (A) (A) (A) (A) (A) (A) (A) (A) (A) (A) (A)
                 (A) (A) (A) (A) (A) (A) (A) (A) (A) (A) (A) (A)
                 (A) (A) (A) (A) (A) (A) (A) (A) (A) (A) (A) (A)
                 (A) (A) (A) (A) (A) (A) (A) (A) (A) (A) (A) (A)
                 (A) (A) (A) (A) (A) (A) (A) (A) (A) (A) (A) (A)
                 (A) (A) (A) (A) (A) (A) (A) (A) (A) (A) (A) (A)
                 (A) (A) (A) (A) (A) (A) (A) (A) (A) (A) (A) (A)
                 (A) (A) (A) (A) (A) (A) (A) (A) (A) (A) (A) (A)
                 (A) (A) (A) (A) (A) (A) (A) (A) (A) (A) (A) (A)
                 (A) (A) (A) (A) (A) (A) (A) (A) (A) (A) (A) (A)
                 (A) (A) (A) (A) (A) (A) (A) (A) (A) (A) (A) (A)
                 (A) (A) (A) (A) (A) (A) (A) (A) (A) (A) (A) (A)
                 (A) (A) (A) (A) (A) (A) (A) (A) (A) (A) (A) (A)
                 (A) (A) (A) (A) (A) (A) (A) (A) (A) (A) (A) (A)
                 (A) (A) (A) (A) (A) (A) (A) (A) (A) (A) (A) (A)
                 (A) (A) (A) (A) (A) (A) (A) (A) (A) (A) (A) (A)
                 (A) (A) (A) (A) (A) (A) (A) (A) (A) (A) (A) (A)
                 (A) (A) (A) (A) (A) (A) (A) (A) (A) (A) (A) (A)
                 (A) (A) (A) (A) (A) (A) (A) (A) (A) (A) (A) (A)
                 (A) (A) (A) (A) (A) (A)
 Beta  Orbitals:
       Occupied  (A) (A) (A) (A) (A) (A) (A) (A) (A) (A) (A) (A)
                 (A) (A) (A) (A) (A) (A) (A) (A) (A) (A) (A) (A)
                 (A) (A) (A) (A) (A) (A) (A) (A) (A) (A) (A) (A)
                 (A) (A) (A) (A) (A) (A) (A) (A) (A) (A) (A) (A)
                 (A) (A) (A) (A) (A) (A) (A) (A) (A) (A) (A) (A)
                 (A) (A) (A) (A) (A) (A) (A) (A) (A) (A) (A) (A)
                 (A) (A) (A) (A) (A) (A) (A) (A) (A) (A) (A) (A)
                 (A) (A) (A) (A) (A) (A) (A) (A) (A) (A) (A) (A)
                 (A) (A) (A) (A) (A) (A) (A) (A) (A) (A) (A) (A)
                 (A) (A) (A) (A) (A) (A) (A) (A) (A) (A) (A) (A)
                 (A) (A) (A) (A) (A) (A) (A) (A) (A) (A) (A) (A)
                 (A) (A) (A) (A) (A) (A) (A) (A) (A) (A) (A) (A)
                 (A) (A) (A) (A) (A) (A) (A) (A) (A) (A) (A) (A)
                 (A)
       Virtual   (A) (A) (A) (A) (A) (A) (A) (A) (A) (A) (A) (A)
                 (A) (A) (A) (A) (A) (A) (A) (A) (A) (A) (A) (A)
                 (A) (A) (A) (A) (A) (A) (A) (A) (A) (A) (A) (A)
                 (A) (A) (A) (A) (A) (A) (A) (A) (A) (A) (A) (A)
                 (A) (A) (A) (A) (A) (A) (A) (A) (A) (A) (A) (A)
                 (A) (A) (A) (A) (A) (A) (A) (A) (A) (A) (A) (A)
                 (A) (A) (A) (A) (A) (A) (A) (A) (A) (A) (A) (A)
                 (A) (A) (A) (A) (A) (A) (A) (A) (A) (A) (A) (A)
                 (A) (A) (A) (A) (A) (A) (A) (A) (A) (A) (A) (A)
                 (A) (A) (A) (A) (A) (A) (A) (A) (A) (A) (A) (A)
                 (A) (A) (A) (A) (A) (A) (A) (A) (A) (A) (A) (A)
                 (A) (A) (A) (A) (A) (A) (A) (A) (A) (A) (A) (A)
                 (A) (A) (A) (A) (A) (A) (A) (A) (A) (A) (A) (A)
                 (A) (A) (A) (A) (A) (A) (A) (A) (A) (A) (A) (A)
                 (A) (A) (A) (A) (A) (A) (A) (A) (A) (A) (A) (A)
                 (A) (A) (A) (A) (A) (A) (A) (A) (A) (A) (A) (A)
                 (A) (A) (A) (A) (A) (A) (A) (A) (A) (A) (A) (A)
                 (A) (A) (A) (A) (A) (A) (A) (A) (A) (A) (A) (A)
                 (A) (A) (A) (A) (A) (A) (A) (A) (A) (A) (A) (A)
                 (A) (A) (A) (A) (A) (A) (A) (A) (A) (A) (A) (A)
                 (A) (A) (A) (A) (A) (A) (A) (A) (A) (A) (A) (A)
                 (A) (A) (A) (A) (A) (A) (A) (A) (A) (A) (A) (A)
                 (A) (A) (A) (A) (A) (A) (A) (A) (A) (A) (A) (A)
                 (A) (A) (A) (A) (A) (A) (A) (A) (A) (A) (A) (A)
                 (A) (A) (A) (A) (A) (A) (A) (A) (A) (A) (A) (A)
                 (A) (A) (A) (A) (A) (A) (A) (A) (A) (A) (A) (A)
                 (A) (A) (A) (A) (A) (A) (A) (A) (A) (A) (A) (A)
                 (A) (A) (A) (A) (A) (A) (A) (A) (A) (A) (A) (A)
                 (A) (A) (A) (A) (A) (A) (A) (A) (A) (A) (A) (A)
                 (A) (A) (A) (A) (A) (A) (A) (A) (A) (A) (A) (A)
                 (A) (A) (A) (A) (A) (A) (A) (A) (A) (A) (A) (A)
                 (A) (A) (A) (A) (A) (A) (A) (A) (A) (A) (A) (A)
                 (A) (A) (A) (A) (A) (A) (A) (A) (A) (A) (A) (A)
                 (A) (A) (A) (A) (A) (A) (A) (A) (A) (A) (A) (A)
                 (A) (A) (A) (A) (A) (A) (A) (A) (A) (A) (A) (A)
                 (A) (A) (A) (A) (A) (A) (A) (A) (A) (A) (A) (A)
                 (A) (A) (A) (A) (A) (A) (A) (A) (A) (A) (A) (A)
                 (A) (A) (A) (A) (A) (A) (A) (A) (A) (A) (A) (A)
                 (A) (A) (A) (A) (A) (A) (A) (A) (A) (A) (A) (A)
                 (A) (A) (A) (A) (A) (A) (A) (A) (A) (A) (A) (A)
                 (A) (A) (A) (A) (A) (A) (A) (A) (A) (A) (A) (A)
                 (A) (A) (A) (A) (A) (A) (A) (A) (A) (A) (A) (A)
                 (A) (A) (A) (A) (A) (A) (A) (A) (A) (A) (A) (A)
                 (A) (A) (A) (A) (A) (A) (A) (A) (A) (A) (A) (A)
                 (A) (A) (A) (A) (A) (A) (A) (A) (A) (A) (A) (A)
                 (A) (A) (A) (A) (A) (A) (A) (A) (A) (A) (A) (A)
                 (A) (A) (A) (A) (A) (A) (A) (A) (A) (A) (A) (A)
                 (A) (A) (A) (A) (A) (A) (A) (A) (A) (A) (A) (A)
                 (A) (A) (A) (A) (A) (A) (A) (A) (A) (A) (A) (A)
                 (A) (A) (A) (A) (A) (A) (A) (A) (A) (A) (A) (A)
                 (A) (A) (A) (A) (A) (A) (A) (A) (A) (A) (A) (A)
                 (A) (A) (A) (A) (A) (A) (A) (A) (A) (A) (A) (A)
                 (A) (A) (A) (A) (A) (A) (A) (A) (A) (A) (A) (A)
                 (A) (A) (A) (A) (A) (A) (A) (A) (A) (A) (A) (A)
                 (A) (A) (A) (A) (A) (A) (A) (A) (A) (A) (A) (A)
                 (A) (A) (A) (A) (A) (A) (A) (A) (A) (A) (A) (A)
                 (A) (A) (A) (A) (A) (A) (A) (A) (A) (A) (A) (A)
                 (A) (A) (A) (A) (A) (A) (A) (A) (A) (A) (A) (A)
                 (A) (A) (A) (A) (A) (A) (A) (A) (A) (A) (A) (A)
                 (A) (A) (A) (A) (A) (A) (A) (A) (A) (A) (A) (A)
                 (A) (A) (A) (A) (A) (A) (A) (A) (A) (A) (A) (A)
                 (A) (A) (A) (A) (A) (A) (A) (A) (A) (A) (A) (A)
                 (A) (A) (A) (A) (A) (A) (A) (A) (A) (A) (A) (A)
                 (A) (A) (A) (A) (A) (A) (A) (A) (A) (A) (A) (A)
                 (A) (A) (A) (A) (A) (A) (A) (A) (A) (A) (A) (A)
                 (A) (A) (A) (A) (A) (A) (A) (A) (A) (A) (A) (A)
                 (A) (A) (A) (A) (A) (A) (A) (A) (A) (A) (A) (A)
                 (A) (A) (A) (A) (A) (A) (A) (A) (A) (A) (A) (A)
                 (A) (A) (A) (A) (A) (A) (A) (A) (A) (A) (A) (A)
                 (A) (A) (A) (A) (A) (A) (A) (A) (A) (A) (A) (A)
                 (A) (A) (A) (A) (A) (A) (A) (A) (A) (A) (A) (A)
                 (A) (A) (A) (A) (A) (A) (A) (A) (A) (A) (A) (A)
                 (A) (A) (A) (A) (A) (A) (A) (A) (A) (A) (A) (A)
                 (A) (A) (A) (A) (A) (A) (A) (A) (A) (A) (A) (A)
                 (A) (A) (A) (A) (A) (A) (A) (A) (A) (A) (A) (A)
                 (A) (A) (A) (A) (A) (A) (A) (A) (A) (A) (A) (A)
                 (A) (A) (A) (A) (A) (A) (A) (A) (A) (A) (A) (A)
                 (A) (A) (A) (A) (A) (A) (A) (A) (A) (A) (A) (A)
                 (A) (A) (A) (A) (A) (A) (A) (A) (A) (A) (A) (A)
                 (A) (A) (A) (A) (A) (A) (A) (A) (A) (A) (A) (A)
                 (A) (A) (A) (A) (A) (A) (A) (A) (A) (A) (A) (A)
                 (A) (A) (A) (A) (A) (A) (A) (A) (A) (A) (A) (A)
                 (A) (A) (A) (A) (A) (A) (A) (A) (A) (A) (A) (A)
                 (A) (A) (A) (A) (A) (A) (A) (A) (A) (A) (A) (A)
                 (A) (A) (A) (A) (A) (A) (A) (A) (A) (A) (A) (A)
                 (A) (A) (A) (A) (A) (A) (A) (A) (A) (A) (A) (A)
                 (A) (A) (A) (A) (A) (A) (A) (A) (A) (A) (A) (A)
                 (A) (A) (A) (A) (A) (A) (A) (A) (A) (A) (A) (A)
                 (A) (A) (A) (A) (A) (A) (A) (A) (A) (A) (A) (A)
                 (A) (A) (A) (A) (A) (A) (A) (A) (A) (A) (A) (A)
                 (A) (A) (A) (A) (A) (A) (A) (A) (A) (A) (A) (A)
                 (A) (A) (A) (A) (A) (A) (A) (A) (A) (A) (A) (A)
                 (A) (A) (A) (A) (A) (A) (A) (A) (A) (A) (A) (A)
                 (A) (A) (A) (A) (A) (A) (A) (A) (A) (A) (A) (A)
                 (A) (A) (A) (A) (A) (A) (A) (A) (A) (A) (A) (A)
                 (A) (A) (A) (A) (A) (A) (A) (A) (A) (A) (A) (A)
                 (A) (A) (A) (A) (A) (A) (A) (A) (A) (A) (A) (A)
                 (A) (A) (A) (A) (A) (A) (A) (A) (A) (A) (A) (A)
                 (A) (A) (A) (A) (A) (A) (A) (A) (A) (A) (A) (A)
                 (A) (A) (A) (A) (A) (A) (A) (A) (A) (A) (A) (A)
                 (A) (A) (A) (A) (A) (A) (A) (A) (A) (A) (A) (A)
                 (A) (A) (A) (A) (A) (A) (A) (A) (A) (A) (A) (A)
                 (A) (A) (A) (A) (A) (A) (A) (A) (A) (A) (A) (A)
                 (A) (A) (A) (A) (A) (A) (A) (A) (A) (A) (A) (A)
                 (A) (A) (A) (A) (A) (A) (A) (A) (A) (A) (A) (A)
                 (A) (A) (A) (A) (A) (A) (A) (A) (A) (A) (A) (A)
                 (A) (A) (A) (A) (A) (A) (A) (A) (A) (A) (A) (A)
                 (A) (A) (A) (A) (A) (A) (A) (A) (A) (A) (A) (A)
                 (A) (A) (A) (A) (A) (A) (A) (A) (A) (A) (A) (A)
                 (A) (A) (A) (A) (A) (A) (A) (A) (A) (A) (A) (A)
                 (A) (A) (A) (A) (A) (A) (A) (A) (A) (A) (A) (A)
                 (A) (A) (A) (A) (A) (A) (A) (A) (A) (A) (A) (A)
                 (A) (A) (A) (A) (A) (A) (A) (A) (A) (A) (A) (A)
                 (A) (A) (A) (A) (A) (A) (A) (A) (A) (A) (A) (A)
                 (A) (A) (A) (A) (A) (A) (A)
 The electronic state is 2-A.
 Alpha  occ. eigenvalues -- -256.38835 -30.25573 -26.10202 -26.10054 -26.07371
 Alpha  occ. eigenvalues --  -19.28191 -14.53638 -14.50538 -14.46129 -14.45915
 Alpha  occ. eigenvalues --  -14.45820 -14.45755 -10.38332 -10.35443 -10.33020
 Alpha  occ. eigenvalues --  -10.32795 -10.32736 -10.32675 -10.32593 -10.32581
 Alpha  occ. eigenvalues --  -10.32540 -10.32535 -10.32414 -10.30694 -10.29950
 Alpha  occ. eigenvalues --  -10.29810 -10.29718 -10.29660 -10.29640 -10.29627
 Alpha  occ. eigenvalues --  -10.29620 -10.29575 -10.29546 -10.29503 -10.29417
 Alpha  occ. eigenvalues --  -10.29194 -10.28844 -10.28602 -10.27981 -10.27974
 Alpha  occ. eigenvalues --  -10.27955 -10.27868 -10.27815 -10.27499 -10.27441
 Alpha  occ. eigenvalues --  -10.27281  -3.64154  -2.42402  -2.41950  -2.36222
 Alpha  occ. eigenvalues --   -1.17674  -1.15959  -1.08876  -1.08001  -1.07763
 Alpha  occ. eigenvalues --   -1.06895  -1.03587  -0.93510  -0.92268  -0.91839
 Alpha  occ. eigenvalues --   -0.91433  -0.91424  -0.91069  -0.90734  -0.90633
 Alpha  occ. eigenvalues --   -0.86762  -0.85520  -0.85240  -0.84355  -0.82999
 Alpha  occ. eigenvalues --   -0.82941  -0.81208  -0.80183  -0.78568  -0.78374
 Alpha  occ. eigenvalues --   -0.78156  -0.76760  -0.75161  -0.75110  -0.73213
 Alpha  occ. eigenvalues --   -0.71537  -0.70700  -0.70047  -0.68869  -0.68164
 Alpha  occ. eigenvalues --   -0.67730  -0.65216  -0.64459  -0.63610  -0.63339
 Alpha  occ. eigenvalues --   -0.61930  -0.61840  -0.61467  -0.59816  -0.59300
 Alpha  occ. eigenvalues --   -0.59182  -0.58356  -0.58123  -0.55998  -0.55672
 Alpha  occ. eigenvalues --   -0.55280  -0.54894  -0.54539  -0.54451  -0.54189
 Alpha  occ. eigenvalues --   -0.54012  -0.53543  -0.53410  -0.53300  -0.52829
 Alpha  occ. eigenvalues --   -0.52653  -0.52547  -0.52348  -0.52084  -0.51753
 Alpha  occ. eigenvalues --   -0.50795  -0.50700  -0.50615  -0.50483  -0.50280
 Alpha  occ. eigenvalues --   -0.50213  -0.49891  -0.49712  -0.49388  -0.49221
 Alpha  occ. eigenvalues --   -0.48780  -0.48501  -0.48445  -0.48133  -0.47801
 Alpha  occ. eigenvalues --   -0.47521  -0.47262  -0.47013  -0.46523  -0.46184
 Alpha  occ. eigenvalues --   -0.45874  -0.45025  -0.44883  -0.44301  -0.43686
 Alpha  occ. eigenvalues --   -0.43604  -0.43150  -0.42565  -0.42417  -0.41020
 Alpha  occ. eigenvalues --   -0.39933  -0.39882  -0.39403  -0.39335  -0.37629
 Alpha  occ. eigenvalues --   -0.37327  -0.35658  -0.34119  -0.33614  -0.32528
 Alpha  occ. eigenvalues --   -0.32021  -0.30106  -0.28958
 Alpha virt. eigenvalues --   -0.19745  -0.17826  -0.17780  -0.15237  -0.12225
 Alpha virt. eigenvalues --   -0.10662  -0.08986  -0.07771  -0.07118  -0.06710
 Alpha virt. eigenvalues --   -0.05993  -0.05438  -0.04312  -0.03941  -0.03183
 Alpha virt. eigenvalues --   -0.02796  -0.02683  -0.02423  -0.02163  -0.01390
 Alpha virt. eigenvalues --   -0.00605  -0.00514  -0.00419  -0.00052   0.00302
 Alpha virt. eigenvalues --    0.00566   0.00798   0.01624   0.02004   0.02168
 Alpha virt. eigenvalues --    0.02558   0.02655   0.02849   0.03086   0.03206
 Alpha virt. eigenvalues --    0.03393   0.03568   0.03827   0.04088   0.04190
 Alpha virt. eigenvalues --    0.04345   0.04559   0.04807   0.05030   0.05206
 Alpha virt. eigenvalues --    0.05492   0.05662   0.05897   0.06048   0.06170
 Alpha virt. eigenvalues --    0.06914   0.07027   0.07230   0.07484   0.07588
 Alpha virt. eigenvalues --    0.07759   0.08060   0.08268   0.08388   0.08465
 Alpha virt. eigenvalues --    0.08811   0.09000   0.09545   0.09596   0.10138
 Alpha virt. eigenvalues --    0.10402   0.10643   0.10785   0.11232   0.11369
 Alpha virt. eigenvalues --    0.11527   0.11765   0.11875   0.12206   0.12672
 Alpha virt. eigenvalues --    0.12986   0.13227   0.13393   0.13798   0.13989
 Alpha virt. eigenvalues --    0.14220   0.14336   0.14932   0.14968   0.15446
 Alpha virt. eigenvalues --    0.15824   0.16144   0.16578   0.16692   0.16946
 Alpha virt. eigenvalues --    0.17157   0.17375   0.17473   0.17597   0.18002
 Alpha virt. eigenvalues --    0.18203   0.18502   0.18522   0.19193   0.19670
 Alpha virt. eigenvalues --    0.19843   0.20129   0.20224   0.20463   0.20658
 Alpha virt. eigenvalues --    0.21024   0.21149   0.21291   0.21611   0.21754
 Alpha virt. eigenvalues --    0.22369   0.22517   0.22613   0.23181   0.23429
 Alpha virt. eigenvalues --    0.23581   0.23910   0.24149   0.24335   0.24463
 Alpha virt. eigenvalues --    0.24680   0.25096   0.25520   0.25747   0.25948
 Alpha virt. eigenvalues --    0.26175   0.26553   0.27007   0.27131   0.27312
 Alpha virt. eigenvalues --    0.27731   0.27844   0.28522   0.28670   0.29043
 Alpha virt. eigenvalues --    0.29260   0.29496   0.29542   0.29774   0.29817
 Alpha virt. eigenvalues --    0.30059   0.30367   0.30404   0.30931   0.30997
 Alpha virt. eigenvalues --    0.31133   0.31545   0.31674   0.32036   0.32314
 Alpha virt. eigenvalues --    0.32476   0.32535   0.32665   0.32855   0.33203
 Alpha virt. eigenvalues --    0.33392   0.33683   0.33819   0.34030   0.34463
 Alpha virt. eigenvalues --    0.34652   0.34933   0.35281   0.35443   0.35646
 Alpha virt. eigenvalues --    0.35897   0.36248   0.36473   0.36763   0.37199
 Alpha virt. eigenvalues --    0.37352   0.37540   0.37559   0.37954   0.38063
 Alpha virt. eigenvalues --    0.38274   0.38630   0.38670   0.38938   0.39175
 Alpha virt. eigenvalues --    0.39252   0.39493   0.39578   0.40098   0.40285
 Alpha virt. eigenvalues --    0.40502   0.40740   0.40832   0.41043   0.41353
 Alpha virt. eigenvalues --    0.41476   0.41682   0.41892   0.42208   0.42292
 Alpha virt. eigenvalues --    0.42425   0.42972   0.43068   0.43323   0.43462
 Alpha virt. eigenvalues --    0.43505   0.43871   0.44022   0.44287   0.44445
 Alpha virt. eigenvalues --    0.44883   0.45216   0.45367   0.45767   0.45923
 Alpha virt. eigenvalues --    0.46140   0.46273   0.46385   0.46716   0.46841
 Alpha virt. eigenvalues --    0.47260   0.47540   0.47712   0.47752   0.48233
 Alpha virt. eigenvalues --    0.48466   0.48933   0.49093   0.49136   0.49567
 Alpha virt. eigenvalues --    0.49973   0.50667   0.51084   0.51290   0.51471
 Alpha virt. eigenvalues --    0.52034   0.52094   0.52505   0.52760   0.53037
 Alpha virt. eigenvalues --    0.53417   0.53638   0.53984   0.54244   0.54428
 Alpha virt. eigenvalues --    0.54578   0.54789   0.55225   0.55522   0.55689
 Alpha virt. eigenvalues --    0.55764   0.56235   0.56284   0.56655   0.57026
 Alpha virt. eigenvalues --    0.57242   0.57503   0.58112   0.58257   0.58951
 Alpha virt. eigenvalues --    0.59251   0.59607   0.59982   0.60276   0.60504
 Alpha virt. eigenvalues --    0.60722   0.60917   0.61074   0.61770   0.62044
 Alpha virt. eigenvalues --    0.62215   0.62585   0.62938   0.63037   0.63727
 Alpha virt. eigenvalues --    0.64148   0.64313   0.64563   0.64690   0.65426
 Alpha virt. eigenvalues --    0.65672   0.65896   0.66333   0.66441   0.66830
 Alpha virt. eigenvalues --    0.67266   0.67523   0.67773   0.68205   0.68387
 Alpha virt. eigenvalues --    0.68917   0.69404   0.69571   0.69612   0.69859
 Alpha virt. eigenvalues --    0.70280   0.70418   0.70989   0.71454   0.71782
 Alpha virt. eigenvalues --    0.72082   0.72556   0.73436   0.73747   0.73983
 Alpha virt. eigenvalues --    0.74190   0.74623   0.75116   0.75239   0.75852
 Alpha virt. eigenvalues --    0.76205   0.76556   0.77416   0.77579   0.77853
 Alpha virt. eigenvalues --    0.78304   0.78570   0.79303   0.79866   0.80265
 Alpha virt. eigenvalues --    0.80446   0.80820   0.81067   0.81390   0.82011
 Alpha virt. eigenvalues --    0.82130   0.82669   0.82872   0.83351   0.84193
 Alpha virt. eigenvalues --    0.84360   0.84799   0.85013   0.85197   0.85544
 Alpha virt. eigenvalues --    0.85847   0.86279   0.86653   0.87069   0.87526
 Alpha virt. eigenvalues --    0.87826   0.88252   0.88412   0.88896   0.89234
 Alpha virt. eigenvalues --    0.89861   0.90021   0.90289   0.90762   0.91049
 Alpha virt. eigenvalues --    0.91589   0.91725   0.91974   0.92180   0.92300
 Alpha virt. eigenvalues --    0.92737   0.92899   0.93177   0.93286   0.93838
 Alpha virt. eigenvalues --    0.94237   0.94287   0.94692   0.94952   0.95253
 Alpha virt. eigenvalues --    0.95581   0.95936   0.96366   0.96683   0.97059
 Alpha virt. eigenvalues --    0.97874   0.98017   0.98103   0.98845   0.99282
 Alpha virt. eigenvalues --    0.99572   0.99747   0.99933   1.00639   1.01630
 Alpha virt. eigenvalues --    1.01889   1.02375   1.02705   1.02987   1.03999
 Alpha virt. eigenvalues --    1.04382   1.04673   1.05483   1.06007   1.06251
 Alpha virt. eigenvalues --    1.06364   1.07184   1.07329   1.07529   1.07895
 Alpha virt. eigenvalues --    1.08213   1.08838   1.09052   1.09577   1.09733
 Alpha virt. eigenvalues --    1.10018   1.10703   1.11000   1.11187   1.11466
 Alpha virt. eigenvalues --    1.11748   1.12371   1.12475   1.12758   1.13598
 Alpha virt. eigenvalues --    1.13785   1.14524   1.15018   1.15301   1.15873
 Alpha virt. eigenvalues --    1.16283   1.16663   1.17073   1.17583   1.17952
 Alpha virt. eigenvalues --    1.18394   1.18557   1.18738   1.18931   1.19412
 Alpha virt. eigenvalues --    1.19580   1.19684   1.20194   1.20586   1.21201
 Alpha virt. eigenvalues --    1.21385   1.21779   1.22095   1.22908   1.23496
 Alpha virt. eigenvalues --    1.24124   1.25152   1.25806   1.26099   1.26489
 Alpha virt. eigenvalues --    1.27161   1.27369   1.27738   1.28432   1.29536
 Alpha virt. eigenvalues --    1.30038   1.30287   1.31381   1.31448   1.32139
 Alpha virt. eigenvalues --    1.32570   1.33530   1.33768   1.34469   1.34724
 Alpha virt. eigenvalues --    1.35019   1.35297   1.35534   1.36364   1.36480
 Alpha virt. eigenvalues --    1.36793   1.36888   1.37927   1.38035   1.38368
 Alpha virt. eigenvalues --    1.38401   1.38891   1.39438   1.39658   1.39857
 Alpha virt. eigenvalues --    1.40092   1.40267   1.40595   1.40964   1.41383
 Alpha virt. eigenvalues --    1.41688   1.42054   1.42345   1.42546   1.43033
 Alpha virt. eigenvalues --    1.43147   1.43598   1.43990   1.44169   1.44353
 Alpha virt. eigenvalues --    1.44598   1.44921   1.45496   1.45735   1.46095
 Alpha virt. eigenvalues --    1.46378   1.46485   1.46625   1.46721   1.46987
 Alpha virt. eigenvalues --    1.47432   1.47681   1.48061   1.48227   1.48482
 Alpha virt. eigenvalues --    1.48822   1.49028   1.49235   1.49668   1.49931
 Alpha virt. eigenvalues --    1.50117   1.50958   1.51185   1.51381   1.51590
 Alpha virt. eigenvalues --    1.51776   1.51981   1.52452   1.52549   1.53160
 Alpha virt. eigenvalues --    1.53560   1.53647   1.53947   1.54380   1.54568
 Alpha virt. eigenvalues --    1.55025   1.55237   1.55452   1.55517   1.56038
 Alpha virt. eigenvalues --    1.56471   1.56663   1.57222   1.57449   1.57978
 Alpha virt. eigenvalues --    1.58327   1.58870   1.59106   1.59190   1.59766
 Alpha virt. eigenvalues --    1.59792   1.60333   1.60599   1.61202   1.61356
 Alpha virt. eigenvalues --    1.61818   1.62189   1.62329   1.62756   1.63212
 Alpha virt. eigenvalues --    1.63907   1.64215   1.64768   1.65489   1.65886
 Alpha virt. eigenvalues --    1.66350   1.66935   1.67338   1.68189   1.68514
 Alpha virt. eigenvalues --    1.69733   1.69831   1.70675   1.70860   1.71246
 Alpha virt. eigenvalues --    1.71726   1.72008   1.72384   1.73022   1.73260
 Alpha virt. eigenvalues --    1.74125   1.74346   1.74799   1.75412   1.75524
 Alpha virt. eigenvalues --    1.75959   1.76078   1.76574   1.76888   1.77430
 Alpha virt. eigenvalues --    1.78279   1.78383   1.79007   1.79400   1.79821
 Alpha virt. eigenvalues --    1.80242   1.80822   1.80869   1.81756   1.81899
 Alpha virt. eigenvalues --    1.82338   1.82671   1.83536   1.83946   1.84490
 Alpha virt. eigenvalues --    1.85197   1.85476   1.85759   1.86765   1.87041
 Alpha virt. eigenvalues --    1.87604   1.88258   1.88463   1.89026   1.89179
 Alpha virt. eigenvalues --    1.89540   1.89808   1.90797   1.90938   1.91377
 Alpha virt. eigenvalues --    1.91709   1.92030   1.92248   1.92478   1.93265
 Alpha virt. eigenvalues --    1.93515   1.94140   1.94422   1.95496   1.95926
 Alpha virt. eigenvalues --    1.96505   1.96862   1.97814   1.98377   1.98611
 Alpha virt. eigenvalues --    1.98905   1.99052   1.99638   2.00133   2.00334
 Alpha virt. eigenvalues --    2.00762   2.01088   2.01564   2.01976   2.02369
 Alpha virt. eigenvalues --    2.03445   2.03585   2.04208   2.04677   2.04892
 Alpha virt. eigenvalues --    2.05402   2.05653   2.06084   2.06933   2.07183
 Alpha virt. eigenvalues --    2.07727   2.07851   2.08182   2.08831   2.09376
 Alpha virt. eigenvalues --    2.09726   2.09905   2.10567   2.11203   2.11499
 Alpha virt. eigenvalues --    2.11958   2.13119   2.13511   2.13795   2.14620
 Alpha virt. eigenvalues --    2.14953   2.15822   2.16608   2.16782   2.17215
 Alpha virt. eigenvalues --    2.17812   2.18124   2.18153   2.18985   2.19318
 Alpha virt. eigenvalues --    2.19500   2.19996   2.20375   2.20582   2.20773
 Alpha virt. eigenvalues --    2.21263   2.21443   2.22059   2.22514   2.23584
 Alpha virt. eigenvalues --    2.23922   2.24436   2.25159   2.25340   2.25421
 Alpha virt. eigenvalues --    2.26214   2.26476   2.27041   2.27203   2.27748
 Alpha virt. eigenvalues --    2.28171   2.28521   2.28951   2.29241   2.29682
 Alpha virt. eigenvalues --    2.30062   2.30252   2.30789   2.31323   2.31497
 Alpha virt. eigenvalues --    2.32120   2.32707   2.33264   2.33321   2.33865
 Alpha virt. eigenvalues --    2.34556   2.34820   2.35148   2.35907   2.36208
 Alpha virt. eigenvalues --    2.36419   2.36596   2.37127   2.37247   2.38003
 Alpha virt. eigenvalues --    2.38243   2.38805   2.39081   2.39946   2.40333
 Alpha virt. eigenvalues --    2.40611   2.41402   2.41843   2.42505   2.43159
 Alpha virt. eigenvalues --    2.43357   2.43732   2.43991   2.44232   2.44884
 Alpha virt. eigenvalues --    2.45307   2.45959   2.46219   2.46515   2.47163
 Alpha virt. eigenvalues --    2.47455   2.47613   2.47705   2.48196   2.48871
 Alpha virt. eigenvalues --    2.49115   2.49494   2.49990   2.50370   2.50842
 Alpha virt. eigenvalues --    2.51037   2.51117   2.51370   2.51956   2.52421
 Alpha virt. eigenvalues --    2.52848   2.52999   2.53565   2.54187   2.54291
 Alpha virt. eigenvalues --    2.54624   2.54746   2.55177   2.55480   2.55888
 Alpha virt. eigenvalues --    2.56539   2.56833   2.57509   2.57530   2.58183
 Alpha virt. eigenvalues --    2.58450   2.58962   2.59264   2.59701   2.60293
 Alpha virt. eigenvalues --    2.60495   2.60945   2.61198   2.61504   2.61615
 Alpha virt. eigenvalues --    2.61978   2.62730   2.63556   2.63950   2.64282
 Alpha virt. eigenvalues --    2.64700   2.65089   2.65720   2.66302   2.66612
 Alpha virt. eigenvalues --    2.66968   2.67490   2.67637   2.67884   2.68977
 Alpha virt. eigenvalues --    2.69418   2.69921   2.70225   2.70697   2.70974
 Alpha virt. eigenvalues --    2.71277   2.71449   2.72210   2.72691   2.72838
 Alpha virt. eigenvalues --    2.73211   2.73850   2.74266   2.74645   2.74955
 Alpha virt. eigenvalues --    2.75153   2.75630   2.76190   2.76560   2.76921
 Alpha virt. eigenvalues --    2.77484   2.77746   2.77795   2.78331   2.79048
 Alpha virt. eigenvalues --    2.79158   2.79533   2.79756   2.80143   2.80982
 Alpha virt. eigenvalues --    2.81393   2.81504   2.81676   2.81978   2.82489
 Alpha virt. eigenvalues --    2.82856   2.83155   2.83622   2.84036   2.84510
 Alpha virt. eigenvalues --    2.84843   2.84997   2.85202   2.85732   2.86726
 Alpha virt. eigenvalues --    2.87016   2.87255   2.87394   2.88053   2.88175
 Alpha virt. eigenvalues --    2.88459   2.88977   2.89247   2.89491   2.89657
 Alpha virt. eigenvalues --    2.90046   2.90562   2.91313   2.91484   2.92036
 Alpha virt. eigenvalues --    2.92134   2.92510   2.92859   2.93620   2.93973
 Alpha virt. eigenvalues --    2.94650   2.94980   2.95205   2.95764   2.96221
 Alpha virt. eigenvalues --    2.96515   2.96901   2.97140   2.97580   2.97863
 Alpha virt. eigenvalues --    2.97915   2.98237   2.98756   2.98920   2.99181
 Alpha virt. eigenvalues --    2.99723   3.00041   3.00432   3.00767   3.01090
 Alpha virt. eigenvalues --    3.01443   3.01740   3.02095   3.02635   3.02758
 Alpha virt. eigenvalues --    3.03023   3.03800   3.03939   3.04101   3.04334
 Alpha virt. eigenvalues --    3.04728   3.05461   3.05727   3.05994   3.06303
 Alpha virt. eigenvalues --    3.06563   3.07045   3.07220   3.07738   3.07999
 Alpha virt. eigenvalues --    3.08339   3.08767   3.09256   3.09546   3.09711
 Alpha virt. eigenvalues --    3.10047   3.10368   3.10627   3.10969   3.11428
 Alpha virt. eigenvalues --    3.11848   3.11902   3.12279   3.12536   3.12898
 Alpha virt. eigenvalues --    3.13119   3.13468   3.13691   3.14049   3.14424
 Alpha virt. eigenvalues --    3.15001   3.15079   3.15374   3.15523   3.15921
 Alpha virt. eigenvalues --    3.15994   3.16249   3.16548   3.16842   3.17019
 Alpha virt. eigenvalues --    3.17256   3.17817   3.18276   3.18708   3.18867
 Alpha virt. eigenvalues --    3.19032   3.19291   3.19678   3.20051   3.20452
 Alpha virt. eigenvalues --    3.20601   3.21057   3.21221   3.21384   3.21545
 Alpha virt. eigenvalues --    3.22285   3.22593   3.22733   3.22955   3.23188
 Alpha virt. eigenvalues --    3.23422   3.23924   3.24167   3.24366   3.24492
 Alpha virt. eigenvalues --    3.24742   3.24875   3.25275   3.25485   3.25832
 Alpha virt. eigenvalues --    3.25967   3.26506   3.26665   3.27007   3.27404
 Alpha virt. eigenvalues --    3.27643   3.27897   3.28249   3.28368   3.28726
 Alpha virt. eigenvalues --    3.28931   3.29075   3.29407   3.29692   3.30059
 Alpha virt. eigenvalues --    3.30345   3.30718   3.31779   3.31910   3.32302
 Alpha virt. eigenvalues --    3.32723   3.33185   3.33685   3.33861   3.34015
 Alpha virt. eigenvalues --    3.34541   3.34729   3.35390   3.35641   3.36106
 Alpha virt. eigenvalues --    3.36493   3.37094   3.37421   3.37936   3.38158
 Alpha virt. eigenvalues --    3.38497   3.39131   3.39504   3.40866   3.41011
 Alpha virt. eigenvalues --    3.41345   3.41617   3.41989   3.42519   3.43114
 Alpha virt. eigenvalues --    3.43507   3.43795   3.44205   3.44812   3.44972
 Alpha virt. eigenvalues --    3.45386   3.45475   3.45783   3.46427   3.47024
 Alpha virt. eigenvalues --    3.47419   3.47926   3.48587   3.48748   3.49340
 Alpha virt. eigenvalues --    3.50140   3.50151   3.50517   3.51628   3.52171
 Alpha virt. eigenvalues --    3.52562   3.53038   3.53440   3.54120   3.54430
 Alpha virt. eigenvalues --    3.54676   3.54939   3.55463   3.56080   3.56592
 Alpha virt. eigenvalues --    3.57088   3.57406   3.58065   3.58364   3.58820
 Alpha virt. eigenvalues --    3.59611   3.59800   3.60387   3.60618   3.60985
 Alpha virt. eigenvalues --    3.61518   3.61733   3.62465   3.62646   3.63035
 Alpha virt. eigenvalues --    3.63379   3.63487   3.64182   3.64681   3.64895
 Alpha virt. eigenvalues --    3.65073   3.65575   3.66593   3.66855   3.67186
 Alpha virt. eigenvalues --    3.67798   3.68550   3.68962   3.69529   3.69841
 Alpha virt. eigenvalues --    3.70396   3.70749   3.71524   3.71863   3.72432
 Alpha virt. eigenvalues --    3.72872   3.73942   3.74154   3.75232   3.75863
 Alpha virt. eigenvalues --    3.75935   3.76937   3.77464   3.78006   3.78393
 Alpha virt. eigenvalues --    3.78901   3.79427   3.79987   3.80434   3.81160
 Alpha virt. eigenvalues --    3.81659   3.81749   3.82226   3.82537   3.83467
 Alpha virt. eigenvalues --    3.83878   3.84886   3.85143   3.85942   3.87375
 Alpha virt. eigenvalues --    3.88600   3.88769   3.88927   3.89453   3.89785
 Alpha virt. eigenvalues --    3.90360   3.90616   3.91096   3.91542   3.92525
 Alpha virt. eigenvalues --    3.93288   3.93979   3.94285   3.94428   3.95277
 Alpha virt. eigenvalues --    3.95733   3.96124   3.97346   3.98058   3.98123
 Alpha virt. eigenvalues --    3.99740   3.99936   4.00213   4.01603   4.01706
 Alpha virt. eigenvalues --    4.01914   4.03308   4.03617   4.04227   4.04945
 Alpha virt. eigenvalues --    4.05072   4.05556   4.05958   4.06566   4.06755
 Alpha virt. eigenvalues --    4.07558   4.08555   4.09036   4.09805   4.09908
 Alpha virt. eigenvalues --    4.11011   4.11107   4.11289   4.12250   4.13400
 Alpha virt. eigenvalues --    4.13966   4.14456   4.14700   4.15020   4.15479
 Alpha virt. eigenvalues --    4.15780   4.16380   4.16735   4.18442   4.18492
 Alpha virt. eigenvalues --    4.19008   4.19935   4.20035   4.21395   4.21998
 Alpha virt. eigenvalues --    4.22553   4.23290   4.23593   4.23835   4.24961
 Alpha virt. eigenvalues --    4.25016   4.26439   4.26820   4.27409   4.28670
 Alpha virt. eigenvalues --    4.29455   4.29712   4.29894   4.30667   4.30980
 Alpha virt. eigenvalues --    4.31429   4.31776   4.32419   4.33159   4.33348
 Alpha virt. eigenvalues --    4.33744   4.34279   4.34975   4.35358   4.35762
 Alpha virt. eigenvalues --    4.36007   4.36818   4.37016   4.37606   4.38386
 Alpha virt. eigenvalues --    4.39299   4.41096   4.41485   4.42408   4.43361
 Alpha virt. eigenvalues --    4.43782   4.45042   4.45697   4.46226   4.47102
 Alpha virt. eigenvalues --    4.47709   4.48329   4.48642   4.50153   4.51079
 Alpha virt. eigenvalues --    4.52896   4.53412   4.54605   4.55140   4.57188
 Alpha virt. eigenvalues --    4.57538   4.58263   4.58528   4.58746   4.59652
 Alpha virt. eigenvalues --    4.60832   4.61710   4.62956   4.63310   4.64038
 Alpha virt. eigenvalues --    4.64280   4.65379   4.66253   4.67295   4.68621
 Alpha virt. eigenvalues --    4.69128   4.69784   4.70792   4.71932   4.72280
 Alpha virt. eigenvalues --    4.72599   4.72937   4.73360   4.73626   4.74421
 Alpha virt. eigenvalues --    4.74851   4.76079   4.76587   4.78389   4.78498
 Alpha virt. eigenvalues --    4.80237   4.80612   4.81519   4.82191   4.82222
 Alpha virt. eigenvalues --    4.83543   4.83724   4.84365   4.85821   4.86349
 Alpha virt. eigenvalues --    4.86658   4.88228   4.89383   4.90191   4.90648
 Alpha virt. eigenvalues --    4.91514   4.92465   4.93242   4.94657   4.94923
 Alpha virt. eigenvalues --    4.95366   4.96051   4.96980   4.97506   4.98380
 Alpha virt. eigenvalues --    4.99006   4.99852   5.03010   5.03585   5.04256
 Alpha virt. eigenvalues --    5.05663   5.06896   5.07538   5.08796   5.09103
 Alpha virt. eigenvalues --    5.09850   5.11310   5.12528   5.13192   5.14404
 Alpha virt. eigenvalues --    5.14632   5.14725   5.17007   5.18240   5.19313
 Alpha virt. eigenvalues --    5.20703   5.23900   5.24246   5.25291   5.25593
 Alpha virt. eigenvalues --    5.25948   5.26862   5.27488   5.28244   5.28924
 Alpha virt. eigenvalues --    5.29563   5.30550   5.31548   5.31881   5.34633
 Alpha virt. eigenvalues --    5.36559   5.37867   5.38154   5.39613   5.39994
 Alpha virt. eigenvalues --    5.40589   5.42073   5.43611   5.44603   5.46591
 Alpha virt. eigenvalues --    5.49501   5.50193   5.50844   5.51868   5.52433
 Alpha virt. eigenvalues --    5.53743   5.54640   5.55682   5.56058   5.57103
 Alpha virt. eigenvalues --    5.57197   5.60292   5.63854   5.65432   5.67087
 Alpha virt. eigenvalues --    5.67883   5.70673   5.76998   5.78961   5.80160
 Alpha virt. eigenvalues --    5.81074   5.84784   5.89487   5.90604   5.90785
 Alpha virt. eigenvalues --    5.96273   5.99102   5.99552   6.00040   6.01832
 Alpha virt. eigenvalues --    6.04231   6.06866   6.13345   6.14702   6.22697
 Alpha virt. eigenvalues --    6.23233   6.29880   6.35648   6.41675   6.42338
 Alpha virt. eigenvalues --    6.53119   6.86257   7.18439  22.27102  22.27549
 Alpha virt. eigenvalues --   22.34303  22.36685  22.37509  22.43264  22.44816
 Alpha virt. eigenvalues --   22.52844  22.53761  22.65005  22.75778  22.77688
 Alpha virt. eigenvalues --   22.81563  22.83581  22.83962  22.85293  22.86645
 Alpha virt. eigenvalues --   22.92473  22.93403  22.95123  23.04079  23.16529
 Alpha virt. eigenvalues --   23.16779  23.19619  23.20835  23.29605  23.31034
 Alpha virt. eigenvalues --   23.40062  23.40355  23.44724  23.63735  23.68389
 Alpha virt. eigenvalues --   23.69380  23.77753  32.28687  32.56864  32.74616
 Alpha virt. eigenvalues --   32.82777  32.83936  32.98067  43.88566
  Beta  occ. eigenvalues -- -256.38800 -30.23338 -26.07771 -26.07608 -26.06655
  Beta  occ. eigenvalues --  -19.28186 -14.53635 -14.50613 -14.46166 -14.45946
  Beta  occ. eigenvalues --  -14.45888 -14.45831 -10.38314 -10.35446 -10.33018
  Beta  occ. eigenvalues --  -10.32785 -10.32727 -10.32670 -10.32589 -10.32564
  Beta  occ. eigenvalues --  -10.32536 -10.32531 -10.32409 -10.30694 -10.29932
  Beta  occ. eigenvalues --  -10.29824 -10.29703 -10.29671 -10.29638 -10.29625
  Beta  occ. eigenvalues --  -10.29607 -10.29591 -10.29551 -10.29505 -10.29420
  Beta  occ. eigenvalues --  -10.29196 -10.28850 -10.28602 -10.27982 -10.27974
  Beta  occ. eigenvalues --  -10.27956 -10.27869 -10.27816 -10.27489 -10.27441
  Beta  occ. eigenvalues --  -10.27280  -3.58728  -2.34932  -2.34696  -2.33621
  Beta  occ. eigenvalues --   -1.17683  -1.15951  -1.08902  -1.07993  -1.07832
  Beta  occ. eigenvalues --   -1.06928  -1.03623  -0.93519  -0.92253  -0.91854
  Beta  occ. eigenvalues --   -0.91432  -0.91413  -0.91077  -0.90751  -0.90648
  Beta  occ. eigenvalues --   -0.86758  -0.85520  -0.85270  -0.84354  -0.83000
  Beta  occ. eigenvalues --   -0.82938  -0.81209  -0.80189  -0.78573  -0.78381
  Beta  occ. eigenvalues --   -0.78172  -0.76780  -0.75164  -0.75111  -0.73212
  Beta  occ. eigenvalues --   -0.71527  -0.70697  -0.70050  -0.68866  -0.68168
  Beta  occ. eigenvalues --   -0.67727  -0.65220  -0.64468  -0.63608  -0.63335
  Beta  occ. eigenvalues --   -0.61940  -0.61864  -0.61481  -0.59789  -0.59270
  Beta  occ. eigenvalues --   -0.59128  -0.58371  -0.58105  -0.55989  -0.55657
  Beta  occ. eigenvalues --   -0.55232  -0.54849  -0.54411  -0.54376  -0.54158
  Beta  occ. eigenvalues --   -0.53999  -0.53503  -0.53421  -0.53305  -0.52810
  Beta  occ. eigenvalues --   -0.52616  -0.52470  -0.52345  -0.52077  -0.51764
  Beta  occ. eigenvalues --   -0.50778  -0.50640  -0.50571  -0.50271  -0.50199
  Beta  occ. eigenvalues --   -0.49936  -0.49885  -0.49702  -0.49245  -0.49126
  Beta  occ. eigenvalues --   -0.48653  -0.48520  -0.48413  -0.48051  -0.47698
  Beta  occ. eigenvalues --   -0.47400  -0.47079  -0.46708  -0.46177  -0.45819
  Beta  occ. eigenvalues --   -0.45108  -0.45027  -0.44339  -0.44207  -0.43634
  Beta  occ. eigenvalues --   -0.43048  -0.42431  -0.42244  -0.41479  -0.39899
  Beta  occ. eigenvalues --   -0.39455  -0.38523  -0.37925  -0.37350  -0.36948
  Beta  occ. eigenvalues --   -0.35587  -0.34250  -0.33681  -0.32615  -0.31842
  Beta  occ. eigenvalues --   -0.30104  -0.28882
  Beta virt. eigenvalues --   -0.20370  -0.17830  -0.17419  -0.16806  -0.12254
  Beta virt. eigenvalues --   -0.12183  -0.10436  -0.08902  -0.07750  -0.07095
  Beta virt. eigenvalues --   -0.06634  -0.05982  -0.05366  -0.04308  -0.03924
  Beta virt. eigenvalues --   -0.03177  -0.02777  -0.02551  -0.02405  -0.02099
  Beta virt. eigenvalues --   -0.01368  -0.00594  -0.00492  -0.00411  -0.00036
  Beta virt. eigenvalues --    0.00305   0.00579   0.00815   0.01630   0.02031
  Beta virt. eigenvalues --    0.02183   0.02558   0.02664   0.02852   0.03097
  Beta virt. eigenvalues --    0.03211   0.03414   0.03582   0.03858   0.04093
  Beta virt. eigenvalues --    0.04200   0.04349   0.04569   0.04812   0.05044
  Beta virt. eigenvalues --    0.05205   0.05499   0.05660   0.05904   0.06053
  Beta virt. eigenvalues --    0.06171   0.06940   0.07029   0.07237   0.07491
  Beta virt. eigenvalues --    0.07591   0.07768   0.08063   0.08274   0.08422
  Beta virt. eigenvalues --    0.08480   0.08819   0.09004   0.09551   0.09614
  Beta virt. eigenvalues --    0.10154   0.10409   0.10651   0.10793   0.11234
  Beta virt. eigenvalues --    0.11383   0.11531   0.11771   0.11912   0.12233
  Beta virt. eigenvalues --    0.12678   0.13013   0.13227   0.13413   0.13813
  Beta virt. eigenvalues --    0.14025   0.14252   0.14347   0.14991   0.15051
  Beta virt. eigenvalues --    0.15483   0.15858   0.16191   0.16592   0.16741
  Beta virt. eigenvalues --    0.16952   0.17172   0.17388   0.17540   0.17632
  Beta virt. eigenvalues --    0.18015   0.18260   0.18534   0.18628   0.19266
  Beta virt. eigenvalues --    0.19685   0.19857   0.20151   0.20252   0.20486
  Beta virt. eigenvalues --    0.20705   0.21043   0.21160   0.21310   0.21617
  Beta virt. eigenvalues --    0.21788   0.22389   0.22542   0.22648   0.23203
  Beta virt. eigenvalues --    0.23437   0.23609   0.23924   0.24278   0.24384
  Beta virt. eigenvalues --    0.24493   0.24772   0.25105   0.25594   0.25769
  Beta virt. eigenvalues --    0.25966   0.26198   0.26598   0.27046   0.27140
  Beta virt. eigenvalues --    0.27332   0.27763   0.27860   0.28561   0.28726
  Beta virt. eigenvalues --    0.29080   0.29303   0.29513   0.29608   0.29783
  Beta virt. eigenvalues --    0.29858   0.30077   0.30394   0.30478   0.30949
  Beta virt. eigenvalues --    0.31016   0.31169   0.31574   0.31702   0.32063
  Beta virt. eigenvalues --    0.32349   0.32490   0.32580   0.32693   0.32899
  Beta virt. eigenvalues --    0.33227   0.33451   0.33748   0.33848   0.34074
  Beta virt. eigenvalues --    0.34474   0.34670   0.35000   0.35301   0.35468
  Beta virt. eigenvalues --    0.35694   0.35914   0.36261   0.36515   0.36782
  Beta virt. eigenvalues --    0.37234   0.37369   0.37543   0.37577   0.37961
  Beta virt. eigenvalues --    0.38090   0.38287   0.38635   0.38683   0.38948
  Beta virt. eigenvalues --    0.39245   0.39274   0.39517   0.39578   0.40102
  Beta virt. eigenvalues --    0.40307   0.40520   0.40745   0.40847   0.41065
  Beta virt. eigenvalues --    0.41375   0.41507   0.41696   0.41919   0.42232
  Beta virt. eigenvalues --    0.42302   0.42450   0.43003   0.43099   0.43331
  Beta virt. eigenvalues --    0.43476   0.43524   0.43890   0.44039   0.44286
  Beta virt. eigenvalues --    0.44477   0.44894   0.45255   0.45434   0.45828
  Beta virt. eigenvalues --    0.45936   0.46159   0.46318   0.46401   0.46723
  Beta virt. eigenvalues --    0.46843   0.47262   0.47559   0.47721   0.47799
  Beta virt. eigenvalues --    0.48252   0.48466   0.48945   0.49109   0.49157
  Beta virt. eigenvalues --    0.49564   0.50003   0.50670   0.51107   0.51306
  Beta virt. eigenvalues --    0.51510   0.52038   0.52128   0.52522   0.52804
  Beta virt. eigenvalues --    0.53061   0.53453   0.53650   0.53995   0.54260
  Beta virt. eigenvalues --    0.54447   0.54597   0.54794   0.55280   0.55562
  Beta virt. eigenvalues --    0.55753   0.55800   0.56255   0.56305   0.56687
  Beta virt. eigenvalues --    0.57070   0.57261   0.57505   0.58133   0.58273
  Beta virt. eigenvalues --    0.58976   0.59280   0.59675   0.60012   0.60348
  Beta virt. eigenvalues --    0.60533   0.60784   0.60937   0.61089   0.61799
  Beta virt. eigenvalues --    0.62048   0.62306   0.62598   0.62998   0.63094
  Beta virt. eigenvalues --    0.63764   0.64167   0.64324   0.64600   0.64764
  Beta virt. eigenvalues --    0.65439   0.65688   0.65906   0.66344   0.66492
  Beta virt. eigenvalues --    0.66836   0.67291   0.67551   0.67791   0.68215
  Beta virt. eigenvalues --    0.68399   0.68949   0.69421   0.69593   0.69636
  Beta virt. eigenvalues --    0.69893   0.70322   0.70437   0.71000   0.71485
  Beta virt. eigenvalues --    0.71803   0.72163   0.72581   0.73454   0.73769
  Beta virt. eigenvalues --    0.74012   0.74197   0.74644   0.75146   0.75267
  Beta virt. eigenvalues --    0.75869   0.76237   0.76580   0.77434   0.77584
  Beta virt. eigenvalues --    0.77881   0.78336   0.78596   0.79314   0.79884
  Beta virt. eigenvalues --    0.80281   0.80467   0.80836   0.81082   0.81418
  Beta virt. eigenvalues --    0.82043   0.82148   0.82678   0.82897   0.83366
  Beta virt. eigenvalues --    0.84212   0.84376   0.84811   0.85039   0.85216
  Beta virt. eigenvalues --    0.85570   0.85863   0.86297   0.86743   0.87089
  Beta virt. eigenvalues --    0.87563   0.87856   0.88282   0.88465   0.88930
  Beta virt. eigenvalues --    0.89259   0.89867   0.90098   0.90313   0.90791
  Beta virt. eigenvalues --    0.91082   0.91649   0.91751   0.91986   0.92207
  Beta virt. eigenvalues --    0.92343   0.92783   0.92925   0.93207   0.93329
  Beta virt. eigenvalues --    0.93851   0.94258   0.94310   0.94733   0.94969
  Beta virt. eigenvalues --    0.95257   0.95648   0.95966   0.96472   0.96745
  Beta virt. eigenvalues --    0.97189   0.97908   0.98044   0.98135   0.98953
  Beta virt. eigenvalues --    0.99333   0.99697   0.99884   1.00011   1.00734
  Beta virt. eigenvalues --    1.01645   1.01958   1.02495   1.02725   1.03044
  Beta virt. eigenvalues --    1.04042   1.04583   1.04708   1.05532   1.06095
  Beta virt. eigenvalues --    1.06278   1.06461   1.07207   1.07423   1.07593
  Beta virt. eigenvalues --    1.07923   1.08232   1.08883   1.09123   1.09623
  Beta virt. eigenvalues --    1.09761   1.10035   1.10732   1.11018   1.11237
  Beta virt. eigenvalues --    1.11496   1.11813   1.12407   1.12498   1.12850
  Beta virt. eigenvalues --    1.13634   1.13879   1.14540   1.15069   1.15643
  Beta virt. eigenvalues --    1.16016   1.16309   1.16687   1.17090   1.17634
  Beta virt. eigenvalues --    1.18058   1.18424   1.18607   1.18801   1.18962
  Beta virt. eigenvalues --    1.19434   1.19613   1.19761   1.20231   1.20641
  Beta virt. eigenvalues --    1.21243   1.21405   1.21792   1.22213   1.22944
  Beta virt. eigenvalues --    1.23516   1.24152   1.25178   1.25841   1.26117
  Beta virt. eigenvalues --    1.26503   1.27198   1.27375   1.27786   1.28506
  Beta virt. eigenvalues --    1.29555   1.30078   1.30294   1.31436   1.31466
  Beta virt. eigenvalues --    1.32169   1.32604   1.33583   1.33819   1.34494
  Beta virt. eigenvalues --    1.34738   1.35055   1.35333   1.35567   1.36417
  Beta virt. eigenvalues --    1.36534   1.36847   1.36922   1.37955   1.38053
  Beta virt. eigenvalues --    1.38376   1.38445   1.38954   1.39466   1.39686
  Beta virt. eigenvalues --    1.39897   1.40130   1.40292   1.40638   1.40993
  Beta virt. eigenvalues --    1.41406   1.41704   1.42098   1.42360   1.42571
  Beta virt. eigenvalues --    1.43058   1.43160   1.43620   1.44004   1.44191
  Beta virt. eigenvalues --    1.44391   1.44621   1.44929   1.45508   1.45740
  Beta virt. eigenvalues --    1.46106   1.46380   1.46505   1.46647   1.46731
  Beta virt. eigenvalues --    1.46995   1.47440   1.47692   1.48068   1.48232
  Beta virt. eigenvalues --    1.48495   1.48836   1.49047   1.49243   1.49682
  Beta virt. eigenvalues --    1.49949   1.50123   1.50967   1.51198   1.51397
  Beta virt. eigenvalues --    1.51602   1.51807   1.52005   1.52475   1.52555
  Beta virt. eigenvalues --    1.53170   1.53580   1.53659   1.53955   1.54381
  Beta virt. eigenvalues --    1.54585   1.55035   1.55246   1.55467   1.55529
  Beta virt. eigenvalues --    1.56066   1.56482   1.56680   1.57239   1.57469
  Beta virt. eigenvalues --    1.57998   1.58342   1.58903   1.59116   1.59207
  Beta virt. eigenvalues --    1.59794   1.59801   1.60348   1.60607   1.61215
  Beta virt. eigenvalues --    1.61368   1.61840   1.62221   1.62354   1.62777
  Beta virt. eigenvalues --    1.63215   1.63934   1.64223   1.64782   1.65505
  Beta virt. eigenvalues --    1.65919   1.66389   1.66987   1.67353   1.68217
  Beta virt. eigenvalues --    1.68516   1.69744   1.69845   1.70691   1.70878
  Beta virt. eigenvalues --    1.71274   1.71735   1.72034   1.72386   1.73037
  Beta virt. eigenvalues --    1.73274   1.74138   1.74365   1.74837   1.75410
  Beta virt. eigenvalues --    1.75571   1.75972   1.76104   1.76589   1.76903
  Beta virt. eigenvalues --    1.77460   1.78303   1.78389   1.79019   1.79409
  Beta virt. eigenvalues --    1.79838   1.80256   1.80887   1.80910   1.81817
  Beta virt. eigenvalues --    1.81918   1.82351   1.82706   1.83572   1.83978
  Beta virt. eigenvalues --    1.84552   1.85240   1.85492   1.85796   1.86790
  Beta virt. eigenvalues --    1.87051   1.87658   1.88301   1.88530   1.89049
  Beta virt. eigenvalues --    1.89223   1.89563   1.89831   1.90813   1.90958
  Beta virt. eigenvalues --    1.91387   1.91730   1.92034   1.92289   1.92567
  Beta virt. eigenvalues --    1.93296   1.93571   1.94162   1.94522   1.95588
  Beta virt. eigenvalues --    1.95981   1.96532   1.96906   1.97838   1.98396
  Beta virt. eigenvalues --    1.98645   1.98927   1.99085   1.99664   2.00155
  Beta virt. eigenvalues --    2.00355   2.00799   2.01116   2.01611   2.02012
  Beta virt. eigenvalues --    2.02390   2.03481   2.03619   2.04280   2.04713
  Beta virt. eigenvalues --    2.04910   2.05476   2.05701   2.06105   2.07018
  Beta virt. eigenvalues --    2.07218   2.07743   2.07889   2.08215   2.08865
  Beta virt. eigenvalues --    2.09386   2.09780   2.09921   2.10583   2.11253
  Beta virt. eigenvalues --    2.11510   2.11999   2.13169   2.13535   2.13819
  Beta virt. eigenvalues --    2.14661   2.14998   2.15833   2.16620   2.16803
  Beta virt. eigenvalues --    2.17241   2.17826   2.18140   2.18179   2.19019
  Beta virt. eigenvalues --    2.19331   2.19523   2.20052   2.20408   2.20600
  Beta virt. eigenvalues --    2.20847   2.21304   2.21527   2.22090   2.22548
  Beta virt. eigenvalues --    2.23641   2.23937   2.24449   2.25169   2.25346
  Beta virt. eigenvalues --    2.25496   2.26225   2.26494   2.27053   2.27229
  Beta virt. eigenvalues --    2.27770   2.28181   2.28539   2.28962   2.29271
  Beta virt. eigenvalues --    2.29743   2.30087   2.30276   2.30806   2.31357
  Beta virt. eigenvalues --    2.31513   2.32149   2.32733   2.33340   2.33362
  Beta virt. eigenvalues --    2.33882   2.34594   2.34853   2.35206   2.35998
  Beta virt. eigenvalues --    2.36242   2.36449   2.36709   2.37208   2.37266
  Beta virt. eigenvalues --    2.38034   2.38255   2.38828   2.39098   2.39996
  Beta virt. eigenvalues --    2.40452   2.40624   2.41445   2.41943   2.42523
  Beta virt. eigenvalues --    2.43277   2.43370   2.43746   2.44022   2.44264
  Beta virt. eigenvalues --    2.44924   2.45351   2.45973   2.46261   2.46534
  Beta virt. eigenvalues --    2.47190   2.47481   2.47642   2.47722   2.48202
  Beta virt. eigenvalues --    2.48975   2.49186   2.49538   2.50024   2.50388
  Beta virt. eigenvalues --    2.50870   2.51051   2.51174   2.51386   2.51985
  Beta virt. eigenvalues --    2.52444   2.52864   2.53020   2.53603   2.54205
  Beta virt. eigenvalues --    2.54377   2.54672   2.54796   2.55201   2.55548
  Beta virt. eigenvalues --    2.55935   2.56561   2.56855   2.57523   2.57596
  Beta virt. eigenvalues --    2.58202   2.58480   2.58975   2.59283   2.59735
  Beta virt. eigenvalues --    2.60311   2.60526   2.60971   2.61214   2.61531
  Beta virt. eigenvalues --    2.61649   2.62008   2.62773   2.63584   2.63973
  Beta virt. eigenvalues --    2.64324   2.64757   2.65115   2.65743   2.66359
  Beta virt. eigenvalues --    2.66646   2.66996   2.67504   2.67664   2.67987
  Beta virt. eigenvalues --    2.68999   2.69443   2.69972   2.70248   2.70709
  Beta virt. eigenvalues --    2.71004   2.71317   2.71615   2.72215   2.72698
  Beta virt. eigenvalues --    2.72868   2.73217   2.73854   2.74299   2.74686
  Beta virt. eigenvalues --    2.74997   2.75204   2.75652   2.76242   2.76569
  Beta virt. eigenvalues --    2.76940   2.77491   2.77803   2.77857   2.78367
  Beta virt. eigenvalues --    2.79070   2.79175   2.79566   2.79786   2.80155
  Beta virt. eigenvalues --    2.81027   2.81416   2.81518   2.81712   2.82008
  Beta virt. eigenvalues --    2.82524   2.82887   2.83233   2.83647   2.84082
  Beta virt. eigenvalues --    2.84524   2.84892   2.85011   2.85229   2.85763
  Beta virt. eigenvalues --    2.86740   2.87044   2.87264   2.87417   2.88077
  Beta virt. eigenvalues --    2.88195   2.88481   2.89001   2.89270   2.89513
  Beta virt. eigenvalues --    2.89674   2.90064   2.90581   2.91331   2.91507
  Beta virt. eigenvalues --    2.92075   2.92143   2.92523   2.92883   2.93653
  Beta virt. eigenvalues --    2.94026   2.94680   2.95015   2.95236   2.95788
  Beta virt. eigenvalues --    2.96241   2.96530   2.96937   2.97175   2.97591
  Beta virt. eigenvalues --    2.97894   2.97933   2.98266   2.98779   2.98945
  Beta virt. eigenvalues --    2.99216   2.99751   3.00085   3.00444   3.00787
  Beta virt. eigenvalues --    3.01105   3.01458   3.01758   3.02135   3.02646
  Beta virt. eigenvalues --    3.02773   3.03039   3.03819   3.03958   3.04113
  Beta virt. eigenvalues --    3.04369   3.04760   3.05488   3.05752   3.06025
  Beta virt. eigenvalues --    3.06339   3.06577   3.07058   3.07229   3.07763
  Beta virt. eigenvalues --    3.08018   3.08381   3.08779   3.09274   3.09572
  Beta virt. eigenvalues --    3.09726   3.10062   3.10389   3.10651   3.10984
  Beta virt. eigenvalues --    3.11439   3.11869   3.11928   3.12302   3.12547
  Beta virt. eigenvalues --    3.12921   3.13148   3.13475   3.13749   3.14074
  Beta virt. eigenvalues --    3.14437   3.15033   3.15093   3.15399   3.15537
  Beta virt. eigenvalues --    3.15930   3.16013   3.16266   3.16575   3.16870
  Beta virt. eigenvalues --    3.17028   3.17267   3.17847   3.18291   3.18743
  Beta virt. eigenvalues --    3.18881   3.19060   3.19310   3.19686   3.20070
  Beta virt. eigenvalues --    3.20465   3.20614   3.21067   3.21229   3.21392
  Beta virt. eigenvalues --    3.21560   3.22310   3.22606   3.22743   3.22974
  Beta virt. eigenvalues --    3.23206   3.23467   3.23944   3.24190   3.24396
  Beta virt. eigenvalues --    3.24513   3.24774   3.24903   3.25292   3.25510
  Beta virt. eigenvalues --    3.25858   3.25997   3.26525   3.26686   3.27024
  Beta virt. eigenvalues --    3.27430   3.27657   3.27910   3.28278   3.28401
  Beta virt. eigenvalues --    3.28760   3.28948   3.29092   3.29428   3.29713
  Beta virt. eigenvalues --    3.30092   3.30371   3.30748   3.31796   3.31952
  Beta virt. eigenvalues --    3.32331   3.32753   3.33226   3.33707   3.33881
  Beta virt. eigenvalues --    3.34035   3.34580   3.34770   3.35422   3.35661
  Beta virt. eigenvalues --    3.36157   3.36499   3.37115   3.37479   3.37950
  Beta virt. eigenvalues --    3.38170   3.38533   3.39165   3.39536   3.40910
  Beta virt. eigenvalues --    3.41024   3.41365   3.41670   3.42021   3.42536
  Beta virt. eigenvalues --    3.43135   3.43553   3.43833   3.44230   3.44832
  Beta virt. eigenvalues --    3.45080   3.45458   3.45538   3.45833   3.46481
  Beta virt. eigenvalues --    3.47078   3.47447   3.47944   3.48601   3.48772
  Beta virt. eigenvalues --    3.49382   3.50183   3.50196   3.50590   3.51676
  Beta virt. eigenvalues --    3.52206   3.52616   3.53122   3.53648   3.54144
[...]
  1395. RY*(  19) N  76                  0.00000     4.36590   
  1396. RY*(  20) N  76                  0.00000     4.25337   
  1397. RY*(  21) N  76                  0.00001     4.75857   
  1398. RY*(  22) N  76                  0.00000     3.96367   
  1399. RY*(  23) N  76                  0.00000     4.68456   
  1400. RY*(  24) N  76                  0.00000     4.51888   
  1401. RY*(  25) N  76                  0.00000     4.52621   
  1402. RY*(  26) N  76                  0.00000     4.37602   
  1403. RY*(   1) C  77                  0.00202     1.41341   
  1404. RY*(   2) C  77                  0.00119     0.59791   
  1405. RY*(   3) C  77                  0.00081     1.80243   
  1406. RY*(   4) C  77                  0.00037     1.97359   
  1407. RY*(   5) C  77                  0.00028     1.49986   
  1408. RY*(   6) C  77                  0.00024     1.58693   
  1409. RY*(   7) C  77                  0.00019     1.65928   
  1410. RY*(   8) C  77                  0.00014     1.64596   
  1411. RY*(   9) C  77                  0.00010     1.69695   
  1412. RY*(  10) C  77                  0.00009     1.88154   
  1413. RY*(  11) C  77                  0.00007     1.28007   
  1414. RY*(  12) C  77                  0.00002     1.92249   
  1415. RY*(  13) C  77                  0.00002     1.25233   
  1416. RY*(  14) C  77                  0.00002     2.77494   
  1417. RY*(  15) C  77                  0.00002     3.42184   
  1418. RY*(  16) C  77                  0.00003     2.99015   
  1419. RY*(  17) C  77                  0.00000     3.76756   
  1420. RY*(  18) C  77                  0.00000     3.10643   
  1421. RY*(  19) C  77                  0.00000    20.13552   
  1422. RY*(  20) C  77                  0.00000     3.81149   
  1423. RY*(  21) C  77                  0.00000     3.75904   
  1424. RY*(  22) C  77                  0.00000     3.35484   
  1425. RY*(  23) C  77                  0.00000     3.73333   
  1426. RY*(  24) C  77                  0.00000     3.28528   
  1427. RY*(  25) C  77                  0.00000     3.57940   
  1428. RY*(  26) C  77                  0.00000     3.28899   
  1429. RY*(   1) H  78                  0.00027     0.69268   
  1430. RY*(   2) H  78                  0.00017     2.18157   
  1431. RY*(   3) H  78                  0.00010     2.18134   
  1432. RY*(   4) H  78                  0.00004     2.64433   
  1433. RY*(   5) H  78                  0.00001     2.97859   
  1434. BD*(   1)Fe   1 - N   3          0.04821     0.21367   
  1435. BD*(   1)Fe   1 - N   4          0.05692     0.17902   
  1436. BD*(   1)Fe   1 - N   5          0.04544     0.21187   
  1437. BD*(   1)Fe   1 - N  76          0.04511     0.10993   
  1438. BD*(   1) N   2 - C   6          0.01369     0.39456   
  1439. BD*(   2) N   2 - C   6          0.32495    -0.10471  1485(v),1453(v),1458(v)
                                                    294(g),188(g),153(r),708(v)
                                                    155(r),1518(r)
  1440. BD*(   1) N   2 - C   9          0.01353     0.39347   
  1441. BD*(   1) N   3 - C  10          0.01346     0.39554   
  1442. BD*(   2) N   3 - C  10          0.33079    -0.10330  1458(v),1462(v),1467(v)
                                                    154(v),398(g),216(g),155(v)
                                                    739(v),397(g),1448(r)
  1443. BD*(   1) N   3 - C  13          0.01301     0.39903   
  1444. BD*(   1) N   4 - C  14          0.01375     0.39778   
  1445. BD*(   2) N   4 - C  14          0.32298    -0.10077  1467(v),1471(v),1476(v)
                                                    154(v),502(g),240(g),155(v)
                                                    244(g),501(g)
  1446. BD*(   1) N   4 - C  17          0.01324     0.40077   
  1447. BD*(   1) N   5 - C  18          0.01358     0.39545   
  1448. BD*(   2) N   5 - C  18          0.33300    -0.10497  1476(v),1480(v),1485(v)
                                                    154(v),606(g),268(g),605(g)
                                                    155(v),1442(r)
  1449. BD*(   1) N   5 - C  21          0.01323     0.39747   
  1450. BD*(   1) C   6 - C   7          0.01741     0.38509   
  1451. BD*(   1) C   6 - C  22          0.01025     0.46725   
  1452. BD*(   1) C   7 - C   8          0.01150     0.50482   
  1453. BD*(   2) C   7 - C   8          0.11933    -0.03273  1458(v),1439(v),1494(v)
                                                    1491(v),1492(v),1493(v)
  1454. BD*(   1) C   7 - C  34          0.00811     0.32000   
  1455. BD*(   1) C   8 - C   9          0.01764     0.38460   
  1456. BD*(   1) C   8 - C  30          0.00814     0.31887   
  1457. BD*(   1) C   9 - C  24          0.01036     0.46853   
  1458. BD*(   2) C   9 - C  24          0.20042    -0.06226  1442(v),1453(v),1439(v)
                                                    739(g),1485(r),374(g)
                                                    1467(r)
  1459. BD*(   1) C  10 - C  11          0.01699     0.39069   
  1460. BD*(   1) C  10 - C  24          0.01058     0.46187   
  1461. BD*(   1) C  11 - C  12          0.01254     0.48809   
  1462. BD*(   2) C  11 - C  12          0.14013    -0.03683  1501(v),1467(v),1442(v)
                                                    1497(v),1496(v)
  1463. BD*(   1) C  11 - C  38          0.00777     0.32001   
  1464. BD*(   1) C  12 - C  13          0.01681     0.37950   
  1465. BD*(   1) C  12 - C  42          0.01325     0.40154   
  1466. BD*(   1) C  13 - C  26          0.01014     0.46922   
  1467. BD*(   2) C  13 - C  26          0.19322    -0.05750  1445(v),1462(v),1442(v)
                                                    1476(r),478(g),771(g)
                                                    1458(r)
  1468. BD*(   1) C  14 - C  15          0.01688     0.39198   
  1469. BD*(   1) C  14 - C  26          0.01035     0.46759   
  1470. BD*(   1) C  15 - C  16          0.01265     0.49224   
  1471. BD*(   2) C  15 - C  16          0.13573    -0.03391  1509(v),1476(v),1445(v)
                                                    1505(v)
  1472. BD*(   1) C  15 - C  47          0.00771     0.32408   
  1473. BD*(   1) C  16 - C  17          0.01695     0.38150   
  1474. BD*(   1) C  16 - C  51          0.01329     0.40362   
  1475. BD*(   1) C  17 - C  28          0.01021     0.46555   
  1476. BD*(   2) C  17 - C  28          0.20051    -0.05965  1448(v),1471(v),1445(v)
                                                    1485(r),1467(r),801(g)
                                                    582(g)
  1477. BD*(   1) C  18 - C  19          0.01778     0.38419   
  1478. BD*(   1) C  18 - C  28          0.01060     0.46550   
  1479. BD*(   1) C  19 - C  20          0.01151     0.50393   
  1480. BD*(   2) C  19 - C  20          0.12155    -0.03282  1485(v),1448(v),1517(v)
                                                    1512(v),1513(v),1516(v)
  1481. BD*(   1) C  19 - C  56          0.00815     0.31875   
  1482. BD*(   1) C  20 - C  21          0.01724     0.38505   
  1483. BD*(   1) C  20 - C  60          0.00815     0.31911   
  1484. BD*(   1) C  21 - C  22          0.01033     0.46796   
  1485. BD*(   2) C  21 - C  22          0.19784    -0.05920  1439(v),1480(v),1448(v)
                                                    1476(r),708(g),1458(r)
                                                    686(g)
  1486. BD*(   1) C  22 - H  23          0.00613     0.33066   
  1487. BD*(   1) C  24 - H  25          0.00632     0.33154   
  1488. BD*(   1) C  26 - H  27          0.00644     0.33203   
  1489. BD*(   1) C  28 - H  29          0.00647     0.33243   
  1490. BD*(   1) C  30 - H  31          0.00304     0.30539   
  1491. BD*(   1) C  30 - H  32          0.00479     0.29058   
  1492. BD*(   1) C  30 - H  33          0.00464     0.29276   
  1493. BD*(   1) C  34 - H  35          0.00455     0.29432   
  1494. BD*(   1) C  34 - H  36          0.00480     0.29196   
  1495. BD*(   1) C  34 - H  37          0.00304     0.30578   
  1496. BD*(   1) C  38 - H  39          0.00438     0.29734   
  1497. BD*(   1) C  38 - H  40          0.00535     0.28933   
  1498. BD*(   1) C  38 - H  41          0.00375     0.30714   
  1499. BD*(   1) C  42 - H  43          0.01031     0.33448   
  1500. BD*(   1) C  42 - C  44          0.00366     0.54320   
  1501. BD*(   2) C  42 - C  44          0.03007    -0.02917   
  1502. BD*(   1) C  44 - H  45          0.00518     0.34917   
  1503. BD*(   1) C  44 - H  46          0.00385     0.35447   
  1504. BD*(   1) C  47 - H  48          0.00443     0.30088   
  1505. BD*(   1) C  47 - H  49          0.00550     0.29421   
  1506. BD*(   1) C  47 - H  50          0.00375     0.30954   
  1507. BD*(   1) C  51 - H  52          0.01027     0.33622   
  1508. BD*(   1) C  51 - C  53          0.00368     0.54642   
  1509. BD*(   2) C  51 - C  53          0.03085    -0.02827   
  1510. BD*(   1) C  53 - H  54          0.00517     0.35231   
  1511. BD*(   1) C  53 - H  55          0.00387     0.35614   
  1512. BD*(   1) C  56 - H  57          0.00467     0.29249   
  1513. BD*(   1) C  56 - H  58          0.00442     0.29169   
  1514. BD*(   1) C  56 - H  59          0.00301     0.30462   
  1515. BD*(   1) C  60 - H  61          0.00301     0.30463   
  1516. BD*(   1) C  60 - H  62          0.00440     0.29223   
  1517. BD*(   1) C  60 - H  63          0.00464     0.29251   
  1520. BD*(   1) C  67 - H  68          0.00471     0.26719   
  1521. BD*(   1) C  67 - H  69          0.00153     0.27908   
  1522. BD*(   1) C  67 - H  70          0.00508     0.26779   
  1523. BD*(   1) C  67 - C  73          0.00605     0.28467   
  1524. BD*(   1) N  71 - H  72          0.00633     0.26058   
  1525. BD*(   1) N  71 - C  73          0.01364     0.31404   
  1526. BD*(   1) N  71 - C  74          0.01018     0.32223   
  1527. BD*(   1) C  73 - C  77          0.01031     0.44681   
  1528. BD*(   1) C  74 - H  75          0.00813     0.26787   
  1529. BD*(   1) C  74 - N  76          0.00911     0.40009   
  1530. BD*(   2) C  74 - N  76          0.22297    -0.13598  94(v),154(v),1347(g),1529(g)
  1531. BD*(   1) N  76 - C  77          0.00826     0.34956   
  1532. BD*(   1) C  77 - H  78          0.00685     0.30975   
       -------------------------------
              Total Lewis  147.43598  ( 96.9384%)
        Valence non-Lewis    4.35975  (  2.8665%)
        Rydberg non-Lewis    0.29672  (  0.1951%)
       -------------------------------
            Total unit  1  152.09245  (100.0000%)
           Charge unit  1    0.90755
 
 Molecular unit  2  (H2O)
    85. BD (   1) O  64 - H  65          0.99649    -0.91477  155(r),154(r),162(r),1244(v)
                                                    1437(r),1377(r),164(r)
                                                    192(r),245(r),163(r),169(r)
                                                    266(r),1380(r),1439(r)
                                                    153(r)
    86. BD (   1) O  64 - H  66          0.99780    -0.97608  155(r),162(r),154(r),1240(v)
                                                    164(r),1437(r),192(r)
                                                    1380(r),163(r),1378(r)
                                                    1377(r),191(r)
   145. CR (   1) O  64                  0.99990   -19.07671  155(r),1244(v),1240(v)
                                                    1437(r),154(r),164(r)
   158. LP (   1) O  64                  0.98916    -0.44078  1243(v),1434(r),1436(r)
                                                    1239(v),154(r),1448(r)
                                                    1379(r),167(r),271(r)
                                                    1442(r),155(r),218(r)
   159. LP (   2) O  64                  0.91739    -0.62129  155(r),154(r),1437(r)
                                                    1244(v),1240(v),1518(g)
                                                    169(r),267(r),215(r),1380(r)
                                                    166(r),188(r),1435(r),164(r)
                                                    190(r),242(r),217(r),1436(r)
                                                    191(r),269(r),240(r),216(r)
                                                    165(r),1446(r),1444(r)
                                                    1434(r),1441(r),1447(r)
                                                    1449(r),243(r)
  1212. RY*(   1) O  64                  0.00074     1.09602   
  1213. RY*(   2) O  64                  0.00027     1.10999   
  1214. RY*(   3) O  64                  0.00018     0.55456   
  1215. RY*(   4) O  64                  0.00009     1.02551   
  1216. RY*(   5) O  64                  0.00002     2.03391   
  1217. RY*(   6) O  64                  0.00002     2.19258   
  1218. RY*(   7) O  64                  0.00000     3.05458   
  1219. RY*(   8) O  64                  0.00001     4.93511   
  1220. RY*(   9) O  64                  0.00001     3.08276   
  1221. RY*(  10) O  64                  0.00001     2.72896   
  1222. RY*(  11) O  64                  0.00000     6.33984   
  1223. RY*(  12) O  64                  0.00000     2.92921   
  1224. RY*(  13) O  64                  0.00000     6.38262   
  1225. RY*(  14) O  64                  0.00000    42.26949   
  1226. RY*(  15) O  64                  0.00000     6.40147   
  1227. RY*(  16) O  64                  0.00000     1.98676   
  1228. RY*(  17) O  64                  0.00000     6.05538   
  1229. RY*(  18) O  64                  0.00001     2.34399   
  1230. RY*(  19) O  64                  0.00000     6.43438   
  1231. RY*(  20) O  64                  0.00000     5.27432   
  1232. RY*(  21) O  64                  0.00000     5.29958   
  1233. RY*(  22) O  64                  0.00000     5.39244   
  1234. RY*(  23) O  64                  0.00000     5.18434   
  1235. RY*(  24) O  64                  0.00000     5.59340   
  1236. RY*(  25) O  64                  0.00000     5.42503   
  1237. RY*(  26) O  64                  0.00000     5.34070   
  1238. RY*(   1) H  65                  0.00049     0.70680   
  1239. RY*(   2) H  65                  0.00039     1.90691   
  1240. RY*(   3) H  65                  0.00037     2.29455   
  1241. RY*(   4) H  65                  0.00009     1.97816   
  1242. RY*(   5) H  65                  0.00001     2.77303   
  1243. RY*(   1) H  66                  0.00046     1.90965   
  1244. RY*(   2) H  66                  0.00038     1.95200   
  1245. RY*(   3) H  66                  0.00020     2.00039   
  1246. RY*(   4) H  66                  0.00006     1.13821   
  1247. RY*(   5) H  66                  0.00000     2.91390   
  1518. BD*(   1) O  64 - H  65          0.00195     0.32799   
  1519. BD*(   1) O  64 - H  66          0.00098     0.50893   
       -------------------------------
              Total Lewis    4.90074  ( 99.8632%)
        Valence non-Lewis    0.00292  (  0.0596%)
        Rydberg non-Lewis    0.00379  (  0.0772%)
       -------------------------------
            Total unit  2    4.90745  (100.0000%)
           Charge unit  2    0.09255
 Unable to Open any file for archive entry.
 1\1\GINC-BGN1034\SP\UAPFD\def2TZVP\C34H36Fe1N6O1(1+,2)\BEBJONES\27-Oct
 -2024\0\\# apfd/def2TZVP guess=read scf=maxcycle=999 geom=check pop=nb
 o\\1zby_III_D\\1,2\Fe,0,28.0864985031,91.8822101409,52.0029814545\N,0,
 28.9175136352,93.6661687954,51.5099121526\N,0,29.1647832005,91.9025314
 517,53.7106075677\N,0,26.993743034,90.383286644,52.7208904569\N,0,26.7
 85558446,92.1216299362,50.4821472953\C,0,28.6899078489,94.379692946,50
 .3729694546\C,0,29.5629097994,95.530134062,50.3073690718\C,0,30.331346
 3036,95.4926091647,51.4296086982\C,0,29.9227856893,94.3146748655,52.16
 1932186\C,0,30.1534468431,92.7702062099,54.0573561199\C,0,30.832348614
 8,92.3308986146,55.2489990511\C,0,30.2284376677,91.1596645051,55.62502
 67923\C,0,29.1683240472,90.9316869204,54.6610476263\C,0,27.2187037168,
 89.6729337017,53.8593129645\C,0,26.2103230926,88.6592970059,54.0400018
 651\C,0,25.3854943094,88.7389641958,52.9490411628\C,0,25.9082577745,89
 .8185329326,52.1318882817\C,0,25.8775175113,91.1867682397,50.093639256
 6\C,0,25.4554176373,91.4118097403,48.729245335\C,0,26.1429444814,92.50
 24324705,48.2944463867\C,0,26.9670784667,92.928130703,49.4028209769\C,
 0,27.7963596241,94.0349882126,49.3749202737\H,0,27.7787980361,94.65116
 42038,48.4886621038\C,0,30.4939015635,93.9148502959,53.3542868335\H,0,
 31.2933568963,94.5235056352,53.7490027725\C,0,28.2622413054,89.8916640
 767,54.7414673669\H,0,28.3640498273,89.2031358097,55.5664693612\C,0,25
 .3946325183,90.1671816297,50.8957028912\H,0,24.5954359776,89.559207808
 9,50.4984333529\C,0,31.3969385,96.434062209,51.877103419\H,0,31.507983
 8603,97.2554552547,51.1735032896\H,0,32.3555045285,95.9203861983,51.95
 7603904\H,0,31.154884325,96.8507454285,52.8551009354\C,0,29.5596562514
 ,96.5263561127,49.1989000702\H,0,28.5715832254,96.9732533377,49.088191
 6945\H,0,29.8214774023,96.0490692878,48.2540959572\H,0,30.2762367683,9
 7.3215100448,49.3900392358\C,0,31.9199016926,93.0770159597,55.94074618
 07\H,0,31.7261072447,94.1484909706,55.9177576578\H,0,32.8840424927,92.
 8986372619,55.4612308481\H,0,31.9891697225,92.75871964,56.9788157442\C
 ,0,30.5112836426,90.3127185506,56.7616849694\H,0,29.6548177819,89.8136
 356039,57.1997439094\C,0,31.7138149198,90.1003764153,57.2871493859\H,0
 ,32.6074263187,90.5286236205,56.867633066\H,0,31.8481065078,89.4644405
 317,58.1464897909\C,0,26.093109292,87.7710591952,55.2291900365\H,0,26.
 3594243841,88.308244626,56.1381608673\H,0,26.7575805896,86.9100166917,
 55.1387420557\H,0,25.0718096059,87.4079899038,55.32548557\C,0,24.20177
 08057,87.970816594,52.6341835663\H,0,23.4305118123,88.5046833141,52.09
 07593878\C,0,24.0023910044,86.6938399679,52.945595337\H,0,24.750889811
 5,86.1007374297,53.4411619456\H,0,23.0860645063,86.1883250477,52.68898
 65686\C,0,24.4628333766,90.5681273012,48.0052254972\H,0,23.4892596083,
 90.6191235746,48.4937687389\H,0,24.7797091569,89.525067985,47.99427813
 05\H,0,24.3462407289,90.9027034958,46.9772652429\C,0,26.1044972656,93.
 1772865343,46.9662616158\H,0,25.4498400975,92.6453961782,46.2801342729
 \H,0,27.1020019796,93.2188434554,46.5286112082\H,0,25.7370551006,94.19
 91414296,47.0665430726\O,0,26.663,93.271,53.157\H,0,27.018,94.137,52.9
 56\H,0,25.947,93.099,53.655\C,0,30.4801407791,88.1735982078,48.6193789
 443\H,0,31.01615092,88.5410566742,47.7444090691\H,0,29.535125724,87.74
 7654539,48.2968326775\H,0,31.0779522532,87.3868625907,49.0800281054\N,
 0,31.2332043484,90.0433464659,50.1044160422\H,0,32.213999598,89.946056
 4062,49.899874046\C,0,30.2261146075,89.274991226,49.5823177282\C,0,30.
 6689051058,90.9459738331,50.9403117193\H,0,31.2167289448,91.6816222408
 ,51.4923170115\N,0,29.3660386403,90.7954284666,50.9778704294\C,0,29.07
 65742678,89.757975403,50.1391778384\H,0,28.066074608,89.434547215,49.9
 944403226\\Version=ES64L-G16RevC.02\State=2-A\HF=-2983.8297585\S2=0.83
 3111\S2-1=0.\S2A=0.752024\RMSD=2.115e-09\Dipole=1.5067427,-0.3935093,-
 1.2686109\Quadrupole=2.4438836,-2.4693811,0.0254975,5.7112409,2.298725
 5,-1.6479277\PG=C01 [X(C34H36Fe1N6O1)]\\@
 The archive entry for this job was punched.


 ALMOST ANYTHING IS EASIER TO GET INTO THAN OUT OF.

                         -- AGNES ALLEN'S LAW FROM
                PAUL DICKSON'S "THE OFFICIAL RULES"
 Job cpu time:       1 days 16 hours 20 minutes  3.0 seconds.
 Elapsed time:       0 days  0 hours 37 minutes 34.8 seconds.
 File lengths (MBytes):  RWF=   2166 Int=      0 D2E=      0 Chk=    197 Scr=      1
 Normal termination of Gaussian 16 at Sun Oct 27 02:21:23 2024.
   197 Scr=      1
 Normal termination of Gaussian 16 at Sun Oct 27 02:01:03 2024.
