 Entering Gaussian System, Link 0=g16
 Input=2anz05re.com
 Output=2anz05re.log
 Initial command:
 /sw/chem/gaussian/g16_C02/a100/g16/l1.exe "/local/becsleip_7976462/Gau-2044149.inp" -scrdir="/local/becsleip_7976462/"
 Entering Link 1 = /sw/chem/gaussian/g16_C02/a100/g16/l1.exe PID=   2044150.
  
 Copyright (c) 1988-2021, Gaussian, Inc.  All Rights Reserved.
  
 This is part of the Gaussian(R) 16 program.  It is based on
 the Gaussian(R) 09 system (copyright 2009, Gaussian, Inc.),
 the Gaussian(R) 03 system (copyright 2003, Gaussian, Inc.),
 the Gaussian(R) 98 system (copyright 1998, Gaussian, Inc.),
 the Gaussian(R) 94 system (copyright 1995, Gaussian, Inc.),
 the Gaussian 92(TM) system (copyright 1992, Gaussian, Inc.),
 the Gaussian 90(TM) system (copyright 1990, Gaussian, Inc.),
 the Gaussian 88(TM) system (copyright 1988, Gaussian, Inc.),
 the Gaussian 86(TM) system (copyright 1986, Carnegie Mellon
 University), and the Gaussian 82(TM) system (copyright 1983,
 Carnegie Mellon University). Gaussian is a federally registered
 trademark of Gaussian, Inc.
  
 This software contains proprietary and confidential information,
 including trade secrets, belonging to Gaussian, Inc.
  
 This software is provided under written license and may be
 used, copied, transmitted, or stored only in accord with that
 written license.
  
 The following legend is applicable only to US Government
 contracts under FAR:
  
                    RESTRICTED RIGHTS LEGEND
  
 Use, reproduction and disclosure by the US Government is
 subject to restrictions as set forth in subparagraphs (a)
 and (c) of the Commercial Computer Software - Restricted
 Rights clause in FAR 52.227-19.
  
 Gaussian, Inc.
 340 Quinnipiac St., Bldg. 40, Wallingford CT 06492
  
  
 ---------------------------------------------------------------
 Warning -- This program may not be used in any manner that
 competes with the business of Gaussian, Inc. or will provide
 assistance to any competitor of Gaussian, Inc.  The licensee
 of this program is prohibited from giving any competitor of
 Gaussian, Inc. access to this program.  By using this program,
 the user acknowledges that Gaussian, Inc. is engaged in the
 business of creating and licensing software in the field of
 computational chemistry and represents and warrants to the
 licensee that it is not a competitor of Gaussian, Inc. and that
 it will not use this program in any manner prohibited above.
 ---------------------------------------------------------------
  

 Cite this work as:
 Gaussian 16, Revision C.02,
 M. J. Frisch, G. W. Trucks, H. B. Schlegel, G. E. Scuseria, 
 M. A. Robb, J. R. Cheeseman, G. Scalmani, V. Barone, 
 G. A. Petersson, H. Nakatsuji, X. Li, M. Caricato, A. V. Marenich, 
 J. Bloino, B. G. Janesko, R. Gomperts, B. Mennucci, H. P. Hratchian, 
 J. V. Ortiz, A. F. Izmaylov, J. L. Sonnenberg, D. Williams-Young, 
 F. Ding, F. Lipparini, F. Egidi, J. Goings, B. Peng, A. Petrone, 
 T. Henderson, D. Ranasinghe, V. G. Zakrzewski, J. Gao, N. Rega, 
 G. Zheng, W. Liang, M. Hada, M. Ehara, K. Toyota, R. Fukuda, 
 J. Hasegawa, M. Ishida, T. Nakajima, Y. Honda, O. Kitao, H. Nakai, 
 T. Vreven, K. Throssell, J. A. Montgomery, Jr., J. E. Peralta, 
 F. Ogliaro, M. J. Bearpark, J. J. Heyd, E. N. Brothers, K. N. Kudin, 
 V. N. Staroverov, T. A. Keith, R. Kobayashi, J. Normand, 
 K. Raghavachari, A. P. Rendell, J. C. Burant, S. S. Iyengar, 
 J. Tomasi, M. Cossi, J. M. Millam, M. Klene, C. Adamo, R. Cammi, 
 J. W. Ochterski, R. L. Martin, K. Morokuma, O. Farkas, 
 J. B. Foresman, and D. J. Fox, Gaussian, Inc., Wallingford CT, 2019.
 
 ******************************************
 Gaussian 16:  ES64L-G16RevC.02  7-Dec-2021
                14-Aug-2024 
 ******************************************
 %mem=16GB
 %CPU=0-71
 SetSPE:  set environment variable "OMP_PROC_BIND" = "true"
 SetSPE:  set environment variable "OMP_PLACES" = "{0},{1},{2},{3},{4},{5},{6},{7},{8},{9},{10},{11},{12},{13},{14},{15},{16},{17},{18},{19},{20},{21},{22},{23},{24},{25},{26},{27},{28},{29},{30},{31},{32},{33},{34},{35},{36},{37},{38},{39},{40},{41},{42},{43},{44},{45},{46},{47},{48},{49},{50},{51},{52},{53},{54},{55},{56},{57},{58},{59},{60},{61},{62},{63},{64},{65},{66},{67},{68},{69},{70},{71}"
 Will use up to   72 processors via shared memory.
 %gpucpu=0,1,2,3=0,1,2,3
 Will use    4 GPUs:
 Thread  CPU   GPU
      0    0     0
      1    1     1
      2    2     2
      3    3     3
      4    4    -1
      5    5    -1
      6    6    -1
      7    7    -1
      8    8    -1
      9    9    -1
     10   10    -1
     11   11    -1
     12   12    -1
     13   13    -1
     14   14    -1
     15   15    -1
     16   16    -1
     17   17    -1
     18   18    -1
     19   19    -1
     20   20    -1
     21   21    -1
     22   22    -1
     23   23    -1
     24   24    -1
     25   25    -1
     26   26    -1
     27   27    -1
     28   28    -1
     29   29    -1
     30   30    -1
     31   31    -1
     32   32    -1
     33   33    -1
     34   34    -1
     35   35    -1
     36   36    -1
     37   37    -1
     38   38    -1
     39   39    -1
     40   40    -1
     41   41    -1
     42   42    -1
     43   43    -1
     44   44    -1
     45   45    -1
     46   46    -1
     47   47    -1
     48   48    -1
     49   49    -1
     50   50    -1
     51   51    -1
     52   52    -1
     53   53    -1
     54   54    -1
     55   55    -1
     56   56    -1
     57   57    -1
     58   58    -1
     59   59    -1
     60   60    -1
     61   61    -1
     62   62    -1
     63   63    -1
     64   64    -1
     65   65    -1
     66   66    -1
     67   67    -1
     68   68    -1
     69   69    -1
     70   70    -1
     71   71    -1
 SetGPE:  set environment variable "OMP_PROC_BIND" = "true"
 SetGPE:  set environment variable "OMP_PLACES" = "{0},{1},{2},{3},{4},{5},{6},{7},{8},{9},{10},{11},{12},{13},{14},{15},{16},{17},{18},{19},{20},{21},{22},{23},{24},{25},{26},{27},{28},{29},{30},{31},{32},{33},{34},{35},{36},{37},{38},{39},{40},{41},{42},{43},{44},{45},{46},{47},{48},{49},{50},{51},{52},{53},{54},{55},{56},{57},{58},{59},{60},{61},{62},{63},{64},{65},{66},{67},{68},{69},{70},{71}"
 %oldchk=2anz_II_S.chk
 %chk=2anz_II_Sre.chk
 Properties for Device   0
 Minimum vector length:                              32
 Maximum vector length:                            1024
 Number of SMPs:                                    108
 Maximum number of threads per SMP:                2048
 Number of ASync Engines:                             5
 Memory:                                           9207742464
 Properties for Device   1
 Minimum vector length:                              32
 Maximum vector length:                            1024
 Number of SMPs:                                    108
 Maximum number of threads per SMP:                2048
 Number of ASync Engines:                             5
 Memory:                                           9207742464
 Properties for Device   2
 Minimum vector length:                              32
 Maximum vector length:                            1024
 Number of SMPs:                                    108
 Maximum number of threads per SMP:                2048
 Number of ASync Engines:                             5
 Memory:                                           9207742464
 Properties for Device   3
 Minimum vector length:                              32
 Maximum vector length:                            1024
 Number of SMPs:                                    108
 Maximum number of threads per SMP:                2048
 Number of ASync Engines:                             5
 Memory:                                           9207742464
   8286968217 words of memory will be used on each GPU.
 Copying data from "2anz_II_S.chk" to current chk file "2anz_II_Sre.chk"
 IOpt=  2 FromEx=T IUOpen= 4 IOptOp= 5 NList=   0 IFRang= 0 IUIn= 4 IUOut= 2.
 --------------------------------------
 # apfd/gen scf=maxcycle=999 geom=check
 --------------------------------------
 1/29=2,38=1,172=1/1;
 2/12=2,40=1/2;
 3/5=7,11=2,14=-4,25=1,30=1,74=-44/1,2,3;
 4//1;
 5/5=2,7=999,38=5/2;
 6/7=2,8=2,9=2,10=2,28=1/1;
 99/5=1,9=1/99;
 ---------
 2anz_II_Q
 ---------
 Structure from the checkpoint file:  "2anz_II_Sre.chk"
 Charge =  0 Multiplicity = 5
 Z-Matrix found in chk file.
 Fe,0,-11.4775397203,-2.7013330513,-1.7669337587
 N,0,-12.0413083041,-0.9932437063,-2.714650008
 N,0,-9.8259927743,-2.7302980789,-2.914957231
 N,0,-10.8290002457,-4.2489317487,-0.7346522549
 N,0,-13.0799690729,-2.5023350731,-0.575055759
 C,0,-13.1826384808,-0.2818856939,-2.5055758821
 C,0,-13.231323388,0.8773085742,-3.367706726
 C,0,-12.1033153464,0.8369543399,-4.1265911278
 C,0,-11.3777189861,-0.3424074601,-3.7103821939
 C,0,-9.4665122451,-1.8665834201,-3.9017590654
 C,0,-8.2711914749,-2.3161471906,-4.5687600888
 C,0,-7.8286084944,-3.4039878086,-3.8628649216
 C,0,-8.8373933079,-3.6607291689,-2.8520271907
 C,0,-9.6565092696,-4.9171545264,-0.9055741151
 C,0,-9.5059365898,-5.9470768142,0.0911517315
 C,0,-10.6185808946,-5.8776375679,0.8880041769
 C,0,-11.4300458125,-4.8029260557,0.348152338
 C,0,-13.4742879893,-3.4405472864,0.329517574
 C,0,-14.8400910541,-3.2118380838,0.747053388
 C,0,-15.285718304,-2.1517643192,0.0213256023
 C,0,-14.1773770372,-1.7365833018,-0.808321634
 C,0,-14.2078205436,-0.6412312368,-1.6500075223
 H,0,-15.1050950944,-0.0416220321,-1.6652223709
 C,0,-10.1779756881,-0.7364870909,-4.2682067094
 H,0,-9.7800516491,-0.1303534135,-5.0676986894
 C,0,-8.7390295043,-4.6677018711,-1.9108517992
 H,0,-7.8759784844,-5.3137874784,-1.9640480583
 C,0,-12.6806008652,-4.4576998726,0.8296227174
 H,0,-13.0912647632,-5.06063223,1.6258311093
 C,0,-11.6417675312,1.7807299952,-5.1841876114
 H,0,-12.3459192913,2.600358976,-5.3044999439
 H,0,-11.5466798254,1.2684714251,-6.1421545313
 H,0,-10.6682435453,2.1995614138,-4.9279037557
 C,0,-14.3377168371,1.8758900559,-3.3727822458
 H,0,-14.4828019062,2.2915276948,-2.3757406343
 H,0,-15.2736475786,1.4101249792,-3.6833857526
 H,0,-14.1195659361,2.6925904735,-4.0567244409
 C,0,-7.5903792725,-1.6021734136,-5.6848386046
 H,0,-7.6719797533,-0.5230239556,-5.5636474974
 H,0,-8.0370054973,-1.8675568749,-6.6447767988
 H,0,-6.5360433949,-1.869815364,-5.7120135626
 C,0,-6.6415549929,-4.2037653015,-4.0687516775
 H,0,-6.1894881442,-4.6075195869,-3.1700860664
 C,0,-6.0822259252,-4.4717937304,-5.2443098519
 H,0,-6.5121837837,-4.1390054367,-6.1729574911
 H,0,-5.1837769891,-5.0618065599,-5.3194733902
 C,0,-8.3143351218,-6.827310114,0.2409500433
 H,0,-7.4007688238,-6.2823858191,0.0081841766
 H,0,-8.3764747887,-7.684080062,-0.4321210931
 H,0,-8.248881018,-7.1971793345,1.2623475553
 C,0,-10.9645883554,-6.6627716448,2.051681474
 H,0,-11.5297518494,-6.1405010953,2.8152330611
 C,0,-10.6565215786,-7.942078047,2.2407369473
 H,0,-10.13946951,-8.5227601529,1.4970054087
 H,0,-10.9365689657,-8.4618478199,3.1420631993
 C,0,-15.5610627808,-4.0338798626,1.7599211744
 H,0,-15.049816344,-3.9899778515,2.7219000716
 H,0,-15.6044717784,-5.0779715293,1.448692144
 H,0,-16.577901764,-3.674240743,1.8974153144
 C,0,-16.6232096885,-1.4944212045,0.0276385214
 H,0,-17.3055270973,-2.0104231115,0.6987641918
 H,0,-17.0557695205,-1.4982227191,-0.97295916
 H,0,-16.5395429736,-0.4576393842,0.3552291202
 O,0,-10.361,-1.312,-0.366
 H,0,-10.531,-0.428,-0.692
 H,0,-9.856,-1.527,0.334
 C,0,-14.7317872654,-6.527883712,-4.1877706308
 H,0,-14.2529058815,-7.2736073975,-4.8222184759
 H,0,-15.6371965314,-6.185258363,-4.6883805497
 H,0,-15.0088049069,-6.9967022188,-3.2488968694
 N,0,-13.3204080002,-4.5947133234,-4.9234981502
 H,0,-13.5198635891,-4.6915292971,-5.905518103
 C,0,-13.812862984,-5.3918138841,-3.9237120128
 C,0,-12.5215126989,-3.665661235,-4.3509903602
 H,0,-11.9978670327,-2.9052374796,-4.8926034317
 N,0,-12.4789729392,-3.8259203154,-3.0500290571
 C,0,-13.2765413169,-4.8967811408,-2.7695353775
 H,0,-13.4105151172,-5.2360337561,-1.7630540658
 Recover connectivity data from disk.
 Stoichiometry    C34H36FeN6O(5)
 Framework group  C1[X(C34H36FeN6O)]
 Deg. of freedom   228
 Full point group                 C1      NOp   1
 Largest Abelian subgroup         C1      NOp   1
 Largest concise Abelian subgroup C1      NOp   1
                         Standard orientation:                         
 ---------------------------------------------------------------------
 Center     Atomic      Atomic             Coordinates (Angstroms)
 Number     Number       Type             X           Y           Z
 ---------------------------------------------------------------------
      1         26           0        0.057345   -0.135556   -0.418999
      2          7           0        1.468537   -1.595701   -0.519408
      3          7           0        1.541603    1.218879   -0.324720
      4          7           0       -1.291520    1.297656   -0.506963
      5          7           0       -1.344148   -1.551126   -0.663808
      6          6           0        1.251820   -2.937729   -0.585540
      7          6           0        2.503343   -3.658336   -0.647086
      8          6           0        3.487339   -2.721211   -0.588054
      9          6           0        2.821686   -1.440680   -0.499970
     10          6           0        2.883942    1.002738   -0.304315
     11          6           0        3.600523    2.235674   -0.098960
     12          6           0        2.661309    3.232486   -0.141485
     13          6           0        1.377218    2.565987   -0.252143
     14          6           0       -1.065854    2.639127   -0.505691
     15          6           0       -2.301815    3.364828   -0.656136
     16          6           0       -3.290941    2.422716   -0.764890
     17          6           0       -2.628602    1.135399   -0.669793
     18          6           0       -2.682420   -1.318643   -0.569142
     19          6           0       -3.409979   -2.557295   -0.400437
     20          6           0       -2.473077   -3.540050   -0.326757
     21          6           0       -1.191920   -2.887804   -0.476161
     22          6           0        0.016579   -3.556048   -0.522424
     23          1           0       -0.001035   -4.634122   -0.474350
     24          6           0        3.491764   -0.237501   -0.404021
     25          1           0        4.570264   -0.271219   -0.378928
     26          6           0        0.173237    3.236277   -0.355204
     27          1           0        0.200753    4.314556   -0.314322
     28          6           0       -3.291046   -0.079509   -0.662773
     29          1           0       -4.370530   -0.057942   -0.681974
     30          6           0        4.966894   -2.902045   -0.609657
     31          1           0        5.226157   -3.953974   -0.700890
     32          1           0        5.414895   -2.517940    0.307355
     33          1           0        5.407818   -2.365814   -1.450426
     34          6           0        2.616111   -5.141009   -0.748385
     35          1           0        2.065727   -5.508487   -1.614373
     36          1           0        2.203641   -5.618915    0.140913
     37          1           0        3.655426   -5.444756   -0.848022
     38          6           0        5.083110    2.367821   -0.040939
     39          1           0        5.563400    1.663351   -0.718401
     40          1           0        5.451106    2.169098    0.967264
     41          1           0        5.379899    3.376468   -0.321196
     42          6           0        2.844937    4.663653   -0.045721
     43          1           0        2.150817    5.262708   -0.623917
     44          6           0        3.774499    5.278760    0.678284
     45          1           0        4.459772    4.739638    1.308956
     46          1           0        3.863497    6.352534    0.686312
     47          6           0       -2.419196    4.845554   -0.760230
     48          1           0       -1.577488    5.261187   -1.312048
     49          1           0       -2.433348    5.305223    0.229439
     50          1           0       -3.339748    5.112211   -1.275805
     51          6           0       -4.712369    2.602422   -0.958671
     52          1           0       -5.203768    1.834226   -1.544836
     53          6           0       -5.437688    3.606409   -0.475768
     54          1           0       -5.012655    4.370250    0.151580
     55          1           0       -6.494301    3.683640   -0.672183
     56          6           0       -4.894131   -2.657441   -0.307072
     57          1           0       -5.360873   -2.275655   -1.215420
     58          1           0       -5.267561   -2.073615    0.534696
     59          1           0       -5.204542   -3.690767   -0.172573
     60          6           0       -2.652087   -5.007373   -0.137178
     61          1           0       -3.702209   -5.255690   -0.003738
     62          1           0       -2.103183   -5.349231    0.740408
     63          1           0       -2.278326   -5.554488   -1.003319
     64          8           0        0.266372   -0.063249   -2.675235
     65          1           0        0.926620   -0.721505   -2.892961
     66          1           0       -0.157079    0.467824   -3.249604
     67          6           0       -1.633666   -0.485882    4.882965
     68          1           0       -1.395285    0.344247    5.547807
     69          1           0       -1.445610   -1.416270    5.418486
     70          1           0       -2.687908   -0.436512    4.629690
     71          7           0        0.547517   -0.487270    3.652976
     72          1           0        1.125350   -0.586232    4.471411
     73          6           0       -0.820881   -0.417816    3.642179
     74          6           0        0.972696   -0.395050    2.372408
     75          1           0        2.000895   -0.419830    2.075782
     76          7           0       -0.043150   -0.272134    1.552078
     77          6           0       -1.165591   -0.283465    2.327665
     78          1           0       -2.138877   -0.195668    1.890571
 ---------------------------------------------------------------------
 Rotational constants (GHZ):           0.0937234           0.0919070           0.0593460
 General basis read from cards:  (5D, 7F)
 There are   723 symmetry adapted cartesian basis functions of A   symmetry.
 There are   679 symmetry adapted basis functions of A   symmetry.
   679 basis functions,  1378 primitive gaussians,   723 cartesian basis functions
   160 alpha electrons      156 beta electrons
       nuclear repulsion energy      5973.7384596458 Hartrees.
 NAtoms=   78 NActive=   78 NUniq=   78 SFac= 1.00D+00 NAtFMM=   60 NAOKFM=T Big=T
 Integral buffers will be    131072 words long.
 Raffenetti 2 integral format.
 Two-electron integral symmetry is turned on.
 R6APFD:  NTU= -4 IXU= 1 FactS= 1.050
 Nuclear repulsion after empirical dispersion term =     5973.5847007275 Hartrees.
 One-electron integrals computed using PRISM.
 NBasis=   679 RedAO= T EigKep=  2.61D-04  NBF=   679
 NBsUse=   679 1.00D-06 EigRej= -1.00D+00 NBFU=   679
 ExpMin= 4.20D-02 ExpMax= 3.01D+05 ExpMxC= 2.91D+03 IAcc=3 IRadAn=         5 AccDes= 0.00D+00
 Harris functional with IExCor= 3731 and IRadAn=       5 diagonalized for initial guess.
 HarFok:  IExCor= 3731 AccDes= 0.00D+00 IRadAn=         5 IDoV= 1 UseB2=F ITyADJ=14
 ICtDFT=  3500011 ScaDFX=  1.000000  1.000000  1.000000  1.000000
 FoFCou: FMM=F IPFlag=           0 FMFlag=      100000 FMFlg1=        2001
         NFxFlg=           0 DoJE=T BraDBF=F KetDBF=T FulRan=T
         wScrn=  0.000000 ICntrl=       500 IOpCl=  0 I1Cent=   200000004 NGrid=           0
         NMat0=    1 NMatS0=      1 NMatT0=    0 NMatD0=    1 NMtDS0=    0 NMtDT0=    0
 Petite list used in FoFCou.
 Initial guess <Sx>= 0.0000 <Sy>= 0.0000 <Sz>= 2.0000 <S**2>= 6.0000 S= 2.0000
 Requested convergence on RMS density matrix=1.00D-08 within 999 cycles.
 Requested convergence on MAX density matrix=1.00D-06.
 Requested convergence on             energy=1.00D-06.
 No special actions if energy rises.
 EnCoef did   100 forward-backward iterations
 EnCoef did   100 forward-backward iterations
 EnCoef did   100 forward-backward iterations
 EnCoef did   100 forward-backward iterations
 EnCoef did     3 forward-backward iterations
 Restarting incremental Fock formation.
 Restarting incremental Fock formation.
 SCF Done:  E(UAPFD) =  -2983.37769497     A.U. after   49 cycles
            NFock= 49  Conv=0.62D-08     -V/T= 2.0033
 <Sx>= 0.0000 <Sy>= 0.0000 <Sz>= 2.0000 <S**2>= 6.1516 S= 2.0301
 <L.S>=  0.00000000000    
 Annihilation of the first spin contaminant:
 S**2 before annihilation     6.1516,   after     6.0006

 **********************************************************************

            Population analysis using the SCF Density.

 **********************************************************************

 Orbital symmetries:
 Alpha Orbitals:
       Occupied  (A) (A) (A) (A) (A) (A) (A) (A) (A) (A) (A) (A)
                 (A) (A) (A) (A) (A) (A) (A) (A) (A) (A) (A) (A)
                 (A) (A) (A) (A) (A) (A) (A) (A) (A) (A) (A) (A)
                 (A) (A) (A) (A) (A) (A) (A) (A) (A) (A) (A) (A)
                 (A) (A) (A) (A) (A) (A) (A) (A) (A) (A) (A) (A)
                 (A) (A) (A) (A) (A) (A) (A) (A) (A) (A) (A) (A)
                 (A) (A) (A) (A) (A) (A) (A) (A) (A) (A) (A) (A)
                 (A) (A) (A) (A) (A) (A) (A) (A) (A) (A) (A) (A)
                 (A) (A) (A) (A) (A) (A) (A) (A) (A) (A) (A) (A)
                 (A) (A) (A) (A) (A) (A) (A) (A) (A) (A) (A) (A)
                 (A) (A) (A) (A) (A) (A) (A) (A) (A) (A) (A) (A)
                 (A) (A) (A) (A) (A) (A) (A) (A) (A) (A) (A) (A)
                 (A) (A) (A) (A) (A) (A) (A) (A) (A) (A) (A) (A)
                 (A) (A) (A) (A)
       Virtual   (A) (A) (A) (A) (A) (A) (A) (A) (A) (A) (A) (A)
                 (A) (A) (A) (A) (A) (A) (A) (A) (A) (A) (A) (A)
                 (A) (A) (A) (A) (A) (A) (A) (A) (A) (A) (A) (A)
                 (A) (A) (A) (A) (A) (A) (A) (A) (A) (A) (A) (A)
                 (A) (A) (A) (A) (A) (A) (A) (A) (A) (A) (A) (A)
                 (A) (A) (A) (A) (A) (A) (A) (A) (A) (A) (A) (A)
                 (A) (A) (A) (A) (A) (A) (A) (A) (A) (A) (A) (A)
                 (A) (A) (A) (A) (A) (A) (A) (A) (A) (A) (A) (A)
                 (A) (A) (A) (A) (A) (A) (A) (A) (A) (A) (A) (A)
                 (A) (A) (A) (A) (A) (A) (A) (A) (A) (A) (A) (A)
                 (A) (A) (A) (A) (A) (A) (A) (A) (A) (A) (A) (A)
                 (A) (A) (A) (A) (A) (A) (A) (A) (A) (A) (A) (A)
                 (A) (A) (A) (A) (A) (A) (A) (A) (A) (A) (A) (A)
                 (A) (A) (A) (A) (A) (A) (A) (A) (A) (A) (A) (A)
                 (A) (A) (A) (A) (A) (A) (A) (A) (A) (A) (A) (A)
                 (A) (A) (A) (A) (A) (A) (A) (A) (A) (A) (A) (A)
                 (A) (A) (A) (A) (A) (A) (A) (A) (A) (A) (A) (A)
                 (A) (A) (A) (A) (A) (A) (A) (A) (A) (A) (A) (A)
                 (A) (A) (A) (A) (A) (A) (A) (A) (A) (A) (A) (A)
                 (A) (A) (A) (A) (A) (A) (A) (A) (A) (A) (A) (A)
                 (A) (A) (A) (A) (A) (A) (A) (A) (A) (A) (A) (A)
                 (A) (A) (A) (A) (A) (A) (A) (A) (A) (A) (A) (A)
                 (A) (A) (A) (A) (A) (A) (A) (A) (A) (A) (A) (A)
                 (A) (A) (A) (A) (A) (A) (A) (A) (A) (A) (A) (A)
                 (A) (A) (A) (A) (A) (A) (A) (A) (A) (A) (A) (A)
                 (A) (A) (A) (A) (A) (A) (A) (A) (A) (A) (A) (A)
                 (A) (A) (A) (A) (A) (A) (A) (A) (A) (A) (A) (A)
                 (A) (A) (A) (A) (A) (A) (A) (A) (A) (A) (A) (A)
                 (A) (A) (A) (A) (A) (A) (A) (A) (A) (A) (A) (A)
                 (A) (A) (A) (A) (A) (A) (A) (A) (A) (A) (A) (A)
                 (A) (A) (A) (A) (A) (A) (A) (A) (A) (A) (A) (A)
                 (A) (A) (A) (A) (A) (A) (A) (A) (A) (A) (A) (A)
                 (A) (A) (A) (A) (A) (A) (A) (A) (A) (A) (A) (A)
                 (A) (A) (A) (A) (A) (A) (A) (A) (A) (A) (A) (A)
                 (A) (A) (A) (A) (A) (A) (A) (A) (A) (A) (A) (A)
                 (A) (A) (A) (A) (A) (A) (A) (A) (A) (A) (A) (A)
                 (A) (A) (A) (A) (A) (A) (A) (A) (A) (A) (A) (A)
                 (A) (A) (A) (A) (A) (A) (A) (A) (A) (A) (A) (A)
                 (A) (A) (A) (A) (A) (A) (A) (A) (A) (A) (A) (A)
                 (A) (A) (A) (A) (A) (A) (A) (A) (A) (A) (A) (A)
                 (A) (A) (A) (A) (A) (A) (A) (A) (A) (A) (A) (A)
                 (A) (A) (A) (A) (A) (A) (A) (A) (A) (A) (A) (A)
                 (A) (A) (A) (A) (A) (A) (A) (A) (A) (A) (A) (A)
                 (A) (A) (A)
 Beta  Orbitals:
       Occupied  (A) (A) (A) (A) (A) (A) (A) (A) (A) (A) (A) (A)
                 (A) (A) (A) (A) (A) (A) (A) (A) (A) (A) (A) (A)
                 (A) (A) (A) (A) (A) (A) (A) (A) (A) (A) (A) (A)
                 (A) (A) (A) (A) (A) (A) (A) (A) (A) (A) (A) (A)
                 (A) (A) (A) (A) (A) (A) (A) (A) (A) (A) (A) (A)
                 (A) (A) (A) (A) (A) (A) (A) (A) (A) (A) (A) (A)
                 (A) (A) (A) (A) (A) (A) (A) (A) (A) (A) (A) (A)
                 (A) (A) (A) (A) (A) (A) (A) (A) (A) (A) (A) (A)
                 (A) (A) (A) (A) (A) (A) (A) (A) (A) (A) (A) (A)
                 (A) (A) (A) (A) (A) (A) (A) (A) (A) (A) (A) (A)
                 (A) (A) (A) (A) (A) (A) (A) (A) (A) (A) (A) (A)
                 (A) (A) (A) (A) (A) (A) (A) (A) (A) (A) (A) (A)
                 (A) (A) (A) (A) (A) (A) (A) (A) (A) (A) (A) (A)
       Virtual   (A) (A) (A) (A) (A) (A) (A) (A) (A) (A) (A) (A)
                 (A) (A) (A) (A) (A) (A) (A) (A) (A) (A) (A) (A)
                 (A) (A) (A) (A) (A) (A) (A) (A) (A) (A) (A) (A)
                 (A) (A) (A) (A) (A) (A) (A) (A) (A) (A) (A) (A)
                 (A) (A) (A) (A) (A) (A) (A) (A) (A) (A) (A) (A)
                 (A) (A) (A) (A) (A) (A) (A) (A) (A) (A) (A) (A)
                 (A) (A) (A) (A) (A) (A) (A) (A) (A) (A) (A) (A)
                 (A) (A) (A) (A) (A) (A) (A) (A) (A) (A) (A) (A)
                 (A) (A) (A) (A) (A) (A) (A) (A) (A) (A) (A) (A)
                 (A) (A) (A) (A) (A) (A) (A) (A) (A) (A) (A) (A)
                 (A) (A) (A) (A) (A) (A) (A) (A) (A) (A) (A) (A)
                 (A) (A) (A) (A) (A) (A) (A) (A) (A) (A) (A) (A)
                 (A) (A) (A) (A) (A) (A) (A) (A) (A) (A) (A) (A)
                 (A) (A) (A) (A) (A) (A) (A) (A) (A) (A) (A) (A)
                 (A) (A) (A) (A) (A) (A) (A) (A) (A) (A) (A) (A)
                 (A) (A) (A) (A) (A) (A) (A) (A) (A) (A) (A) (A)
                 (A) (A) (A) (A) (A) (A) (A) (A) (A) (A) (A) (A)
                 (A) (A) (A) (A) (A) (A) (A) (A) (A) (A) (A) (A)
                 (A) (A) (A) (A) (A) (A) (A) (A) (A) (A) (A) (A)
                 (A) (A) (A) (A) (A) (A) (A) (A) (A) (A) (A) (A)
                 (A) (A) (A) (A) (A) (A) (A) (A) (A) (A) (A) (A)
                 (A) (A) (A) (A) (A) (A) (A) (A) (A) (A) (A) (A)
                 (A) (A) (A) (A) (A) (A) (A) (A) (A) (A) (A) (A)
                 (A) (A) (A) (A) (A) (A) (A) (A) (A) (A) (A) (A)
                 (A) (A) (A) (A) (A) (A) (A) (A) (A) (A) (A) (A)
                 (A) (A) (A) (A) (A) (A) (A) (A) (A) (A) (A) (A)
                 (A) (A) (A) (A) (A) (A) (A) (A) (A) (A) (A) (A)
                 (A) (A) (A) (A) (A) (A) (A) (A) (A) (A) (A) (A)
                 (A) (A) (A) (A) (A) (A) (A) (A) (A) (A) (A) (A)
                 (A) (A) (A) (A) (A) (A) (A) (A) (A) (A) (A) (A)
                 (A) (A) (A) (A) (A) (A) (A) (A) (A) (A) (A) (A)
                 (A) (A) (A) (A) (A) (A) (A) (A) (A) (A) (A) (A)
                 (A) (A) (A) (A) (A) (A) (A) (A) (A) (A) (A) (A)
                 (A) (A) (A) (A) (A) (A) (A) (A) (A) (A) (A) (A)
                 (A) (A) (A) (A) (A) (A) (A) (A) (A) (A) (A) (A)
                 (A) (A) (A) (A) (A) (A) (A) (A) (A) (A) (A) (A)
                 (A) (A) (A) (A) (A) (A) (A) (A) (A) (A) (A) (A)
                 (A) (A) (A) (A) (A) (A) (A) (A) (A) (A) (A) (A)
                 (A) (A) (A) (A) (A) (A) (A) (A) (A) (A) (A) (A)
                 (A) (A) (A) (A) (A) (A) (A) (A) (A) (A) (A) (A)
                 (A) (A) (A) (A) (A) (A) (A) (A) (A) (A) (A) (A)
                 (A) (A) (A) (A) (A) (A) (A) (A) (A) (A) (A) (A)
                 (A) (A) (A) (A) (A) (A) (A) (A) (A) (A) (A) (A)
                 (A) (A) (A) (A) (A) (A) (A)
 The electronic state is 5-A.
 Alpha  occ. eigenvalues -- -256.17209 -30.06666 -25.91211 -25.89187 -25.88967
 Alpha  occ. eigenvalues --  -19.16718 -14.42572 -14.36034 -14.33105 -14.33019
 Alpha  occ. eigenvalues --  -14.32878 -14.32584 -10.25767 -10.23930 -10.21161
 Alpha  occ. eigenvalues --  -10.21027 -10.20997 -10.20967 -10.20903 -10.20899
 Alpha  occ. eigenvalues --  -10.20755 -10.20725 -10.20707 -10.20561 -10.19694
 Alpha  occ. eigenvalues --  -10.19565 -10.18942 -10.18892 -10.18831 -10.18757
 Alpha  occ. eigenvalues --  -10.18735 -10.18658 -10.18607 -10.18595 -10.18575
 Alpha  occ. eigenvalues --  -10.18545 -10.18512 -10.18394 -10.18355 -10.18328
 Alpha  occ. eigenvalues --  -10.18327 -10.18324 -10.18258 -10.18222 -10.18189
 Alpha  occ. eigenvalues --  -10.18146  -3.52602  -2.32412  -2.27992  -2.27738
 Alpha  occ. eigenvalues --   -1.04826  -1.03512  -0.96209  -0.95313  -0.95146
 Alpha  occ. eigenvalues --   -0.94256  -0.90413  -0.81441  -0.81117  -0.80802
 Alpha  occ. eigenvalues --   -0.80092  -0.79826  -0.79727  -0.78808  -0.78720
 Alpha  occ. eigenvalues --   -0.76055  -0.74982  -0.73677  -0.73113  -0.72617
 Alpha  occ. eigenvalues --   -0.71364  -0.70322  -0.69490  -0.67751  -0.67402
 Alpha  occ. eigenvalues --   -0.67144  -0.64212  -0.63372  -0.63214  -0.60740
 Alpha  occ. eigenvalues --   -0.59993  -0.59389  -0.59259  -0.56901  -0.55922
 Alpha  occ. eigenvalues --   -0.55424  -0.53756  -0.52904  -0.52593  -0.51996
 Alpha  occ. eigenvalues --   -0.50329  -0.50272  -0.49792  -0.48204  -0.47362
 Alpha  occ. eigenvalues --   -0.47091  -0.46819  -0.46699  -0.44540  -0.44065
 Alpha  occ. eigenvalues --   -0.44012  -0.43760  -0.43483  -0.43013  -0.42946
 Alpha  occ. eigenvalues --   -0.42761  -0.42698  -0.42421  -0.42200  -0.42015
 Alpha  occ. eigenvalues --   -0.41902  -0.41687  -0.41464  -0.41042  -0.40896
 Alpha  occ. eigenvalues --   -0.40815  -0.40504  -0.40049  -0.39783  -0.39569
 Alpha  occ. eigenvalues --   -0.38940  -0.38924  -0.38516  -0.38343  -0.38094
 Alpha  occ. eigenvalues --   -0.37877  -0.37731  -0.37404  -0.36963  -0.36260
 Alpha  occ. eigenvalues --   -0.36133  -0.36051  -0.35745  -0.35320  -0.34833
 Alpha  occ. eigenvalues --   -0.33894  -0.33585  -0.33142  -0.32940  -0.32473
 Alpha  occ. eigenvalues --   -0.31479  -0.30705  -0.30133  -0.29793  -0.29467
 Alpha  occ. eigenvalues --   -0.28924  -0.28230  -0.27913  -0.26620  -0.25424
 Alpha  occ. eigenvalues --   -0.25141  -0.22985  -0.22269  -0.21409  -0.20626
 Alpha  occ. eigenvalues --   -0.20226  -0.19428  -0.16685  -0.16592  -0.15177
 Alpha virt. eigenvalues --   -0.05423  -0.05313  -0.00598   0.02351   0.02957
 Alpha virt. eigenvalues --    0.04106   0.07017   0.07495   0.07812   0.08409
 Alpha virt. eigenvalues --    0.09546   0.10311   0.10555   0.11197   0.11751
 Alpha virt. eigenvalues --    0.11995   0.12508   0.12646   0.13517   0.14358
 Alpha virt. eigenvalues --    0.14589   0.15071   0.15486   0.15678   0.15941
 Alpha virt. eigenvalues --    0.16146   0.16266   0.16717   0.16901   0.17062
 Alpha virt. eigenvalues --    0.17718   0.18001   0.18152   0.18240   0.18335
 Alpha virt. eigenvalues --    0.18418   0.18879   0.19312   0.19332   0.19533
 Alpha virt. eigenvalues --    0.19732   0.19950   0.20157   0.20694   0.21065
 Alpha virt. eigenvalues --    0.21466   0.21846   0.22117   0.22375   0.22766
 Alpha virt. eigenvalues --    0.23271   0.23493   0.24261   0.24298   0.25122
 Alpha virt. eigenvalues --    0.25671   0.26097   0.26666   0.27391   0.27408
 Alpha virt. eigenvalues --    0.27706   0.28063   0.28358   0.28455   0.30524
 Alpha virt. eigenvalues --    0.31051   0.31736   0.31995   0.32542   0.33373
 Alpha virt. eigenvalues --    0.34232   0.34411   0.34932   0.35783   0.36565
 Alpha virt. eigenvalues --    0.36817   0.37436   0.37748   0.38112   0.39408
 Alpha virt. eigenvalues --    0.40972   0.41531   0.42403   0.43132   0.44526
 Alpha virt. eigenvalues --    0.44739   0.45160   0.45261   0.46051   0.47341
 Alpha virt. eigenvalues --    0.48794   0.48849   0.49226   0.49825   0.50390
 Alpha virt. eigenvalues --    0.51077   0.51672   0.51911   0.52020   0.52767
 Alpha virt. eigenvalues --    0.53116   0.53433   0.53657   0.53732   0.54293
 Alpha virt. eigenvalues --    0.54462   0.54693   0.55168   0.55575   0.55879
 Alpha virt. eigenvalues --    0.56470   0.56815   0.57027   0.57446   0.58309
 Alpha virt. eigenvalues --    0.58857   0.59319   0.59539   0.59871   0.60199
 Alpha virt. eigenvalues --    0.60764   0.61379   0.61587   0.61833   0.62401
 Alpha virt. eigenvalues --    0.62856   0.63126   0.63812   0.64064   0.64715
 Alpha virt. eigenvalues --    0.64938   0.65336   0.65851   0.66287   0.66707
 Alpha virt. eigenvalues --    0.67051   0.67305   0.67586   0.67824   0.68134
 Alpha virt. eigenvalues --    0.68165   0.68232   0.69041   0.69199   0.69573
 Alpha virt. eigenvalues --    0.70606   0.70984   0.71202   0.71859   0.72096
 Alpha virt. eigenvalues --    0.72884   0.73183   0.73746   0.74410   0.74781
 Alpha virt. eigenvalues --    0.75208   0.75517   0.76284   0.76562   0.77010
 Alpha virt. eigenvalues --    0.77380   0.77867   0.78462   0.78606   0.78926
 Alpha virt. eigenvalues --    0.79520   0.79608   0.80312   0.80611   0.80797
 Alpha virt. eigenvalues --    0.81019   0.81526   0.82241   0.82375   0.83040
 Alpha virt. eigenvalues --    0.83829   0.84608   0.84793   0.85894   0.86243
 Alpha virt. eigenvalues --    0.86883   0.87158   0.87304   0.87930   0.88033
 Alpha virt. eigenvalues --    0.88300   0.88554   0.88831   0.89297   0.89761
 Alpha virt. eigenvalues --    0.90202   0.90428   0.90733   0.91082   0.91314
 Alpha virt. eigenvalues --    0.91374   0.92318   0.92381   0.92960   0.93232
 Alpha virt. eigenvalues --    0.93647   0.94103   0.94499   0.94723   0.95239
 Alpha virt. eigenvalues --    0.95602   0.96223   0.96415   0.97000   0.97421
 Alpha virt. eigenvalues --    0.97794   0.98214   0.98405   0.99126   0.99518
 Alpha virt. eigenvalues --    0.99900   1.00419   1.00532   1.00860   1.00935
 Alpha virt. eigenvalues --    1.01679   1.01806   1.02036   1.02394   1.03183
 Alpha virt. eigenvalues --    1.03586   1.04222   1.04832   1.04997   1.05435
 Alpha virt. eigenvalues --    1.06389   1.06968   1.07722   1.07845   1.08119
 Alpha virt. eigenvalues --    1.08971   1.09768   1.10414   1.11679   1.12111
 Alpha virt. eigenvalues --    1.12661   1.14378   1.15075   1.15589   1.16356
 Alpha virt. eigenvalues --    1.17087   1.17796   1.18743   1.19006   1.19316
 Alpha virt. eigenvalues --    1.19688   1.20166   1.21325   1.21408   1.21596
 Alpha virt. eigenvalues --    1.21949   1.22957   1.23056   1.23551   1.24382
 Alpha virt. eigenvalues --    1.25375   1.25955   1.26288   1.27487   1.27876
 Alpha virt. eigenvalues --    1.28996   1.29564   1.29828   1.31026   1.31184
 Alpha virt. eigenvalues --    1.31647   1.32799   1.33439   1.33877   1.34970
 Alpha virt. eigenvalues --    1.35508   1.36563   1.36858   1.36970   1.38484
 Alpha virt. eigenvalues --    1.39045   1.39139   1.39668   1.39868   1.40461
 Alpha virt. eigenvalues --    1.40603   1.41305   1.42247   1.43169   1.44021
 Alpha virt. eigenvalues --    1.45191   1.45411   1.46123   1.46665   1.47479
 Alpha virt. eigenvalues --    1.48152   1.48801   1.49475   1.50329   1.50842
 Alpha virt. eigenvalues --    1.51888   1.53175   1.53649   1.53915   1.54496
 Alpha virt. eigenvalues --    1.55257   1.55942   1.56069   1.57242   1.57624
 Alpha virt. eigenvalues --    1.58348   1.59198   1.61316   1.61513   1.62415
 Alpha virt. eigenvalues --    1.63558   1.64913   1.65964   1.66537   1.67162
 Alpha virt. eigenvalues --    1.67289   1.69380   1.70352   1.70421   1.71233
 Alpha virt. eigenvalues --    1.71624   1.73489   1.74009   1.76252   1.76420
 Alpha virt. eigenvalues --    1.76880   1.80313   1.80421   1.81244   1.81847
 Alpha virt. eigenvalues --    1.82751   1.82944   1.83139   1.83651   1.83722
 Alpha virt. eigenvalues --    1.84043   1.84955   1.85204   1.85690   1.86581
 Alpha virt. eigenvalues --    1.87075   1.87831   1.88372   1.88831   1.89498
 Alpha virt. eigenvalues --    1.89585   1.90358   1.91308   1.91706   1.92625
 Alpha virt. eigenvalues --    1.92918   1.93872   1.94669   1.95382   1.96017
 Alpha virt. eigenvalues --    1.96119   1.96839   1.97298   1.97695   1.98427
 Alpha virt. eigenvalues --    1.99872   2.00087   2.00769   2.01488   2.01948
 Alpha virt. eigenvalues --    2.02403   2.02715   2.03502   2.04662   2.05916
 Alpha virt. eigenvalues --    2.06113   2.06332   2.07246   2.07809   2.08441
 Alpha virt. eigenvalues --    2.08796   2.09181   2.09789   2.11062   2.12143
 Alpha virt. eigenvalues --    2.13071   2.13449   2.13862   2.14691   2.15435
 Alpha virt. eigenvalues --    2.15812   2.16695   2.17181   2.17670   2.18163
 Alpha virt. eigenvalues --    2.19663   2.20382   2.21349   2.22896   2.23537
 Alpha virt. eigenvalues --    2.23692   2.23927   2.24868   2.25380   2.25437
 Alpha virt. eigenvalues --    2.26613   2.26960   2.27242   2.27703   2.28232
 Alpha virt. eigenvalues --    2.28798   2.29687   2.30110   2.30422   2.30905
 Alpha virt. eigenvalues --    2.31775   2.32036   2.32475   2.33350   2.33453
 Alpha virt. eigenvalues --    2.33891   2.34879   2.35840   2.36488   2.36742
 Alpha virt. eigenvalues --    2.37152   2.38066   2.38296   2.38639   2.39096
 Alpha virt. eigenvalues --    2.39868   2.40440   2.40760   2.41419   2.41752
 Alpha virt. eigenvalues --    2.42548   2.43626   2.43818   2.44523   2.44806
 Alpha virt. eigenvalues --    2.45424   2.45834   2.46356   2.46639   2.47707
 Alpha virt. eigenvalues --    2.48925   2.49646   2.52130   2.52409   2.53741
 Alpha virt. eigenvalues --    2.54107   2.54635   2.54973   2.56175   2.56889
 Alpha virt. eigenvalues --    2.57287   2.58181   2.58704   2.59164   2.59622
 Alpha virt. eigenvalues --    2.61130   2.61924   2.62312   2.62921   2.64611
 Alpha virt. eigenvalues --    2.66732   2.66964   2.68531   2.69850   2.71039
 Alpha virt. eigenvalues --    2.71371   2.72883   2.73682   2.73937   2.76584
 Alpha virt. eigenvalues --    2.77439   2.78074   2.79326   2.80522   2.81496
 Alpha virt. eigenvalues --    2.82103   2.82787   2.88883   2.89653   2.90066
 Alpha virt. eigenvalues --    2.91442   2.93294   2.94438   2.95558   2.97626
 Alpha virt. eigenvalues --    2.98368   2.98796   3.00729   3.01025   3.01948
 Alpha virt. eigenvalues --    3.03111   3.06385   3.06857   3.07671   3.09709
 Alpha virt. eigenvalues --    3.14473   3.15984   3.16449   3.22259   3.24651
 Alpha virt. eigenvalues --    3.26985   3.31649   3.31901   3.40586   3.40992
 Alpha virt. eigenvalues --    3.42506   3.48378   3.48618   3.62395   3.69031
 Alpha virt. eigenvalues --    3.85914   3.88444   4.15132   4.23579
  Beta  occ. eigenvalues -- -256.17072 -29.98274 -25.83373 -25.82575 -25.82383
  Beta  occ. eigenvalues --  -19.16594 -14.42563 -14.35836 -14.32899 -14.32818
  Beta  occ. eigenvalues --  -14.32701 -14.32414 -10.25770 -10.23921 -10.21159
  Beta  occ. eigenvalues --  -10.21037 -10.20994 -10.20964 -10.20926 -10.20902
  Beta  occ. eigenvalues --  -10.20762 -10.20753 -10.20733 -10.20582 -10.19694
  Beta  occ. eigenvalues --  -10.19557 -10.18922 -10.18906 -10.18827 -10.18754
  Beta  occ. eigenvalues --  -10.18729 -10.18663 -10.18606 -10.18593 -10.18571
  Beta  occ. eigenvalues --  -10.18530 -10.18509 -10.18391 -10.18374 -10.18342
  Beta  occ. eigenvalues --  -10.18324 -10.18322 -10.18275 -10.18221 -10.18200
  Beta  occ. eigenvalues --  -10.18148  -3.32581  -2.08305  -2.08038  -2.07720
  Beta  occ. eigenvalues --   -1.04732  -1.03319  -0.96018  -0.95107  -0.94988
  Beta  occ. eigenvalues --   -0.94065  -0.90218  -0.81457  -0.81064  -0.80756
  Beta  occ. eigenvalues --   -0.80029  -0.79787  -0.79671  -0.78818  -0.78720
  Beta  occ. eigenvalues --   -0.76045  -0.74960  -0.73673  -0.73119  -0.72614
  Beta  occ. eigenvalues --   -0.71322  -0.70284  -0.69428  -0.67664  -0.67308
  Beta  occ. eigenvalues --   -0.67129  -0.64047  -0.63343  -0.63247  -0.60688
  Beta  occ. eigenvalues --   -0.59945  -0.59339  -0.59152  -0.56881  -0.55751
  Beta  occ. eigenvalues --   -0.55338  -0.53719  -0.52841  -0.52533  -0.51772
  Beta  occ. eigenvalues --   -0.50223  -0.50168  -0.49703  -0.47894  -0.47214
  Beta  occ. eigenvalues --   -0.47039  -0.46679  -0.46459  -0.44279  -0.43998
  Beta  occ. eigenvalues --   -0.43748  -0.43729  -0.43429  -0.42850  -0.42726
  Beta  occ. eigenvalues --   -0.42629  -0.42579  -0.42393  -0.42127  -0.41905
  Beta  occ. eigenvalues --   -0.41821  -0.41657  -0.41207  -0.41045  -0.40859
  Beta  occ. eigenvalues --   -0.40803  -0.39748  -0.39598  -0.39528  -0.39438
  Beta  occ. eigenvalues --   -0.38898  -0.38387  -0.38232  -0.38005  -0.37803
  Beta  occ. eigenvalues --   -0.37500  -0.37020  -0.36658  -0.36179  -0.36107
  Beta  occ. eigenvalues --   -0.35560  -0.35002  -0.34506  -0.34440  -0.33573
  Beta  occ. eigenvalues --   -0.33290  -0.32974  -0.32361  -0.31689  -0.30845
  Beta  occ. eigenvalues --   -0.30564  -0.29771  -0.29152  -0.28431  -0.27928
  Beta  occ. eigenvalues --   -0.27737  -0.25658  -0.25516  -0.23274  -0.22314
  Beta  occ. eigenvalues --   -0.21904  -0.21286  -0.20816  -0.17184  -0.16911
  Beta  occ. eigenvalues --   -0.12738
  Beta virt. eigenvalues --   -0.06002  -0.04581  -0.00736   0.00794   0.01138
  Beta virt. eigenvalues --    0.02552   0.03772   0.04130   0.06196   0.07306
  Beta virt. eigenvalues --    0.07905   0.08412   0.09099   0.09795   0.10314
  Beta virt. eigenvalues --    0.10687   0.11089   0.11516   0.11812   0.12031
  Beta virt. eigenvalues --    0.12515   0.12762   0.13528   0.14363   0.14601
  Beta virt. eigenvalues --    0.15104   0.15522   0.15725   0.15940   0.16222
  Beta virt. eigenvalues --    0.16303   0.16745   0.16909   0.17138   0.17748
  Beta virt. eigenvalues --    0.18042   0.18188   0.18284   0.18352   0.18440
  Beta virt. eigenvalues --    0.18989   0.19391   0.19437   0.19570   0.19771
  Beta virt. eigenvalues --    0.20002   0.20190   0.20722   0.21070   0.21476
  Beta virt. eigenvalues --    0.21858   0.22141   0.22377   0.22847   0.23350
  Beta virt. eigenvalues --    0.23541   0.24426   0.24494   0.25220   0.25769
  Beta virt. eigenvalues --    0.26273   0.26725   0.27416   0.27546   0.27757
  Beta virt. eigenvalues --    0.28130   0.28558   0.28605   0.30619   0.31535
  Beta virt. eigenvalues --    0.31792   0.33018   0.33313   0.33847   0.34442
  Beta virt. eigenvalues --    0.35052   0.35851   0.36191   0.36811   0.36995
  Beta virt. eigenvalues --    0.37576   0.37886   0.38290   0.39549   0.41197
  Beta virt. eigenvalues --    0.42089   0.42744   0.43328   0.44748   0.45046
  Beta virt. eigenvalues --    0.45236   0.45521   0.46193   0.48558   0.48883
  Beta virt. eigenvalues --    0.49058   0.49626   0.50148   0.50652   0.51215
  Beta virt. eigenvalues --    0.51994   0.52094   0.52332   0.52871   0.53358
  Beta virt. eigenvalues --    0.53525   0.53666   0.53977   0.54331   0.54506
  Beta virt. eigenvalues --    0.54930   0.55312   0.55618   0.55949   0.56670
  Beta virt. eigenvalues --    0.56875   0.57085   0.57813   0.58417   0.58882
  Beta virt. eigenvalues --    0.59376   0.59605   0.59917   0.60294   0.60805
  Beta virt. eigenvalues --    0.61439   0.61591   0.61833   0.62584   0.62887
  Beta virt. eigenvalues --    0.63159   0.63834   0.64083   0.64760   0.64984
  Beta virt. eigenvalues --    0.65411   0.65981   0.66310   0.66909   0.67131
  Beta virt. eigenvalues --    0.67370   0.67786   0.67995   0.68132   0.68284
  Beta virt. eigenvalues --    0.68529   0.69201   0.69328   0.69763   0.70713
  Beta virt. eigenvalues --    0.71135   0.71311   0.71909   0.72168   0.72996
  Beta virt. eigenvalues --    0.73253   0.74091   0.74532   0.75380   0.75512
  Beta virt. eigenvalues --    0.75729   0.76474   0.76618   0.77088   0.77464
  Beta virt. eigenvalues --    0.77967   0.78522   0.78678   0.79032   0.79591
  Beta virt. eigenvalues --    0.79718   0.80408   0.80708   0.81046   0.81218
  Beta virt. eigenvalues --    0.81973   0.82431   0.82619   0.83356   0.83819
  Beta virt. eigenvalues --    0.84606   0.84799   0.85972   0.86343   0.86905
  Beta virt. eigenvalues --    0.87224   0.87357   0.87951   0.88060   0.88344
  Beta virt. eigenvalues --    0.88649   0.88857   0.89396   0.89919   0.90330
  Beta virt. eigenvalues --    0.90513   0.90778   0.91210   0.91462   0.91614
  Beta virt. eigenvalues --    0.92424   0.92450   0.93089   0.93278   0.93710
  Beta virt. eigenvalues --    0.94275   0.94559   0.94778   0.95393   0.95676
  Beta virt. eigenvalues --    0.96307   0.96540   0.97131   0.97561   0.98031
  Beta virt. eigenvalues --    0.98607   0.98791   0.99319   0.99932   1.00053
  Beta virt. eigenvalues --    1.00500   1.00876   1.00919   1.00991   1.01868
  Beta virt. eigenvalues --    1.01987   1.02440   1.02603   1.03241   1.03684
  Beta virt. eigenvalues --    1.04414   1.05004   1.05120   1.05516   1.06781
  Beta virt. eigenvalues --    1.07117   1.07841   1.08089   1.08364   1.09245
  Beta virt. eigenvalues --    1.10017   1.10673   1.11855   1.12415   1.12913
  Beta virt. eigenvalues --    1.15210   1.15554   1.15914   1.16503   1.17307
  Beta virt. eigenvalues --    1.18203   1.19072   1.19163   1.19829   1.20010
  Beta virt. eigenvalues --    1.20376   1.21422   1.21738   1.22004   1.22704
  Beta virt. eigenvalues --    1.23117   1.23622   1.24120   1.24656   1.25894
  Beta virt. eigenvalues --    1.26151   1.27025   1.27869   1.29071   1.29474
  Beta virt. eigenvalues --    1.29711   1.30283   1.31342   1.31400   1.31798
  Beta virt. eigenvalues --    1.32877   1.33507   1.34070   1.35069   1.35646
  Beta virt. eigenvalues --    1.36805   1.36877   1.37258   1.38501   1.39140
  Beta virt. eigenvalues --    1.39236   1.39673   1.39943   1.40554   1.40797
  Beta virt. eigenvalues --    1.41527   1.42452   1.43386   1.44184   1.45381
  Beta virt. eigenvalues --    1.45680   1.46216   1.46771   1.47580   1.48193
  Beta virt. eigenvalues --    1.48864   1.49839   1.50519   1.50911   1.52253
  Beta virt. eigenvalues --    1.53555   1.53830   1.54116   1.54792   1.55324
  Beta virt. eigenvalues --    1.56021   1.56274   1.57337   1.57814   1.58529
  Beta virt. eigenvalues --    1.59418   1.61464   1.61584   1.62579   1.63787
  Beta virt. eigenvalues --    1.64995   1.66044   1.66887   1.67311   1.67619
  Beta virt. eigenvalues --    1.69537   1.70448   1.70532   1.71309   1.71671
  Beta virt. eigenvalues --    1.73596   1.74184   1.76387   1.76714   1.77235
  Beta virt. eigenvalues --    1.80345   1.80515   1.81268   1.81911   1.82789
  Beta virt. eigenvalues --    1.83006   1.83233   1.83721   1.83846   1.84170
  Beta virt. eigenvalues --    1.85127   1.85247   1.85910   1.86817   1.87165
  Beta virt. eigenvalues --    1.87888   1.88439   1.88903   1.89565   1.89652
  Beta virt. eigenvalues --    1.90437   1.91464   1.91746   1.92702   1.93015
  Beta virt. eigenvalues --    1.94046   1.94826   1.95590   1.96201   1.96274
  Beta virt. eigenvalues --    1.97126   1.97663   1.97861   1.98776   2.00002
  Beta virt. eigenvalues --    2.00238   2.01026   2.01743   2.02492   2.02539
  Beta virt. eigenvalues --    2.03452   2.04185   2.04894   2.06030   2.06332
  Beta virt. eigenvalues --    2.06618   2.07483   2.08102   2.08587   2.09209
  Beta virt. eigenvalues --    2.09344   2.10232   2.11480   2.12774   2.13167
  Beta virt. eigenvalues --    2.13622   2.14082   2.15145   2.15560   2.16081
  Beta virt. eigenvalues --    2.16980   2.17259   2.17710   2.18338   2.19778
  Beta virt. eigenvalues --    2.20492   2.21691   2.23151   2.23664   2.24028
  Beta virt. eigenvalues --    2.24142   2.25172   2.25516   2.26051   2.26908
  Beta virt. eigenvalues --    2.27239   2.27492   2.27797   2.28347   2.29190
  Beta virt. eigenvalues --    2.29767   2.30234   2.30615   2.31071   2.31895
  Beta virt. eigenvalues --    2.32490   2.32584   2.33499   2.33992   2.34285
  Beta virt. eigenvalues --    2.35842   2.36264   2.36710   2.37036   2.37309
  Beta virt. eigenvalues --    2.38319   2.38727   2.38881   2.39441   2.39985
  Beta virt. eigenvalues --    2.40779   2.41161   2.41634   2.42083   2.42705
  Beta virt. eigenvalues --    2.43775   2.43847   2.44848   2.44927   2.45525
  Beta virt. eigenvalues --    2.46371   2.46636   2.47200   2.48154   2.49418
  Beta virt. eigenvalues --    2.49755   2.52942   2.53124   2.53807   2.54773
  Beta virt. eigenvalues --    2.55042   2.55575   2.57008   2.57340   2.57790
  Beta virt. eigenvalues --    2.58402   2.59204   2.59338   2.60310   2.61474
  Beta virt. eigenvalues --    2.62119   2.62411   2.63471   2.64647   2.66794
  Beta virt. eigenvalues --    2.67199   2.68549   2.70162   2.71270   2.71550
  Beta virt. eigenvalues --    2.73107   2.73869   2.74206   2.76677   2.77741
  Beta virt. eigenvalues --    2.78370   2.79437   2.80551   2.81545   2.82503
  Beta virt. eigenvalues --    2.82905   2.88984   2.89821   2.90192   2.91608
  Beta virt. eigenvalues --    2.93435   2.94577   2.95763   2.97768   2.98471
  Beta virt. eigenvalues --    2.98883   3.00801   3.01041   3.01976   3.03526
  Beta virt. eigenvalues --    3.06589   3.07398   3.07797   3.10019   3.14648
  Beta virt. eigenvalues --    3.16179   3.16495   3.22331   3.24777   3.27556
  Beta virt. eigenvalues --    3.31680   3.31927   3.40652   3.41091   3.43220
  Beta virt. eigenvalues --    3.48545   3.48779   3.73863   3.77725   3.94773
  Beta virt. eigenvalues --    3.99603   4.26301   4.34027
          Condensed to atoms (all electrons):
          Atomic-Atomic Spin Densities.
 Mulliken charges and spin densities:
               1          2
     1  Fe   1.050555   3.880488
     2  N   -0.689405   0.048428
     3  N   -0.710429   0.039721
     4  N   -0.714914   0.055972
     5  N   -0.688976   0.038544
     6  C    0.297841  -0.023460
     7  C    0.028230   0.010211
     8  C    0.029558  -0.010670
     9  C    0.283806  -0.002173
    10  C    0.300680  -0.003151
    11  C    0.027696  -0.012414
    12  C   -0.010550   0.009426
    13  C    0.326694  -0.021226
    14  C    0.312607  -0.023938
    15  C    0.032203   0.013215
    16  C   -0.010054  -0.011841
    17  C    0.305094  -0.011230
    18  C    0.294189  -0.010206
    19  C    0.033028  -0.004301
    20  C    0.031342   0.005368
    21  C    0.312593  -0.021238
    22  C   -0.314830   0.000535
    23  H    0.158729   0.000353
    24  C   -0.333881  -0.013316
    25  H    0.158597   0.000878
    26  C   -0.312838   0.004589
    27  H    0.161988   0.000093
    28  C   -0.319580  -0.010793
    29  H    0.161908   0.000799
    30  C   -0.607205   0.001721
    31  H    0.181793   0.000289
    32  H    0.183382  -0.001000
    33  H    0.186959  -0.000979
    34  C   -0.608091  -0.000008
    35  H    0.188057  -0.000213
    36  H    0.186145  -0.000087
    37  H    0.181033   0.000329
    38  C   -0.611968   0.001755
    39  H    0.182974  -0.000315
    40  H    0.180646  -0.000882
    41  H    0.194287   0.000179
    42  C   -0.145110  -0.000685
    43  H    0.163089   0.000077
    44  C   -0.404558   0.000971
    45  H    0.170467  -0.000048
    46  H    0.163435   0.000099
    47  C   -0.611394  -0.000123
    48  H    0.181060  -0.000302
    49  H    0.187351   0.000330
    50  H    0.193366   0.000347
    51  C   -0.146902   0.005486
    52  H    0.162820  -0.000741
    53  C   -0.406568  -0.008748
    54  H    0.172039   0.000443
    55  H    0.162640   0.000487
    56  C   -0.608088   0.001024
    57  H    0.188058  -0.000261
    58  H    0.186369  -0.000338
    59  H    0.180988   0.000324
    60  C   -0.608247   0.000228
    61  H    0.180866   0.000385
    62  H    0.186801   0.000089
    63  H    0.187604   0.000059
    64  O   -0.820168   0.014553
    65  H    0.459375   0.002494
    66  H    0.445816   0.003486
    67  C   -0.601317   0.000602
    68  H    0.193666   0.000232
    69  H    0.191121   0.000132
    70  H    0.209812   0.000057
    71  N   -0.637091   0.001994
    72  H    0.361157   0.002184
    73  C    0.272446   0.004603
    74  C    0.245188  -0.005191
    75  H    0.218489   0.001599
    76  N   -0.470173   0.047690
    77  C   -0.042226  -0.004684
    78  H    0.197927   0.001697
 Sum of Mulliken charges =  -0.00000   4.00000
 Mulliken charges and spin densities with hydrogens summed into heavy atoms:
               1          2
     1  Fe   1.050555   3.880488
     2  N   -0.689405   0.048428
     3  N   -0.710429   0.039721
     4  N   -0.714914   0.055972
     5  N   -0.688976   0.038544
     6  C    0.297841  -0.023460
     7  C    0.028230   0.010211
     8  C    0.029558  -0.010670
     9  C    0.283806  -0.002173
    10  C    0.300680  -0.003151
    11  C    0.027696  -0.012414
    12  C   -0.010550   0.009426
    13  C    0.326694  -0.021226
    14  C    0.312607  -0.023938
    15  C    0.032203   0.013215
    16  C   -0.010054  -0.011841
    17  C    0.305094  -0.011230
    18  C    0.294189  -0.010206
    19  C    0.033028  -0.004301
    20  C    0.031342   0.005368
    21  C    0.312593  -0.021238
    22  C   -0.156101   0.000889
    24  C   -0.175284  -0.012439
    26  C   -0.150850   0.004681
    28  C   -0.157672  -0.009994
    30  C   -0.055071   0.000031
    34  C   -0.052856   0.000021
    38  C   -0.054061   0.000737
    42  C    0.017979  -0.000608
    44  C   -0.070656   0.001022
    47  C   -0.049617   0.000251
    51  C    0.015918   0.004745
    53  C   -0.071889  -0.007819
    56  C   -0.052673   0.000749
    60  C   -0.052977   0.000761
    64  O    0.085023   0.020533
    67  C   -0.006718   0.001023
    71  N   -0.275934   0.004179
    73  C    0.272446   0.004603
    74  C    0.463677  -0.003592
    76  N   -0.470173   0.047690
    77  C    0.155701  -0.002987
 Electronic spatial extent (au):  <R**2>=          19916.2525
 Charge=             -0.0000 electrons
 Dipole moment (field-independent basis, Debye):
    X=              0.9886    Y=             -1.7891    Z=              3.4818  Tot=              4.0374
 Quadrupole moment (field-independent basis, Debye-Ang):
   XX=           -236.9264   YY=           -241.4944   ZZ=           -219.9852
   XY=             -1.7935   XZ=              2.7535   YZ=             -2.9373
 Traceless Quadrupole moment (field-independent basis, Debye-Ang):
   XX=             -4.1244   YY=             -8.6924   ZZ=             12.8168
   XY=             -1.7935   XZ=              2.7535   YZ=             -2.9373
 Octapole moment (field-independent basis, Debye-Ang**2):
  XXX=              3.6784  YYY=            -20.7614  ZZZ=             80.9294  XYY=             -1.9485
  XXY=            -29.2070  XXZ=             12.4587  XZZ=             20.7762  YZZ=            -23.7733
  YYZ=             -8.1711  XYZ=              5.6732
 Hexadecapole moment (field-independent basis, Debye-Ang**3):
 XXXX=         -11711.9801 YYYY=         -11327.2986 ZZZZ=          -2577.7007 XXXY=            -23.2089
 XXXZ=             77.4406 YYYX=             -0.3669 YYYZ=             31.8709 ZZZX=             32.2106
 ZZZY=            -83.1587 XXYY=          -3915.7725 XXZZ=          -2549.8146 YYZZ=          -2591.9772
 XXYZ=             51.8542 YYXZ=            -18.7824 ZZXY=            -18.2231
 N-N= 5.973584700728D+03 E-N=-1.896032092063D+04  KE= 2.973425813574D+03
                          Isotropic Fermi Contact Couplings
        Atom                 a.u.       MegaHertz       Gauss      10(-4) cm-1
     1  Fe(57)             0.40953      14.84950       5.29867       4.95326
     2  N(14)              0.10540       8.51369       3.03790       2.83986
     3  N(14)              0.09963       8.04785       2.87167       2.68447
     4  N(14)              0.09874       7.97607       2.84606       2.66053
     5  N(14)              0.09572       7.73173       2.75887       2.57903
     6  C(13)              0.00153       0.42931       0.15319       0.14320
     7  C(13)              0.00517       1.45264       0.51834       0.48455
     8  C(13)              0.00183       0.51370       0.18330       0.17135
     9  C(13)              0.00519       1.45891       0.52057       0.48664
    10  C(13)              0.00572       1.60851       0.57396       0.53654
    11  C(13)              0.00197       0.55295       0.19730       0.18444
    12  C(13)              0.00484       1.36081       0.48557       0.45392
    13  C(13)              0.00187       0.52644       0.18785       0.17560
    14  C(13)              0.00220       0.61925       0.22096       0.20656
    15  C(13)              0.00588       1.65393       0.59016       0.55169
    16  C(13)              0.00196       0.55017       0.19632       0.18352
    17  C(13)              0.00423       1.18910       0.42430       0.39664
    18  C(13)              0.00353       0.99080       0.35354       0.33050
    19  C(13)              0.00276       0.77555       0.27674       0.25870
    20  C(13)              0.00432       1.21460       0.43340       0.40515
    21  C(13)              0.00269       0.75644       0.26992       0.25232
    22  C(13)              0.00061       0.17088       0.06097       0.05700
    23  H(1)               0.00011       0.11748       0.04192       0.03919
    24  C(13)             -0.00146      -0.40999      -0.14630      -0.13676
    25  H(1)               0.00028       0.30811       0.10994       0.10277
    26  C(13)              0.00114       0.32117       0.11460       0.10713
    27  H(1)               0.00003       0.03445       0.01229       0.01149
    28  C(13)             -0.00100      -0.28190      -0.10059      -0.09403
    29  H(1)               0.00025       0.28434       0.10146       0.09485
    30  C(13)              0.00114       0.32059       0.11439       0.10694
    31  H(1)               0.00008       0.08842       0.03155       0.02949
    32  H(1)              -0.00028      -0.31290      -0.11165      -0.10437
    33  H(1)              -0.00022      -0.25007      -0.08923      -0.08341
    34  C(13)              0.00047       0.13245       0.04726       0.04418
    35  H(1)               0.00012       0.13164       0.04697       0.04391
    36  H(1)               0.00010       0.11177       0.03988       0.03728
    37  H(1)               0.00009       0.10327       0.03685       0.03445
    38  C(13)              0.00115       0.32347       0.11542       0.10790
    39  H(1)              -0.00013      -0.15015      -0.05358      -0.05008
    40  H(1)              -0.00043      -0.48347      -0.17251      -0.16127
    41  H(1)              -0.00001      -0.00908      -0.00324      -0.00303
    42  C(13)              0.00035       0.09882       0.03526       0.03296
    43  H(1)               0.00003       0.02853       0.01018       0.00952
    44  C(13)              0.00040       0.11211       0.04000       0.03740
    45  H(1)              -0.00001      -0.01293      -0.00461      -0.00431
    46  H(1)               0.00003       0.03262       0.01164       0.01088
    47  C(13)              0.00044       0.12266       0.04377       0.04091
    48  H(1)               0.00009       0.09752       0.03480       0.03253
    49  H(1)               0.00022       0.24167       0.08623       0.08061
    50  H(1)               0.00011       0.12562       0.04482       0.04190
    51  C(13)              0.00141       0.39618       0.14137       0.13215
    52  H(1)              -0.00013      -0.14002      -0.04996      -0.04670
    53  C(13)             -0.00104      -0.29190      -0.10416      -0.09737
    54  H(1)               0.00013       0.14635       0.05222       0.04882
    55  H(1)               0.00016       0.17362       0.06195       0.05791
    56  C(13)              0.00078       0.21994       0.07848       0.07336
    57  H(1)              -0.00014      -0.15627      -0.05576      -0.05213
    58  H(1)              -0.00021      -0.24019      -0.08571      -0.08012
    59  H(1)               0.00009       0.10400       0.03711       0.03469
    60  C(13)              0.00053       0.14803       0.05282       0.04938
    61  H(1)               0.00012       0.13122       0.04682       0.04377
    62  H(1)              -0.00003      -0.03187      -0.01137      -0.01063
    63  H(1)              -0.00000      -0.00008      -0.00003      -0.00003
    64  O(17)              0.09393     -14.23475      -5.07931      -4.74820
    65  H(1)              -0.00013      -0.14855      -0.05301      -0.04955
    66  H(1)               0.00059       0.66362       0.23679       0.22136
    67  C(13)              0.00051       0.14393       0.05136       0.04801
    68  H(1)               0.00011       0.11964       0.04269       0.03991
    69  H(1)               0.00007       0.07623       0.02720       0.02543
    70  H(1)               0.00004       0.04834       0.01725       0.01612
    71  N(14)              0.00829       0.66999       0.23907       0.22349
    72  H(1)               0.00062       0.69344       0.24744       0.23131
    73  C(13)              0.00368       1.03487       0.36927       0.34520
    74  C(13)              0.00113       0.31851       0.11365       0.10624
    75  H(1)               0.00038       0.42513       0.15170       0.14181
    76  N(14)              0.12016       9.70597       3.46333       3.23756
    77  C(13)             -0.00081      -0.22688      -0.08096      -0.07568
    78  H(1)               0.00047       0.52469       0.18722       0.17502
 --------------------------------------------------------
       Center         ----  Spin Dipole Couplings  ----
                      3XX-RR        3YY-RR        3ZZ-RR
 --------------------------------------------------------
     1   Atom        0.245347      0.628508     -0.873855
     2   Atom        0.029974      0.042161     -0.072135
     3   Atom        0.063138      0.041264     -0.104403
     4   Atom        0.022428      0.039484     -0.061913
     5   Atom        0.054839      0.046325     -0.101164
     6   Atom       -0.002085      0.054424     -0.052339
     7   Atom       -0.000566      0.006024     -0.005458
     8   Atom        0.014281      0.010281     -0.024562
     9   Atom        0.042440     -0.010627     -0.031813
    10   Atom        0.047331     -0.013035     -0.034296
    11   Atom        0.016135      0.009431     -0.025565
    12   Atom        0.001641      0.004666     -0.006307
    13   Atom       -0.001985      0.052515     -0.050531
    14   Atom       -0.004591      0.058629     -0.054039
    15   Atom       -0.001974      0.005434     -0.003459
    16   Atom        0.014845      0.011116     -0.025960
    17   Atom        0.051478     -0.006836     -0.044641
    18   Atom        0.050279     -0.009281     -0.040998
    19   Atom        0.011746      0.005032     -0.016778
    20   Atom        0.002659      0.006438     -0.009097
    21   Atom       -0.003162      0.053023     -0.049861
    22   Atom       -0.011560      0.032159     -0.020598
    23   Atom       -0.006253      0.012680     -0.006427
    24   Atom        0.037051     -0.005995     -0.031056
    25   Atom        0.012062     -0.005650     -0.006412
    26   Atom       -0.014382      0.031468     -0.017087
    27   Atom       -0.006718      0.013375     -0.006657
    28   Atom        0.038550     -0.006671     -0.031879
    29   Atom        0.012615     -0.005993     -0.006622
    30   Atom        0.004887     -0.001467     -0.003421
    31   Atom        0.002003      0.000219     -0.002222
    32   Atom        0.004125     -0.001499     -0.002626
    33   Atom        0.004237     -0.001680     -0.002556
    34   Atom       -0.001929      0.005220     -0.003291
    35   Atom       -0.001980      0.004498     -0.002518
    36   Atom       -0.001823      0.004556     -0.002734
    37   Atom       -0.000023      0.002260     -0.002237
    38   Atom        0.005605     -0.001724     -0.003881
    39   Atom        0.005080     -0.002157     -0.002923
    40   Atom        0.003718     -0.001489     -0.002229
    41   Atom        0.002571     -0.000289     -0.002281
    42   Atom       -0.001491      0.005439     -0.003948
    43   Atom       -0.001857      0.004921     -0.003063
    44   Atom       -0.000839      0.001581     -0.000741
    45   Atom        0.000550      0.000963     -0.001513
    46   Atom       -0.000418      0.001673     -0.001255
    47   Atom       -0.002045      0.005590     -0.003545
    48   Atom       -0.002438      0.005416     -0.002977
    49   Atom       -0.001482      0.004008     -0.002527
    50   Atom       -0.000269      0.002490     -0.002221
    51   Atom        0.003807     -0.001802     -0.002005
    52   Atom        0.004651     -0.002002     -0.002649
    53   Atom        0.006003      0.000151     -0.006154
    54   Atom        0.001526      0.000250     -0.001775
    55   Atom        0.001146      0.000054     -0.001200
    56   Atom        0.005674     -0.001720     -0.003954
    57   Atom        0.004476     -0.001779     -0.002698
    58   Atom        0.004831     -0.002040     -0.002791
    59   Atom        0.002554     -0.000210     -0.002344
    60   Atom       -0.001432      0.005289     -0.003857
    61   Atom        0.000058      0.002266     -0.002324
    62   Atom       -0.001796      0.004472     -0.002676
    63   Atom       -0.001560      0.004295     -0.002735
    64   Atom       -0.077753     -0.082006      0.159759
    65   Atom       -0.019540     -0.024948      0.044488
    66   Atom       -0.024633     -0.020873      0.045505
    67   Atom       -0.002608     -0.004053      0.006661
    68   Atom       -0.002174     -0.002526      0.004701
    69   Atom       -0.002146     -0.002202      0.004349
    70   Atom       -0.000773     -0.003226      0.003999
    71   Atom       -0.008950     -0.008502      0.017452
    72   Atom       -0.003996     -0.004827      0.008823
    73   Atom       -0.008732     -0.006575      0.015307
    74   Atom       -0.006849     -0.029161      0.036010
    75   Atom        0.002583     -0.018096      0.015513
    76   Atom       -0.123240     -0.102930      0.226170
    77   Atom       -0.003888     -0.028230      0.032118
    78   Atom        0.008291     -0.018293      0.010001
 --------------------------------------------------------
                        XY            XZ            YZ
 --------------------------------------------------------
     1   Atom        1.376366      0.390503      0.394543
     2   Atom       -0.159872     -0.004739     -0.000404
     3   Atom        0.170044     -0.004127     -0.005644
     4   Atom       -0.164550      0.007578     -0.018505
     5   Atom        0.166419      0.005193      0.007088
     6   Atom       -0.019530     -0.001397     -0.001663
     7   Atom       -0.012749     -0.001079      0.000624
     8   Atom       -0.012858      0.000371      0.000313
     9   Atom       -0.021442     -0.002219      0.001519
    10   Atom        0.018134      0.003382      0.002662
    11   Atom        0.012304      0.002862      0.003241
    12   Atom        0.013181     -0.000080      0.001442
    13   Atom        0.022437      0.004161      0.005285
    14   Atom       -0.018929      0.006244     -0.005013
    15   Atom       -0.013494     -0.000116     -0.000006
    16   Atom       -0.013297      0.005560     -0.002295
    17   Atom       -0.022784      0.005840     -0.001971
    18   Atom        0.020958      0.001211     -0.000540
    19   Atom        0.012427     -0.002604     -0.005443
    20   Atom        0.012783     -0.001716     -0.001499
    21   Atom        0.021174     -0.002051     -0.007769
    22   Atom        0.000020     -0.001257      0.000251
    23   Atom       -0.000126      0.000022      0.000306
    24   Atom       -0.001643     -0.000047      0.005284
    25   Atom       -0.000877      0.000087      0.000123
    26   Atom        0.001450      0.002255      0.000219
    27   Atom        0.000255      0.000044      0.000384
    28   Atom       -0.000921      0.004438     -0.001014
    29   Atom       -0.000744      0.001106      0.000012
    30   Atom       -0.004347     -0.000292      0.000096
    31   Atom       -0.003074     -0.000216      0.000181
    32   Atom       -0.003118      0.000969     -0.000358
    33   Atom       -0.002958     -0.001384      0.000490
    34   Atom       -0.004066     -0.000259      0.000708
    35   Atom       -0.002691     -0.000509      0.001691
    36   Atom       -0.002808      0.000218     -0.000831
    37   Atom       -0.003133     -0.000251      0.000363
    38   Atom        0.003886      0.000768      0.000480
    39   Atom        0.002616     -0.000453     -0.000120
    40   Atom        0.002712      0.001611      0.000650
    41   Atom        0.003036      0.000095      0.000031
    42   Atom        0.004223      0.000879      0.001099
    43   Atom        0.003014     -0.000095     -0.000307
    44   Atom        0.002840      0.000145      0.000930
    45   Atom        0.002600      0.000979      0.001046
    46   Atom        0.001736      0.000276      0.000512
    47   Atom       -0.004262      0.000131     -0.000691
    48   Atom       -0.002451      0.000361     -0.001471
    49   Atom       -0.003114     -0.000348      0.000886
    50   Atom       -0.003314      0.000624     -0.000791
    51   Atom       -0.003661      0.000257     -0.002399
    52   Atom       -0.002718      0.001729     -0.000567
    53   Atom       -0.003703      0.000991      0.005848
    54   Atom       -0.003189     -0.000476      0.000142
    55   Atom       -0.001784     -0.000019      0.000186
    56   Atom        0.003988     -0.000309     -0.000145
    57   Atom        0.002823      0.001089      0.000399
    58   Atom        0.002830     -0.001401     -0.000465
    59   Atom        0.003148     -0.000234     -0.000146
    60   Atom        0.004239     -0.000281     -0.000645
    61   Atom        0.003293     -0.000276     -0.000392
    62   Atom        0.003051     -0.000646     -0.001697
    63   Atom        0.002963      0.000305      0.000796
    64   Atom        0.017542     -0.032336      0.004542
    65   Atom       -0.010088     -0.028343      0.019285
    66   Atom       -0.003864      0.007358     -0.017529
    67   Atom        0.000222     -0.003768     -0.000676
    68   Atom       -0.000124     -0.001857      0.000670
    69   Atom        0.000405     -0.001870     -0.001628
    70   Atom        0.000239     -0.004060     -0.000435
    71   Atom        0.002158      0.001936     -0.005094
    72   Atom       -0.000188      0.003129     -0.001362
    73   Atom        0.001204     -0.004320     -0.000588
    74   Atom       -0.009509      0.022054     -0.013764
    75   Atom       -0.003691      0.026588     -0.004082
    76   Atom        0.001055     -0.016307     -0.027663
    77   Atom       -0.002654     -0.027829      0.001442
    78   Atom        0.000366     -0.027158     -0.000719
 --------------------------------------------------------


 ---------------------------------------------------------------------------------
              Anisotropic Spin Dipole Couplings in Principal Axis System
 ---------------------------------------------------------------------------------

       Atom             a.u.   MegaHertz   Gauss  10(-4) cm-1        Axes

              Baa    -1.0059   -17.415    -6.214    -5.809 -0.5187  0.2387  0.8209
     1 Fe(57) Bbb    -0.9299   -16.099    -5.745    -5.370 -0.5601  0.6306 -0.5372
              Bcc     1.9358    33.514    11.959    11.179  0.6459  0.7385  0.1935
 
              Baa    -0.1242    -4.789    -1.709    -1.598  0.7191  0.6913  0.0708
     2 N(14)  Bbb    -0.0719    -2.773    -0.990    -0.925 -0.0433 -0.0572  0.9974
              Bcc     0.1961     7.563     2.699     2.523 -0.6936  0.7203  0.0112
 
              Baa    -0.1183    -4.563    -1.628    -1.522 -0.6797  0.7275  0.0935
     3 N(14)  Bbb    -0.1044    -4.027    -1.437    -1.343  0.0792 -0.0539  0.9954
              Bcc     0.2227     8.591     3.065     2.866  0.7292  0.6839 -0.0210
 
              Baa    -0.1345    -5.189    -1.852    -1.731  0.7176  0.6892  0.1007
     4 N(14)  Bbb    -0.0625    -2.411    -0.860    -0.804 -0.1225 -0.0175  0.9923
              Bcc     0.1971     7.601     2.712     2.535 -0.6856  0.7244 -0.0718
 
              Baa    -0.1160    -4.475    -1.597    -1.493 -0.6928  0.7144 -0.0985
     5 N(14)  Bbb    -0.1013    -3.905    -1.393    -1.303 -0.0882  0.0517  0.9948
              Bcc     0.2173     8.380     2.990     2.795  0.7157  0.6978  0.0272
 
              Baa    -0.0524    -7.035    -2.510    -2.347  0.0363  0.0222  0.9991
     6 C(13)  Bbb    -0.0081    -1.087    -0.388    -0.363  0.9540  0.2969 -0.0413
              Bcc     0.0605     8.122     2.898     2.709 -0.2975  0.9547 -0.0104
 
              Baa    -0.0105    -1.407    -0.502    -0.469  0.7896  0.6063  0.0943
     7 C(13)  Bbb    -0.0055    -0.735    -0.262    -0.245 -0.0417 -0.1002  0.9941
              Bcc     0.0160     2.142     0.764     0.714 -0.6122  0.7889  0.0539
 
              Baa    -0.0246    -3.297    -1.177    -1.100 -0.0143 -0.0143  0.9998
     8 C(13)  Bbb    -0.0007    -0.097    -0.035    -0.032  0.6503  0.7594  0.0201
              Bcc     0.0253     3.394     1.211     1.132  0.7595 -0.6505  0.0016
 
              Baa    -0.0319    -4.285    -1.529    -1.429  0.0130 -0.0580  0.9982
     9 C(13)  Bbb    -0.0182    -2.439    -0.870    -0.813  0.3347  0.9410  0.0503
              Bcc     0.0501     6.723     2.399     2.243  0.9422 -0.3335 -0.0317
 
              Baa    -0.0346    -4.649    -1.659    -1.551 -0.0171 -0.1081  0.9940
    10 C(13)  Bbb    -0.0179    -2.402    -0.857    -0.801 -0.2713  0.9573  0.0995
              Bcc     0.0525     7.051     2.516     2.352  0.9623  0.2680  0.0457
 
              Baa    -0.0259    -3.481    -1.242    -1.161 -0.0457 -0.0754  0.9961
    11 C(13)  Bbb     0.0001     0.008     0.003     0.003 -0.6110  0.7910  0.0318
              Bcc     0.0259     3.473     1.239     1.159  0.7903  0.6072  0.0822
 
              Baa    -0.0104    -1.392    -0.497    -0.464  0.7172 -0.6522  0.2455
    12 C(13)  Bbb    -0.0061    -0.818    -0.292    -0.273 -0.2126  0.1307  0.9684
              Bcc     0.0165     2.210     0.788     0.737  0.6636  0.7467  0.0449
 
              Baa    -0.0510    -6.845    -2.442    -2.283 -0.0681 -0.0361  0.9970
    13 C(13)  Bbb    -0.0099    -1.332    -0.475    -0.444  0.9384 -0.3416  0.0517
              Bcc     0.0609     8.176     2.917     2.727  0.3387  0.9392  0.0572
 
              Baa    -0.0549    -7.364    -2.628    -2.457 -0.1139  0.0249  0.9932
    14 C(13)  Bbb    -0.0093    -1.253    -0.447    -0.418  0.9562  0.2739  0.1029
              Bcc     0.0642     8.618     3.075     2.875 -0.2695  0.9614 -0.0550
 
              Baa    -0.0123    -1.646    -0.587    -0.549  0.7952  0.6063  0.0109
    15 C(13)  Bbb    -0.0035    -0.464    -0.166    -0.155 -0.0066 -0.0093  0.9999
              Bcc     0.0157     2.110     0.753     0.704 -0.6063  0.7952  0.0034
 
              Baa    -0.0267    -3.585    -1.279    -1.196 -0.1278  0.0152  0.9917
    16 C(13)  Bbb    -0.0003    -0.042    -0.015    -0.014  0.6430  0.7626  0.0712
              Bcc     0.0270     3.626     1.294     1.210  0.7551 -0.6467  0.1073
 
              Baa    -0.0450    -6.039    -2.155    -2.015 -0.0562  0.0180  0.9983
    17 C(13)  Bbb    -0.0147    -1.970    -0.703    -0.657  0.3255  0.9455  0.0013
              Bcc     0.0597     8.010     2.858     2.672  0.9439 -0.3250  0.0590
 
              Baa    -0.0410    -5.507    -1.965    -1.837 -0.0202  0.0303  0.9993
    18 C(13)  Bbb    -0.0159    -2.132    -0.761    -0.711 -0.3012  0.9529 -0.0350
              Bcc     0.0569     7.639     2.726     2.548  0.9533  0.3017  0.0101
 
              Baa    -0.0181    -2.424    -0.865    -0.809 -0.0136  0.2363  0.9716
    19 C(13)  Bbb    -0.0039    -0.530    -0.189    -0.177 -0.6286  0.7536 -0.1921
              Bcc     0.0220     2.954     1.054     0.985  0.7776  0.6134 -0.1383
 
              Baa    -0.0094    -1.260    -0.449    -0.420  0.2790 -0.1353  0.9507
    20 C(13)  Bbb    -0.0083    -1.110    -0.396    -0.370  0.7052 -0.6432 -0.2985
              Bcc     0.0177     2.370     0.846     0.790  0.6518  0.7537 -0.0840
 
              Baa    -0.0504    -6.770    -2.416    -2.258  0.0107  0.0727  0.9973
    21 C(13)  Bbb    -0.0102    -1.374    -0.490    -0.458  0.9487 -0.3159  0.0129
              Bcc     0.0607     8.144     2.906     2.717  0.3160  0.9460 -0.0723
 
              Baa    -0.0208    -2.787    -0.995    -0.930  0.1353 -0.0047  0.9908
    22 C(13)  Bbb    -0.0114    -1.528    -0.545    -0.510  0.9908  0.0003 -0.1353
              Bcc     0.0322     4.316     1.540     1.440  0.0003  1.0000  0.0047
 
              Baa    -0.0064    -3.433    -1.225    -1.145 -0.1332 -0.0168  0.9909
    23 H(1)   Bbb    -0.0063    -3.335    -1.190    -1.112  0.9911  0.0044  0.1333
              Bcc     0.0127     6.768     2.415     2.258 -0.0066  0.9998  0.0160
 
              Baa    -0.0321    -4.311    -1.538    -1.438 -0.0041 -0.1984  0.9801
    24 C(13)  Bbb    -0.0050    -0.669    -0.239    -0.223  0.0385  0.9794  0.1984
              Bcc     0.0371     4.980     1.777     1.661  0.9993 -0.0385 -0.0037
 
              Baa    -0.0064    -3.433    -1.225    -1.145 -0.0126 -0.1685  0.9856
    25 H(1)   Bbb    -0.0057    -3.026    -1.080    -1.009  0.0479  0.9845  0.1689
              Bcc     0.0121     6.459     2.305     2.154  0.9988 -0.0493  0.0044
 
              Baa    -0.0184    -2.465    -0.880    -0.822 -0.4951  0.0106  0.8688
    26 C(13)  Bbb    -0.0131    -1.764    -0.630    -0.588  0.8682 -0.0307  0.4952
              Bcc     0.0315     4.229     1.509     1.411  0.0319  0.9995  0.0060
 
              Baa    -0.0067    -3.597    -1.283    -1.200  0.8931 -0.0028 -0.4498
    27 H(1)   Bbb    -0.0066    -3.545    -1.265    -1.183  0.4496 -0.0229  0.8929
              Bcc     0.0134     7.142     2.548     2.382  0.0127  0.9997  0.0192
 
              Baa    -0.0322    -4.320    -1.541    -1.441 -0.0621  0.0374  0.9974
    28 C(13)  Bbb    -0.0067    -0.893    -0.319    -0.298  0.0239  0.9991 -0.0359
              Bcc     0.0388     5.213     1.860     1.739  0.9978 -0.0216  0.0629
 
              Baa    -0.0067    -3.569    -1.274    -1.191 -0.0601 -0.0812  0.9949
    29 H(1)   Bbb    -0.0060    -3.211    -1.146    -1.071  0.0348  0.9959  0.0834
              Bcc     0.0127     6.780     2.419     2.262  0.9976 -0.0397  0.0571
 
              Baa    -0.0037    -0.494    -0.176    -0.165  0.4498  0.8746  0.1811
    30 C(13)  Bbb    -0.0034    -0.459    -0.164    -0.153 -0.0567 -0.1744  0.9830
              Bcc     0.0071     0.953     0.340     0.318  0.8913 -0.4524 -0.0288
 
              Baa    -0.0022    -1.193    -0.426    -0.398 -0.0271 -0.1072  0.9939
    31 H(1)   Bbb    -0.0021    -1.114    -0.398    -0.372  0.6010  0.7927  0.1019
              Bcc     0.0043     2.307     0.823     0.770  0.7988 -0.6001 -0.0430
 
              Baa    -0.0029    -1.555    -0.555    -0.519  0.4178  0.8240 -0.3827
    32 H(1)   Bbb    -0.0027    -1.455    -0.519    -0.485  0.0520  0.3989  0.9155
              Bcc     0.0056     3.009     1.074     1.004  0.9071 -0.4024  0.1238
 
              Baa    -0.0029    -1.573    -0.561    -0.525  0.4110  0.7696  0.4886
    33 H(1)   Bbb    -0.0028    -1.479    -0.528    -0.493 -0.0492 -0.5165  0.8549
              Bcc     0.0057     3.053     1.089     1.018  0.9103 -0.3753 -0.1744
 
              Baa    -0.0038    -0.507    -0.181    -0.169  0.8998  0.4169 -0.1286
    34 C(13)  Bbb    -0.0033    -0.448    -0.160    -0.149  0.1470 -0.0120  0.9891
              Bcc     0.0071     0.955     0.341     0.318 -0.4108  0.9089  0.0721
 
              Baa    -0.0030    -1.611    -0.575    -0.537  0.7225  0.3874 -0.5726
    35 H(1)   Bbb    -0.0028    -1.506    -0.537    -0.502  0.6073  0.0400  0.7934
              Bcc     0.0058     3.117     1.112     1.040 -0.3302  0.9210  0.2064
 
              Baa    -0.0029    -1.572    -0.561    -0.524  0.7431  0.3419  0.5753
    36 H(1)   Bbb    -0.0028    -1.471    -0.525    -0.491 -0.5701 -0.1267  0.8117
              Bcc     0.0057     3.043     1.086     1.015 -0.3504  0.9312 -0.1007
 
              Baa    -0.0023    -1.209    -0.431    -0.403 -0.0135 -0.0893  0.9959
    37 H(1)   Bbb    -0.0022    -1.182    -0.422    -0.394  0.8200  0.5690  0.0622
              Bcc     0.0045     2.391     0.853     0.798 -0.5722  0.8175  0.0656
 
              Baa    -0.0040    -0.535    -0.191    -0.178  0.0192 -0.2393  0.9707
    38 C(13)  Bbb    -0.0034    -0.452    -0.161    -0.151 -0.4033  0.8866  0.2266
              Bcc     0.0074     0.987     0.352     0.329  0.9149  0.3959  0.0795
 
              Baa    -0.0030    -1.608    -0.574    -0.536 -0.3052  0.8825 -0.3579
    39 H(1)   Bbb    -0.0029    -1.567    -0.559    -0.523 -0.0635  0.3562  0.9323
              Bcc     0.0060     3.175     1.133     1.059  0.9502  0.3073 -0.0527
 
              Baa    -0.0027    -1.426    -0.509    -0.476 -0.4348  0.6613  0.6113
    40 H(1)   Bbb    -0.0026    -1.389    -0.496    -0.463  0.0838 -0.6461  0.7586
              Bcc     0.0053     2.815     1.005     0.939  0.8966  0.3811  0.2255
 
              Baa    -0.0023    -1.222    -0.436    -0.408 -0.1801  0.2587  0.9490
    41 H(1)   Bbb    -0.0022    -1.178    -0.420    -0.393 -0.5046  0.8039 -0.3149
              Bcc     0.0045     2.400     0.856     0.801  0.8444  0.5356  0.0143
 
              Baa    -0.0042    -0.570    -0.203    -0.190 -0.3992  0.0704  0.9142
    42 C(13)  Bbb    -0.0034    -0.450    -0.160    -0.150  0.8110 -0.4380  0.3879
              Bcc     0.0076     1.020     0.364     0.340  0.4277  0.8962  0.1178
 
              Baa    -0.0031    -1.643    -0.586    -0.548 -0.2297  0.1236  0.9654
    43 H(1)   Bbb    -0.0030    -1.600    -0.571    -0.534  0.9061 -0.3349  0.2585
              Bcc     0.0061     3.243     1.157     1.082  0.3552  0.9341 -0.0350
 
              Baa    -0.0028    -0.375    -0.134    -0.125  0.8024 -0.5629  0.1982
    44 C(13)  Bbb    -0.0008    -0.111    -0.040    -0.037 -0.2724 -0.0499  0.9609
              Bcc     0.0036     0.487     0.174     0.162  0.5310  0.8250  0.1933
 
              Baa    -0.0019    -1.016    -0.363    -0.339 -0.2945 -0.0805  0.9523
    45 H(1)   Bbb    -0.0018    -0.987    -0.352    -0.329 -0.6958  0.7011 -0.1559
              Bcc     0.0038     2.003     0.715     0.668  0.6551  0.7085  0.2625
 
              Baa    -0.0014    -0.748    -0.267    -0.249  0.8443 -0.5061  0.1760
    46 H(1)   Bbb    -0.0013    -0.714    -0.255    -0.238 -0.2246 -0.0361  0.9738
              Bcc     0.0027     1.462     0.522     0.488  0.4865  0.8617  0.1442
 
              Baa    -0.0040    -0.538    -0.192    -0.180  0.8441  0.4004  0.3566
    47 C(13)  Bbb    -0.0035    -0.473    -0.169    -0.158 -0.3497 -0.0929  0.9322
              Bcc     0.0075     1.011     0.361     0.337 -0.4064  0.9116 -0.0616
 
              Baa    -0.0033    -1.735    -0.619    -0.579  0.4025  0.2627  0.8769
    48 H(1)   Bbb    -0.0031    -1.660    -0.592    -0.554  0.8744  0.1732 -0.4532
              Bcc     0.0064     3.395     1.211     1.132 -0.2709  0.9492 -0.1600
 
              Baa    -0.0029    -1.545    -0.551    -0.516  0.8879  0.4235 -0.1795
    49 H(1)   Bbb    -0.0026    -1.403    -0.501    -0.468  0.2122 -0.0308  0.9767
              Bcc     0.0055     2.949     1.052     0.984 -0.4081  0.9054  0.1172
 
              Baa    -0.0025    -1.344    -0.480    -0.448  0.7759  0.4423 -0.4497
    50 H(1)   Bbb    -0.0023    -1.240    -0.442    -0.414  0.3078  0.3569  0.8820
              Bcc     0.0048     2.584     0.922     0.862 -0.5506  0.8228 -0.1408
 
              Baa    -0.0050    -0.677    -0.242    -0.226  0.2982  0.7616  0.5754
    51 C(13)  Bbb    -0.0008    -0.106    -0.038    -0.035 -0.4007 -0.4472  0.7997
              Bcc     0.0058     0.784     0.280     0.261  0.8663 -0.4690  0.1718
 
              Baa    -0.0031    -1.630    -0.582    -0.544 -0.3297 -0.3871  0.8611
    52 H(1)   Bbb    -0.0029    -1.572    -0.561    -0.525  0.2026  0.8619  0.4649
              Bcc     0.0060     3.203     1.143     1.068  0.9221 -0.3277  0.2057
 
              Baa    -0.0101    -1.359    -0.485    -0.453 -0.1733 -0.5334  0.8279
    53 C(13)  Bbb     0.0021     0.279     0.100     0.093  0.5014  0.6758  0.5403
              Bcc     0.0080     1.080     0.385     0.360  0.8477 -0.5087 -0.1503
 
              Baa    -0.0024    -1.293    -0.462    -0.431  0.6213  0.7252  0.2969
    54 H(1)   Bbb    -0.0018    -0.934    -0.333    -0.312 -0.1314 -0.2771  0.9518
              Bcc     0.0042     2.228     0.795     0.743  0.7725 -0.6304 -0.0769
 
              Baa    -0.0014    -0.734    -0.262    -0.245  0.4468  0.6385 -0.6267
    55 H(1)   Bbb    -0.0011    -0.584    -0.208    -0.195  0.3949  0.4878  0.7785
              Bcc     0.0025     1.318     0.470     0.440  0.8028 -0.5953 -0.0342
 
              Baa    -0.0040    -0.532    -0.190    -0.177  0.0200  0.0290  0.9994
    56 C(13)  Bbb    -0.0035    -0.464    -0.166    -0.155 -0.4006  0.9161 -0.0185
              Bcc     0.0074     0.996     0.356     0.332  0.9161  0.3999 -0.0300
 
              Baa    -0.0029    -1.536    -0.548    -0.512 -0.3568  0.6843  0.6359
    57 H(1)   Bbb    -0.0028    -1.517    -0.541    -0.506  0.1325 -0.6368  0.7596
              Bcc     0.0057     3.053     1.089     1.018  0.9247  0.3553  0.1365
 
              Baa    -0.0031    -1.644    -0.587    -0.548 -0.3617  0.7160 -0.5971
    58 H(1)   Bbb    -0.0030    -1.606    -0.573    -0.536 -0.0812  0.6138  0.7853
              Bcc     0.0061     3.250     1.160     1.084  0.9287  0.3325 -0.1639
 
              Baa    -0.0024    -1.257    -0.448    -0.419  0.0654 -0.0280  0.9975
    59 H(1)   Bbb    -0.0023    -1.209    -0.431    -0.403 -0.5439  0.8371  0.0591
              Bcc     0.0046     2.465     0.880     0.822  0.8366  0.5464 -0.0395
 
              Baa    -0.0039    -0.524    -0.187    -0.175 -0.0324  0.0849  0.9959
    60 C(13)  Bbb    -0.0035    -0.467    -0.167    -0.156  0.9002 -0.4304  0.0660
              Bcc     0.0074     0.991     0.353     0.330  0.4342  0.8987 -0.0624
 
              Baa    -0.0024    -1.258    -0.449    -0.420 -0.0385  0.1115  0.9930
    61 H(1)   Bbb    -0.0023    -1.233    -0.440    -0.411  0.8118 -0.5759  0.0962
              Bcc     0.0047     2.490     0.889     0.831  0.5826  0.8099 -0.0684
 
              Baa    -0.0031    -1.646    -0.587    -0.549 -0.5291  0.3836  0.7569
    62 H(1)   Bbb    -0.0030    -1.602    -0.572    -0.534  0.7647 -0.1711  0.6212
              Bcc     0.0061     3.248     1.159     1.083  0.3678  0.9075 -0.2028
 
              Baa    -0.0028    -1.514    -0.540    -0.505  0.4580 -0.2843  0.8423
    63 H(1)   Bbb    -0.0028    -1.484    -0.530    -0.495  0.8021 -0.2763 -0.5294
              Bcc     0.0056     2.998     1.070     1.000  0.3832  0.9181  0.1015
 
              Baa    -0.1000     7.239     2.583     2.415 -0.7006  0.7066 -0.0996
    64 O(17)  Bbb    -0.0641     4.636     1.654     1.546  0.7013  0.7076  0.0870
              Bcc     0.1641   -11.874    -4.237    -3.961 -0.1319  0.0089  0.9912
 
              Baa    -0.0329   -17.535    -6.257    -5.849  0.7141  0.6945  0.0885
    65 H(1)   Bbb    -0.0278   -14.846    -5.298    -4.952 -0.6062  0.6766 -0.4180
              Bcc     0.0607    32.381    11.554    10.801 -0.3502  0.2449  0.9041
 
              Baa    -0.0273   -14.583    -5.203    -4.864  0.7277  0.6799  0.0901
    66 H(1)   Bbb    -0.0234   -12.477    -4.452    -4.162 -0.6775  0.6923  0.2485
              Bcc     0.0507    27.059     9.655     9.026  0.1066 -0.2419  0.9644
 
              Baa    -0.0041    -0.550    -0.196    -0.183  0.0882  0.9917  0.0932
    67 C(13)  Bbb    -0.0039    -0.529    -0.189    -0.177  0.9384 -0.1141  0.3261
              Bcc     0.0080     1.079     0.385     0.360 -0.3341 -0.0587  0.9407
 
              Baa    -0.0027    -1.423    -0.508    -0.475  0.8449 -0.4698  0.2557
    68 H(1)   Bbb    -0.0026    -1.367    -0.488    -0.456  0.4761  0.8784  0.0407
              Bcc     0.0052     2.790     0.996     0.931 -0.2437  0.0873  0.9659
 
              Baa    -0.0027    -1.418    -0.506    -0.473  0.8862  0.3394  0.3155
    69 H(1)   Bbb    -0.0026    -1.371    -0.489    -0.457 -0.3894  0.9145  0.1099
              Bcc     0.0052     2.789     0.995     0.930 -0.2512 -0.2202  0.9426
 
              Baa    -0.0033    -1.735    -0.619    -0.579  0.0193  0.9973  0.0706
    70 H(1)   Bbb    -0.0031    -1.652    -0.589    -0.551  0.8681 -0.0517  0.4936
              Bcc     0.0063     3.387     1.209     1.130 -0.4959 -0.0518  0.8668
 
              Baa    -0.0117    -0.453    -0.162    -0.151 -0.6747  0.7182  0.1701
    71 N(14)  Bbb    -0.0068    -0.261    -0.093    -0.087  0.7361  0.6719  0.0825
              Bcc     0.0185     0.713     0.255     0.238  0.0551 -0.1809  0.9820
 
              Baa    -0.0050    -2.672    -0.954    -0.891 -0.3614  0.9164  0.1720
    72 H(1)   Bbb    -0.0047    -2.490    -0.889    -0.831  0.9053  0.3890 -0.1707
              Bcc     0.0097     5.162     1.842     1.722  0.2233 -0.0940  0.9702
 
              Baa    -0.0098    -1.321    -0.471    -0.441  0.9360 -0.3167  0.1534
    73 C(13)  Bbb    -0.0062    -0.837    -0.299    -0.279  0.3064  0.9479  0.0873
              Bcc     0.0161     2.159     0.770     0.720 -0.1730 -0.0347  0.9843
 
              Baa    -0.0333    -4.462    -1.592    -1.488  0.2542  0.9609  0.1100
    74 C(13)  Bbb    -0.0155    -2.084    -0.744    -0.695  0.8847 -0.1850 -0.4280
              Bcc     0.0488     6.546     2.336     2.184  0.3909 -0.2061  0.8971
 
              Baa    -0.0189   -10.079    -3.597    -3.362  0.4823  0.8320 -0.2740
    75 H(1)   Bbb    -0.0181    -9.640    -3.440    -3.215  0.6234 -0.5458 -0.5599
              Bcc     0.0370    19.719     7.036     6.578  0.6154 -0.0992  0.7819
 
              Baa    -0.1240    -4.782    -1.707    -1.595  0.9988  0.0123  0.0475
    76 N(14)  Bbb    -0.1052    -4.059    -1.448    -1.354 -0.0162  0.9965  0.0824
              Bcc     0.2292     8.841     3.155     2.949 -0.0463 -0.0831  0.9955
 
              Baa    -0.0286    -3.837    -1.369    -1.280  0.1642  0.9851  0.0519
    77 C(13)  Bbb    -0.0187    -2.516    -0.898    -0.839  0.8627 -0.1689  0.4768
              Bcc     0.0473     6.353     2.267     2.119 -0.4784  0.0335  0.8775
 
              Baa    -0.0184    -9.839    -3.511    -3.282  0.3484  0.8677  0.3546
    78 H(1)   Bbb    -0.0179    -9.545    -3.406    -3.184  0.6281 -0.4969  0.5988
              Bcc     0.0363    19.383     6.916     6.466 -0.6958 -0.0141  0.7181
 

 ---------------------------------------------------------------------------------

 Unable to Open any file for archive entry.
 1\1\GINC-BGN1028\SP\UAPFD\Gen\C34H36Fe1N6O1(5)\BECSLEIP\14-Aug-2024\0\
 \# apfd/gen scf=maxcycle=999 geom=check\\2anz_II_Q\\0,5\Fe,0,-11.47753
 97203,-2.7013330513,-1.7669337587\N,0,-12.0413083041,-0.9932437063,-2.
 714650008\N,0,-9.8259927743,-2.7302980789,-2.914957231\N,0,-10.8290002
 457,-4.2489317487,-0.7346522549\N,0,-13.0799690729,-2.5023350731,-0.57
 5055759\C,0,-13.1826384808,-0.2818856939,-2.5055758821\C,0,-13.2313233
 88,0.8773085742,-3.367706726\C,0,-12.1033153464,0.8369543399,-4.126591
 1278\C,0,-11.3777189861,-0.3424074601,-3.7103821939\C,0,-9.4665122451,
 -1.8665834201,-3.9017590654\C,0,-8.2711914749,-2.3161471906,-4.5687600
 888\C,0,-7.8286084944,-3.4039878086,-3.8628649216\C,0,-8.8373933079,-3
 .6607291689,-2.8520271907\C,0,-9.6565092696,-4.9171545264,-0.905574115
 1\C,0,-9.5059365898,-5.9470768142,0.0911517315\C,0,-10.6185808946,-5.8
 776375679,0.8880041769\C,0,-11.4300458125,-4.8029260557,0.348152338\C,
 0,-13.4742879893,-3.4405472864,0.329517574\C,0,-14.8400910541,-3.21183
 80838,0.747053388\C,0,-15.285718304,-2.1517643192,0.0213256023\C,0,-14
 .1773770372,-1.7365833018,-0.808321634\C,0,-14.2078205436,-0.641231236
 8,-1.6500075223\H,0,-15.1050950944,-0.0416220321,-1.6652223709\C,0,-10
 .1779756881,-0.7364870909,-4.2682067094\H,0,-9.7800516491,-0.130353413
 5,-5.0676986894\C,0,-8.7390295043,-4.6677018711,-1.9108517992\H,0,-7.8
 759784844,-5.3137874784,-1.9640480583\C,0,-12.6806008652,-4.4576998726
 ,0.8296227174\H,0,-13.0912647632,-5.06063223,1.6258311093\C,0,-11.6417
 675312,1.7807299952,-5.1841876114\H,0,-12.3459192913,2.600358976,-5.30
 44999439\H,0,-11.5466798254,1.2684714251,-6.1421545313\H,0,-10.6682435
 453,2.1995614138,-4.9279037557\C,0,-14.3377168371,1.8758900559,-3.3727
 822458\H,0,-14.4828019062,2.2915276948,-2.3757406343\H,0,-15.273647578
 6,1.4101249792,-3.6833857526\H,0,-14.1195659361,2.6925904735,-4.056724
 4409\C,0,-7.5903792725,-1.6021734136,-5.6848386046\H,0,-7.6719797533,-
 0.5230239556,-5.5636474974\H,0,-8.0370054973,-1.8675568749,-6.64477679
 88\H,0,-6.5360433949,-1.869815364,-5.7120135626\C,0,-6.6415549929,-4.2
 037653015,-4.0687516775\H,0,-6.1894881442,-4.6075195869,-3.1700860664\
 C,0,-6.0822259252,-4.4717937304,-5.2443098519\H,0,-6.5121837837,-4.139
 0054367,-6.1729574911\H,0,-5.1837769891,-5.0618065599,-5.3194733902\C,
 0,-8.3143351218,-6.827310114,0.2409500433\H,0,-7.4007688238,-6.2823858
 191,0.0081841766\H,0,-8.3764747887,-7.684080062,-0.4321210931\H,0,-8.2
 48881018,-7.1971793345,1.2623475553\C,0,-10.9645883554,-6.6627716448,2
 .051681474\H,0,-11.5297518494,-6.1405010953,2.8152330611\C,0,-10.65652
 15786,-7.942078047,2.2407369473\H,0,-10.13946951,-8.5227601529,1.49700
 54087\H,0,-10.9365689657,-8.4618478199,3.1420631993\C,0,-15.5610627808
 ,-4.0338798626,1.7599211744\H,0,-15.049816344,-3.9899778515,2.72190007
 16\H,0,-15.6044717784,-5.0779715293,1.448692144\H,0,-16.577901764,-3.6
 74240743,1.8974153144\C,0,-16.6232096885,-1.4944212045,0.0276385214\H,
 0,-17.3055270973,-2.0104231115,0.6987641918\H,0,-17.0557695205,-1.4982
 227191,-0.97295916\H,0,-16.5395429736,-0.4576393842,0.3552291202\O,0,-
 10.361,-1.312,-0.366\H,0,-10.531,-0.428,-0.692\H,0,-9.856,-1.527,0.334
 \C,0,-14.7317872654,-6.527883712,-4.1877706308\H,0,-14.2529058815,-7.2
 736073975,-4.8222184759\H,0,-15.6371965314,-6.185258363,-4.6883805497\
 H,0,-15.0088049069,-6.9967022188,-3.2488968694\N,0,-13.3204080002,-4.5
 947133234,-4.9234981502\H,0,-13.5198635891,-4.6915292971,-5.905518103\
 C,0,-13.812862984,-5.3918138841,-3.9237120128\C,0,-12.5215126989,-3.66
 5661235,-4.3509903602\H,0,-11.9978670327,-2.9052374796,-4.8926034317\N
 ,0,-12.4789729392,-3.8259203154,-3.0500290571\C,0,-13.2765413169,-4.89
 67811408,-2.7695353775\H,0,-13.4105151172,-5.2360337561,-1.7630540658\
 \Version=ES64L-G16RevC.02\State=5-A\HF=-2983.377695\S2=6.151641\S2-1=0
 .\S2A=6.000611\RMSD=6.236e-09\Dipole=-1.001602,-0.1658787,-1.2216629\Q
 uadrupole=-2.9925739,-1.9286036,4.9211776,4.0037183,5.8159835,3.663361
 5\PG=C01 [X(C34H36Fe1N6O1)]\\@
 The archive entry for this job was punched.


 Children are likely to live up to what you believe of them.
 -- Lady Bird Johnson
 Job cpu time:       0 days  2 hours 51 minutes 47.6 seconds.
 Elapsed time:       0 days  0 hours  2 minutes 56.4 seconds.
 File lengths (MBytes):  RWF=    430 Int=      0 D2E=      0 Chk=    155 Scr=      1
 Normal termination of Gaussian 16 at Wed Aug 14 16:18:02 2024.
