 Entering Gaussian System, Link 0=g16
 Input=2bli16.com
 Output=2bli16.log
 Initial command:
 /sw/chem/gaussian/g16_C02/a100/g16/l1.exe "/local/becsleip_7979923/Gau-2088294.inp" -scrdir="/local/becsleip_7979923/"
 Entering Link 1 = /sw/chem/gaussian/g16_C02/a100/g16/l1.exe PID=   2088295.
  
 Copyright (c) 1988-2021, Gaussian, Inc.  All Rights Reserved.
  
 This is part of the Gaussian(R) 16 program.  It is based on
 the Gaussian(R) 09 system (copyright 2009, Gaussian, Inc.),
 the Gaussian(R) 03 system (copyright 2003, Gaussian, Inc.),
 the Gaussian(R) 98 system (copyright 1998, Gaussian, Inc.),
 the Gaussian(R) 94 system (copyright 1995, Gaussian, Inc.),
 the Gaussian 92(TM) system (copyright 1992, Gaussian, Inc.),
 the Gaussian 90(TM) system (copyright 1990, Gaussian, Inc.),
 the Gaussian 88(TM) system (copyright 1988, Gaussian, Inc.),
 the Gaussian 86(TM) system (copyright 1986, Carnegie Mellon
 University), and the Gaussian 82(TM) system (copyright 1983,
 Carnegie Mellon University). Gaussian is a federally registered
 trademark of Gaussian, Inc.
  
 This software contains proprietary and confidential information,
 including trade secrets, belonging to Gaussian, Inc.
  
 This software is provided under written license and may be
 used, copied, transmitted, or stored only in accord with that
 written license.
  
 The following legend is applicable only to US Government
 contracts under FAR:
  
                    RESTRICTED RIGHTS LEGEND
  
 Use, reproduction and disclosure by the US Government is
 subject to restrictions as set forth in subparagraphs (a)
 and (c) of the Commercial Computer Software - Restricted
 Rights clause in FAR 52.227-19.
  
 Gaussian, Inc.
 340 Quinnipiac St., Bldg. 40, Wallingford CT 06492
  
  
 ---------------------------------------------------------------
 Warning -- This program may not be used in any manner that
 competes with the business of Gaussian, Inc. or will provide
 assistance to any competitor of Gaussian, Inc.  The licensee
 of this program is prohibited from giving any competitor of
 Gaussian, Inc. access to this program.  By using this program,
 the user acknowledges that Gaussian, Inc. is engaged in the
 business of creating and licensing software in the field of
 computational chemistry and represents and warrants to the
 licensee that it is not a competitor of Gaussian, Inc. and that
 it will not use this program in any manner prohibited above.
 ---------------------------------------------------------------
  

 Cite this work as:
 Gaussian 16, Revision C.02,
 M. J. Frisch, G. W. Trucks, H. B. Schlegel, G. E. Scuseria, 
 M. A. Robb, J. R. Cheeseman, G. Scalmani, V. Barone, 
 G. A. Petersson, H. Nakatsuji, X. Li, M. Caricato, A. V. Marenich, 
 J. Bloino, B. G. Janesko, R. Gomperts, B. Mennucci, H. P. Hratchian, 
 J. V. Ortiz, A. F. Izmaylov, J. L. Sonnenberg, D. Williams-Young, 
 F. Ding, F. Lipparini, F. Egidi, J. Goings, B. Peng, A. Petrone, 
 T. Henderson, D. Ranasinghe, V. G. Zakrzewski, J. Gao, N. Rega, 
 G. Zheng, W. Liang, M. Hada, M. Ehara, K. Toyota, R. Fukuda, 
 J. Hasegawa, M. Ishida, T. Nakajima, Y. Honda, O. Kitao, H. Nakai, 
 T. Vreven, K. Throssell, J. A. Montgomery, Jr., J. E. Peralta, 
 F. Ogliaro, M. J. Bearpark, J. J. Heyd, E. N. Brothers, K. N. Kudin, 
 V. N. Staroverov, T. A. Keith, R. Kobayashi, J. Normand, 
 K. Raghavachari, A. P. Rendell, J. C. Burant, S. S. Iyengar, 
 J. Tomasi, M. Cossi, J. M. Millam, M. Klene, C. Adamo, R. Cammi, 
 J. W. Ochterski, R. L. Martin, K. Morokuma, O. Farkas, 
 J. B. Foresman, and D. J. Fox, Gaussian, Inc., Wallingford CT, 2019.
 
 ******************************************
 Gaussian 16:  ES64L-G16RevC.02  7-Dec-2021
                16-Aug-2024 
 ******************************************
 %mem=16GB
 %CPU=0-71
 SetSPE:  set environment variable "OMP_PROC_BIND" = "true"
 SetSPE:  set environment variable "OMP_PLACES" = "{0},{1},{2},{3},{4},{5},{6},{7},{8},{9},{10},{11},{12},{13},{14},{15},{16},{17},{18},{19},{20},{21},{22},{23},{24},{25},{26},{27},{28},{29},{30},{31},{32},{33},{34},{35},{36},{37},{38},{39},{40},{41},{42},{43},{44},{45},{46},{47},{48},{49},{50},{51},{52},{53},{54},{55},{56},{57},{58},{59},{60},{61},{62},{63},{64},{65},{66},{67},{68},{69},{70},{71}"
 Will use up to   72 processors via shared memory.
 %gpucpu=0,1,2,3=0,1,2,3
 Will use    4 GPUs:
 Thread  CPU   GPU
      0    0     0
      1    1     1
      2    2     2
      3    3     3
      4    4    -1
      5    5    -1
      6    6    -1
      7    7    -1
      8    8    -1
      9    9    -1
     10   10    -1
     11   11    -1
     12   12    -1
     13   13    -1
     14   14    -1
     15   15    -1
     16   16    -1
     17   17    -1
     18   18    -1
     19   19    -1
     20   20    -1
     21   21    -1
     22   22    -1
     23   23    -1
     24   24    -1
     25   25    -1
     26   26    -1
     27   27    -1
     28   28    -1
     29   29    -1
     30   30    -1
     31   31    -1
     32   32    -1
     33   33    -1
     34   34    -1
     35   35    -1
     36   36    -1
     37   37    -1
     38   38    -1
     39   39    -1
     40   40    -1
     41   41    -1
     42   42    -1
     43   43    -1
     44   44    -1
     45   45    -1
     46   46    -1
     47   47    -1
     48   48    -1
     49   49    -1
     50   50    -1
     51   51    -1
     52   52    -1
     53   53    -1
     54   54    -1
     55   55    -1
     56   56    -1
     57   57    -1
     58   58    -1
     59   59    -1
     60   60    -1
     61   61    -1
     62   62    -1
     63   63    -1
     64   64    -1
     65   65    -1
     66   66    -1
     67   67    -1
     68   68    -1
     69   69    -1
     70   70    -1
     71   71    -1
 SetGPE:  set environment variable "OMP_PROC_BIND" = "true"
 SetGPE:  set environment variable "OMP_PLACES" = "{0},{1},{2},{3},{4},{5},{6},{7},{8},{9},{10},{11},{12},{13},{14},{15},{16},{17},{18},{19},{20},{21},{22},{23},{24},{25},{26},{27},{28},{29},{30},{31},{32},{33},{34},{35},{36},{37},{38},{39},{40},{41},{42},{43},{44},{45},{46},{47},{48},{49},{50},{51},{52},{53},{54},{55},{56},{57},{58},{59},{60},{61},{62},{63},{64},{65},{66},{67},{68},{69},{70},{71}"
 %oldchk=2bli_III_Dre.chk
 %chk=2bli_III_Hn.chk
 Properties for Device   0
 Minimum vector length:                              32
 Maximum vector length:                            1024
 Number of SMPs:                                    108
 Maximum number of threads per SMP:                2048
 Number of ASync Engines:                             5
 Memory:                                           9207742464
 Properties for Device   1
 Minimum vector length:                              32
 Maximum vector length:                            1024
 Number of SMPs:                                    108
 Maximum number of threads per SMP:                2048
 Number of ASync Engines:                             5
 Memory:                                           9207742464
 Properties for Device   2
 Minimum vector length:                              32
 Maximum vector length:                            1024
 Number of SMPs:                                    108
 Maximum number of threads per SMP:                2048
 Number of ASync Engines:                             5
 Memory:                                           9207742464
 Properties for Device   3
 Minimum vector length:                              32
 Maximum vector length:                            1024
 Number of SMPs:                                    108
 Maximum number of threads per SMP:                2048
 Number of ASync Engines:                             5
 Memory:                                           9207742464
   8286968217 words of memory will be used on each GPU.
 Copying data from "2bli_III_Dre.chk" to current chk file "2bli_III_Hn.chk"
 IOpt=  2 FromEx=T IUOpen= 4 IOptOp= 5 NList=   0 IFRang= 0 IUIn= 4 IUOut= 2.
 --------------------------------------------------------------
 # apfd/def2TZVP guess=read scf=maxcycle=999 geom=check pop=nbo
 --------------------------------------------------------------
 1/29=2,38=1,172=1/1;
 2/12=2,40=1/2;
 3/5=44,7=101,11=2,14=-4,25=1,30=1,74=-44,116=-2/1,2,3;
 4/5=1/1;
 5/5=2,7=999,38=6/2;
 6/7=2,8=2,9=2,10=2,28=1,40=1/1,7;
 99/5=1,9=1/99;
 ----------
 2bli_III_H
 ----------
 Structure from the checkpoint file:  "2bli_III_Hn.chk"
 Charge =  1 Multiplicity = 6
 Z-Matrix found in chk file.
 Fe,0,35.3813125883,4.2319359876,9.9183562755
 N,0,37.3298003353,4.0652557142,9.4660935531
 N,0,35.1800946418,5.6354649824,8.5132070164
 N,0,33.6052836468,4.7784120778,10.6958260802
 N,0,35.7422197177,3.1679241152,11.5952033793
 C,0,38.284398214,3.3183420062,10.087198957
 C,0,39.5231880651,3.3316093205,9.3446015771
 C,0,39.314609874,4.1403095784,8.2713066123
 C,0,37.9500910021,4.6068264028,8.3748065859
 C,0,36.0814780318,5.9594526676,7.5419830319
 C,0,35.5150574624,6.8842813955,6.5958662594
 C,0,34.2604630913,7.1832825986,7.0563100162
 C,0,34.0782852582,6.3962786019,8.2600210682
 C,0,32.7268064574,5.6887372655,10.1811047628
 C,0,31.5619831512,5.8202208902,11.015965006
 C,0,31.7594662936,4.9841569583,12.0822953243
 C,0,33.038399727,4.3407303998,11.8539918157
 C,0,34.8665414199,2.8951045205,12.6030430731
 C,0,35.4605984729,2.0195489667,13.587524461
 C,0,36.7369933615,1.7977677228,13.1763564122
 C,0,36.8935790341,2.5185591034,11.9329580019
 C,0,38.0860257827,2.5838905485,11.2405714245
 H,0,38.9255181347,2.032187217,11.6345593376
 C,0,37.3742635447,5.4722028559,7.467275765
 H,0,37.9914119739,5.8195305895,6.652745262
 C,0,32.9304508361,6.4224094164,9.0259659205
 H,0,32.1500676436,7.106401648,8.7295763734
 C,0,33.5970621896,3.4238625842,12.7229094015
 H,0,33.0276991027,3.1514902183,13.598101807
 C,0,40.2559114331,4.5238555837,7.1813444635
 H,0,39.8569330104,4.2379716409,6.2075978513
 H,0,41.218597546,4.0362866081,7.3134785622
 H,0,40.4161958468,5.6020607072,7.1771665172
 C,0,40.7531789463,2.5946938179,9.7499153538
 H,0,40.5580310381,1.5234978714,9.808359353
 H,0,41.0927449482,2.9301019666,10.7299618251
 H,0,41.5560422442,2.7590772868,9.0353117207
 C,0,36.1897987131,7.3645448721,5.3587349343
 H,0,36.7673471751,6.5635715043,4.8993351149
 H,0,36.8707187026,8.1878492207,5.5806078607
 H,0,35.4489622087,7.7156444008,4.6433056561
 C,0,33.2623284014,8.0634045573,6.4881724264
 H,0,32.2324249506,7.7555174601,6.6273256199
 C,0,33.5142451669,9.1922618503,5.8339428118
 H,0,34.5135364499,9.5703934858,5.7073310297
 H,0,32.720597056,9.7944670018,5.4236493693
 C,0,30.38235572,6.6756180447,10.7123405406
 H,0,30.1504996673,6.6482620758,9.6485432914
 H,0,30.5726677282,7.7135764147,10.9896614821
 H,0,29.5148277036,6.3248059551,11.2675919944
 C,0,30.8980331093,4.7280668612,13.2161690543
 H,0,30.9178356612,3.7149072525,13.6012183374
 C,0,30.1131229466,5.6245169348,13.8043331692
 H,0,30.0892549012,6.6550672219,13.496080563
 H,0,29.4837150627,5.3608964478,14.6381206324
 C,0,34.7616006856,1.5307574995,14.8091268151
 H,0,33.8446340845,1.0056804976,14.541607758
 H,0,34.4968788015,2.3655639791,15.4587043662
 H,0,35.3961320833,0.8495310826,15.3706741719
 C,0,37.8095207342,0.9879341019,13.8200042436
 H,0,38.1749494677,0.2217076085,13.1361127106
 H,0,37.4379193965,0.4986927525,14.7169560562
 H,0,38.6514830413,1.6214621706,14.1000348306
 C,0,32.3175353005,0.1867265835,7.5430285002
 H,0,32.0802936999,0.2679360543,6.4825782254
 H,0,31.4300883367,0.4303344666,8.1184181331
 H,0,32.5960995602,-0.8460797379,7.7518139386
 N,0,34.6450635236,1.0766820794,7.301286495
 H,0,34.9214403442,0.4390400003,6.5727654886
 C,0,33.4177955556,1.1141481493,7.908263555
 C,0,35.4080736043,2.0448056783,7.8573437548
 H,0,36.4212812792,2.2450545999,7.5735152417
 N,0,34.7405621249,2.6956431354,8.7830762184
 C,0,33.498635712,2.1238939337,8.8238181057
 H,0,32.7519572724,2.4763919669,9.5055472954
 Recover connectivity data from disk.
 Stoichiometry    C34H34FeN6(1+,6)
 Framework group  C1[X(C34H34FeN6)]
 Deg. of freedom   219
 Full point group                 C1      NOp   1
 Largest Abelian subgroup         C1      NOp   1
 Largest concise Abelian subgroup C1      NOp   1
                         Standard orientation:                         
 ---------------------------------------------------------------------
 Center     Atomic      Atomic             Coordinates (Angstroms)
 Number     Number       Type             X           Y           Z
 ---------------------------------------------------------------------
      1         26           0       -0.117203   -0.163733   -0.210715
      2          7           0       -1.871139   -1.072388   -0.567060
      3          7           0       -0.999752    1.613792   -0.425984
      4          7           0        1.681554    0.726676   -0.381063
      5          7           0        0.788944   -1.950333   -0.457997
      6          6           0       -2.125713   -2.403707   -0.700077
      7          6           0       -3.545565   -2.659708   -0.768712
      8          6           0       -4.154157   -1.444732   -0.714743
      9          6           0       -3.095373   -0.465600   -0.612078
     10          6           0       -2.339742    1.863754   -0.477766
     11          6           0       -2.605494    3.277855   -0.446615
     12          6           0       -1.384269    3.897520   -0.453266
     13          6           0       -0.397219    2.835827   -0.448562
     14          6           0        1.932295    2.067084   -0.457134
     15          6           0        3.342522    2.328698   -0.575079
     16          6           0        3.957512    1.105505   -0.600555
     17          6           0        2.899064    0.123390   -0.470435
     18          6           0        2.128451   -2.200218   -0.474182
     19          6           0        2.393557   -3.617451   -0.573548
     20          6           0        1.180620   -4.224709   -0.659867
     21          6           0        0.193349   -3.171338   -0.583671
     22          6           0       -1.163673   -3.395431   -0.701437
     23          1           0       -1.495423   -4.415960   -0.814631
     24          6           0       -3.323671    0.894010   -0.553725
     25          1           0       -4.349123    1.227287   -0.602138
     26          6           0        0.965190    3.056426   -0.456197
     27          1           0        1.303154    4.079511   -0.517572
     28          6           0        3.120111   -1.240005   -0.462680
     29          1           0        4.141713   -1.582350   -0.521433
     30          6           0       -5.606507   -1.113590   -0.761602
     31          1           0       -5.907042   -0.565416    0.131863
     32          1           0       -6.206593   -2.017816   -0.826564
     33          1           0       -5.828650   -0.492476   -1.629418
     34          6           0       -4.149174   -4.016168   -0.894704
     35          1           0       -3.866191   -4.643127   -0.048654
     36          1           0       -3.804034   -4.503581   -1.806626
     37          1           0       -5.234238   -3.955289   -0.929343
     38          6           0       -3.959631    3.893589   -0.386566
     39          1           0       -4.621376    3.307402    0.249553
     40          1           0       -4.407259    3.948610   -1.380202
     41          1           0       -3.892056    4.902462    0.015376
     42          6           0       -1.074585    5.310796   -0.432904
     43          1           0       -0.176064    5.585821    0.107357
     44          6           0       -1.790648    6.264236   -1.019419
     45          1           0       -2.664245    6.044767   -1.607857
     46          1           0       -1.508769    7.301986   -0.952425
     47          6           0        3.962872    3.681176   -0.612240
     48          1           0        3.454009    4.357161    0.073524
     49          1           0        3.903442    4.109134   -1.614140
     50          1           0        5.010964    3.618415   -0.326684
     51          6           0        5.366105    0.791418   -0.703183
     52          1           0        5.691833   -0.087527   -0.158661
     53          6           0        6.259525    1.481912   -1.403657
     54          1           0        5.984901    2.333256   -2.001502
     55          1           0        7.299103    1.199577   -1.424043
     56          6           0        3.756826   -4.217467   -0.609683
     57          1           0        4.326804   -3.926917    0.272817
     58          1           0        4.301206   -3.878341   -1.491484
     59          1           0        3.700430   -5.302790   -0.640149
     60          6           0        0.856931   -5.672286   -0.801901
     61          1           0        0.207821   -6.002071    0.009424
     62          1           0        1.762384   -6.273767   -0.783367
     63          1           0        0.342036   -5.858557   -1.744695
     64          6           0        1.038437    0.103667    5.265198
     65          1           0        0.525956    0.851685    5.869570
     66          1           0        2.060636    0.429215    5.100551
     67          1           0        1.055960   -0.832073    5.823733
     68          7           0       -0.962829   -0.429969    3.858778
     69          1           0       -1.584943   -0.604195    4.631005
     70          6           0        0.356085   -0.074325    3.958754
     71          6           0       -1.269990   -0.503231    2.543890
     72          1           0       -2.239521   -0.762166    2.169443
     73          7           0       -0.225215   -0.216857    1.800535
     74          6           0        0.794427    0.051842    2.671781
     75          1           0        1.768714    0.316302    2.314901
 ---------------------------------------------------------------------
 Rotational constants (GHZ):           0.0922458           0.0911940           0.0595397
 Standard basis: def2TZVP (5D, 7F)
 There are  1696 symmetry adapted cartesian basis functions of A   symmetry.
 There are  1489 symmetry adapted basis functions of A   symmetry.
  1489 basis functions,  2414 primitive gaussians,  1696 cartesian basis functions
   155 alpha electrons      150 beta electrons
       nuclear repulsion energy      5544.0692537936 Hartrees.
 NAtoms=   75 NActive=   75 NUniq=   75 SFac= 1.00D+00 NAtFMM=   60 NAOKFM=T Big=T
 Integral buffers will be    131072 words long.
 Raffenetti 2 integral format.
 Two-electron integral symmetry is turned on.
 R6APFD:  NTU= -4 IXU= 1 FactS= 1.050
 Nuclear repulsion after empirical dispersion term =     5543.9393619427 Hartrees.
 One-electron integrals computed using PRISM.
   1 Symmetry operations used in ECPInt.
 ECPInt:  NShTT=  174936 NPrTT=  542361 LenC2=  136821 LenP2D=  280554.
 LDataN:  DoStor=T MaxTD1= 6 Len=  172
 Number of processors reduced to  24 by ecpmxn.
 NBasis=  1489 RedAO= T EigKep=  3.18D-06  NBF=  1489
 NBsUse=  1489 1.00D-06 EigRej= -1.00D+00 NBFU=  1489
 Initial guess from the checkpoint file:  "2bli_III_Hn.chk"
 B after Tr=    -0.000000    0.000000    0.000000
         Rot=    1.000000    0.000000    0.000000   -0.000000 Ang=   0.00 deg.
 Initial guess <Sx>= 0.0000 <Sy>= 0.0000 <Sz>= 2.5000 <S**2>= 8.7599 S= 2.5017
 Requested convergence on RMS density matrix=1.00D-08 within 999 cycles.
 Requested convergence on MAX density matrix=1.00D-06.
 Requested convergence on             energy=1.00D-06.
 No special actions if energy rises.
 SCF Done:  E(UAPFD) =  -2907.42256477     A.U. after   16 cycles
            NFock= 16  Conv=0.72D-08     -V/T= 2.0032
 <Sx>= 0.0000 <Sy>= 0.0000 <Sz>= 2.5000 <S**2>= 8.7606 S= 2.5018
 <L.S>=  0.00000000000    
 Annihilation of the first spin contaminant:
 S**2 before annihilation     8.7606,   after     8.7500

 **********************************************************************

            Population analysis using the SCF Density.

 **********************************************************************

 Orbital symmetries:
 Alpha Orbitals:
       Occupied  (A) (A) (A) (A) (A) (A) (A) (A) (A) (A) (A) (A)
                 (A) (A) (A) (A) (A) (A) (A) (A) (A) (A) (A) (A)
                 (A) (A) (A) (A) (A) (A) (A) (A) (A) (A) (A) (A)
                 (A) (A) (A) (A) (A) (A) (A) (A) (A) (A) (A) (A)
                 (A) (A) (A) (A) (A) (A) (A) (A) (A) (A) (A) (A)
                 (A) (A) (A) (A) (A) (A) (A) (A) (A) (A) (A) (A)
                 (A) (A) (A) (A) (A) (A) (A) (A) (A) (A) (A) (A)
                 (A) (A) (A) (A) (A) (A) (A) (A) (A) (A) (A) (A)
                 (A) (A) (A) (A) (A) (A) (A) (A) (A) (A) (A) (A)
                 (A) (A) (A) (A) (A) (A) (A) (A) (A) (A) (A) (A)
                 (A) (A) (A) (A) (A) (A) (A) (A) (A) (A) (A) (A)
                 (A) (A) (A) (A) (A) (A) (A) (A) (A) (A) (A) (A)
                 (A) (A) (A) (A) (A) (A) (A) (A) (A) (A) (A)
       Virtual   (A) (A) (A) (A) (A) (A) (A) (A) (A) (A) (A) (A)
                 (A) (A) (A) (A) (A) (A) (A) (A) (A) (A) (A) (A)
                 (A) (A) (A) (A) (A) (A) (A) (A) (A) (A) (A) (A)
                 (A) (A) (A) (A) (A) (A) (A) (A) (A) (A) (A) (A)
                 (A) (A) (A) (A) (A) (A) (A) (A) (A) (A) (A) (A)
                 (A) (A) (A) (A) (A) (A) (A) (A) (A) (A) (A) (A)
                 (A) (A) (A) (A) (A) (A) (A) (A) (A) (A) (A) (A)
                 (A) (A) (A) (A) (A) (A) (A) (A) (A) (A) (A) (A)
                 (A) (A) (A) (A) (A) (A) (A) (A) (A) (A) (A) (A)
                 (A) (A) (A) (A) (A) (A) (A) (A) (A) (A) (A) (A)
                 (A) (A) (A) (A) (A) (A) (A) (A) (A) (A) (A) (A)
                 (A) (A) (A) (A) (A) (A) (A) (A) (A) (A) (A) (A)
                 (A) (A) (A) (A) (A) (A) (A) (A) (A) (A) (A) (A)
                 (A) (A) (A) (A) (A) (A) (A) (A) (A) (A) (A) (A)
                 (A) (A) (A) (A) (A) (A) (A) (A) (A) (A) (A) (A)
                 (A) (A) (A) (A) (A) (A) (A) (A) (A) (A) (A) (A)
                 (A) (A) (A) (A) (A) (A) (A) (A) (A) (A) (A) (A)
                 (A) (A) (A) (A) (A) (A) (A) (A) (A) (A) (A) (A)
                 (A) (A) (A) (A) (A) (A) (A) (A) (A) (A) (A) (A)
                 (A) (A) (A) (A) (A) (A) (A) (A) (A) (A) (A) (A)
                 (A) (A) (A) (A) (A) (A) (A) (A) (A) (A) (A) (A)
                 (A) (A) (A) (A) (A) (A) (A) (A) (A) (A) (A) (A)
                 (A) (A) (A) (A) (A) (A) (A) (A) (A) (A) (A) (A)
                 (A) (A) (A) (A) (A) (A) (A) (A) (A) (A) (A) (A)
                 (A) (A) (A) (A) (A) (A) (A) (A) (A) (A) (A) (A)
                 (A) (A) (A) (A) (A) (A) (A) (A) (A) (A) (A) (A)
                 (A) (A) (A) (A) (A) (A) (A) (A) (A) (A) (A) (A)
                 (A) (A) (A) (A) (A) (A) (A) (A) (A) (A) (A) (A)
                 (A) (A) (A) (A) (A) (A) (A) (A) (A) (A) (A) (A)
                 (A) (A) (A) (A) (A) (A) (A) (A) (A) (A) (A) (A)
                 (A) (A) (A) (A) (A) (A) (A) (A) (A) (A) (A) (A)
                 (A) (A) (A) (A) (A) (A) (A) (A) (A) (A) (A) (A)
                 (A) (A) (A) (A) (A) (A) (A) (A) (A) (A) (A) (A)
                 (A) (A) (A) (A) (A) (A) (A) (A) (A) (A) (A) (A)
                 (A) (A) (A) (A) (A) (A) (A) (A) (A) (A) (A) (A)
                 (A) (A) (A) (A) (A) (A) (A) (A) (A) (A) (A) (A)
                 (A) (A) (A) (A) (A) (A) (A) (A) (A) (A) (A) (A)
                 (A) (A) (A) (A) (A) (A) (A) (A) (A) (A) (A) (A)
                 (A) (A) (A) (A) (A) (A) (A) (A) (A) (A) (A) (A)
                 (A) (A) (A) (A) (A) (A) (A) (A) (A) (A) (A) (A)
                 (A) (A) (A) (A) (A) (A) (A) (A) (A) (A) (A) (A)
                 (A) (A) (A) (A) (A) (A) (A) (A) (A) (A) (A) (A)
                 (A) (A) (A) (A) (A) (A) (A) (A) (A) (A) (A) (A)
                 (A) (A) (A) (A) (A) (A) (A) (A) (A) (A) (A) (A)
                 (A) (A) (A) (A) (A) (A) (A) (A) (A) (A) (A) (A)
                 (A) (A) (A) (A) (A) (A) (A) (A) (A) (A) (A) (A)
                 (A) (A) (A) (A) (A) (A) (A) (A) (A) (A) (A) (A)
                 (A) (A) (A) (A) (A) (A) (A) (A) (A) (A) (A) (A)
                 (A) (A) (A) (A) (A) (A) (A) (A) (A) (A) (A) (A)
                 (A) (A) (A) (A) (A) (A) (A) (A) (A) (A) (A) (A)
                 (A) (A) (A) (A) (A) (A) (A) (A) (A) (A) (A) (A)
                 (A) (A) (A) (A) (A) (A) (A) (A) (A) (A) (A) (A)
                 (A) (A) (A) (A) (A) (A) (A) (A) (A) (A) (A) (A)
                 (A) (A) (A) (A) (A) (A) (A) (A) (A) (A) (A) (A)
                 (A) (A) (A) (A) (A) (A) (A) (A) (A) (A) (A) (A)
                 (A) (A) (A) (A) (A) (A) (A) (A) (A) (A) (A) (A)
                 (A) (A) (A) (A) (A) (A) (A) (A) (A) (A) (A) (A)
                 (A) (A) (A) (A) (A) (A) (A) (A) (A) (A) (A) (A)
                 (A) (A) (A) (A) (A) (A) (A) (A) (A) (A) (A) (A)
                 (A) (A) (A) (A) (A) (A) (A) (A) (A) (A) (A) (A)
                 (A) (A) (A) (A) (A) (A) (A) (A) (A) (A) (A) (A)
                 (A) (A) (A) (A) (A) (A) (A) (A) (A) (A) (A) (A)
                 (A) (A) (A) (A) (A) (A) (A) (A) (A) (A) (A) (A)
                 (A) (A) (A) (A) (A) (A) (A) (A) (A) (A) (A) (A)
                 (A) (A) (A) (A) (A) (A) (A) (A) (A) (A) (A) (A)
                 (A) (A) (A) (A) (A) (A) (A) (A) (A) (A) (A) (A)
                 (A) (A) (A) (A) (A) (A) (A) (A) (A) (A) (A) (A)
                 (A) (A) (A) (A) (A) (A) (A) (A) (A) (A) (A) (A)
                 (A) (A) (A) (A) (A) (A) (A) (A) (A) (A) (A) (A)
                 (A) (A) (A) (A) (A) (A) (A) (A) (A) (A) (A) (A)
                 (A) (A) (A) (A) (A) (A) (A) (A) (A) (A) (A) (A)
                 (A) (A) (A) (A) (A) (A) (A) (A) (A) (A) (A) (A)
                 (A) (A) (A) (A) (A) (A) (A) (A) (A) (A) (A) (A)
                 (A) (A) (A) (A) (A) (A) (A) (A) (A) (A) (A) (A)
                 (A) (A) (A) (A) (A) (A) (A) (A) (A) (A) (A) (A)
                 (A) (A) (A) (A) (A) (A) (A) (A) (A) (A) (A) (A)
                 (A) (A) (A) (A) (A) (A) (A) (A) (A) (A) (A) (A)
                 (A) (A) (A) (A) (A) (A) (A) (A) (A) (A) (A) (A)
                 (A) (A) (A) (A) (A) (A) (A) (A) (A) (A) (A) (A)
                 (A) (A) (A) (A) (A) (A) (A) (A) (A) (A) (A) (A)
                 (A) (A) (A) (A) (A) (A) (A) (A) (A) (A) (A) (A)
                 (A) (A) (A) (A) (A) (A) (A) (A) (A) (A) (A) (A)
                 (A) (A) (A) (A) (A) (A) (A) (A) (A) (A) (A) (A)
                 (A) (A) (A) (A) (A) (A) (A) (A) (A) (A) (A) (A)
                 (A) (A) (A) (A) (A) (A) (A) (A) (A) (A) (A) (A)
                 (A) (A) (A) (A) (A) (A) (A) (A) (A) (A) (A) (A)
                 (A) (A) (A) (A) (A) (A) (A) (A) (A) (A) (A) (A)
                 (A) (A) (A) (A) (A) (A) (A) (A) (A) (A) (A) (A)
                 (A) (A) (A) (A) (A) (A) (A) (A) (A) (A) (A) (A)
                 (A) (A) (A) (A) (A) (A) (A) (A) (A) (A) (A) (A)
                 (A) (A) (A) (A) (A) (A) (A) (A) (A) (A) (A) (A)
                 (A) (A) (A) (A) (A) (A) (A) (A) (A) (A) (A) (A)
                 (A) (A) (A) (A) (A) (A) (A) (A) (A) (A) (A) (A)
                 (A) (A) (A) (A) (A) (A) (A) (A) (A) (A) (A) (A)
                 (A) (A) (A) (A) (A) (A) (A) (A) (A) (A) (A) (A)
                 (A) (A) (A) (A) (A) (A) (A) (A) (A) (A) (A) (A)
                 (A) (A) (A) (A) (A) (A) (A) (A) (A) (A) (A) (A)
                 (A) (A) (A) (A) (A) (A) (A) (A) (A) (A) (A) (A)
                 (A) (A) (A) (A) (A) (A) (A) (A) (A) (A) (A) (A)
                 (A) (A) (A) (A) (A) (A) (A) (A) (A) (A) (A) (A)
                 (A) (A) (A) (A) (A) (A) (A) (A) (A) (A) (A) (A)
                 (A) (A) (A) (A) (A) (A) (A) (A) (A) (A) (A) (A)
                 (A) (A) (A) (A) (A) (A) (A) (A) (A) (A) (A) (A)
                 (A) (A) (A) (A) (A) (A) (A) (A) (A) (A) (A) (A)
                 (A) (A) (A) (A) (A) (A) (A) (A) (A) (A) (A) (A)
                 (A) (A) (A) (A) (A) (A) (A) (A) (A) (A) (A) (A)
                 (A) (A) (A) (A) (A) (A) (A) (A) (A) (A) (A) (A)
                 (A) (A) (A) (A) (A) (A) (A) (A) (A) (A) (A) (A)
                 (A) (A) (A) (A) (A) (A) (A) (A) (A) (A) (A) (A)
                 (A) (A) (A) (A) (A) (A) (A) (A) (A) (A) (A) (A)
                 (A) (A) (A) (A) (A) (A) (A) (A) (A) (A) (A) (A)
                 (A) (A)
 Beta  Orbitals:
       Occupied  (A) (A) (A) (A) (A) (A) (A) (A) (A) (A) (A) (A)
                 (A) (A) (A) (A) (A) (A) (A) (A) (A) (A) (A) (A)
                 (A) (A) (A) (A) (A) (A) (A) (A) (A) (A) (A) (A)
                 (A) (A) (A) (A) (A) (A) (A) (A) (A) (A) (A) (A)
                 (A) (A) (A) (A) (A) (A) (A) (A) (A) (A) (A) (A)
                 (A) (A) (A) (A) (A) (A) (A) (A) (A) (A) (A) (A)
                 (A) (A) (A) (A) (A) (A) (A) (A) (A) (A) (A) (A)
                 (A) (A) (A) (A) (A) (A) (A) (A) (A) (A) (A) (A)
                 (A) (A) (A) (A) (A) (A) (A) (A) (A) (A) (A) (A)
                 (A) (A) (A) (A) (A) (A) (A) (A) (A) (A) (A) (A)
                 (A) (A) (A) (A) (A) (A) (A) (A) (A) (A) (A) (A)
                 (A) (A) (A) (A) (A) (A) (A) (A) (A) (A) (A) (A)
                 (A) (A) (A) (A) (A) (A)
       Virtual   (A) (A) (A) (A) (A) (A) (A) (A) (A) (A) (A) (A)
                 (A) (A) (A) (A) (A) (A) (A) (A) (A) (A) (A) (A)
                 (A) (A) (A) (A) (A) (A) (A) (A) (A) (A) (A) (A)
                 (A) (A) (A) (A) (A) (A) (A) (A) (A) (A) (A) (A)
                 (A) (A) (A) (A) (A) (A) (A) (A) (A) (A) (A) (A)
                 (A) (A) (A) (A) (A) (A) (A) (A) (A) (A) (A) (A)
                 (A) (A) (A) (A) (A) (A) (A) (A) (A) (A) (A) (A)
                 (A) (A) (A) (A) (A) (A) (A) (A) (A) (A) (A) (A)
                 (A) (A) (A) (A) (A) (A) (A) (A) (A) (A) (A) (A)
                 (A) (A) (A) (A) (A) (A) (A) (A) (A) (A) (A) (A)
                 (A) (A) (A) (A) (A) (A) (A) (A) (A) (A) (A) (A)
                 (A) (A) (A) (A) (A) (A) (A) (A) (A) (A) (A) (A)
                 (A) (A) (A) (A) (A) (A) (A) (A) (A) (A) (A) (A)
                 (A) (A) (A) (A) (A) (A) (A) (A) (A) (A) (A) (A)
                 (A) (A) (A) (A) (A) (A) (A) (A) (A) (A) (A) (A)
                 (A) (A) (A) (A) (A) (A) (A) (A) (A) (A) (A) (A)
                 (A) (A) (A) (A) (A) (A) (A) (A) (A) (A) (A) (A)
                 (A) (A) (A) (A) (A) (A) (A) (A) (A) (A) (A) (A)
                 (A) (A) (A) (A) (A) (A) (A) (A) (A) (A) (A) (A)
                 (A) (A) (A) (A) (A) (A) (A) (A) (A) (A) (A) (A)
                 (A) (A) (A) (A) (A) (A) (A) (A) (A) (A) (A) (A)
                 (A) (A) (A) (A) (A) (A) (A) (A) (A) (A) (A) (A)
                 (A) (A) (A) (A) (A) (A) (A) (A) (A) (A) (A) (A)
                 (A) (A) (A) (A) (A) (A) (A) (A) (A) (A) (A) (A)
                 (A) (A) (A) (A) (A) (A) (A) (A) (A) (A) (A) (A)
                 (A) (A) (A) (A) (A) (A) (A) (A) (A) (A) (A) (A)
                 (A) (A) (A) (A) (A) (A) (A) (A) (A) (A) (A) (A)
                 (A) (A) (A) (A) (A) (A) (A) (A) (A) (A) (A) (A)
                 (A) (A) (A) (A) (A) (A) (A) (A) (A) (A) (A) (A)
                 (A) (A) (A) (A) (A) (A) (A) (A) (A) (A) (A) (A)
                 (A) (A) (A) (A) (A) (A) (A) (A) (A) (A) (A) (A)
                 (A) (A) (A) (A) (A) (A) (A) (A) (A) (A) (A) (A)
                 (A) (A) (A) (A) (A) (A) (A) (A) (A) (A) (A) (A)
                 (A) (A) (A) (A) (A) (A) (A) (A) (A) (A) (A) (A)
                 (A) (A) (A) (A) (A) (A) (A) (A) (A) (A) (A) (A)
                 (A) (A) (A) (A) (A) (A) (A) (A) (A) (A) (A) (A)
                 (A) (A) (A) (A) (A) (A) (A) (A) (A) (A) (A) (A)
                 (A) (A) (A) (A) (A) (A) (A) (A) (A) (A) (A) (A)
                 (A) (A) (A) (A) (A) (A) (A) (A) (A) (A) (A) (A)
                 (A) (A) (A) (A) (A) (A) (A) (A) (A) (A) (A) (A)
                 (A) (A) (A) (A) (A) (A) (A) (A) (A) (A) (A) (A)
                 (A) (A) (A) (A) (A) (A) (A) (A) (A) (A) (A) (A)
                 (A) (A) (A) (A) (A) (A) (A) (A) (A) (A) (A) (A)
                 (A) (A) (A) (A) (A) (A) (A) (A) (A) (A) (A) (A)
                 (A) (A) (A) (A) (A) (A) (A) (A) (A) (A) (A) (A)
                 (A) (A) (A) (A) (A) (A) (A) (A) (A) (A) (A) (A)
                 (A) (A) (A) (A) (A) (A) (A) (A) (A) (A) (A) (A)
                 (A) (A) (A) (A) (A) (A) (A) (A) (A) (A) (A) (A)
                 (A) (A) (A) (A) (A) (A) (A) (A) (A) (A) (A) (A)
                 (A) (A) (A) (A) (A) (A) (A) (A) (A) (A) (A) (A)
                 (A) (A) (A) (A) (A) (A) (A) (A) (A) (A) (A) (A)
                 (A) (A) (A) (A) (A) (A) (A) (A) (A) (A) (A) (A)
                 (A) (A) (A) (A) (A) (A) (A) (A) (A) (A) (A) (A)
                 (A) (A) (A) (A) (A) (A) (A) (A) (A) (A) (A) (A)
                 (A) (A) (A) (A) (A) (A) (A) (A) (A) (A) (A) (A)
                 (A) (A) (A) (A) (A) (A) (A) (A) (A) (A) (A) (A)
                 (A) (A) (A) (A) (A) (A) (A) (A) (A) (A) (A) (A)
                 (A) (A) (A) (A) (A) (A) (A) (A) (A) (A) (A) (A)
                 (A) (A) (A) (A) (A) (A) (A) (A) (A) (A) (A) (A)
                 (A) (A) (A) (A) (A) (A) (A) (A) (A) (A) (A) (A)
                 (A) (A) (A) (A) (A) (A) (A) (A) (A) (A) (A) (A)
                 (A) (A) (A) (A) (A) (A) (A) (A) (A) (A) (A) (A)
                 (A) (A) (A) (A) (A) (A) (A) (A) (A) (A) (A) (A)
                 (A) (A) (A) (A) (A) (A) (A) (A) (A) (A) (A) (A)
                 (A) (A) (A) (A) (A) (A) (A) (A) (A) (A) (A) (A)
                 (A) (A) (A) (A) (A) (A) (A) (A) (A) (A) (A) (A)
                 (A) (A) (A) (A) (A) (A) (A) (A) (A) (A) (A) (A)
                 (A) (A) (A) (A) (A) (A) (A) (A) (A) (A) (A) (A)
                 (A) (A) (A) (A) (A) (A) (A) (A) (A) (A) (A) (A)
                 (A) (A) (A) (A) (A) (A) (A) (A) (A) (A) (A) (A)
                 (A) (A) (A) (A) (A) (A) (A) (A) (A) (A) (A) (A)
                 (A) (A) (A) (A) (A) (A) (A) (A) (A) (A) (A) (A)
                 (A) (A) (A) (A) (A) (A) (A) (A) (A) (A) (A) (A)
                 (A) (A) (A) (A) (A) (A) (A) (A) (A) (A) (A) (A)
                 (A) (A) (A) (A) (A) (A) (A) (A) (A) (A) (A) (A)
                 (A) (A) (A) (A) (A) (A) (A) (A) (A) (A) (A) (A)
                 (A) (A) (A) (A) (A) (A) (A) (A) (A) (A) (A) (A)
                 (A) (A) (A) (A) (A) (A) (A) (A) (A) (A) (A) (A)
                 (A) (A) (A) (A) (A) (A) (A) (A) (A) (A) (A) (A)
                 (A) (A) (A) (A) (A) (A) (A) (A) (A) (A) (A) (A)
                 (A) (A) (A) (A) (A) (A) (A) (A) (A) (A) (A) (A)
                 (A) (A) (A) (A) (A) (A) (A) (A) (A) (A) (A) (A)
                 (A) (A) (A) (A) (A) (A) (A) (A) (A) (A) (A) (A)
                 (A) (A) (A) (A) (A) (A) (A) (A) (A) (A) (A) (A)
                 (A) (A) (A) (A) (A) (A) (A) (A) (A) (A) (A) (A)
                 (A) (A) (A) (A) (A) (A) (A) (A) (A) (A) (A) (A)
                 (A) (A) (A) (A) (A) (A) (A) (A) (A) (A) (A) (A)
                 (A) (A) (A) (A) (A) (A) (A) (A) (A) (A) (A) (A)
                 (A) (A) (A) (A) (A) (A) (A) (A) (A) (A) (A) (A)
                 (A) (A) (A) (A) (A) (A) (A) (A) (A) (A) (A) (A)
                 (A) (A) (A) (A) (A) (A) (A) (A) (A) (A) (A) (A)
                 (A) (A) (A) (A) (A) (A) (A) (A) (A) (A) (A) (A)
                 (A) (A) (A) (A) (A) (A) (A) (A) (A) (A) (A) (A)
                 (A) (A) (A) (A) (A) (A) (A) (A) (A) (A) (A) (A)
                 (A) (A) (A) (A) (A) (A) (A) (A) (A) (A) (A) (A)
                 (A) (A) (A) (A) (A) (A) (A) (A) (A) (A) (A) (A)
                 (A) (A) (A) (A) (A) (A) (A) (A) (A) (A) (A) (A)
                 (A) (A) (A) (A) (A) (A) (A) (A) (A) (A) (A) (A)
                 (A) (A) (A) (A) (A) (A) (A) (A) (A) (A) (A) (A)
                 (A) (A) (A) (A) (A) (A) (A) (A) (A) (A) (A) (A)
                 (A) (A) (A) (A) (A) (A) (A) (A) (A) (A) (A) (A)
                 (A) (A) (A) (A) (A) (A) (A) (A) (A) (A) (A) (A)
                 (A) (A) (A) (A) (A) (A) (A) (A) (A) (A) (A) (A)
                 (A) (A) (A) (A) (A) (A) (A) (A) (A) (A) (A) (A)
                 (A) (A) (A) (A) (A) (A) (A) (A) (A) (A) (A) (A)
                 (A) (A) (A) (A) (A) (A) (A) (A) (A) (A) (A) (A)
                 (A) (A) (A) (A) (A) (A) (A) (A) (A) (A) (A) (A)
                 (A) (A) (A) (A) (A) (A) (A) (A) (A) (A) (A) (A)
                 (A) (A) (A) (A) (A) (A) (A) (A) (A) (A) (A) (A)
                 (A) (A) (A) (A) (A) (A) (A) (A) (A) (A) (A) (A)
                 (A) (A) (A) (A) (A) (A) (A) (A) (A) (A) (A) (A)
                 (A) (A) (A) (A) (A) (A) (A)
 The electronic state is 6-A.
 Alpha  occ. eigenvalues -- -256.43369 -30.34160 -26.17214 -26.17091 -26.17035
 Alpha  occ. eigenvalues --  -14.53744 -14.49550 -14.45929 -14.45924 -14.45851
 Alpha  occ. eigenvalues --  -14.45605 -10.38466 -10.35511 -10.33223 -10.33140
 Alpha  occ. eigenvalues --  -10.33083 -10.33044 -10.33043 -10.33029 -10.32991
 Alpha  occ. eigenvalues --  -10.32891 -10.32839 -10.30733 -10.30259 -10.30209
 Alpha  occ. eigenvalues --  -10.30169 -10.30079 -10.29990 -10.29940 -10.29910
 Alpha  occ. eigenvalues --  -10.29903 -10.29825 -10.29803 -10.29774 -10.29748
 Alpha  occ. eigenvalues --  -10.29033 -10.29006 -10.28347 -10.28261 -10.27996
 Alpha  occ. eigenvalues --  -10.27972 -10.27966 -10.27880 -10.27734 -10.27718
 Alpha  occ. eigenvalues --   -3.79275  -2.55920  -2.55851  -2.55718  -1.17718
 Alpha  occ. eigenvalues --   -1.09446  -1.08487  -1.08306  -1.07387  -1.03677
 Alpha  occ. eigenvalues --   -0.93936  -0.92752  -0.92452  -0.91972  -0.91562
 Alpha  occ. eigenvalues --   -0.91490  -0.91124  -0.91086  -0.87140  -0.85938
 Alpha  occ. eigenvalues --   -0.85660  -0.84703  -0.83268  -0.82996  -0.81618
 Alpha  occ. eigenvalues --   -0.80687  -0.79059  -0.78796  -0.78578  -0.77018
 Alpha  occ. eigenvalues --   -0.75531  -0.75462  -0.73361  -0.71189  -0.70545
 Alpha  occ. eigenvalues --   -0.69389  -0.68714  -0.67903  -0.65603  -0.64971
 Alpha  occ. eigenvalues --   -0.64425  -0.64180  -0.62587  -0.62435  -0.62205
 Alpha  occ. eigenvalues --   -0.61870  -0.60702  -0.59567  -0.59083  -0.58948
 Alpha  occ. eigenvalues --   -0.58430  -0.57065  -0.56982  -0.56493  -0.56418
 Alpha  occ. eigenvalues --   -0.55757  -0.55744  -0.55319  -0.55015  -0.54455
 Alpha  occ. eigenvalues --   -0.54150  -0.53923  -0.53806  -0.53588  -0.53339
 Alpha  occ. eigenvalues --   -0.53245  -0.52720  -0.52701  -0.52544  -0.52182
 Alpha  occ. eigenvalues --   -0.51878  -0.51098  -0.50838  -0.50758  -0.50528
 Alpha  occ. eigenvalues --   -0.50424  -0.50083  -0.50047  -0.49712  -0.49540
 Alpha  occ. eigenvalues --   -0.49344  -0.49124  -0.48642  -0.48373  -0.47992
 Alpha  occ. eigenvalues --   -0.47446  -0.47281  -0.46788  -0.46290  -0.45754
 Alpha  occ. eigenvalues --   -0.45279  -0.44309  -0.44006  -0.43763  -0.43326
 Alpha  occ. eigenvalues --   -0.42954  -0.42373  -0.42075  -0.40180  -0.39808
 Alpha  occ. eigenvalues --   -0.38021  -0.37918  -0.35870  -0.34694  -0.34176
 Alpha  occ. eigenvalues --   -0.33698  -0.33195  -0.32821  -0.30364  -0.29241
 Alpha virt. eigenvalues --   -0.18308  -0.18243  -0.12473  -0.10897  -0.09322
 Alpha virt. eigenvalues --   -0.08104  -0.06977  -0.06869  -0.06112  -0.05413
 Alpha virt. eigenvalues --   -0.04347  -0.03740  -0.03193  -0.02886  -0.02793
 Alpha virt. eigenvalues --   -0.02701  -0.02570  -0.01616  -0.00998  -0.00792
 Alpha virt. eigenvalues --   -0.00294  -0.00022   0.00062   0.00435   0.01170
 Alpha virt. eigenvalues --    0.01368   0.01647   0.02089   0.02506   0.02678
 Alpha virt. eigenvalues --    0.02715   0.03062   0.03182   0.03221   0.03427
 Alpha virt. eigenvalues --    0.03621   0.04007   0.04125   0.04242   0.04330
 Alpha virt. eigenvalues --    0.04673   0.04994   0.05231   0.05264   0.05576
 Alpha virt. eigenvalues --    0.05731   0.06407   0.06475   0.06782   0.07059
 Alpha virt. eigenvalues --    0.07092   0.07317   0.07490   0.07611   0.07723
 Alpha virt. eigenvalues --    0.08044   0.08215   0.08377   0.08571   0.08997
 Alpha virt. eigenvalues --    0.09317   0.09384   0.09650   0.09679   0.10511
 Alpha virt. eigenvalues --    0.10745   0.11066   0.11115   0.11312   0.11456
 Alpha virt. eigenvalues --    0.11752   0.12330   0.12475   0.12682   0.13046
 Alpha virt. eigenvalues --    0.13206   0.13459   0.13609   0.13951   0.14328
 Alpha virt. eigenvalues --    0.14932   0.15083   0.15569   0.15731   0.16017
 Alpha virt. eigenvalues --    0.16319   0.16562   0.16811   0.17069   0.17176
 Alpha virt. eigenvalues --    0.17422   0.17578   0.17627   0.18028   0.18207
 Alpha virt. eigenvalues --    0.18739   0.18850   0.19110   0.19343   0.19604
 Alpha virt. eigenvalues --    0.20305   0.20448   0.20708   0.21125   0.21272
 Alpha virt. eigenvalues --    0.21422   0.21620   0.21885   0.21981   0.22361
 Alpha virt. eigenvalues --    0.22612   0.22709   0.23204   0.23635   0.23730
 Alpha virt. eigenvalues --    0.23792   0.24144   0.24398   0.24919   0.25216
 Alpha virt. eigenvalues --    0.25531   0.25622   0.26084   0.26306   0.26571
 Alpha virt. eigenvalues --    0.26826   0.26953   0.27261   0.27612   0.28226
 Alpha virt. eigenvalues --    0.28389   0.28618   0.29035   0.29143   0.29394
 Alpha virt. eigenvalues --    0.29437   0.29792   0.29963   0.30161   0.30224
 Alpha virt. eigenvalues --    0.30572   0.30986   0.31353   0.31416   0.31657
 Alpha virt. eigenvalues --    0.31947   0.32036   0.32398   0.32451   0.32824
 Alpha virt. eigenvalues --    0.32948   0.32992   0.33372   0.34114   0.34148
 Alpha virt. eigenvalues --    0.34352   0.34585   0.34659   0.35155   0.35459
 Alpha virt. eigenvalues --    0.35724   0.35849   0.35960   0.36247   0.36685
 Alpha virt. eigenvalues --    0.36691   0.36928   0.37392   0.37653   0.37804
 Alpha virt. eigenvalues --    0.37890   0.38147   0.38260   0.38317   0.38583
 Alpha virt. eigenvalues --    0.38749   0.38898   0.39388   0.39437   0.39651
 Alpha virt. eigenvalues --    0.40047   0.40431   0.40564   0.40737   0.41047
 Alpha virt. eigenvalues --    0.41163   0.41396   0.41583   0.41815   0.42007
 Alpha virt. eigenvalues --    0.42091   0.42321   0.42635   0.42928   0.43082
 Alpha virt. eigenvalues --    0.43300   0.43376   0.43672   0.43850   0.44089
 Alpha virt. eigenvalues --    0.44304   0.44521   0.44914   0.45201   0.45598
 Alpha virt. eigenvalues --    0.45758   0.46064   0.46327   0.46444   0.46598
 Alpha virt. eigenvalues --    0.46959   0.47224   0.47341   0.48074   0.48354
 Alpha virt. eigenvalues --    0.48467   0.48613   0.48853   0.49217   0.49729
 Alpha virt. eigenvalues --    0.49938   0.50405   0.50577   0.50900   0.51197
 Alpha virt. eigenvalues --    0.51366   0.51718   0.52233   0.52591   0.52726
 Alpha virt. eigenvalues --    0.53267   0.53416   0.53856   0.54136   0.54622
 Alpha virt. eigenvalues --    0.54748   0.54846   0.55204   0.55413   0.55742
 Alpha virt. eigenvalues --    0.55904   0.56295   0.56484   0.57088   0.57251
 Alpha virt. eigenvalues --    0.57328   0.57674   0.57837   0.58189   0.58890
 Alpha virt. eigenvalues --    0.59144   0.59410   0.59858   0.59981   0.60222
 Alpha virt. eigenvalues --    0.60478   0.60923   0.61201   0.61870   0.62165
 Alpha virt. eigenvalues --    0.62279   0.62422   0.62855   0.63144   0.63269
 Alpha virt. eigenvalues --    0.63469   0.63978   0.64350   0.64521   0.65081
 Alpha virt. eigenvalues --    0.65676   0.65854   0.66311   0.66759   0.67004
 Alpha virt. eigenvalues --    0.67485   0.67807   0.68260   0.68376   0.68736
 Alpha virt. eigenvalues --    0.68988   0.69158   0.69601   0.69757   0.70277
 Alpha virt. eigenvalues --    0.70653   0.71093   0.71595   0.71728   0.72028
 Alpha virt. eigenvalues --    0.72487   0.72783   0.73086   0.73805   0.74072
 Alpha virt. eigenvalues --    0.74207   0.74824   0.75139   0.75584   0.76094
 Alpha virt. eigenvalues --    0.76510   0.76555   0.76924   0.77336   0.77864
 Alpha virt. eigenvalues --    0.78137   0.78603   0.78924   0.79019   0.79932
 Alpha virt. eigenvalues --    0.80556   0.80739   0.80837   0.81449   0.81892
 Alpha virt. eigenvalues --    0.82128   0.82505   0.83222   0.83249   0.84004
 Alpha virt. eigenvalues --    0.84201   0.84982   0.85040   0.85368   0.85728
 Alpha virt. eigenvalues --    0.86083   0.86263   0.86860   0.87144   0.87523
 Alpha virt. eigenvalues --    0.87896   0.88472   0.88528   0.88931   0.89127
 Alpha virt. eigenvalues --    0.89551   0.89779   0.90088   0.90838   0.91129
 Alpha virt. eigenvalues --    0.91511   0.91762   0.91802   0.92210   0.92465
 Alpha virt. eigenvalues --    0.92891   0.93389   0.93481   0.93692   0.94132
 Alpha virt. eigenvalues --    0.94517   0.94680   0.94981   0.95366   0.95536
 Alpha virt. eigenvalues --    0.95935   0.96139   0.97105   0.97312   0.97421
 Alpha virt. eigenvalues --    0.98057   0.98443   0.98609   0.99051   1.00082
 Alpha virt. eigenvalues --    1.00561   1.00949   1.01483   1.01658   1.02631
 Alpha virt. eigenvalues --    1.02727   1.03348   1.03553   1.04095   1.04665
 Alpha virt. eigenvalues --    1.04966   1.05309   1.06149   1.06495   1.07053
 Alpha virt. eigenvalues --    1.07403   1.08011   1.08351   1.08403   1.08948
 Alpha virt. eigenvalues --    1.09166   1.09642   1.09932   1.10142   1.10409
 Alpha virt. eigenvalues --    1.10870   1.11251   1.11487   1.11829   1.12362
 Alpha virt. eigenvalues --    1.12936   1.13234   1.13527   1.14392   1.14861
 Alpha virt. eigenvalues --    1.15646   1.16019   1.16180   1.16745   1.17145
 Alpha virt. eigenvalues --    1.17634   1.17719   1.17978   1.18417   1.18648
 Alpha virt. eigenvalues --    1.18881   1.19287   1.19745   1.20050   1.20400
 Alpha virt. eigenvalues --    1.20935   1.21360   1.21677   1.22587   1.22722
 Alpha virt. eigenvalues --    1.23508   1.24409   1.24665   1.25144   1.25704
 Alpha virt. eigenvalues --    1.25905   1.26506   1.27100   1.27363   1.27825
 Alpha virt. eigenvalues --    1.28596   1.29579   1.30291   1.30672   1.30938
 Alpha virt. eigenvalues --    1.31894   1.32621   1.33221   1.33507   1.33695
 Alpha virt. eigenvalues --    1.34187   1.34791   1.35360   1.35649   1.36382
 Alpha virt. eigenvalues --    1.36809   1.37219   1.37779   1.38151   1.38207
 Alpha virt. eigenvalues --    1.38864   1.39370   1.39675   1.39806   1.40100
 Alpha virt. eigenvalues --    1.40560   1.40974   1.41084   1.41227   1.41535
 Alpha virt. eigenvalues --    1.41846   1.42029   1.42374   1.42692   1.42899
 Alpha virt. eigenvalues --    1.43307   1.43487   1.43890   1.44033   1.44315
 Alpha virt. eigenvalues --    1.44724   1.44827   1.45233   1.45459   1.45767
 Alpha virt. eigenvalues --    1.45933   1.46222   1.46454   1.46813   1.47217
 Alpha virt. eigenvalues --    1.47504   1.47625   1.47863   1.48133   1.48453
 Alpha virt. eigenvalues --    1.48772   1.48961   1.49192   1.49307   1.49963
 Alpha virt. eigenvalues --    1.50095   1.50518   1.50674   1.50969   1.51342
 Alpha virt. eigenvalues --    1.51736   1.52345   1.52508   1.52933   1.53428
 Alpha virt. eigenvalues --    1.53495   1.53700   1.53901   1.54289   1.54885
 Alpha virt. eigenvalues --    1.55002   1.55303   1.55468   1.55843   1.56649
 Alpha virt. eigenvalues --    1.56755   1.56989   1.57319   1.57658   1.58177
 Alpha virt. eigenvalues --    1.58373   1.58587   1.58713   1.59267   1.59999
 Alpha virt. eigenvalues --    1.60066   1.60356   1.60984   1.61202   1.61538
 Alpha virt. eigenvalues --    1.61782   1.62393   1.62570   1.63339   1.63440
 Alpha virt. eigenvalues --    1.63758   1.64428   1.65579   1.66247   1.67173
 Alpha virt. eigenvalues --    1.67467   1.67939   1.68758   1.69090   1.69714
 Alpha virt. eigenvalues --    1.70244   1.70992   1.71165   1.71925   1.72361
 Alpha virt. eigenvalues --    1.72695   1.73475   1.73842   1.74299   1.75227
 Alpha virt. eigenvalues --    1.75368   1.75608   1.75962   1.76277   1.76647
 Alpha virt. eigenvalues --    1.76853   1.77213   1.77880   1.78016   1.78397
 Alpha virt. eigenvalues --    1.78792   1.79097   1.79437   1.80543   1.80737
 Alpha virt. eigenvalues --    1.81194   1.81542   1.82091   1.82646   1.82861
 Alpha virt. eigenvalues --    1.83593   1.84114   1.85404   1.86118   1.86686
 Alpha virt. eigenvalues --    1.86730   1.87293   1.87747   1.87904   1.88430
 Alpha virt. eigenvalues --    1.88689   1.89400   1.90303   1.90350   1.90924
 Alpha virt. eigenvalues --    1.91134   1.91621   1.91832   1.92421   1.93079
 Alpha virt. eigenvalues --    1.93510   1.94512   1.94649   1.95251   1.95363
 Alpha virt. eigenvalues --    1.96338   1.96418   1.97339   1.97629   1.98131
 Alpha virt. eigenvalues --    1.98857   1.98937   1.99289   1.99931   2.00291
 Alpha virt. eigenvalues --    2.00594   2.00747   2.00967   2.02092   2.02482
 Alpha virt. eigenvalues --    2.03217   2.03290   2.03790   2.04005   2.04781
 Alpha virt. eigenvalues --    2.05023   2.05629   2.05753   2.06478   2.06725
 Alpha virt. eigenvalues --    2.07021   2.07688   2.08136   2.08347   2.08695
 Alpha virt. eigenvalues --    2.09452   2.09841   2.10433   2.11383   2.12028
 Alpha virt. eigenvalues --    2.12274   2.12934   2.13157   2.13594   2.14376
 Alpha virt. eigenvalues --    2.15086   2.15676   2.15941   2.16146   2.16583
 Alpha virt. eigenvalues --    2.17449   2.17636   2.18358   2.18734   2.19075
 Alpha virt. eigenvalues --    2.19594   2.20113   2.20761   2.21030   2.21261
 Alpha virt. eigenvalues --    2.22049   2.22987   2.23341   2.23639   2.24620
 Alpha virt. eigenvalues --    2.25004   2.25363   2.26045   2.26131   2.26778
 Alpha virt. eigenvalues --    2.26918   2.27200   2.27647   2.27747   2.28357
 Alpha virt. eigenvalues --    2.28382   2.28549   2.29169   2.29471   2.30022
 Alpha virt. eigenvalues --    2.30276   2.30861   2.31183   2.31410   2.32043
 Alpha virt. eigenvalues --    2.32385   2.32659   2.33612   2.34122   2.34224
 Alpha virt. eigenvalues --    2.34765   2.35197   2.35661   2.36504   2.36786
 Alpha virt. eigenvalues --    2.37269   2.37580   2.37828   2.38318   2.38590
 Alpha virt. eigenvalues --    2.39299   2.39833   2.40117   2.40819   2.41674
 Alpha virt. eigenvalues --    2.42503   2.42916   2.43257   2.43513   2.43803
 Alpha virt. eigenvalues --    2.43869   2.44220   2.44389   2.45158   2.45830
 Alpha virt. eigenvalues --    2.46054   2.46447   2.46695   2.46931   2.47279
 Alpha virt. eigenvalues --    2.47549   2.47912   2.47969   2.48293   2.48878
 Alpha virt. eigenvalues --    2.49661   2.50033   2.50659   2.50680   2.51047
 Alpha virt. eigenvalues --    2.51459   2.51978   2.52267   2.52977   2.53344
 Alpha virt. eigenvalues --    2.53583   2.53931   2.54227   2.55222   2.55544
 Alpha virt. eigenvalues --    2.56113   2.56385   2.56567   2.56829   2.57781
 Alpha virt. eigenvalues --    2.57825   2.58605   2.58895   2.59234   2.59524
 Alpha virt. eigenvalues --    2.59783   2.60217   2.60402   2.61153   2.61671
 Alpha virt. eigenvalues --    2.62052   2.62368   2.62834   2.63308   2.63838
 Alpha virt. eigenvalues --    2.64452   2.64734   2.65357   2.65920   2.66192
 Alpha virt. eigenvalues --    2.66798   2.67084   2.67245   2.67355   2.68500
 Alpha virt. eigenvalues --    2.69454   2.69572   2.70242   2.70425   2.71209
 Alpha virt. eigenvalues --    2.71430   2.71844   2.72559   2.72922   2.73286
 Alpha virt. eigenvalues --    2.73704   2.73998   2.74502   2.74936   2.75481
 Alpha virt. eigenvalues --    2.75647   2.76190   2.76504   2.76867   2.77284
 Alpha virt. eigenvalues --    2.77559   2.77869   2.77966   2.78256   2.79111
 Alpha virt. eigenvalues --    2.79249   2.79624   2.79769   2.80260   2.80481
 Alpha virt. eigenvalues --    2.80712   2.81268   2.81734   2.82114   2.82771
 Alpha virt. eigenvalues --    2.83033   2.83484   2.83931   2.84364   2.84614
 Alpha virt. eigenvalues --    2.84927   2.85535   2.85866   2.86305   2.86391
 Alpha virt. eigenvalues --    2.86637   2.87028   2.87264   2.87599   2.88413
 Alpha virt. eigenvalues --    2.88751   2.89242   2.89395   2.89551   2.90151
 Alpha virt. eigenvalues --    2.90877   2.91091   2.91234   2.91644   2.92083
 Alpha virt. eigenvalues --    2.92633   2.93261   2.93864   2.94036   2.94145
 Alpha virt. eigenvalues --    2.94331   2.95055   2.95614   2.95773   2.96532
 Alpha virt. eigenvalues --    2.96640   2.96930   2.97132   2.97699   2.97905
 Alpha virt. eigenvalues --    2.98304   2.98734   2.98845   2.99515   2.99655
 Alpha virt. eigenvalues --    3.00071   3.00688   3.00722   3.01045   3.01534
 Alpha virt. eigenvalues --    3.01714   3.02193   3.02441   3.02951   3.03080
 Alpha virt. eigenvalues --    3.03347   3.03795   3.04245   3.04463   3.04821
 Alpha virt. eigenvalues --    3.05127   3.05334   3.05404   3.05991   3.06509
 Alpha virt. eigenvalues --    3.06854   3.07324   3.07504   3.08145   3.08247
 Alpha virt. eigenvalues --    3.08556   3.08848   3.09015   3.09615   3.09866
 Alpha virt. eigenvalues --    3.10366   3.10413   3.10806   3.11257   3.11819
 Alpha virt. eigenvalues --    3.12001   3.12167   3.12630   3.13003   3.13109
 Alpha virt. eigenvalues --    3.13268   3.13647   3.13960   3.14266   3.14329
 Alpha virt. eigenvalues --    3.14666   3.15029   3.15497   3.15574   3.15815
 Alpha virt. eigenvalues --    3.16293   3.16481   3.16731   3.16832   3.17318
 Alpha virt. eigenvalues --    3.17797   3.18201   3.18695   3.18907   3.19213
 Alpha virt. eigenvalues --    3.19427   3.19602   3.19837   3.20147   3.20556
 Alpha virt. eigenvalues --    3.20705   3.20722   3.21096   3.21375   3.21617
 Alpha virt. eigenvalues --    3.22133   3.22383   3.22653   3.22981   3.23098
 Alpha virt. eigenvalues --    3.23457   3.23640   3.23935   3.24337   3.24710
 Alpha virt. eigenvalues --    3.24952   3.25221   3.25546   3.25655   3.25876
 Alpha virt. eigenvalues --    3.26288   3.26489   3.27094   3.27233   3.27362
 Alpha virt. eigenvalues --    3.27485   3.27833   3.28049   3.28252   3.28532
 Alpha virt. eigenvalues --    3.28790   3.29155   3.29620   3.29795   3.30272
 Alpha virt. eigenvalues --    3.30816   3.30920   3.31627   3.31803   3.31997
 Alpha virt. eigenvalues --    3.32465   3.32886   3.34325   3.34489   3.34761
 Alpha virt. eigenvalues --    3.35105   3.35137   3.35552   3.36136   3.37004
 Alpha virt. eigenvalues --    3.37354   3.37765   3.37993   3.38253   3.38915
 Alpha virt. eigenvalues --    3.39131   3.39547   3.40126   3.40774   3.41234
 Alpha virt. eigenvalues --    3.41886   3.42111   3.42589   3.42880   3.43797
 Alpha virt. eigenvalues --    3.44291   3.44372   3.45215   3.45544   3.45670
 Alpha virt. eigenvalues --    3.46542   3.46905   3.47143   3.48335   3.48467
 Alpha virt. eigenvalues --    3.48764   3.49420   3.49698   3.50045   3.50503
 Alpha virt. eigenvalues --    3.50957   3.51507   3.51656   3.52564   3.52965
 Alpha virt. eigenvalues --    3.53546   3.54044   3.54502   3.55378   3.55476
 Alpha virt. eigenvalues --    3.56195   3.56901   3.57211   3.57521   3.57745
 Alpha virt. eigenvalues --    3.58016   3.58633   3.59648   3.59896   3.60107
 Alpha virt. eigenvalues --    3.60546   3.60717   3.61297   3.61526   3.61788
 Alpha virt. eigenvalues --    3.62682   3.62768   3.62936   3.63385   3.63604
 Alpha virt. eigenvalues --    3.64027   3.64287   3.64669   3.65643   3.66330
 Alpha virt. eigenvalues --    3.66535   3.66781   3.67168   3.68038   3.68490
 Alpha virt. eigenvalues --    3.69372   3.69587   3.70478   3.71054   3.71420
 Alpha virt. eigenvalues --    3.71915   3.72507   3.73093   3.73581   3.74148
 Alpha virt. eigenvalues --    3.74647   3.75522   3.75771   3.76301   3.76715
 Alpha virt. eigenvalues --    3.77285   3.77496   3.78788   3.79192   3.79886
 Alpha virt. eigenvalues --    3.80386   3.80761   3.81346   3.81670   3.81936
 Alpha virt. eigenvalues --    3.82683   3.83013   3.83965   3.84070   3.85519
 Alpha virt. eigenvalues --    3.85914   3.86653   3.87733   3.88125   3.88293
 Alpha virt. eigenvalues --    3.88695   3.89730   3.90160   3.90425   3.90808
 Alpha virt. eigenvalues --    3.91690   3.91855   3.92695   3.93609   3.94365
 Alpha virt. eigenvalues --    3.94670   3.94964   3.95552   3.96532   3.97274
 Alpha virt. eigenvalues --    3.97978   3.98183   3.98795   3.99026   4.00029
 Alpha virt. eigenvalues --    4.00687   4.00879   4.01968   4.02626   4.03223
 Alpha virt. eigenvalues --    4.03897   4.04190   4.04569   4.05570   4.06381
 Alpha virt. eigenvalues --    4.07489   4.07899   4.08470   4.08859   4.09083
 Alpha virt. eigenvalues --    4.09459   4.09863   4.10045   4.11006   4.11560
 Alpha virt. eigenvalues --    4.11800   4.12472   4.12887   4.13138   4.13997
 Alpha virt. eigenvalues --    4.14712   4.15203   4.16146   4.16770   4.17514
 Alpha virt. eigenvalues --    4.18475   4.19766   4.20090   4.21088   4.21430
 Alpha virt. eigenvalues --    4.22016   4.22583   4.23289   4.24016   4.24632
 Alpha virt. eigenvalues --    4.24919   4.25781   4.26274   4.27674   4.28935
 Alpha virt. eigenvalues --    4.29333   4.29936   4.30198   4.30645   4.30766
 Alpha virt. eigenvalues --    4.30975   4.31048   4.31326   4.31921   4.33793
 Alpha virt. eigenvalues --    4.33938   4.34431   4.34666   4.34741   4.35687
 Alpha virt. eigenvalues --    4.36693   4.37169   4.37550   4.39035   4.40237
 Alpha virt. eigenvalues --    4.41076   4.41530   4.42556   4.43187   4.44446
 Alpha virt. eigenvalues --    4.45163   4.45699   4.46278   4.46905   4.47249
 Alpha virt. eigenvalues --    4.48114   4.48753   4.50573   4.51910   4.52621
 Alpha virt. eigenvalues --    4.53499   4.54057   4.56435   4.57343   4.57504
 Alpha virt. eigenvalues --    4.57844   4.58425   4.59157   4.59721   4.60838
 Alpha virt. eigenvalues --    4.62361   4.62797   4.63092   4.63526   4.64357
 Alpha virt. eigenvalues --    4.65314   4.66012   4.66415   4.67947   4.68628
 Alpha virt. eigenvalues --    4.69530   4.70185   4.71540   4.71959   4.72697
 Alpha virt. eigenvalues --    4.72887   4.73261   4.73534   4.73929   4.74642
 Alpha virt. eigenvalues --    4.75992   4.76152   4.76673   4.78496   4.79058
 Alpha virt. eigenvalues --    4.79711   4.81173   4.81815   4.81957   4.82882
 Alpha virt. eigenvalues --    4.83495   4.84108   4.84720   4.85410   4.86222
 Alpha virt. eigenvalues --    4.87459   4.89132   4.89536   4.90545   4.91198
 Alpha virt. eigenvalues --    4.91841   4.92113   4.92475   4.93343   4.94768
 Alpha virt. eigenvalues --    4.95913   4.96568   4.96658   4.97935   4.98543
 Alpha virt. eigenvalues --    5.01746   5.02454   5.06196   5.06740   5.07035
 Alpha virt. eigenvalues --    5.07381   5.08243   5.10011   5.10265   5.10739
 Alpha virt. eigenvalues --    5.11233   5.12572   5.13251   5.13570   5.14989
 Alpha virt. eigenvalues --    5.16609   5.17410   5.22105   5.23054   5.23260
 Alpha virt. eigenvalues --    5.25085   5.25611   5.26401   5.26658   5.27029
 Alpha virt. eigenvalues --    5.27396   5.27989   5.29681   5.31570   5.35115
 Alpha virt. eigenvalues --    5.35881   5.36437   5.37416   5.37937   5.38948
 Alpha virt. eigenvalues --    5.39335   5.39604   5.41590   5.44639   5.48211
 Alpha virt. eigenvalues --    5.49596   5.50928   5.51224   5.51883   5.52653
 Alpha virt. eigenvalues --    5.54315   5.55825   5.56417   5.56942   5.57861
 Alpha virt. eigenvalues --    5.61719   5.64452   5.65582   5.65871   5.67126
 Alpha virt. eigenvalues --    5.68965   5.74598   5.76578   5.77239   5.84726
 Alpha virt. eigenvalues --    5.88780   5.90385   5.90629   5.95259   5.96108
 Alpha virt. eigenvalues --    5.97610   5.98512   5.99605   6.03494   6.05338
 Alpha virt. eigenvalues --    6.14532   6.21405   6.21940   6.28586  22.26214
 Alpha virt. eigenvalues --   22.26935  22.34311  22.36689  22.37142  22.43593
 Alpha virt. eigenvalues --   22.44141  22.53255  22.54027  22.64261  22.71690
 Alpha virt. eigenvalues --   22.77348  22.78999  22.82368  22.82713  22.84258
 Alpha virt. eigenvalues --   22.85557  22.91288  22.93621  22.94288  23.04534
 Alpha virt. eigenvalues --   23.14591  23.17431  23.19185  23.19873  23.25468
 Alpha virt. eigenvalues --   23.30991  23.39650  23.40219  23.44459  23.63852
 Alpha virt. eigenvalues --   23.68204  23.68433  23.77458  32.28098  32.47094
 Alpha virt. eigenvalues --   32.73173  32.75662  32.83918  32.96266
  Beta  occ. eigenvalues -- -256.43211 -30.24635 -26.09323 -26.09087 -26.09047
  Beta  occ. eigenvalues --  -14.53727 -14.49226 -14.45600 -14.45581 -14.45509
  Beta  occ. eigenvalues --  -14.45262 -10.38445 -10.35498 -10.33212 -10.33128
  Beta  occ. eigenvalues --  -10.33069 -10.33039 -10.33028 -10.33016 -10.32978
  Beta  occ. eigenvalues --  -10.32878 -10.32829 -10.30731 -10.30224 -10.30174
  Beta  occ. eigenvalues --  -10.30135 -10.30044 -10.29977 -10.29903 -10.29896
  Beta  occ. eigenvalues --  -10.29867 -10.29792 -10.29787 -10.29762 -10.29716
  Beta  occ. eigenvalues --  -10.29040 -10.29013 -10.28346 -10.28260 -10.27996
  Beta  occ. eigenvalues --  -10.27972 -10.27966 -10.27880 -10.27718 -10.27702
  Beta  occ. eigenvalues --   -3.56818  -2.32288  -2.31654  -2.31583  -1.17528
  Beta  occ. eigenvalues --   -1.09024  -1.08075  -1.07888  -1.06947  -1.03339
  Beta  occ. eigenvalues --   -0.93864  -0.92563  -0.92277  -0.91770  -0.91466
  Beta  occ. eigenvalues --   -0.91351  -0.90989  -0.90963  -0.87077  -0.85855
  Beta  occ. eigenvalues --   -0.85561  -0.84642  -0.83232  -0.82907  -0.81509
  Beta  occ. eigenvalues --   -0.80539  -0.78879  -0.78682  -0.78373  -0.76667
  Beta  occ. eigenvalues --   -0.75438  -0.75370  -0.73259  -0.70999  -0.70377
  Beta  occ. eigenvalues --   -0.69244  -0.68282  -0.67720  -0.65470  -0.64740
  Beta  occ. eigenvalues --   -0.63938  -0.63725  -0.62197  -0.62101  -0.61671
  Beta  occ. eigenvalues --   -0.59709  -0.59573  -0.59074  -0.58652  -0.58361
  Beta  occ. eigenvalues --   -0.56295  -0.55550  -0.55339  -0.54986  -0.54673
  Beta  occ. eigenvalues --   -0.54443  -0.54188  -0.54124  -0.53836  -0.53579
  Beta  occ. eigenvalues --   -0.53355  -0.52954  -0.52770  -0.52609  -0.52344
  Beta  occ. eigenvalues --   -0.52145  -0.51071  -0.50816  -0.50727  -0.50571
  Beta  occ. eigenvalues --   -0.50431  -0.50368  -0.49946  -0.49905  -0.49747
  Beta  occ. eigenvalues --   -0.49392  -0.49004  -0.48647  -0.48585  -0.48061
  Beta  occ. eigenvalues --   -0.47874  -0.47760  -0.47349  -0.46943  -0.46553
  Beta  occ. eigenvalues --   -0.46174  -0.45201  -0.44779  -0.44076  -0.43920
  Beta  occ. eigenvalues --   -0.43496  -0.42896  -0.42526  -0.42177  -0.40184
  Beta  occ. eigenvalues --   -0.39622  -0.38052  -0.37909  -0.35917  -0.34996
  Beta  occ. eigenvalues --   -0.34289  -0.33478  -0.32642  -0.30465  -0.29179
  Beta virt. eigenvalues --   -0.21788  -0.21701  -0.20364  -0.18108  -0.17147
  Beta virt. eigenvalues --   -0.17088  -0.12717  -0.12239  -0.10413  -0.09153
  Beta virt. eigenvalues --   -0.07882  -0.06858  -0.06574  -0.05730  -0.05231
  Beta virt. eigenvalues --   -0.04220  -0.03660  -0.02772  -0.02722  -0.02650
  Beta virt. eigenvalues --   -0.02418  -0.02292  -0.01550  -0.00857  -0.00472
  Beta virt. eigenvalues --   -0.00249   0.00085   0.00456   0.00592   0.01240
  Beta virt. eigenvalues --    0.01403   0.01755   0.02158   0.02587   0.02718
  Beta virt. eigenvalues --    0.02789   0.03176   0.03268   0.03308   0.03534
  Beta virt. eigenvalues --    0.03696   0.04072   0.04198   0.04288   0.04385
  Beta virt. eigenvalues --    0.04765   0.05098   0.05296   0.05376   0.05680
  Beta virt. eigenvalues --    0.05817   0.06495   0.06625   0.06849   0.07111
  Beta virt. eigenvalues --    0.07127   0.07421   0.07575   0.07672   0.08004
  Beta virt. eigenvalues --    0.08265   0.08419   0.08484   0.08799   0.09090
  Beta virt. eigenvalues --    0.09535   0.09641   0.09743   0.10106   0.10582
  Beta virt. eigenvalues --    0.10850   0.11148   0.11251   0.11397   0.11570
  Beta virt. eigenvalues --    0.11944   0.12466   0.12705   0.12861   0.13124
  Beta virt. eigenvalues --    0.13276   0.13529   0.13658   0.14149   0.14617
  Beta virt. eigenvalues --    0.15195   0.15331   0.15908   0.16122   0.16249
  Beta virt. eigenvalues --    0.16514   0.16750   0.16956   0.17182   0.17306
  Beta virt. eigenvalues --    0.17539   0.17671   0.18170   0.18203   0.18599
  Beta virt. eigenvalues --    0.19018   0.19077   0.19342   0.19505   0.19729
  Beta virt. eigenvalues --    0.20385   0.20576   0.20789   0.21215   0.21405
  Beta virt. eigenvalues --    0.21579   0.21722   0.21975   0.22192   0.22526
  Beta virt. eigenvalues --    0.22931   0.23249   0.23388   0.23809   0.23915
  Beta virt. eigenvalues --    0.24225   0.24319   0.24687   0.25168   0.25432
  Beta virt. eigenvalues --    0.25655   0.25952   0.26319   0.26422   0.26698
  Beta virt. eigenvalues --    0.26955   0.27070   0.27397   0.27757   0.28368
  Beta virt. eigenvalues --    0.28609   0.28699   0.29275   0.29328   0.29494
  Beta virt. eigenvalues --    0.29642   0.29930   0.30147   0.30261   0.30518
  Beta virt. eigenvalues --    0.30662   0.31061   0.31443   0.31597   0.31744
  Beta virt. eigenvalues --    0.32024   0.32185   0.32517   0.32639   0.32922
  Beta virt. eigenvalues --    0.33049   0.33146   0.33556   0.34237   0.34313
  Beta virt. eigenvalues --    0.34546   0.34737   0.34774   0.35232   0.35591
  Beta virt. eigenvalues --    0.35836   0.35983   0.36172   0.36329   0.36775
  Beta virt. eigenvalues --    0.36856   0.37189   0.37436   0.37826   0.37914
  Beta virt. eigenvalues --    0.38067   0.38302   0.38343   0.38417   0.38732
  Beta virt. eigenvalues --    0.38835   0.39003   0.39467   0.39538   0.39773
  Beta virt. eigenvalues --    0.40117   0.40504   0.40690   0.40786   0.41189
  Beta virt. eigenvalues --    0.41321   0.41536   0.41689   0.41982   0.42124
  Beta virt. eigenvalues --    0.42234   0.42398   0.42738   0.43074   0.43318
  Beta virt. eigenvalues --    0.43384   0.43466   0.43812   0.43921   0.44229
  Beta virt. eigenvalues --    0.44383   0.44626   0.45175   0.45460   0.45778
  Beta virt. eigenvalues --    0.45881   0.46160   0.46504   0.46556   0.46755
  Beta virt. eigenvalues --    0.47116   0.47315   0.47578   0.48135   0.48530
  Beta virt. eigenvalues --    0.48606   0.48753   0.49034   0.49369   0.49893
  Beta virt. eigenvalues --    0.50055   0.50620   0.50686   0.51031   0.51362
  Beta virt. eigenvalues --    0.51497   0.51937   0.52385   0.52775   0.52807
  Beta virt. eigenvalues --    0.53391   0.53615   0.53985   0.54269   0.54795
  Beta virt. eigenvalues --    0.54955   0.55080   0.55298   0.55536   0.55870
  Beta virt. eigenvalues --    0.56001   0.56461   0.56616   0.57236   0.57426
  Beta virt. eigenvalues --    0.57446   0.57787   0.57994   0.58354   0.59142
  Beta virt. eigenvalues --    0.59324   0.59580   0.60102   0.60211   0.60393
  Beta virt. eigenvalues --    0.60628   0.61191   0.61418   0.62021   0.62356
  Beta virt. eigenvalues --    0.62600   0.62667   0.63062   0.63315   0.63521
  Beta virt. eigenvalues --    0.63635   0.64099   0.64506   0.64691   0.65325
  Beta virt. eigenvalues --    0.65827   0.66028   0.66425   0.66844   0.67107
  Beta virt. eigenvalues --    0.67623   0.67931   0.68335   0.68487   0.68847
  Beta virt. eigenvalues --    0.69137   0.69283   0.69738   0.69977   0.70391
  Beta virt. eigenvalues --    0.70800   0.71213   0.71677   0.71918   0.72150
  Beta virt. eigenvalues --    0.72590   0.72963   0.73273   0.73893   0.74233
  Beta virt. eigenvalues --    0.74353   0.74925   0.75309   0.75718   0.76322
  Beta virt. eigenvalues --    0.76618   0.76683   0.77114   0.77575   0.78002
  Beta virt. eigenvalues --    0.78242   0.78679   0.79094   0.79150   0.80064
  Beta virt. eigenvalues --    0.80664   0.80877   0.80959   0.81563   0.82040
  Beta virt. eigenvalues --    0.82401   0.82649   0.83317   0.83654   0.84189
  Beta virt. eigenvalues --    0.84410   0.85088   0.85186   0.85537   0.86036
  Beta virt. eigenvalues --    0.86195   0.86492   0.86984   0.87249   0.87807
  Beta virt. eigenvalues --    0.88192   0.88602   0.88720   0.89026   0.89315
  Beta virt. eigenvalues --    0.89812   0.89938   0.90408   0.91005   0.91335
  Beta virt. eigenvalues --    0.91754   0.92005   0.92185   0.92370   0.92628
  Beta virt. eigenvalues --    0.93115   0.93584   0.93781   0.93898   0.94486
  Beta virt. eigenvalues --    0.94680   0.95019   0.95172   0.95595   0.95702
  Beta virt. eigenvalues --    0.96328   0.96717   0.97486   0.97640   0.98153
  Beta virt. eigenvalues --    0.98288   0.98565   0.98796   0.99283   1.00281
  Beta virt. eigenvalues --    1.01045   1.01194   1.01823   1.02053   1.02760
  Beta virt. eigenvalues --    1.03090   1.03570   1.03898   1.04238   1.04964
  Beta virt. eigenvalues --    1.05204   1.05742   1.06387   1.06656   1.07220
  Beta virt. eigenvalues --    1.07583   1.08320   1.08551   1.08771   1.09076
  Beta virt. eigenvalues --    1.09338   1.09854   1.10218   1.10366   1.10655
  Beta virt. eigenvalues --    1.11074   1.11521   1.11778   1.12126   1.12628
  Beta virt. eigenvalues --    1.13151   1.13602   1.14103   1.14766   1.15056
  Beta virt. eigenvalues --    1.15992   1.16201   1.16383   1.16945   1.17336
  Beta virt. eigenvalues --    1.17734   1.17912   1.18280   1.18526   1.18786
  Beta virt. eigenvalues --    1.18990   1.19484   1.19998   1.20193   1.20675
  Beta virt. eigenvalues --    1.21491   1.21601   1.21768   1.22861   1.22922
  Beta virt. eigenvalues --    1.23656   1.24642   1.24928   1.25487   1.25966
  Beta virt. eigenvalues --    1.26066   1.26836   1.27431   1.27553   1.27978
  Beta virt. eigenvalues --    1.28884   1.29773   1.30548   1.30833   1.31089
  Beta virt. eigenvalues --    1.32185   1.32779   1.33394   1.33629   1.33908
  Beta virt. eigenvalues --    1.34318   1.34989   1.35608   1.35830   1.36578
  Beta virt. eigenvalues --    1.37084   1.37400   1.38007   1.38270   1.38393
  Beta virt. eigenvalues --    1.39059   1.39549   1.39872   1.40210   1.40511
  Beta virt. eigenvalues --    1.40894   1.41270   1.41474   1.41670   1.41791
  Beta virt. eigenvalues --    1.41978   1.42252   1.42451   1.42772   1.43102
  Beta virt. eigenvalues --    1.43490   1.43675   1.44036   1.44177   1.44499
  Beta virt. eigenvalues --    1.44846   1.44961   1.45338   1.45536   1.45818
  Beta virt. eigenvalues --    1.46009   1.46345   1.46585   1.46930   1.47300
  Beta virt. eigenvalues --    1.47582   1.47704   1.47973   1.48219   1.48526
  Beta virt. eigenvalues --    1.48880   1.49040   1.49353   1.49411   1.50073
  Beta virt. eigenvalues --    1.50203   1.50642   1.50756   1.51064   1.51411
  Beta virt. eigenvalues --    1.51852   1.52487   1.52623   1.53057   1.53602
  Beta virt. eigenvalues --    1.53610   1.53776   1.54001   1.54414   1.54998
  Beta virt. eigenvalues --    1.55085   1.55401   1.55573   1.55939   1.56760
  Beta virt. eigenvalues --    1.56845   1.57074   1.57406   1.57742   1.58326
  Beta virt. eigenvalues --    1.58451   1.58724   1.58834   1.59429   1.60148
  Beta virt. eigenvalues --    1.60322   1.60415   1.61073   1.61282   1.61640
  Beta virt. eigenvalues --    1.61906   1.62523   1.62660   1.63484   1.63637
  Beta virt. eigenvalues --    1.63906   1.64523   1.65709   1.66407   1.67279
  Beta virt. eigenvalues --    1.67563   1.68054   1.68887   1.69183   1.69825
  Beta virt. eigenvalues --    1.70392   1.71135   1.71364   1.72050   1.72465
  Beta virt. eigenvalues --    1.72798   1.73572   1.73976   1.74442   1.75329
  Beta virt. eigenvalues --    1.75473   1.75692   1.76113   1.76459   1.76780
  Beta virt. eigenvalues --    1.77000   1.77333   1.77991   1.78132   1.78608
  Beta virt. eigenvalues --    1.78926   1.79249   1.79606   1.80707   1.80992
  Beta virt. eigenvalues --    1.81447   1.81834   1.82464   1.82898   1.83034
  Beta virt. eigenvalues --    1.83838   1.84243   1.85740   1.86338   1.86861
  Beta virt. eigenvalues --    1.87022   1.87508   1.87912   1.88131   1.88632
  Beta virt. eigenvalues --    1.88874   1.89659   1.90446   1.90537   1.91043
  Beta virt. eigenvalues --    1.91192   1.91716   1.92093   1.92631   1.93190
  Beta virt. eigenvalues --    1.93655   1.95000   1.95083   1.95533   1.95730
  Beta virt. eigenvalues --    1.96491   1.96723   1.97556   1.97951   1.98252
  Beta virt. eigenvalues --    1.99114   1.99208   1.99546   2.00233   2.00572
  Beta virt. eigenvalues --    2.00765   2.01208   2.01357   2.02349   2.02999
  Beta virt. eigenvalues --    2.03428   2.03596   2.04107   2.04405   2.05024
  Beta virt. eigenvalues --    2.05201   2.05735   2.05862   2.06561   2.06931
  Beta virt. eigenvalues --    2.07126   2.07913   2.08446   2.08502   2.09177
  Beta virt. eigenvalues --    2.09558   2.10422   2.10981   2.11596   2.12213
  Beta virt. eigenvalues --    2.12495   2.13119   2.13367   2.14364   2.15150
  Beta virt. eigenvalues --    2.15675   2.15750   2.16067   2.16584   2.17167
  Beta virt. eigenvalues --    2.17562   2.17816   2.18502   2.18886   2.19249
  Beta virt. eigenvalues --    2.19871   2.20330   2.20902   2.21149   2.21354
  Beta virt. eigenvalues --    2.22189   2.23178   2.23458   2.24154   2.24754
  Beta virt. eigenvalues --    2.25117   2.25431   2.26141   2.26212   2.26944
  Beta virt. eigenvalues --    2.27033   2.27386   2.27801   2.27962   2.28476
  Beta virt. eigenvalues --    2.28703   2.28845   2.29375   2.29626   2.30212
  Beta virt. eigenvalues --    2.30483   2.31111   2.31507   2.31625   2.32455
  Beta virt. eigenvalues --    2.32626   2.32978   2.33984   2.34416   2.34577
  Beta virt. eigenvalues --    2.34972   2.35507   2.35926   2.36703   2.37037
  Beta virt. eigenvalues --    2.37633   2.37738   2.38050   2.38560   2.38865
  Beta virt. eigenvalues --    2.39499   2.40083   2.40342   2.41020   2.41842
  Beta virt. eigenvalues --    2.42609   2.43057   2.43339   2.43638   2.43909
  Beta virt. eigenvalues --    2.44019   2.44366   2.44642   2.45462   2.45995
  Beta virt. eigenvalues --    2.46264   2.46569   2.46838   2.47073   2.47373
  Beta virt. eigenvalues --    2.47755   2.48088   2.48210   2.48528   2.49050
  Beta virt. eigenvalues --    2.49742   2.50107   2.50752   2.50801   2.51127
  Beta virt. eigenvalues --    2.51594   2.52130   2.52333   2.53192   2.53471
  Beta virt. eigenvalues --    2.53793   2.54110   2.54419   2.55342   2.55756
  Beta virt. eigenvalues --    2.56282   2.56486   2.56715   2.57112   2.57904
  Beta virt. eigenvalues --    2.57930   2.58760   2.59150   2.59389   2.59644
  Beta virt. eigenvalues --    2.59895   2.60494   2.60576   2.61411   2.61924
  Beta virt. eigenvalues --    2.62476   2.62764   2.62995   2.63573   2.64236
  Beta virt. eigenvalues --    2.64660   2.65159   2.65621   2.66332   2.66605
  Beta virt. eigenvalues --    2.67150   2.67288   2.67437   2.67693   2.68593
  Beta virt. eigenvalues --    2.69648   2.69956   2.70592   2.70756   2.71529
  Beta virt. eigenvalues --    2.71661   2.71977   2.72709   2.73077   2.73375
  Beta virt. eigenvalues --    2.73994   2.74179   2.74681   2.75103   2.75663
  Beta virt. eigenvalues --    2.75838   2.76390   2.76794   2.77070   2.77485
  Beta virt. eigenvalues --    2.77742   2.78005   2.78148   2.78430   2.79240
  Beta virt. eigenvalues --    2.79396   2.79936   2.80071   2.80329   2.80747
  Beta virt. eigenvalues --    2.80978   2.81659   2.81904   2.82426   2.82886
  Beta virt. eigenvalues --    2.83180   2.83663   2.84046   2.84486   2.84952
  Beta virt. eigenvalues --    2.85202   2.85604   2.85960   2.86406   2.86505
  Beta virt. eigenvalues --    2.86719   2.87155   2.87580   2.87717   2.88529
  Beta virt. eigenvalues --    2.88835   2.89335   2.89548   2.89818   2.90274
  Beta virt. eigenvalues --    2.90963   2.91171   2.91337   2.91746   2.92201
  Beta virt. eigenvalues --    2.92726   2.93379   2.93980   2.94155   2.94258
  Beta virt. eigenvalues --    2.94462   2.95157   2.95725   2.95875   2.96646
  Beta virt. eigenvalues --    2.96768   2.97094   2.97263   2.97790   2.97994
  Beta virt. eigenvalues --    2.98407   2.98871   2.99009   2.99649   2.99733
  Beta virt. eigenvalues --    3.00210   3.00777   3.00849   3.01160   3.01697
  Beta virt. eigenvalues --    3.01851   3.02311   3.02546   3.03045   3.03192
  Beta virt. eigenvalues --    3.03445   3.03925   3.04387   3.04564   3.04925
  Beta virt. eigenvalues --    3.05285   3.05456   3.05518   3.06093   3.06644
  Beta virt. eigenvalues --    3.07034   3.07408   3.07684   3.08292   3.08432
  Beta virt. eigenvalues --    3.08672   3.08965   3.09142   3.09758   3.09997
  Beta virt. eigenvalues --    3.10492   3.10532   3.10953   3.11357   3.11931
  Beta virt. eigenvalues --    3.12147   3.12312   3.12721   3.13117   3.13276
  Beta virt. eigenvalues --    3.13422   3.13859   3.14146   3.14354   3.14460
  Beta virt. eigenvalues --    3.14796   3.15212   3.15645   3.15723   3.16004
  Beta virt. eigenvalues --    3.16419   3.16603   3.16874   3.16950   3.17477
  Beta virt. eigenvalues --    3.17900   3.18309   3.18781   3.19018   3.19343
  Beta virt. eigenvalues --    3.19589   3.19720   3.20050   3.20336   3.20586
  Beta virt. eigenvalues --    3.20771   3.20871   3.21235   3.21470   3.21689
  Beta virt. eigenvalues --    3.22267   3.22502   3.22716   3.23098   3.23229
  Beta virt. eigenvalues --    3.23656   3.23729   3.24056   3.24468   3.24845
  Beta virt. eigenvalues --    3.25093   3.25355   3.25703   3.25872   3.26022
  Beta virt. eigenvalues --    3.26400   3.26716   3.27239   3.27430   3.27457
  Beta virt. eigenvalues --    3.27576   3.27998   3.28206   3.28467   3.28740
  Beta virt. eigenvalues --    3.28930   3.29288   3.29862   3.29933   3.30464
  Beta virt. eigenvalues --    3.30988   3.31137   3.31846   3.32064   3.32337
  Beta virt. eigenvalues --    3.32596   3.33089   3.34480   3.34635   3.34940
  Beta virt. eigenvalues --    3.35267   3.35413   3.35708   3.36368   3.37193
  Beta virt. eigenvalues --    3.37545   3.37894   3.38186   3.38410   3.39090
  Beta virt. eigenvalues --    3.39302   3.39691   3.40359   3.40959   3.41453
  Beta virt. eigenvalues --    3.42108   3.42326   3.42937   3.43268   3.44047
  Beta virt. eigenvalues --    3.44560   3.44703   3.45444   3.45721   3.46204
  Beta virt. eigenvalues --    3.47066   3.47425   3.47566   3.48557   3.48705
  Beta virt. eigenvalues --    3.49411   3.49767   3.50345   3.50766   3.51002
  Beta virt. eigenvalues --    3.51389   3.52003   3.52304   3.52930   3.53201
  Beta virt. eigenvalues --    3.54237   3.54668   3.55155   3.55681   3.56267
  Beta virt. eigenvalues --    3.57255   3.57339   3.57746   3.57949   3.58081
  Beta virt. eigenvalues --    3.58783   3.59497   3.59841   3.60156   3.60291
  Beta virt. eigenvalues --    3.61166   3.61587   3.61662   3.62196   3.62809
  Beta virt. eigenvalues --    3.63381   3.63436   3.63807   3.64193   3.64273
  Beta virt. eigenvalues --    3.64451   3.64841   3.65519   3.66562   3.66874
  Beta virt. eigenvalues --    3.67443   3.67723   3.68308   3.68985   3.69338
  Beta virt. eigenvalues --    3.70044   3.71073   3.71516   3.72005   3.72272
  Beta virt. eigenvalues --    3.73176   3.73514   3.73968   3.74708   3.75116
  Beta virt. eigenvalues --    3.75202   3.76361   3.76771   3.76975   3.77665
  Beta virt. eigenvalues --    3.77858   3.77971   3.79145   3.79592   3.80702
  Beta virt. eigenvalues --    3.81194   3.81789   3.81947   3.82566   3.83021
  Beta virt. eigenvalues --    3.83344   3.84512   3.85381   3.85908   3.86710
  Beta virt. eigenvalues --    3.87572   3.88801   3.88971   3.89503   3.89885
  Beta virt. eigenvalues --    3.90441   3.90736   3.90964   3.92029   3.92286
  Beta virt. eigenvalues --    3.92736   3.93183   3.94177   3.94928   3.95314
  Beta virt. eigenvalues --    3.95400   3.96387   3.96704   3.97645   3.98685
  Beta virt. eigenvalues --    3.98759   3.99131   4.00594   4.01249   4.01581
  Beta virt. eigenvalues --    4.02001   4.03696   4.03980   4.04345   4.04797
  Beta virt. eigenvalues --    4.05044   4.05531   4.06661   4.07240   4.08204
  Beta virt. eigenvalues --    4.08781   4.09166   4.09595   4.10030   4.10443
  Beta virt. eigenvalues --    4.11555   4.11964   4.12888   4.13144   4.13534
  Beta virt. eigenvalues --    4.14178   4.14309   4.14927   4.15440   4.15737
  Beta virt. eigenvalues --    4.16081   4.17073   4.17630   4.17996   4.18828
  Beta virt. eigenvalues --    4.19616   4.20268   4.20835   4.21782   4.22603
  Beta virt. eigenvalues --    4.22910   4.23965   4.24221   4.24584   4.25454
[...]
  1279. RY*(   2) C  70                  0.00146     1.22727   
  1280. RY*(   3) C  70                  0.00093     1.16224   
  1281. RY*(   4) C  70                  0.00077     2.41976   
  1282. RY*(   5) C  70                  0.00053     1.87560   
  1283. RY*(   6) C  70                  0.00049     2.04626   
  1284. RY*(   7) C  70                  0.00022     2.34745   
  1285. RY*(   8) C  70                  0.00016     1.82657   
  1286. RY*(   9) C  70                  0.00008     2.78305   
  1287. RY*(  10) C  70                  0.00003     3.26062   
  1288. RY*(  11) C  70                  0.00004     3.11279   
  1289. RY*(  12) C  70                  0.00001     3.95458   
  1290. RY*(  13) C  70                  0.00000     1.19297   
  1291. RY*(  14) C  70                  0.00000     2.05589   
  1292. RY*(  15) C  70                  0.00000     2.65349   
  1293. RY*(  16) C  70                  0.00000     2.06351   
  1294. RY*(  17) C  70                  0.00000     1.13173   
  1295. RY*(  18) C  70                  0.00001     1.65643   
  1296. RY*(  19) C  70                  0.00000     3.46945   
  1297. RY*(  20) C  70                  0.00000     3.17605   
  1298. RY*(  21) C  70                  0.00000    20.71200   
  1299. RY*(  22) C  70                  0.00000     3.47819   
  1300. RY*(  23) C  70                  0.00000     3.67012   
  1301. RY*(  24) C  70                  0.00000     3.42195   
  1302. RY*(  25) C  70                  0.00000     3.49932   
  1303. RY*(  26) C  70                  0.00000     3.47908   
  1304. RY*(   1) C  71                  0.00215     1.64124   
  1305. RY*(   2) C  71                  0.00152     0.42585   
  1306. RY*(   3) C  71                  0.00115     1.66055   
  1307. RY*(   4) C  71                  0.00051     1.42237   
  1308. RY*(   5) C  71                  0.00044     2.47133   
  1309. RY*(   6) C  71                  0.00032     1.97288   
  1310. RY*(   7) C  71                  0.00011     1.65102   
  1311. RY*(   8) C  71                  0.00011     1.52279   
  1312. RY*(   9) C  71                  0.00008     1.52197   
  1313. RY*(  10) C  71                  0.00003     1.03798   
  1314. RY*(  11) C  71                  0.00002     2.24202   
  1315. RY*(  12) C  71                  0.00003     2.99006   
  1316. RY*(  13) C  71                  0.00002     1.35970   
  1317. RY*(  14) C  71                  0.00001     1.88858   
  1318. RY*(  15) C  71                  0.00001     2.92569   
  1319. RY*(  16) C  71                  0.00000     3.14279   
  1320. RY*(  17) C  71                  0.00000     3.40981   
  1321. RY*(  18) C  71                  0.00000    21.45113   
  1322. RY*(  19) C  71                  0.00001     1.33361   
  1323. RY*(  20) C  71                  0.00000     3.72300   
  1324. RY*(  21) C  71                  0.00000     3.91369   
  1325. RY*(  22) C  71                  0.00000     3.43258   
  1326. RY*(  23) C  71                  0.00000     3.65709   
  1327. RY*(  24) C  71                  0.00000     3.42466   
  1328. RY*(  25) C  71                  0.00000     3.47316   
  1329. RY*(  26) C  71                  0.00000     3.46025   
  1330. RY*(   1) H  72                  0.00028     0.62733   
  1331. RY*(   2) H  72                  0.00013     2.29095   
  1332. RY*(   3) H  72                  0.00008     2.06995   
  1333. RY*(   4) H  72                  0.00003     2.49165   
  1334. RY*(   5) H  72                  0.00000     2.92314   
  1335. RY*(   1) N  73                  0.00330     1.34807   
  1336. RY*(   2) N  73                  0.00136     0.70101   
  1337. RY*(   3) N  73                  0.00128     0.94388   
  1338. RY*(   4) N  73                  0.00073     1.18527   
  1339. RY*(   5) N  73                  0.00035     2.33947   
  1340. RY*(   6) N  73                  0.00026     1.83184   
  1341. RY*(   7) N  73                  0.00022     1.61981   
  1342. RY*(   8) N  73                  0.00013     3.33974   
  1343. RY*(   9) N  73                  0.00006     3.28014   
  1344. RY*(  10) N  73                  0.00005     1.87775   
  1345. RY*(  11) N  73                  0.00002     4.72334   
  1346. RY*(  12) N  73                  0.00002     2.85390   
  1347. RY*(  13) N  73                  0.00002     3.09612   
  1348. RY*(  14) N  73                  0.00001     3.95324   
  1349. RY*(  15) N  73                  0.00000     4.44959   
  1350. RY*(  16) N  73                  0.00000     3.62243   
  1351. RY*(  17) N  73                  0.00000     4.28388   
  1352. RY*(  18) N  73                  0.00000    31.52766   
  1353. RY*(  19) N  73                  0.00001     3.48849   
  1354. RY*(  20) N  73                  0.00000     4.30471   
  1355. RY*(  21) N  73                  0.00001     4.86563   
  1356. RY*(  22) N  73                  0.00000     4.04029   
  1357. RY*(  23) N  73                  0.00000     4.48540   
  1358. RY*(  24) N  73                  0.00000     4.46617   
  1359. RY*(  25) N  73                  0.00000     4.34440   
  1360. RY*(  26) N  73                  0.00000     4.41825   
  1361. RY*(   1) C  74                  0.00193     1.41005   
  1362. RY*(   2) C  74                  0.00176     0.66428   
  1363. RY*(   3) C  74                  0.00081     1.75895   
  1364. RY*(   4) C  74                  0.00036     1.77509   
  1365. RY*(   5) C  74                  0.00027     1.42489   
  1366. RY*(   6) C  74                  0.00019     2.03551   
  1367. RY*(   7) C  74                  0.00017     2.00999   
  1368. RY*(   8) C  74                  0.00012     1.67617   
  1369. RY*(   9) C  74                  0.00008     1.56414   
  1370. RY*(  10) C  74                  0.00007     1.69574   
  1371. RY*(  11) C  74                  0.00007     1.20849   
  1372. RY*(  12) C  74                  0.00001     2.44210   
  1373. RY*(  13) C  74                  0.00001     1.67744   
  1374. RY*(  14) C  74                  0.00001     2.83934   
  1375. RY*(  15) C  74                  0.00002     2.85300   
  1376. RY*(  16) C  74                  0.00001     1.55267   
  1377. RY*(  17) C  74                  0.00000     3.34144   
  1378. RY*(  18) C  74                  0.00000    21.07309   
  1379. RY*(  19) C  74                  0.00000     3.07803   
  1380. RY*(  20) C  74                  0.00000     3.83813   
  1381. RY*(  21) C  74                  0.00000     3.84585   
  1382. RY*(  22) C  74                  0.00000     3.36593   
  1383. RY*(  23) C  74                  0.00000     3.61586   
  1384. RY*(  24) C  74                  0.00000     3.42181   
  1385. RY*(  25) C  74                  0.00000     3.39257   
  1386. RY*(  26) C  74                  0.00000     3.35311   
  1387. RY*(   1) H  75                  0.00023     0.58232   
  1388. RY*(   2) H  75                  0.00014     2.22818   
  1389. RY*(   3) H  75                  0.00010     2.13711   
  1390. RY*(   4) H  75                  0.00003     2.61594   
  1391. RY*(   5) H  75                  0.00000     2.98957   
  1392. BD*(   1)Fe   1 - N   2          0.03142     0.20829   
  1393. BD*(   1)Fe   1 - N   3          0.03191     0.20390   
  1394. BD*(   1)Fe   1 - N   4          0.03153     0.20960   
  1395. BD*(   1)Fe   1 - N   5          0.03234     0.20091   
  1396. BD*(   1)Fe   1 - N  73          0.02859     0.09082   
  1397. BD*(   1) N   2 - C   6          0.01315     0.39116   
  1398. BD*(   2) N   2 - C   6          0.32757    -0.10491  1443(v),1412(v),1417(v)
                                                    149(v),150(v),287(g),183(g)
                                                    702(v),288(g),1404(r)
  1399. BD*(   1) N   2 - C   9          0.01353     0.38270   
  1400. BD*(   1) N   3 - C  10          0.01325     0.38837   
  1401. BD*(   2) N   3 - C  10          0.32957    -0.10434  1417(v),1421(v),1426(v)
                                                    148(v),150(v),209(g),391(g)
                                                    392(g),733(v)
  1402. BD*(   1) N   3 - C  13          0.01292     0.39062   
  1403. BD*(   1) N   4 - C  14          0.01340     0.38605   
  1404. BD*(   2) N   4 - C  14          0.33517    -0.10599  1426(v),1430(v),152(v)
                                                    149(v),150(v),495(g),235(g)
                                                    236(g),765(v),1398(r),496(g)
  1405. BD*(   1) N   4 - C  17          0.01290     0.39137   
  1406. BD*(   1) N   5 - C  18          0.01306     0.39307   
  1407. BD*(   2) N   5 - C  18          0.32467    -0.10128  1438(v),1443(v),148(v)
                                                    150(v),600(g),261(g),796(v)
                                                    599(g)
  1408. BD*(   1) N   5 - C  21          0.01308     0.39058   
  1409. BD*(   1) C   6 - C   7          0.01713     0.38216   
  1410. BD*(   1) C   6 - C  22          0.01021     0.46708   
  1411. BD*(   1) C   7 - C   8          0.01156     0.50184   
  1412. BD*(   2) C   7 - C   8          0.12144    -0.03672  1417(v),1398(v),1450(v)
                                                    1452(v),1451(v),1448(v)
  1413. BD*(   1) C   7 - C  34          0.00806     0.31570   
  1414. BD*(   1) C   8 - C   9          0.01736     0.38030   
  1415. BD*(   1) C   8 - C  30          0.00810     0.31467   
  1416. BD*(   1) C   9 - C  24          0.01010     0.46826   
  1417. BD*(   2) C   9 - C  24          0.19236    -0.06300  1401(v),1412(v),1398(v)
                                                    733(g),1443(r),1426(r)
                                                    368(g)
  1418. BD*(   1) C  10 - C  11          0.01676     0.38995   
  1419. BD*(   1) C  10 - C  24          0.01029     0.46288   
  1420. BD*(   1) C  11 - C  12          0.01259     0.48843   
  1421. BD*(   2) C  11 - C  12          0.13824    -0.03806  1459(v),1426(v),1401(v)
                                                    1455(v),1454(v)
  1422. BD*(   1) C  11 - C  38          0.00767     0.31878   
  1423. BD*(   1) C  12 - C  13          0.01664     0.37885   
  1424. BD*(   1) C  12 - C  42          0.01324     0.39756   
  1425. BD*(   1) C  13 - C  26          0.00992     0.46860   
  1426. BD*(   2) C  13 - C  26          0.18840    -0.05960  1404(v),1421(v),1401(v)
                                                    1443(r),765(g),1417(r)
                                                    472(g)
  1427. BD*(   1) C  14 - C  15          0.01676     0.38986   
  1428. BD*(   1) C  14 - C  26          0.01032     0.46458   
  1429. BD*(   1) C  15 - C  16          0.01262     0.48816   
  1430. BD*(   2) C  15 - C  16          0.13939    -0.03864  1467(v),1404(v),152(v)
                                                    1463(v),1462(v)
  1431. BD*(   1) C  15 - C  47          0.00765     0.31965   
  1432. BD*(   1) C  16 - C  17          0.01683     0.37836   
  1433. BD*(   1) C  16 - C  51          0.01331     0.39726   
  1434. BD*(   1) C  17 - C  28          0.01015     0.46755   
  1435. BD*(   1) C  18 - C  19          0.01728     0.38386   
  1436. BD*(   1) C  18 - C  28          0.01023     0.46905   
  1437. BD*(   1) C  19 - C  20          0.01149     0.50608   
  1438. BD*(   2) C  19 - C  20          0.11800    -0.03249  1443(v),1407(v),1471(v)
                                                    1475(v),1473(v),1470(v)
  1439. BD*(   1) C  19 - C  56          0.00803     0.31869   
  1440. BD*(   1) C  20 - C  21          0.01719     0.38300   
  1441. BD*(   1) C  20 - C  60          0.00804     0.31828   
  1442. BD*(   1) C  21 - C  22          0.01000     0.46889   
  1443. BD*(   2) C  21 - C  22          0.19154    -0.05968  1398(v),1438(v),1407(v)
                                                    1426(r),702(g),1417(r)
                                                    680(g)
  1444. BD*(   1) C  22 - H  23          0.00603     0.32816   
  1445. BD*(   1) C  24 - H  25          0.00621     0.32743   
  1446. BD*(   1) C  26 - H  27          0.00636     0.32853   
  1447. BD*(   1) C  28 - H  29          0.00636     0.32915   
  1448. BD*(   1) C  30 - H  31          0.00444     0.28663   
  1449. BD*(   1) C  30 - H  32          0.00301     0.30191   
  1450. BD*(   1) C  30 - H  33          0.00453     0.28991   
  1451. BD*(   1) C  34 - H  35          0.00444     0.28818   
  1452. BD*(   1) C  34 - H  36          0.00443     0.29064   
  1453. BD*(   1) C  34 - H  37          0.00299     0.30209   
  1454. BD*(   1) C  38 - H  39          0.00431     0.29433   
  1455. BD*(   1) C  38 - H  40          0.00528     0.29034   
  1456. BD*(   1) C  38 - H  41          0.00362     0.30438   
  1457. BD*(   1) C  42 - H  43          0.01028     0.33159   
  1458. BD*(   1) C  42 - C  44          0.00365     0.54212   
  1459. BD*(   2) C  42 - C  44          0.02792    -0.03057   
  1460. BD*(   1) C  44 - H  45          0.00511     0.34903   
  1461. BD*(   1) C  44 - H  46          0.00383     0.35281   
  1462. BD*(   1) C  47 - H  48          0.00426     0.29551   
  1463. BD*(   1) C  47 - H  49          0.00519     0.29164   
  1464. BD*(   1) C  47 - H  50          0.00365     0.30518   
  1465. BD*(   1) C  51 - H  52          0.01029     0.33091   
  1466. BD*(   1) C  51 - C  53          0.00365     0.54134   
  1467. BD*(   2) C  51 - C  53          0.02813    -0.02988   
  1468. BD*(   1) C  53 - H  54          0.00508     0.34919   
  1469. BD*(   1) C  53 - H  55          0.00382     0.35288   
  1470. BD*(   1) C  56 - H  57          0.00427     0.29193   
  1471. BD*(   1) C  56 - H  58          0.00461     0.29298   
  1472. BD*(   1) C  56 - H  59          0.00301     0.30523   
  1473. BD*(   1) C  60 - H  61          0.00434     0.29144   
  1474. BD*(   1) C  60 - H  62          0.00301     0.30514   
  1475. BD*(   1) C  60 - H  63          0.00461     0.29243   
  1476. BD*(   1) C  64 - H  65          0.00471     0.26715   
  1477. BD*(   1) C  64 - H  66          0.00154     0.27893   
  1478. BD*(   1) C  64 - H  67          0.00500     0.26720   
  1479. BD*(   1) C  64 - C  70          0.00600     0.28472   
  1480. BD*(   1) N  68 - H  69          0.00636     0.25988   
  1481. BD*(   1) N  68 - C  70          0.01369     0.31406   
  1482. BD*(   2) N  68 - C  70          0.36736    -0.15979  1488(v),154(v),1478(v)
                                                    1476(v),1247(g),1279(g)
                                                    1284(g),1208(v),1366(v)
  1483. BD*(   1) N  68 - C  71          0.01034     0.32428   
  1484. BD*(   1) C  70 - C  74          0.01047     0.44614   
  1485. BD*(   1) C  71 - H  72          0.00778     0.26376   
  1486. BD*(   1) C  71 - N  73          0.00733     0.39942   
  1487. BD*(   1) N  73 - C  74          0.00727     0.34642   
  1488. BD*(   2) N  73 - C  74          0.33985    -0.14191  1482(v),148(v),154(v)
                                                    1362(g),1336(g),149(v)
                                                    1305(v)
  1489. BD*(   1) C  74 - H  75          0.00622     0.30745   
       -------------------------------
              Total Lewis  145.36952  ( 96.9130%)
        Valence non-Lewis    4.37202  (  2.9147%)
        Rydberg non-Lewis    0.25847  (  0.1723%)
       -------------------------------
            Total unit  1  150.00000  (100.0000%)
           Charge unit  1    3.00000
 Unable to Open any file for archive entry.
 1\1\GINC-BGN1037\SP\UAPFD\def2TZVP\C34H34Fe1N6(1+,6)\BECSLEIP\16-Aug-2
 024\0\\# apfd/def2TZVP guess=read scf=maxcycle=999 geom=check pop=nbo\
 \2bli_III_H\\1,6\Fe,0,35.3813125883,4.2319359876,9.9183562755\N,0,37.3
 298003353,4.0652557142,9.4660935531\N,0,35.1800946418,5.6354649824,8.5
 132070164\N,0,33.6052836468,4.7784120778,10.6958260802\N,0,35.74221971
 77,3.1679241152,11.5952033793\C,0,38.284398214,3.3183420062,10.0871989
 57\C,0,39.5231880651,3.3316093205,9.3446015771\C,0,39.314609874,4.1403
 095784,8.2713066123\C,0,37.9500910021,4.6068264028,8.3748065859\C,0,36
 .0814780318,5.9594526676,7.5419830319\C,0,35.5150574624,6.8842813955,6
 .5958662594\C,0,34.2604630913,7.1832825986,7.0563100162\C,0,34.0782852
 582,6.3962786019,8.2600210682\C,0,32.7268064574,5.6887372655,10.181104
 7628\C,0,31.5619831512,5.8202208902,11.015965006\C,0,31.7594662936,4.9
 841569583,12.0822953243\C,0,33.038399727,4.3407303998,11.8539918157\C,
 0,34.8665414199,2.8951045205,12.6030430731\C,0,35.4605984729,2.0195489
 667,13.587524461\C,0,36.7369933615,1.7977677228,13.1763564122\C,0,36.8
 935790341,2.5185591034,11.9329580019\C,0,38.0860257827,2.5838905485,11
 .2405714245\H,0,38.9255181347,2.032187217,11.6345593376\C,0,37.3742635
 447,5.4722028559,7.467275765\H,0,37.9914119739,5.8195305895,6.65274526
 2\C,0,32.9304508361,6.4224094164,9.0259659205\H,0,32.1500676436,7.1064
 01648,8.7295763734\C,0,33.5970621896,3.4238625842,12.7229094015\H,0,33
 .0276991027,3.1514902183,13.598101807\C,0,40.2559114331,4.5238555837,7
 .1813444635\H,0,39.8569330104,4.2379716409,6.2075978513\H,0,41.2185975
 46,4.0362866081,7.3134785622\H,0,40.4161958468,5.6020607072,7.17716651
 72\C,0,40.7531789463,2.5946938179,9.7499153538\H,0,40.5580310381,1.523
 4978714,9.808359353\H,0,41.0927449482,2.9301019666,10.7299618251\H,0,4
 1.5560422442,2.7590772868,9.0353117207\C,0,36.1897987131,7.3645448721,
 5.3587349343\H,0,36.7673471751,6.5635715043,4.8993351149\H,0,36.870718
 7026,8.1878492207,5.5806078607\H,0,35.4489622087,7.7156444008,4.643305
 6561\C,0,33.2623284014,8.0634045573,6.4881724264\H,0,32.2324249506,7.7
 555174601,6.6273256199\C,0,33.5142451669,9.1922618503,5.8339428118\H,0
 ,34.5135364499,9.5703934858,5.7073310297\H,0,32.720597056,9.7944670018
 ,5.4236493693\C,0,30.38235572,6.6756180447,10.7123405406\H,0,30.150499
 6673,6.6482620758,9.6485432914\H,0,30.5726677282,7.7135764147,10.98966
 14821\H,0,29.5148277036,6.3248059551,11.2675919944\C,0,30.8980331093,4
 .7280668612,13.2161690543\H,0,30.9178356612,3.7149072525,13.6012183374
 \C,0,30.1131229466,5.6245169348,13.8043331692\H,0,30.0892549012,6.6550
 672219,13.496080563\H,0,29.4837150627,5.3608964478,14.6381206324\C,0,3
 4.7616006856,1.5307574995,14.8091268151\H,0,33.8446340845,1.0056804976
 ,14.541607758\H,0,34.4968788015,2.3655639791,15.4587043662\H,0,35.3961
 320833,0.8495310826,15.3706741719\C,0,37.8095207342,0.9879341019,13.82
 00042436\H,0,38.1749494677,0.2217076085,13.1361127106\H,0,37.437919396
 5,0.4986927525,14.7169560562\H,0,38.6514830413,1.6214621706,14.1000348
 306\C,0,32.3175353005,0.1867265835,7.5430285002\H,0,32.0802936999,0.26
 79360543,6.4825782254\H,0,31.4300883367,0.4303344666,8.1184181331\H,0,
 32.5960995602,-0.8460797379,7.7518139386\N,0,34.6450635236,1.076682079
 4,7.301286495\H,0,34.9214403442,0.4390400003,6.5727654886\C,0,33.41779
 55556,1.1141481493,7.908263555\C,0,35.4080736043,2.0448056783,7.857343
 7548\H,0,36.4212812792,2.2450545999,7.5735152417\N,0,34.7405621249,2.6
 956431354,8.7830762184\C,0,33.498635712,2.1238939337,8.8238181057\H,0,
 32.7519572724,2.4763919669,9.5055472954\\Version=ES64L-G16RevC.02\Stat
 e=6-A\HF=-2907.4225648\S2=8.760559\S2-1=0.\S2A=8.750034\RMSD=7.219e-09
 \Dipole=-0.091516,-2.0458313,-1.444783\Quadrupole=3.4854222,-4.3415891
 ,0.8561669,-7.6675606,-7.7555018,-5.0953436\PG=C01 [X(C34H34Fe1N6)]\\@
 The archive entry for this job was punched.


 THE SECRET OF SUCCESS IN LIFE IS TO EAT WHAT YOU LIKE, AND LET THE FOOD
 FIGHT IT OUT INSIDE YOU. -- FROM A FORTUNE COOKIE
 Job cpu time:       0 days 10 hours 31 minutes 48.0 seconds.
 Elapsed time:       0 days  0 hours 10 minutes 11.7 seconds.
 File lengths (MBytes):  RWF=   2047 Int=      0 D2E=      0 Chk=    169 Scr=      1
 Normal termination of Gaussian 16 at Fri Aug 16 08:39:24 2024.
