 Entering Gaussian System, Link 0=g16
 Input=2cmn01.com
 Output=2cmn01.log
 Initial command:
 /sw/chem/gaussian/g16_C02/a100/g16/l1.exe "/local/becsleip_7984892/Gau-88225.inp" -scrdir="/local/becsleip_7984892/"
 Entering Link 1 = /sw/chem/gaussian/g16_C02/a100/g16/l1.exe PID=     88226.
  
 Copyright (c) 1988-2021, Gaussian, Inc.  All Rights Reserved.
  
 This is part of the Gaussian(R) 16 program.  It is based on
 the Gaussian(R) 09 system (copyright 2009, Gaussian, Inc.),
 the Gaussian(R) 03 system (copyright 2003, Gaussian, Inc.),
 the Gaussian(R) 98 system (copyright 1998, Gaussian, Inc.),
 the Gaussian(R) 94 system (copyright 1995, Gaussian, Inc.),
 the Gaussian 92(TM) system (copyright 1992, Gaussian, Inc.),
 the Gaussian 90(TM) system (copyright 1990, Gaussian, Inc.),
 the Gaussian 88(TM) system (copyright 1988, Gaussian, Inc.),
 the Gaussian 86(TM) system (copyright 1986, Carnegie Mellon
 University), and the Gaussian 82(TM) system (copyright 1983,
 Carnegie Mellon University). Gaussian is a federally registered
 trademark of Gaussian, Inc.
  
 This software contains proprietary and confidential information,
 including trade secrets, belonging to Gaussian, Inc.
  
 This software is provided under written license and may be
 used, copied, transmitted, or stored only in accord with that
 written license.
  
 The following legend is applicable only to US Government
 contracts under FAR:
  
                    RESTRICTED RIGHTS LEGEND
  
 Use, reproduction and disclosure by the US Government is
 subject to restrictions as set forth in subparagraphs (a)
 and (c) of the Commercial Computer Software - Restricted
 Rights clause in FAR 52.227-19.
  
 Gaussian, Inc.
 340 Quinnipiac St., Bldg. 40, Wallingford CT 06492
  
  
 ---------------------------------------------------------------
 Warning -- This program may not be used in any manner that
 competes with the business of Gaussian, Inc. or will provide
 assistance to any competitor of Gaussian, Inc.  The licensee
 of this program is prohibited from giving any competitor of
 Gaussian, Inc. access to this program.  By using this program,
 the user acknowledges that Gaussian, Inc. is engaged in the
 business of creating and licensing software in the field of
 computational chemistry and represents and warrants to the
 licensee that it is not a competitor of Gaussian, Inc. and that
 it will not use this program in any manner prohibited above.
 ---------------------------------------------------------------
  

 Cite this work as:
 Gaussian 16, Revision C.02,
 M. J. Frisch, G. W. Trucks, H. B. Schlegel, G. E. Scuseria, 
 M. A. Robb, J. R. Cheeseman, G. Scalmani, V. Barone, 
 G. A. Petersson, H. Nakatsuji, X. Li, M. Caricato, A. V. Marenich, 
 J. Bloino, B. G. Janesko, R. Gomperts, B. Mennucci, H. P. Hratchian, 
 J. V. Ortiz, A. F. Izmaylov, J. L. Sonnenberg, D. Williams-Young, 
 F. Ding, F. Lipparini, F. Egidi, J. Goings, B. Peng, A. Petrone, 
 T. Henderson, D. Ranasinghe, V. G. Zakrzewski, J. Gao, N. Rega, 
 G. Zheng, W. Liang, M. Hada, M. Ehara, K. Toyota, R. Fukuda, 
 J. Hasegawa, M. Ishida, T. Nakajima, Y. Honda, O. Kitao, H. Nakai, 
 T. Vreven, K. Throssell, J. A. Montgomery, Jr., J. E. Peralta, 
 F. Ogliaro, M. J. Bearpark, J. J. Heyd, E. N. Brothers, K. N. Kudin, 
 V. N. Staroverov, T. A. Keith, R. Kobayashi, J. Normand, 
 K. Raghavachari, A. P. Rendell, J. C. Burant, S. S. Iyengar, 
 J. Tomasi, M. Cossi, J. M. Millam, M. Klene, C. Adamo, R. Cammi, 
 J. W. Ochterski, R. L. Martin, K. Morokuma, O. Farkas, 
 J. B. Foresman, and D. J. Fox, Gaussian, Inc., Wallingford CT, 2019.
 
 ******************************************
 Gaussian 16:  ES64L-G16RevC.02  7-Dec-2021
                21-Aug-2024 
 ******************************************
 %mem=16GB
 %CPU=0-71
 SetSPE:  set environment variable "OMP_PROC_BIND" = "true"
 SetSPE:  set environment variable "OMP_PLACES" = "{0},{1},{2},{3},{4},{5},{6},{7},{8},{9},{10},{11},{12},{13},{14},{15},{16},{17},{18},{19},{20},{21},{22},{23},{24},{25},{26},{27},{28},{29},{30},{31},{32},{33},{34},{35},{36},{37},{38},{39},{40},{41},{42},{43},{44},{45},{46},{47},{48},{49},{50},{51},{52},{53},{54},{55},{56},{57},{58},{59},{60},{61},{62},{63},{64},{65},{66},{67},{68},{69},{70},{71}"
 Will use up to   72 processors via shared memory.
 %gpucpu=0,1,2,3=0,1,2,3
 Will use    4 GPUs:
 Thread  CPU   GPU
      0    0     0
      1    1     1
      2    2     2
      3    3     3
      4    4    -1
      5    5    -1
      6    6    -1
      7    7    -1
      8    8    -1
      9    9    -1
     10   10    -1
     11   11    -1
     12   12    -1
     13   13    -1
     14   14    -1
     15   15    -1
     16   16    -1
     17   17    -1
     18   18    -1
     19   19    -1
     20   20    -1
     21   21    -1
     22   22    -1
     23   23    -1
     24   24    -1
     25   25    -1
     26   26    -1
     27   27    -1
     28   28    -1
     29   29    -1
     30   30    -1
     31   31    -1
     32   32    -1
     33   33    -1
     34   34    -1
     35   35    -1
     36   36    -1
     37   37    -1
     38   38    -1
     39   39    -1
     40   40    -1
     41   41    -1
     42   42    -1
     43   43    -1
     44   44    -1
     45   45    -1
     46   46    -1
     47   47    -1
     48   48    -1
     49   49    -1
     50   50    -1
     51   51    -1
     52   52    -1
     53   53    -1
     54   54    -1
     55   55    -1
     56   56    -1
     57   57    -1
     58   58    -1
     59   59    -1
     60   60    -1
     61   61    -1
     62   62    -1
     63   63    -1
     64   64    -1
     65   65    -1
     66   66    -1
     67   67    -1
     68   68    -1
     69   69    -1
     70   70    -1
     71   71    -1
 SetGPE:  set environment variable "OMP_PROC_BIND" = "true"
 SetGPE:  set environment variable "OMP_PLACES" = "{0},{1},{2},{3},{4},{5},{6},{7},{8},{9},{10},{11},{12},{13},{14},{15},{16},{17},{18},{19},{20},{21},{22},{23},{24},{25},{26},{27},{28},{29},{30},{31},{32},{33},{34},{35},{36},{37},{38},{39},{40},{41},{42},{43},{44},{45},{46},{47},{48},{49},{50},{51},{52},{53},{54},{55},{56},{57},{58},{59},{60},{61},{62},{63},{64},{65},{66},{67},{68},{69},{70},{71}"
 %chk=2cmn_II_O.chk
 Properties for Device   0
 Minimum vector length:                              32
 Maximum vector length:                            1024
 Number of SMPs:                                    108
 Maximum number of threads per SMP:                2048
 Number of ASync Engines:                             5
 Memory:                                           9207742464
 Properties for Device   1
 Minimum vector length:                              32
 Maximum vector length:                            1024
 Number of SMPs:                                    108
 Maximum number of threads per SMP:                2048
 Number of ASync Engines:                             5
 Memory:                                           9207742464
 Properties for Device   2
 Minimum vector length:                              32
 Maximum vector length:                            1024
 Number of SMPs:                                    108
 Maximum number of threads per SMP:                2048
 Number of ASync Engines:                             5
 Memory:                                           9207742464
 Properties for Device   3
 Minimum vector length:                              32
 Maximum vector length:                            1024
 Number of SMPs:                                    108
 Maximum number of threads per SMP:                2048
 Number of ASync Engines:                             5
 Memory:                                           9207742464
   8286968217 words of memory will be used on each GPU.
 ------------------------------------------
 # polar def2tzvp apfd int=(grid=ultrafine)
 ------------------------------------------
 1/38=1,172=1/1;
 2/12=2,17=6,18=5,40=1/2;
 3/5=44,7=101,11=2,25=1,30=1,74=-44,75=-5/1,2,3;
 4//1;
 5/5=2,38=5,98=1/2;
 8/6=4,10=90,11=11/1;
 10/6=1,13=10/2;
 6/7=2,8=2,9=2,10=2,28=1/1;
 99/5=1,9=1/99;
 ---------
 2cmn_II_S
 ---------
 Symbolic Z-matrix:
 Charge =  0 Multiplicity = 1
 Fe                    48.02882   55.71823   33.7361 
 N                     47.35367   54.55213   32.26455 
 N                     49.91059   55.44671   33.0906 
 N                     48.74493   56.5406   35.40218 
 N                     46.2      55.65394   34.56365 
 C                     46.11954   53.98718   32.14099 
 C                     46.07607   53.06911   31.02599 
 C                     47.31553   53.08735   30.46899 
 C                     48.10138   54.0088   31.25926 
 C                     50.27072   54.96369   31.86791 
 C                     51.66826   55.18993   31.61594 
 C                     52.16804   55.80546   32.7319 
 C                     51.05093   55.94473   33.64359 
 C                     50.05603   56.71806   35.74342 
 C                     50.17911   57.23049   37.08262 
 C                     48.90276   57.37947   37.5562 
 C                     48.02715   56.93647   36.48957 
 C                     45.80016   56.32837   35.67828 
 C                     44.36546   56.25842   35.83674 
 C                     43.90584   55.49627   34.80774 
 C                     45.06449   55.1248   34.02905 
 C                     45.02199   54.30542   32.91787 
 H                     44.07288   53.86518   32.65308 
 C                     49.43112   54.27991   31.00666 
 H                     49.86643   53.86601   30.10973 
 C                     51.13428   56.49676   34.90586 
 H                     52.11679   56.74216   35.27736 
 C                     46.6478   56.93137   36.58628 
 H                     46.20459   57.37298   37.4658 
 C                     47.83836   52.32538   29.29999 
 H                     48.18986   53.00586   28.52374 
 H                     47.06372   51.69246   28.87416 
 H                     48.67377   51.69198   29.59854 
 C                     44.87289   52.28291   30.63351 
 H                     44.05607   52.94804   30.35146 
 H                     44.53355   51.66355   31.46377 
 H                     45.0932   51.63443   29.78911 
 C                     52.38076   54.82084   30.36097 
 H                     51.90686   55.28986   29.49841 
 H                     52.35905   53.74059   30.21081 
 H                     53.41754   55.14515   30.40043 
 C                     53.53592   56.23465   32.94686 
 H                     54.29483   55.5644   32.55691 
 C                     53.91465   57.36528   33.53122 
 H                     53.20421   58.09251   33.88629 
 H                     54.95617   57.61432   33.65108 
 C                     51.46639   57.45669   37.79497 
 H                     51.89365   58.42499   37.52834 
 H                     52.19007   56.6859   37.53507 
 H                     51.30573   57.43721   38.871 
 C                     48.45524   57.83285   38.85493 
 H                     47.54834   57.36931   39.2252 
 C                     49.05937   58.75335   39.59929 
 H                     49.93718   59.27678   39.26234 
 H                     48.67966   59.03283   40.56803 
 C                     43.60871   56.89893   36.94934 
 H                     43.84071   57.96219   37.01155 
 H                     43.86982   56.43999   37.90355 
 H                     42.53725   56.78866   36.80112 
 C                     42.51084   55.08115   34.48896 
 H                     41.80312   55.54726   35.17041 
 H                     42.40552   53.99903   34.57465 
 H                     42.24935   55.36666   33.47002 
 C                     47.62565   59.75578   29.90275 
 H                     48.26581   60.63206   30.00267 
 H                     46.62531   60.0934   29.63244 
 H                     48.01102   59.13289   29.10181 
 N                     47.14156   59.51183   32.34583 
 H                     46.79841   60.44971   32.47357 
 C                     47.5943   58.97912   31.16774 
 C                     47.24048   58.55417   33.29535 
 H                     46.956    58.68944   34.31951 
 N                     47.729    57.44369   32.7905 
 C                     47.95447   57.6961   31.4657 
 H                     48.35824   56.94083   30.82216 
 
 Stoichiometry    C34H34FeN6
 Framework group  C1[X(C34H34FeN6)]
 Deg. of freedom   219
 Full point group                 C1      NOp   1
 Largest Abelian subgroup         C1      NOp   1
 Largest concise Abelian subgroup C1      NOp   1
                         Standard orientation:                         
 ---------------------------------------------------------------------
 Center     Atomic      Atomic             Coordinates (Angstroms)
 Number     Number       Type             X           Y           Z
 ---------------------------------------------------------------------
      1         26           0       -0.157585   -0.100501   -0.309378
      2          7           0       -2.132183    0.020155   -0.569187
      3          7           0        0.003079    1.880391   -0.595213
      4          7           0        1.822897   -0.256077   -0.445075
      5          7           0       -0.313277   -2.100372   -0.408688
      6          6           0       -3.012225   -0.995728   -0.795037
      7          6           0       -4.328315   -0.485780   -1.104619
      8          6           0       -4.231754    0.869086   -1.061326
      9          6           0       -2.854502    1.166972   -0.736360
     10          6           0       -1.021982    2.777461   -0.545363
     11          6           0       -0.524421    4.125096   -0.481081
     12          6           0        0.841096    4.035679   -0.518553
     13          6           0        1.145249    2.621745   -0.600904
     14          6           0        2.721248    0.748614   -0.669775
     15          6           0        4.053231    0.227739   -0.830055
     16          6           0        3.955391   -1.130313   -0.682904
     17          6           0        2.551878   -1.406250   -0.449149
     18          6           0        0.701618   -2.993182   -0.235441
     19          6           0        0.189682   -4.339146   -0.114409
     20          6           0       -1.160719   -4.246227   -0.251380
     21          6           0       -1.453837   -2.844235   -0.439342
     22          6           0       -2.719990   -2.339915   -0.663898
     23          1           0       -3.531177   -3.044123   -0.767899
     24          6           0       -2.364698    2.452337   -0.620364
     25          1           0       -3.072972    3.265685   -0.666348
     26          6           0        2.419588    2.098373   -0.685450
     27          1           0        3.235623    2.793461   -0.805855
     28          6           0        2.045858   -2.678130   -0.253557
     29          1           0        2.750384   -3.491972   -0.174119
     30          6           0       -5.278521    1.900237   -1.309326
     31          1           0       -5.412063    2.531511   -0.430215
     32          1           0       -6.232302    1.433556   -1.542739
     33          1           0       -4.995350    2.539771   -2.145429
     34          6           0       -5.508311   -1.341778   -1.412281
     35          1           0       -5.755910   -1.973750   -0.558786
     36          1           0       -5.298946   -1.989607   -2.263494
     37          1           0       -6.376696   -0.732334   -1.650091
     38          6           0       -1.372950    5.345068   -0.378703
     39          1           0       -2.019428    5.290534    0.497461
     40          1           0       -2.008132    5.445826   -1.259807
     41          1           0       -0.754431    6.234866   -0.292952
     42          6           0        1.784090    5.135898   -0.476003
     43          1           0        1.483815    6.020492   -1.027876
     44          6           0        2.929546    5.154254    0.195427
     45          1           0        3.249987    4.325852    0.804298
     46          1           0        3.576895    6.015541    0.178668
     47          6           0        5.252400    1.040998   -1.171083
     48          1           0        5.681654    1.495334   -0.276344
     49          1           0        4.990784    1.840258   -1.862550
     50          1           0        6.010326    0.412166   -1.633842
     51          6           0        4.988780   -2.138186   -0.776965
     52          1           0        4.676836   -3.090915   -1.188577
     53          6           0        6.253748   -1.981311   -0.400641
     54          1           0        6.607587   -1.072445    0.054141
     55          1           0        6.977620   -2.771128   -0.514408
     56          6           0        1.037283   -5.547248    0.092656
     57          1           0        1.684451   -5.420128    0.960536
     58          1           0        1.670330   -5.724144   -0.777560
     59          1           0        0.420846   -6.429069    0.249345
     60          6           0       -2.188965   -5.324307   -0.231048
     61          1           0       -1.737451   -6.285308    0.003715
     62          1           0       -2.677195   -5.404601   -1.202959
     63          1           0       -2.954198   -5.110094    0.515044
     64          6           0       -1.394883    1.079314    5.004379
     65          1           0       -0.635461    1.561900    5.619228
     66          1           0       -1.864869    0.294429    5.596654
     67          1           0       -2.148249    1.814865    4.740908
     68          7           0        0.181680   -0.445038    3.798865
     69          1           0        0.579267   -0.853701    4.628685
     70          6           0       -0.793374    0.516740    3.769032
     71          6           0        0.507784   -0.740168    2.520178
     72          1           0        1.246558   -1.463289    2.238291
     73          7           0       -0.202703   -0.023140    1.678897
     74          6           0       -1.016496    0.764684    2.444878
     75          1           0       -1.702520    1.451816    1.992306
 ---------------------------------------------------------------------
 Rotational constants (GHZ):           0.0955409           0.0922847           0.0604518
 Standard basis: def2TZVP (5D, 7F)
 There are  1696 symmetry adapted cartesian basis functions of A   symmetry.
 There are  1489 symmetry adapted basis functions of A   symmetry.
  1489 basis functions,  2414 primitive gaussians,  1696 cartesian basis functions
   153 alpha electrons      153 beta electrons
       nuclear repulsion energy      5576.8457593809 Hartrees.
 NAtoms=   75 NActive=   75 NUniq=   75 SFac= 1.00D+00 NAtFMM=   60 NAOKFM=T Big=T
 Integral buffers will be    131072 words long.
 Raffenetti 2 integral format.
 Two-electron integral symmetry is turned on.
 R6APFD:  NTU= -4 IXU= 1 FactS= 1.050
 Nuclear repulsion after empirical dispersion term =     5576.7128760091 Hartrees.
 One-electron integrals computed using PRISM.
   1 Symmetry operations used in ECPInt.
 ECPInt:  NShTT=  174936 NPrTT=  542361 LenC2=  137687 LenP2D=  282613.
 LDataN:  DoStor=T MaxTD1= 6 Len=  172
 Number of processors reduced to  23 by ecpmxn.
 NBasis=  1489 RedAO= T EigKep=  3.20D-06  NBF=  1489
 NBsUse=  1489 1.00D-06 EigRej= -1.00D+00 NBFU=  1489
 ExpMin= 4.20D-02 ExpMax= 3.01D+05 ExpMxC= 2.91D+03 IAcc=3 IRadAn=         5 AccDes= 0.00D+00
 Harris functional with IExCor= 3731 and IRadAn=       5 diagonalized for initial guess.
 HarFok:  IExCor= 3731 AccDes= 0.00D+00 IRadAn=         5 IDoV= 1 UseB2=F ITyADJ=14
 ICtDFT=  3500011 ScaDFX=  1.000000  1.000000  1.000000  1.000000
 FoFCou: FMM=F IPFlag=           0 FMFlag=      100000 FMFlg1=        2001
         NFxFlg=           0 DoJE=T BraDBF=F KetDBF=T FulRan=T
         wScrn=  0.000000 ICntrl=       500 IOpCl=  0 I1Cent=   200000004 NGrid=           0
         NMat0=    1 NMatS0=      1 NMatT0=    0 NMatD0=    1 NMtDS0=    0 NMtDT0=    0
 Petite list used in FoFCou.
 Requested convergence on RMS density matrix=1.00D-08 within 128 cycles.
 Requested convergence on MAX density matrix=1.00D-06.
 Requested convergence on             energy=1.00D-06.
 No special actions if energy rises.
 EnCoef did     4 forward-backward iterations
 EnCoef did   100 forward-backward iterations
 EnCoef did   100 forward-backward iterations
 EnCoef did   100 forward-backward iterations
 EnCoef did     3 forward-backward iterations
 EnCoef did     3 forward-backward iterations
 Restarting incremental Fock formation.
 SCF Done:  E(RAPFD) =  -2907.60081953     A.U. after   27 cycles
            NFock= 27  Conv=0.21D-08     -V/T= 2.0035
 DoSCS=F DFT=T ScalE2(SS,OS)=  1.000000  1.000000
 Range of M.O.s used for correlation:     1  1489
 NBasis=  1489 NAE=   153 NBE=   153 NFC=     0 NFV=     0
 NROrb=   1489 NOA=   153 NOB=   153 NVA=  1336 NVB=  1336

 **** Warning!!: The largest alpha MO coefficient is  0.48585023D+02

          Differentiating once with respect to electric field.
                with respect to dipole field.
          Electric field/nuclear overlap derivatives assumed to be zero.
          There are     3 degrees of freedom in the 1st order CPHF.  IDoFFX=0 NUNeed=     3.
      3 vectors produced by pass  0 Test12= 6.81D-12 3.33D-08 XBig12= 1.85D+03 2.71D+01.
 AX will form     3 AO Fock derivatives at one time.
      3 vectors produced by pass  1 Test12= 6.81D-12 3.33D-08 XBig12= 1.13D+03 8.50D+00.
      3 vectors produced by pass  2 Test12= 6.81D-12 3.33D-08 XBig12= 3.45D+02 4.91D+00.
      3 vectors produced by pass  3 Test12= 6.81D-12 3.33D-08 XBig12= 2.33D+02 3.44D+00.
      3 vectors produced by pass  4 Test12= 6.81D-12 3.33D-08 XBig12= 1.52D+02 3.04D+00.
      3 vectors produced by pass  5 Test12= 6.81D-12 3.33D-08 XBig12= 6.15D+01 1.77D+00.
      3 vectors produced by pass  6 Test12= 6.81D-12 3.33D-08 XBig12= 4.73D+01 1.97D+00.
      3 vectors produced by pass  7 Test12= 6.81D-12 3.33D-08 XBig12= 2.03D+01 1.52D+00.
      3 vectors produced by pass  8 Test12= 6.81D-12 3.33D-08 XBig12= 1.11D+01 1.03D+00.
      3 vectors produced by pass  9 Test12= 6.81D-12 3.33D-08 XBig12= 6.92D+00 7.42D-01.
      3 vectors produced by pass 10 Test12= 6.81D-12 3.33D-08 XBig12= 2.31D+00 3.42D-01.
      3 vectors produced by pass 11 Test12= 6.81D-12 3.33D-08 XBig12= 8.62D-01 1.64D-01.
      3 vectors produced by pass 12 Test12= 6.81D-12 3.33D-08 XBig12= 4.79D-01 1.41D-01.
      3 vectors produced by pass 13 Test12= 6.81D-12 3.33D-08 XBig12= 1.05D-01 6.37D-02.
      3 vectors produced by pass 14 Test12= 6.81D-12 3.33D-08 XBig12= 5.15D-02 3.72D-02.
      3 vectors produced by pass 15 Test12= 6.81D-12 3.33D-08 XBig12= 1.97D-02 2.22D-02.
      3 vectors produced by pass 16 Test12= 6.81D-12 3.33D-08 XBig12= 6.62D-03 1.93D-02.
      3 vectors produced by pass 17 Test12= 6.81D-12 3.33D-08 XBig12= 1.06D-03 7.73D-03.
      3 vectors produced by pass 18 Test12= 6.81D-12 3.33D-08 XBig12= 2.55D-04 2.94D-03.
      3 vectors produced by pass 19 Test12= 6.81D-12 3.33D-08 XBig12= 6.46D-05 1.65D-03.
      3 vectors produced by pass 20 Test12= 6.81D-12 3.33D-08 XBig12= 1.76D-05 9.02D-04.
      3 vectors produced by pass 21 Test12= 6.81D-12 3.33D-08 XBig12= 2.99D-06 3.90D-04.
      3 vectors produced by pass 22 Test12= 6.81D-12 3.33D-08 XBig12= 8.89D-07 2.50D-04.
      3 vectors produced by pass 23 Test12= 6.81D-12 3.33D-08 XBig12= 1.78D-07 1.24D-04.
      3 vectors produced by pass 24 Test12= 6.81D-12 3.33D-08 XBig12= 4.41D-08 6.12D-05.
      3 vectors produced by pass 25 Test12= 6.81D-12 3.33D-08 XBig12= 5.90D-09 1.83D-05.
      3 vectors produced by pass 26 Test12= 6.81D-12 3.33D-08 XBig12= 1.15D-09 7.17D-06.
      3 vectors produced by pass 27 Test12= 6.81D-12 3.33D-08 XBig12= 2.03D-10 2.68D-06.
      3 vectors produced by pass 28 Test12= 6.81D-12 3.33D-08 XBig12= 4.84D-11 1.80D-06.
      3 vectors produced by pass 29 Test12= 6.81D-12 3.33D-08 XBig12= 6.44D-12 6.43D-07.
      3 vectors produced by pass 30 Test12= 6.81D-12 3.33D-08 XBig12= 6.67D-13 1.64D-07.
      2 vectors produced by pass 31 Test12= 6.81D-12 3.33D-08 XBig12= 9.39D-14 5.74D-08.
 InvSVY:  IOpt=1 It=  1 EMax= 1.60D-14
 Solved reduced A of dimension    95 with     3 vectors.
 Isotropic polarizability for W=    0.000000      564.57 Bohr**3.
 End of Minotr F.D. properties file   721 does not exist.
 End of Minotr F.D. properties file   722 does not exist.
 End of Minotr F.D. properties file   788 does not exist.

 **********************************************************************

            Population analysis using the SCF Density.

 **********************************************************************

 Orbital symmetries:
       Occupied  (A) (A) (A) (A) (A) (A) (A) (A) (A) (A) (A) (A)
                 (A) (A) (A) (A) (A) (A) (A) (A) (A) (A) (A) (A)
                 (A) (A) (A) (A) (A) (A) (A) (A) (A) (A) (A) (A)
                 (A) (A) (A) (A) (A) (A) (A) (A) (A) (A) (A) (A)
                 (A) (A) (A) (A) (A) (A) (A) (A) (A) (A) (A) (A)
                 (A) (A) (A) (A) (A) (A) (A) (A) (A) (A) (A) (A)
                 (A) (A) (A) (A) (A) (A) (A) (A) (A) (A) (A) (A)
                 (A) (A) (A) (A) (A) (A) (A) (A) (A) (A) (A) (A)
                 (A) (A) (A) (A) (A) (A) (A) (A) (A) (A) (A) (A)
                 (A) (A) (A) (A) (A) (A) (A) (A) (A) (A) (A) (A)
                 (A) (A) (A) (A) (A) (A) (A) (A) (A) (A) (A) (A)
                 (A) (A) (A) (A) (A) (A) (A) (A) (A) (A) (A) (A)
                 (A) (A) (A) (A) (A) (A) (A) (A) (A)
       Virtual   (A) (A) (A) (A) (A) (A) (A) (A) (A) (A) (A) (A)
                 (A) (A) (A) (A) (A) (A) (A) (A) (A) (A) (A) (A)
                 (A) (A) (A) (A) (A) (A) (A) (A) (A) (A) (A) (A)
                 (A) (A) (A) (A) (A) (A) (A) (A) (A) (A) (A) (A)
                 (A) (A) (A) (A) (A) (A) (A) (A) (A) (A) (A) (A)
                 (A) (A) (A) (A) (A) (A) (A) (A) (A) (A) (A) (A)
                 (A) (A) (A) (A) (A) (A) (A) (A) (A) (A) (A) (A)
                 (A) (A) (A) (A) (A) (A) (A) (A) (A) (A) (A) (A)
                 (A) (A) (A) (A) (A) (A) (A) (A) (A) (A) (A) (A)
                 (A) (A) (A) (A) (A) (A) (A) (A) (A) (A) (A) (A)
                 (A) (A) (A) (A) (A) (A) (A) (A) (A) (A) (A) (A)
                 (A) (A) (A) (A) (A) (A) (A) (A) (A) (A) (A) (A)
                 (A) (A) (A) (A) (A) (A) (A) (A) (A) (A) (A) (A)
                 (A) (A) (A) (A) (A) (A) (A) (A) (A) (A) (A) (A)
                 (A) (A) (A) (A) (A) (A) (A) (A) (A) (A) (A) (A)
                 (A) (A) (A) (A) (A) (A) (A) (A) (A) (A) (A) (A)
                 (A) (A) (A) (A) (A) (A) (A) (A) (A) (A) (A) (A)
                 (A) (A) (A) (A) (A) (A) (A) (A) (A) (A) (A) (A)
                 (A) (A) (A) (A) (A) (A) (A) (A) (A) (A) (A) (A)
                 (A) (A) (A) (A) (A) (A) (A) (A) (A) (A) (A) (A)
                 (A) (A) (A) (A) (A) (A) (A) (A) (A) (A) (A) (A)
                 (A) (A) (A) (A) (A) (A) (A) (A) (A) (A) (A) (A)
                 (A) (A) (A) (A) (A) (A) (A) (A) (A) (A) (A) (A)
                 (A) (A) (A) (A) (A) (A) (A) (A) (A) (A) (A) (A)
                 (A) (A) (A) (A) (A) (A) (A) (A) (A) (A) (A) (A)
                 (A) (A) (A) (A) (A) (A) (A) (A) (A) (A) (A) (A)
                 (A) (A) (A) (A) (A) (A) (A) (A) (A) (A) (A) (A)
                 (A) (A) (A) (A) (A) (A) (A) (A) (A) (A) (A) (A)
                 (A) (A) (A) (A) (A) (A) (A) (A) (A) (A) (A) (A)
                 (A) (A) (A) (A) (A) (A) (A) (A) (A) (A) (A) (A)
                 (A) (A) (A) (A) (A) (A) (A) (A) (A) (A) (A) (A)
                 (A) (A) (A) (A) (A) (A) (A) (A) (A) (A) (A) (A)
                 (A) (A) (A) (A) (A) (A) (A) (A) (A) (A) (A) (A)
                 (A) (A) (A) (A) (A) (A) (A) (A) (A) (A) (A) (A)
                 (A) (A) (A) (A) (A) (A) (A) (A) (A) (A) (A) (A)
                 (A) (A) (A) (A) (A) (A) (A) (A) (A) (A) (A) (A)
                 (A) (A) (A) (A) (A) (A) (A) (A) (A) (A) (A) (A)
                 (A) (A) (A) (A) (A) (A) (A) (A) (A) (A) (A) (A)
                 (A) (A) (A) (A) (A) (A) (A) (A) (A) (A) (A) (A)
                 (A) (A) (A) (A) (A) (A) (A) (A) (A) (A) (A) (A)
                 (A) (A) (A) (A) (A) (A) (A) (A) (A) (A) (A) (A)
                 (A) (A) (A) (A) (A) (A) (A) (A) (A) (A) (A) (A)
                 (A) (A) (A) (A) (A) (A) (A) (A) (A) (A) (A) (A)
                 (A) (A) (A) (A) (A) (A) (A) (A) (A) (A) (A) (A)
                 (A) (A) (A) (A) (A) (A) (A) (A) (A) (A) (A) (A)
                 (A) (A) (A) (A) (A) (A) (A) (A) (A) (A) (A) (A)
                 (A) (A) (A) (A) (A) (A) (A) (A) (A) (A) (A) (A)
                 (A) (A) (A) (A) (A) (A) (A) (A) (A) (A) (A) (A)
                 (A) (A) (A) (A) (A) (A) (A) (A) (A) (A) (A) (A)
                 (A) (A) (A) (A) (A) (A) (A) (A) (A) (A) (A) (A)
                 (A) (A) (A) (A) (A) (A) (A) (A) (A) (A) (A) (A)
                 (A) (A) (A) (A) (A) (A) (A) (A) (A) (A) (A) (A)
                 (A) (A) (A) (A) (A) (A) (A) (A) (A) (A) (A) (A)
                 (A) (A) (A) (A) (A) (A) (A) (A) (A) (A) (A) (A)
                 (A) (A) (A) (A) (A) (A) (A) (A) (A) (A) (A) (A)
                 (A) (A) (A) (A) (A) (A) (A) (A) (A) (A) (A) (A)
                 (A) (A) (A) (A) (A) (A) (A) (A) (A) (A) (A) (A)
                 (A) (A) (A) (A) (A) (A) (A) (A) (A) (A) (A) (A)
                 (A) (A) (A) (A) (A) (A) (A) (A) (A) (A) (A) (A)
                 (A) (A) (A) (A) (A) (A) (A) (A) (A) (A) (A) (A)
                 (A) (A) (A) (A) (A) (A) (A) (A) (A) (A) (A) (A)
                 (A) (A) (A) (A) (A) (A) (A) (A) (A) (A) (A) (A)
                 (A) (A) (A) (A) (A) (A) (A) (A) (A) (A) (A) (A)
                 (A) (A) (A) (A) (A) (A) (A) (A) (A) (A) (A) (A)
                 (A) (A) (A) (A) (A) (A) (A) (A) (A) (A) (A) (A)
                 (A) (A) (A) (A) (A) (A) (A) (A) (A) (A) (A) (A)
                 (A) (A) (A) (A) (A) (A) (A) (A) (A) (A) (A) (A)
                 (A) (A) (A) (A) (A) (A) (A) (A) (A) (A) (A) (A)
                 (A) (A) (A) (A) (A) (A) (A) (A) (A) (A) (A) (A)
                 (A) (A) (A) (A) (A) (A) (A) (A) (A) (A) (A) (A)
                 (A) (A) (A) (A) (A) (A) (A) (A) (A) (A) (A) (A)
                 (A) (A) (A) (A) (A) (A) (A) (A) (A) (A) (A) (A)
                 (A) (A) (A) (A) (A) (A) (A) (A) (A) (A) (A) (A)
                 (A) (A) (A) (A) (A) (A) (A) (A) (A) (A) (A) (A)
                 (A) (A) (A) (A) (A) (A) (A) (A) (A) (A) (A) (A)
                 (A) (A) (A) (A) (A) (A) (A) (A) (A) (A) (A) (A)
                 (A) (A) (A) (A) (A) (A) (A) (A) (A) (A) (A) (A)
                 (A) (A) (A) (A) (A) (A) (A) (A) (A) (A) (A) (A)
                 (A) (A) (A) (A) (A) (A) (A) (A) (A) (A) (A) (A)
                 (A) (A) (A) (A) (A) (A) (A) (A) (A) (A) (A) (A)
                 (A) (A) (A) (A) (A) (A) (A) (A) (A) (A) (A) (A)
                 (A) (A) (A) (A) (A) (A) (A) (A) (A) (A) (A) (A)
                 (A) (A) (A) (A) (A) (A) (A) (A) (A) (A) (A) (A)
                 (A) (A) (A) (A) (A) (A) (A) (A) (A) (A) (A) (A)
                 (A) (A) (A) (A) (A) (A) (A) (A) (A) (A) (A) (A)
                 (A) (A) (A) (A) (A) (A) (A) (A) (A) (A) (A) (A)
                 (A) (A) (A) (A) (A) (A) (A) (A) (A) (A) (A) (A)
                 (A) (A) (A) (A) (A) (A) (A) (A) (A) (A) (A) (A)
                 (A) (A) (A) (A) (A) (A) (A) (A) (A) (A) (A) (A)
                 (A) (A) (A) (A) (A) (A) (A) (A) (A) (A) (A) (A)
                 (A) (A) (A) (A) (A) (A) (A) (A) (A) (A) (A) (A)
                 (A) (A) (A) (A) (A) (A) (A) (A) (A) (A) (A) (A)
                 (A) (A) (A) (A) (A) (A) (A) (A) (A) (A) (A) (A)
                 (A) (A) (A) (A) (A) (A) (A) (A) (A) (A) (A) (A)
                 (A) (A) (A) (A) (A) (A) (A) (A) (A) (A) (A) (A)
                 (A) (A) (A) (A) (A) (A) (A) (A) (A) (A) (A) (A)
                 (A) (A) (A) (A) (A) (A) (A) (A) (A) (A) (A) (A)
                 (A) (A) (A) (A) (A) (A) (A) (A) (A) (A) (A) (A)
                 (A) (A) (A) (A) (A) (A) (A) (A) (A) (A) (A) (A)
                 (A) (A) (A) (A) (A) (A) (A) (A) (A) (A) (A) (A)
                 (A) (A) (A) (A) (A) (A) (A) (A) (A) (A) (A) (A)
                 (A) (A) (A) (A) (A) (A) (A) (A) (A) (A) (A) (A)
                 (A) (A) (A) (A) (A) (A) (A) (A) (A) (A) (A) (A)
                 (A) (A) (A) (A) (A) (A) (A) (A) (A) (A) (A) (A)
                 (A) (A) (A) (A) (A) (A) (A) (A) (A) (A) (A) (A)
                 (A) (A) (A) (A) (A) (A) (A) (A) (A) (A) (A) (A)
                 (A) (A) (A) (A) (A) (A) (A) (A) (A) (A) (A) (A)
                 (A) (A) (A) (A) (A) (A) (A) (A) (A) (A) (A) (A)
                 (A) (A) (A) (A) (A) (A) (A) (A) (A) (A) (A) (A)
                 (A) (A) (A) (A) (A) (A) (A) (A) (A) (A) (A) (A)
                 (A) (A) (A) (A) (A) (A) (A) (A) (A) (A) (A) (A)
                 (A) (A) (A) (A)
 The electronic state is 1-A.
 Alpha  occ. eigenvalues -- -256.18167 -30.03091 -25.87285 -25.86893 -25.86780
 Alpha  occ. eigenvalues --  -14.42325 -14.37399 -14.33840 -14.33671 -14.33628
 Alpha  occ. eigenvalues --  -14.33460 -10.26129 -10.24307 -10.21550 -10.21466
 Alpha  occ. eigenvalues --  -10.21199 -10.21141 -10.20936 -10.20933 -10.20932
 Alpha  occ. eigenvalues --  -10.20898 -10.20873 -10.20858 -10.19766 -10.19617
 Alpha  occ. eigenvalues --  -10.19027 -10.19019 -10.18816 -10.18784 -10.18781
 Alpha  occ. eigenvalues --  -10.18742 -10.18733 -10.18706 -10.18702 -10.18684
 Alpha  occ. eigenvalues --  -10.18647 -10.18611 -10.18567 -10.18564 -10.18548
 Alpha  occ. eigenvalues --  -10.18364 -10.18334 -10.18311 -10.18246 -10.18219
 Alpha  occ. eigenvalues --   -3.40878  -2.17669  -2.16737  -2.16579  -1.05884
 Alpha  occ. eigenvalues --   -0.96991  -0.96026  -0.95996  -0.95017  -0.91499
 Alpha  occ. eigenvalues --   -0.82391  -0.81915  -0.81608  -0.80828  -0.80792
 Alpha  occ. eigenvalues --   -0.80490  -0.79764  -0.79613  -0.77001  -0.75834
 Alpha  occ. eigenvalues --   -0.74379  -0.74052  -0.73229  -0.72345  -0.70883
 Alpha  occ. eigenvalues --   -0.70148  -0.68344  -0.68014  -0.67884  -0.65128
 Alpha  occ. eigenvalues --   -0.64406  -0.64030  -0.61869  -0.60725  -0.60344
 Alpha  occ. eigenvalues --   -0.57706  -0.56698  -0.56419  -0.54503  -0.54243
 Alpha  occ. eigenvalues --   -0.53485  -0.52186  -0.51282  -0.50793  -0.50423
 Alpha  occ. eigenvalues --   -0.48529  -0.48274  -0.48135  -0.47966  -0.47385
 Alpha  occ. eigenvalues --   -0.46184  -0.44894  -0.44688  -0.44555  -0.44208
 Alpha  occ. eigenvalues --   -0.43846  -0.43796  -0.43448  -0.43329  -0.43263
 Alpha  occ. eigenvalues --   -0.42949  -0.42864  -0.42763  -0.42185  -0.42146
 Alpha  occ. eigenvalues --   -0.41642  -0.41530  -0.41389  -0.40327  -0.40222
 Alpha  occ. eigenvalues --   -0.40113  -0.39902  -0.39572  -0.39315  -0.39181
 Alpha  occ. eigenvalues --   -0.38775  -0.38461  -0.37994  -0.37800  -0.37261
 Alpha  occ. eigenvalues --   -0.36864  -0.36810  -0.36336  -0.36016  -0.35381
 Alpha  occ. eigenvalues --   -0.34689  -0.34407  -0.34100  -0.33832  -0.32425
 Alpha  occ. eigenvalues --   -0.31754  -0.31579  -0.30378  -0.30142  -0.29193
 Alpha  occ. eigenvalues --   -0.29113  -0.26876  -0.26658  -0.24848  -0.24209
 Alpha  occ. eigenvalues --   -0.23783  -0.23020  -0.22211  -0.19840  -0.18919
 Alpha  occ. eigenvalues --   -0.18400  -0.18237  -0.17882
 Alpha virt. eigenvalues --   -0.06702  -0.06498  -0.02035  -0.01614   0.00383
 Alpha virt. eigenvalues --    0.00931   0.01993   0.02428   0.04012   0.04432
 Alpha virt. eigenvalues --    0.04482   0.04822   0.05608   0.05847   0.05916
 Alpha virt. eigenvalues --    0.06129   0.07054   0.07474   0.07887   0.07974
 Alpha virt. eigenvalues --    0.08315   0.08881   0.09349   0.09388   0.09673
 Alpha virt. eigenvalues --    0.10365   0.10444   0.10948   0.11236   0.11330
 Alpha virt. eigenvalues --    0.11478   0.11839   0.11961   0.12161   0.12423
 Alpha virt. eigenvalues --    0.12543   0.12698   0.13034   0.13176   0.13482
 Alpha virt. eigenvalues --    0.13884   0.14008   0.14063   0.14485   0.14862
 Alpha virt. eigenvalues --    0.15002   0.15205   0.15360   0.15619   0.15825
 Alpha virt. eigenvalues --    0.15956   0.16133   0.16282   0.16618   0.16898
 Alpha virt. eigenvalues --    0.17069   0.17346   0.17728   0.17791   0.18151
 Alpha virt. eigenvalues --    0.18573   0.18873   0.19197   0.19488   0.19734
 Alpha virt. eigenvalues --    0.19898   0.20137   0.20315   0.20384   0.20640
 Alpha virt. eigenvalues --    0.21022   0.21581   0.22029   0.22298   0.22504
 Alpha virt. eigenvalues --    0.22580   0.22897   0.23189   0.23312   0.23830
 Alpha virt. eigenvalues --    0.24166   0.24574   0.24962   0.25215   0.25315
 Alpha virt. eigenvalues --    0.25856   0.25905   0.26396   0.26439   0.27163
 Alpha virt. eigenvalues --    0.27333   0.27527   0.27825   0.28039   0.28360
 Alpha virt. eigenvalues --    0.28541   0.28793   0.29019   0.29234   0.29516
 Alpha virt. eigenvalues --    0.29531   0.29653   0.29960   0.30585   0.30882
 Alpha virt. eigenvalues --    0.31041   0.31275   0.31576   0.32054   0.32194
 Alpha virt. eigenvalues --    0.32473   0.32868   0.33172   0.33407   0.33520
 Alpha virt. eigenvalues --    0.33895   0.34150   0.34373   0.34693   0.35111
 Alpha virt. eigenvalues --    0.35746   0.35939   0.36189   0.36293   0.36782
 Alpha virt. eigenvalues --    0.36931   0.37141   0.37345   0.37616   0.37642
 Alpha virt. eigenvalues --    0.38329   0.38705   0.38940   0.39052   0.39130
 Alpha virt. eigenvalues --    0.39319   0.39796   0.39888   0.40119   0.40487
 Alpha virt. eigenvalues --    0.40531   0.40928   0.41188   0.41417   0.41519
 Alpha virt. eigenvalues --    0.41758   0.42174   0.42306   0.42498   0.42644
 Alpha virt. eigenvalues --    0.42889   0.42959   0.43068   0.43235   0.43488
 Alpha virt. eigenvalues --    0.43609   0.43978   0.44026   0.44270   0.44719
 Alpha virt. eigenvalues --    0.44993   0.45231   0.45816   0.46019   0.46247
 Alpha virt. eigenvalues --    0.46303   0.46424   0.46763   0.46891   0.47132
 Alpha virt. eigenvalues --    0.47325   0.47469   0.47772   0.47902   0.47971
 Alpha virt. eigenvalues --    0.48033   0.48249   0.48531   0.48877   0.48936
 Alpha virt. eigenvalues --    0.49107   0.49450   0.49744   0.49816   0.50008
 Alpha virt. eigenvalues --    0.50348   0.50759   0.51057   0.51298   0.51558
 Alpha virt. eigenvalues --    0.51618   0.51722   0.52081   0.52283   0.52490
 Alpha virt. eigenvalues --    0.52531   0.52814   0.53154   0.53309   0.53498
 Alpha virt. eigenvalues --    0.53889   0.54163   0.54442   0.54564   0.54725
 Alpha virt. eigenvalues --    0.55215   0.55631   0.55818   0.56347   0.56404
 Alpha virt. eigenvalues --    0.56720   0.57128   0.57437   0.57603   0.57745
 Alpha virt. eigenvalues --    0.58353   0.58670   0.58980   0.59231   0.59325
 Alpha virt. eigenvalues --    0.59698   0.60100   0.60461   0.60613   0.61328
 Alpha virt. eigenvalues --    0.61456   0.61821   0.61867   0.62515   0.62771
 Alpha virt. eigenvalues --    0.63160   0.63768   0.63873   0.64232   0.64262
 Alpha virt. eigenvalues --    0.64367   0.64827   0.65238   0.65428   0.65942
 Alpha virt. eigenvalues --    0.65999   0.66595   0.67034   0.67086   0.67577
 Alpha virt. eigenvalues --    0.67792   0.68092   0.68468   0.68746   0.69047
 Alpha virt. eigenvalues --    0.69535   0.69848   0.70268   0.70550   0.70898
 Alpha virt. eigenvalues --    0.71349   0.71430   0.71525   0.71886   0.72159
 Alpha virt. eigenvalues --    0.72469   0.73034   0.73271   0.73680   0.73797
 Alpha virt. eigenvalues --    0.74464   0.74995   0.75085   0.75401   0.75637
 Alpha virt. eigenvalues --    0.75921   0.76121   0.76666   0.77161   0.77205
 Alpha virt. eigenvalues --    0.77455   0.77498   0.77903   0.78329   0.78387
 Alpha virt. eigenvalues --    0.78820   0.79423   0.79843   0.80049   0.80471
 Alpha virt. eigenvalues --    0.80564   0.81011   0.81708   0.81903   0.82319
 Alpha virt. eigenvalues --    0.82918   0.83045   0.83421   0.83985   0.84315
 Alpha virt. eigenvalues --    0.84538   0.85074   0.85359   0.85834   0.86312
 Alpha virt. eigenvalues --    0.86442   0.86932   0.87177   0.87891   0.88126
 Alpha virt. eigenvalues --    0.88669   0.88956   0.89263   0.89968   0.90203
 Alpha virt. eigenvalues --    0.90830   0.91132   0.91245   0.91418   0.92360
 Alpha virt. eigenvalues --    0.92640   0.92821   0.93356   0.93711   0.94101
 Alpha virt. eigenvalues --    0.94396   0.94847   0.94926   0.95641   0.95768
 Alpha virt. eigenvalues --    0.95965   0.96604   0.96780   0.97219   0.97648
 Alpha virt. eigenvalues --    0.97901   0.98481   0.98651   0.98969   0.99665
 Alpha virt. eigenvalues --    0.99843   1.00090   1.00546   1.00846   1.01209
 Alpha virt. eigenvalues --    1.01523   1.01773   1.02009   1.02313   1.02777
 Alpha virt. eigenvalues --    1.02875   1.02954   1.03403   1.03950   1.04250
 Alpha virt. eigenvalues --    1.04383   1.04891   1.05070   1.05903   1.06167
 Alpha virt. eigenvalues --    1.06509   1.06868   1.07116   1.07934   1.08229
 Alpha virt. eigenvalues --    1.08557   1.08910   1.09095   1.09746   1.09835
 Alpha virt. eigenvalues --    1.10411   1.10758   1.11086   1.11424   1.11659
 Alpha virt. eigenvalues --    1.12592   1.13165   1.13958   1.14315   1.14726
 Alpha virt. eigenvalues --    1.15207   1.15552   1.15948   1.16118   1.16303
 Alpha virt. eigenvalues --    1.17159   1.17377   1.17676   1.18195   1.18723
 Alpha virt. eigenvalues --    1.19349   1.19446   1.19891   1.20113   1.20766
 Alpha virt. eigenvalues --    1.20976   1.21688   1.21772   1.22203   1.22686
 Alpha virt. eigenvalues --    1.23495   1.23707   1.24585   1.24870   1.25188
 Alpha virt. eigenvalues --    1.25697   1.26765   1.26844   1.26999   1.27179
 Alpha virt. eigenvalues --    1.27327   1.27910   1.28325   1.28718   1.28813
 Alpha virt. eigenvalues --    1.29548   1.29716   1.30085   1.30325   1.30561
 Alpha virt. eigenvalues --    1.31486   1.31723   1.31843   1.31982   1.32960
 Alpha virt. eigenvalues --    1.33202   1.33770   1.34496   1.35317   1.36508
 Alpha virt. eigenvalues --    1.36886   1.37252   1.37631   1.38291   1.38832
 Alpha virt. eigenvalues --    1.39272   1.39566   1.40718   1.41127   1.41815
 Alpha virt. eigenvalues --    1.42400   1.42816   1.43453   1.43501   1.44183
 Alpha virt. eigenvalues --    1.44479   1.44850   1.45241   1.45773   1.46254
 Alpha virt. eigenvalues --    1.46403   1.47577   1.47697   1.48124   1.48485
 Alpha virt. eigenvalues --    1.48930   1.49026   1.49796   1.49915   1.50389
 Alpha virt. eigenvalues --    1.50559   1.50867   1.51352   1.51561   1.51596
 Alpha virt. eigenvalues --    1.51924   1.52041   1.52559   1.52614   1.53001
 Alpha virt. eigenvalues --    1.53288   1.53382   1.53984   1.54078   1.54350
 Alpha virt. eigenvalues --    1.54483   1.54851   1.54935   1.55213   1.55566
 Alpha virt. eigenvalues --    1.55936   1.56074   1.56386   1.56483   1.56707
 Alpha virt. eigenvalues --    1.56975   1.57526   1.57716   1.57961   1.58196
 Alpha virt. eigenvalues --    1.58299   1.58809   1.59128   1.59568   1.59675
 Alpha virt. eigenvalues --    1.60137   1.60427   1.60823   1.61472   1.61685
 Alpha virt. eigenvalues --    1.61952   1.62163   1.62350   1.62934   1.63208
 Alpha virt. eigenvalues --    1.63388   1.63633   1.64287   1.64330   1.64699
 Alpha virt. eigenvalues --    1.64798   1.65588   1.65795   1.66015   1.66620
 Alpha virt. eigenvalues --    1.66946   1.67278   1.67479   1.67709   1.68209
 Alpha virt. eigenvalues --    1.68477   1.68833   1.69462   1.69544   1.70094
 Alpha virt. eigenvalues --    1.70432   1.70594   1.70895   1.71486   1.71645
 Alpha virt. eigenvalues --    1.71830   1.72559   1.73298   1.73499   1.73619
 Alpha virt. eigenvalues --    1.74444   1.74897   1.75127   1.75606   1.76901
 Alpha virt. eigenvalues --    1.77466   1.77636   1.78259   1.78597   1.78954
 Alpha virt. eigenvalues --    1.80026   1.80442   1.81000   1.81245   1.81958
 Alpha virt. eigenvalues --    1.82319   1.82610   1.83103   1.83622   1.84205
 Alpha virt. eigenvalues --    1.84399   1.85153   1.85744   1.86331   1.86685
 Alpha virt. eigenvalues --    1.87194   1.87697   1.88034   1.88328   1.88884
 Alpha virt. eigenvalues --    1.89101   1.90383   1.90645   1.91097   1.91345
 Alpha virt. eigenvalues --    1.92705   1.92796   1.93357   1.93690   1.94058
 Alpha virt. eigenvalues --    1.94815   1.95213   1.95673   1.95894   1.96439
 Alpha virt. eigenvalues --    1.96721   1.97096   1.97467   1.98126   1.98575
 Alpha virt. eigenvalues --    1.99332   1.99741   2.00181   2.00639   2.00795
 Alpha virt. eigenvalues --    2.01271   2.01508   2.02314   2.02351   2.02805
 Alpha virt. eigenvalues --    2.03516   2.03606   2.04263   2.05268   2.05773
 Alpha virt. eigenvalues --    2.06374   2.06847   2.07197   2.07943   2.08310
 Alpha virt. eigenvalues --    2.08719   2.08936   2.09389   2.09830   2.10321
 Alpha virt. eigenvalues --    2.10748   2.10858   2.11782   2.12179   2.12284
 Alpha virt. eigenvalues --    2.13171   2.13340   2.14145   2.14720   2.15092
 Alpha virt. eigenvalues --    2.15522   2.16112   2.16638   2.16781   2.17313
 Alpha virt. eigenvalues --    2.17351   2.18342   2.18474   2.19220   2.19471
 Alpha virt. eigenvalues --    2.19866   2.20483   2.20613   2.21083   2.21547
 Alpha virt. eigenvalues --    2.22325   2.22558   2.22988   2.24375   2.24487
 Alpha virt. eigenvalues --    2.25102   2.25585   2.26371   2.26894   2.27233
 Alpha virt. eigenvalues --    2.27577   2.28093   2.28231   2.29008   2.29143
 Alpha virt. eigenvalues --    2.29870   2.30246   2.30835   2.31369   2.31520
 Alpha virt. eigenvalues --    2.32005   2.32366   2.32604   2.32894   2.33986
 Alpha virt. eigenvalues --    2.34045   2.34613   2.34839   2.35618   2.35916
 Alpha virt. eigenvalues --    2.36149   2.36317   2.36670   2.37248   2.37643
 Alpha virt. eigenvalues --    2.38334   2.38751   2.39284   2.39769   2.40035
 Alpha virt. eigenvalues --    2.40653   2.41094   2.41209   2.41630   2.42061
 Alpha virt. eigenvalues --    2.42544   2.42812   2.43160   2.43569   2.44333
 Alpha virt. eigenvalues --    2.44624   2.45021   2.45853   2.45985   2.46501
 Alpha virt. eigenvalues --    2.46898   2.47316   2.47995   2.48692   2.48930
 Alpha virt. eigenvalues --    2.49030   2.49849   2.50245   2.50587   2.51138
 Alpha virt. eigenvalues --    2.51700   2.51962   2.52242   2.52660   2.53123
 Alpha virt. eigenvalues --    2.53428   2.53685   2.54873   2.55460   2.55746
 Alpha virt. eigenvalues --    2.56017   2.56301   2.56708   2.56859   2.57284
 Alpha virt. eigenvalues --    2.57781   2.58141   2.58390   2.58697   2.59187
 Alpha virt. eigenvalues --    2.59332   2.59957   2.60221   2.60635   2.61119
 Alpha virt. eigenvalues --    2.61273   2.61737   2.62011   2.62510   2.62992
 Alpha virt. eigenvalues --    2.63666   2.63743   2.64640   2.64778   2.65593
 Alpha virt. eigenvalues --    2.65689   2.66006   2.66197   2.67106   2.67443
 Alpha virt. eigenvalues --    2.67831   2.68157   2.68522   2.68674   2.69006
 Alpha virt. eigenvalues --    2.70175   2.70481   2.71085   2.71336   2.72157
 Alpha virt. eigenvalues --    2.72337   2.72555   2.73746   2.73821   2.74730
 Alpha virt. eigenvalues --    2.74896   2.75152   2.75481   2.76167   2.76773
 Alpha virt. eigenvalues --    2.77062   2.77547   2.78093   2.78179   2.78816
 Alpha virt. eigenvalues --    2.79436   2.79765   2.80005   2.80543   2.81219
 Alpha virt. eigenvalues --    2.81760   2.82080   2.82329   2.82572   2.83376
 Alpha virt. eigenvalues --    2.83668   2.84092   2.84845   2.85154   2.85461
 Alpha virt. eigenvalues --    2.85768   2.85856   2.85896   2.86603   2.87736
 Alpha virt. eigenvalues --    2.87929   2.88529   2.88739   2.89154   2.89426
 Alpha virt. eigenvalues --    2.90144   2.90424   2.90514   2.90967   2.91154
 Alpha virt. eigenvalues --    2.91380   2.92072   2.92234   2.92500   2.92882
 Alpha virt. eigenvalues --    2.93202   2.93466   2.93948   2.94169   2.94750
 Alpha virt. eigenvalues --    2.95185   2.95426   2.95751   2.96038   2.96917
 Alpha virt. eigenvalues --    2.97092   2.97842   2.97865   2.98443   2.98744
 Alpha virt. eigenvalues --    2.99216   2.99659   2.99992   3.00286   3.01157
 Alpha virt. eigenvalues --    3.01252   3.01586   3.02480   3.02735   3.02865
 Alpha virt. eigenvalues --    3.03453   3.03549   3.04510   3.04713   3.05100
 Alpha virt. eigenvalues --    3.05231   3.05802   3.06015   3.06117   3.06414
 Alpha virt. eigenvalues --    3.07090   3.07676   3.08022   3.08363   3.08407
 Alpha virt. eigenvalues --    3.08978   3.09159   3.09574   3.09654   3.09934
 Alpha virt. eigenvalues --    3.10267   3.10749   3.11012   3.11493   3.11541
 Alpha virt. eigenvalues --    3.11924   3.12181   3.12765   3.13289   3.13728
 Alpha virt. eigenvalues --    3.13859   3.14447   3.14732   3.15000   3.15136
 Alpha virt. eigenvalues --    3.15280   3.15653   3.16314   3.16389   3.16724
 Alpha virt. eigenvalues --    3.17168   3.17447   3.17772   3.18134   3.18849
 Alpha virt. eigenvalues --    3.19121   3.19202   3.19435   3.19692   3.20339
 Alpha virt. eigenvalues --    3.20540   3.20918   3.21175   3.21570   3.21784
 Alpha virt. eigenvalues --    3.22261   3.22670   3.23054   3.23352   3.23684
 Alpha virt. eigenvalues --    3.23964   3.24059   3.24513   3.24814   3.25060
 Alpha virt. eigenvalues --    3.25203   3.25419   3.25615   3.25817   3.26163
 Alpha virt. eigenvalues --    3.26481   3.26731   3.27292   3.27808   3.27879
 Alpha virt. eigenvalues --    3.28108   3.28317   3.28677   3.28904   3.29340
 Alpha virt. eigenvalues --    3.29479   3.29776   3.30315   3.30434   3.30661
 Alpha virt. eigenvalues --    3.31066   3.31574   3.31799   3.31953   3.32308
 Alpha virt. eigenvalues --    3.32585   3.33014   3.33244   3.33425   3.33521
 Alpha virt. eigenvalues --    3.33857   3.34388   3.34520   3.34693   3.34794
 Alpha virt. eigenvalues --    3.35270   3.35578   3.35848   3.36117   3.36197
 Alpha virt. eigenvalues --    3.36526   3.37002   3.37183   3.37428   3.37739
 Alpha virt. eigenvalues --    3.38229   3.38317   3.38501   3.38753   3.39155
 Alpha virt. eigenvalues --    3.39271   3.39863   3.40343   3.40628   3.41397
 Alpha virt. eigenvalues --    3.41532   3.41841   3.41939   3.42630   3.42912
 Alpha virt. eigenvalues --    3.43274   3.43343   3.43636   3.44731   3.45050
 Alpha virt. eigenvalues --    3.45525   3.45780   3.46575   3.46930   3.47140
 Alpha virt. eigenvalues --    3.47735   3.47893   3.48099   3.48513   3.49193
 Alpha virt. eigenvalues --    3.49760   3.50331   3.50877   3.51427   3.51657
 Alpha virt. eigenvalues --    3.51795   3.52696   3.52804   3.53197   3.53762
 Alpha virt. eigenvalues --    3.54473   3.55161   3.55213   3.55849   3.56067
 Alpha virt. eigenvalues --    3.56758   3.58013   3.58246   3.58463   3.58924
 Alpha virt. eigenvalues --    3.59667   3.59814   3.60001   3.60462   3.60680
 Alpha virt. eigenvalues --    3.61849   3.62145   3.62873   3.63095   3.63543
 Alpha virt. eigenvalues --    3.63990   3.64984   3.65211   3.65755   3.65964
 Alpha virt. eigenvalues --    3.66343   3.66897   3.67327   3.67464   3.68092
 Alpha virt. eigenvalues --    3.68914   3.69400   3.69741   3.70545   3.70588
 Alpha virt. eigenvalues --    3.71050   3.71310   3.71651   3.72056   3.72366
 Alpha virt. eigenvalues --    3.72752   3.73218   3.73680   3.74352   3.74468
 Alpha virt. eigenvalues --    3.74928   3.75493   3.75699   3.75921   3.76201
 Alpha virt. eigenvalues --    3.76747   3.76975   3.78339   3.79305   3.79423
 Alpha virt. eigenvalues --    3.79748   3.80991   3.81094   3.81527   3.82311
 Alpha virt. eigenvalues --    3.82830   3.83614   3.84399   3.84643   3.85174
 Alpha virt. eigenvalues --    3.85512   3.86560   3.87150   3.87880   3.88481
 Alpha virt. eigenvalues --    3.88750   3.89249   3.89629   3.90043   3.90360
 Alpha virt. eigenvalues --    3.91192   3.91513   3.91960   3.92588   3.93681
 Alpha virt. eigenvalues --    3.93906   3.94512   3.94696   3.95551   3.96511
 Alpha virt. eigenvalues --    3.97130   3.97637   3.98869   3.99333   3.99549
 Alpha virt. eigenvalues --    3.99910   4.00786   4.01240   4.02003   4.02552
 Alpha virt. eigenvalues --    4.03170   4.03468   4.04148   4.04724   4.05206
 Alpha virt. eigenvalues --    4.05780   4.05799   4.06587   4.07480   4.08619
 Alpha virt. eigenvalues --    4.09405   4.10302   4.11063   4.11586   4.12212
 Alpha virt. eigenvalues --    4.12914   4.13717   4.14391   4.14517   4.15716
 Alpha virt. eigenvalues --    4.16345   4.16712   4.17757   4.18328   4.18454
 Alpha virt. eigenvalues --    4.19553   4.19659   4.19968   4.20325   4.20649
 Alpha virt. eigenvalues --    4.21479   4.21968   4.22325   4.23562   4.23771
 Alpha virt. eigenvalues --    4.24205   4.24891   4.25793   4.26208   4.26626
 Alpha virt. eigenvalues --    4.27592   4.27981   4.28792   4.29424   4.29774
 Alpha virt. eigenvalues --    4.30756   4.31517   4.31826   4.32562   4.33080
 Alpha virt. eigenvalues --    4.33866   4.33981   4.34409   4.34610   4.35606
 Alpha virt. eigenvalues --    4.36784   4.38012   4.38351   4.38905   4.39165
 Alpha virt. eigenvalues --    4.39852   4.40370   4.40947   4.41007   4.41352
 Alpha virt. eigenvalues --    4.41751   4.41891   4.42185   4.43361   4.43533
 Alpha virt. eigenvalues --    4.43869   4.44203   4.45155   4.45258   4.45910
 Alpha virt. eigenvalues --    4.46141   4.46755   4.47378   4.47753   4.48145
 Alpha virt. eigenvalues --    4.49466   4.50707   4.52472   4.52927   4.53744
 Alpha virt. eigenvalues --    4.54168   4.55541   4.56423   4.56723   4.57957
 Alpha virt. eigenvalues --    4.58534   4.58778   4.61095   4.62169   4.62883
 Alpha virt. eigenvalues --    4.63144   4.64580   4.66060   4.66164   4.67553
 Alpha virt. eigenvalues --    4.68322   4.68617   4.69224   4.69561   4.70558
 Alpha virt. eigenvalues --    4.71120   4.71623   4.72886   4.73002   4.74576
 Alpha virt. eigenvalues --    4.74900   4.75200   4.76029   4.78095   4.79012
 Alpha virt. eigenvalues --    4.79830   4.80516   4.82030   4.82485   4.82937
 Alpha virt. eigenvalues --    4.83188   4.83847   4.84426   4.84819   4.85256
 Alpha virt. eigenvalues --    4.85480   4.87247   4.87732   4.88675   4.89611
 Alpha virt. eigenvalues --    4.90754   4.91748   4.92335   4.92766   4.94107
 Alpha virt. eigenvalues --    4.94306   4.95429   4.96274   4.96412   4.97082
 Alpha virt. eigenvalues --    4.98287   4.98561   5.00664   5.01025   5.02006
 Alpha virt. eigenvalues --    5.03139   5.03701   5.04493   5.04769   5.05412
 Alpha virt. eigenvalues --    5.06318   5.07050   5.07754   5.08570   5.09010
 Alpha virt. eigenvalues --    5.09318   5.10554   5.11047   5.13384   5.15409
 Alpha virt. eigenvalues --    5.17920   5.18072   5.19984   5.20469   5.20788
 Alpha virt. eigenvalues --    5.21429   5.22359   5.23267   5.24315   5.25096
 Alpha virt. eigenvalues --    5.25756   5.28870   5.29551   5.30016   5.34343
 Alpha virt. eigenvalues --    5.35516   5.36294   5.36838   5.37291   5.37845
 Alpha virt. eigenvalues --    5.39400   5.39686   5.40716   5.41618   5.42831
 Alpha virt. eigenvalues --    5.43423   5.45988   5.48510   5.48821   5.49769
 Alpha virt. eigenvalues --    5.50777   5.51062   5.51827   5.53618   5.55420
 Alpha virt. eigenvalues --    5.57257   5.60641   5.61212   5.61799   5.62162
 Alpha virt. eigenvalues --    5.63147   5.65015   5.66049   5.67215   5.67934
 Alpha virt. eigenvalues --    5.69468   5.71700   5.75062   5.76177   5.76571
 Alpha virt. eigenvalues --    5.78135   5.78572   5.78590   5.86383   5.90186
 Alpha virt. eigenvalues --    5.91428   5.95360   6.00782   6.01211   6.02047
 Alpha virt. eigenvalues --    6.07133   6.09094   6.11645   6.12768   6.13318
 Alpha virt. eigenvalues --    6.16336   6.18256   6.26835   6.33150   6.34067
 Alpha virt. eigenvalues --    6.40573  22.34742  22.35765  22.43631  22.45854
 Alpha virt. eigenvalues --   22.46475  22.53752  22.55178  22.62173  22.62812
 Alpha virt. eigenvalues --   22.75108  22.82236  22.87010  22.88881  22.92245
 Alpha virt. eigenvalues --   22.94123  22.95431  22.96541  23.03813  23.04743
 Alpha virt. eigenvalues --   23.04921  23.15738  23.25922  23.27771  23.29750
 Alpha virt. eigenvalues --   23.30840  23.36845  23.42900  23.51360  23.52210
 Alpha virt. eigenvalues --   23.56975  23.75255  23.79699  23.80400  23.89516
 Alpha virt. eigenvalues --   32.39634  32.66039  32.84564  32.93080  32.95044
 Alpha virt. eigenvalues --   33.08290
          Condensed to atoms (all electrons):
 Mulliken charges:
               1
     1  Fe  -0.195350
     2  N   -0.069844
     3  N   -0.091921
     4  N   -0.056025
     5  N   -0.083692
     6  C    0.267407
     7  C   -0.070358
     8  C   -0.026885
     9  C    0.283084
    10  C    0.266434
    11  C   -0.095457
    12  C    0.090816
    13  C    0.256442
    14  C    0.278950
    15  C   -0.068567
    16  C    0.054500
    17  C    0.272553
    18  C    0.241624
    19  C   -0.038996
    20  C   -0.054942
    21  C    0.262062
    22  C   -0.428956
    23  H    0.139961
    24  C   -0.531248
    25  H    0.135714
    26  C   -0.476460
    27  H    0.174844
    28  C   -0.528649
    29  H    0.122734
    30  C   -0.419260
    31  H    0.130285
    32  H    0.119820
    33  H    0.142043
    34  C   -0.416190
    35  H    0.132850
    36  H    0.139303
    37  H    0.119483
    38  C   -0.403702
    39  H    0.134101
    40  H    0.137194
    41  H    0.127529
    42  C   -0.251839
    43  H    0.117838
    44  C   -0.303618
    45  H    0.145845
    46  H    0.122680
    47  C   -0.448284
    48  H    0.138433
    49  H    0.136415
    50  H    0.157218
    51  C   -0.211099
    52  H    0.113159
    53  C   -0.290065
    54  H    0.138933
    55  H    0.122473
    56  C   -0.415896
    57  H    0.130650
    58  H    0.139319
    59  H    0.120676
    60  C   -0.415174
    61  H    0.119238
    62  H    0.137072
    63  H    0.134982
    64  C   -0.390767
    65  H    0.137294
    66  H    0.136298
    67  H    0.145960
    68  N   -0.229359
    69  H    0.237472
    70  C    0.173166
    71  C    0.009300
    72  H    0.178267
    73  N    0.047346
    74  C   -0.215247
    75  H    0.158078
 Sum of Mulliken charges =  -0.00000
 Mulliken charges with hydrogens summed into heavy atoms:
               1
     1  Fe  -0.195350
     2  N   -0.069844
     3  N   -0.091921
     4  N   -0.056025
     5  N   -0.083692
     6  C    0.267407
     7  C   -0.070358
     8  C   -0.026885
     9  C    0.283084
    10  C    0.266434
    11  C   -0.095457
    12  C    0.090816
    13  C    0.256442
    14  C    0.278950
    15  C   -0.068567
    16  C    0.054500
    17  C    0.272553
    18  C    0.241624
    19  C   -0.038996
    20  C   -0.054942
    21  C    0.262062
    22  C   -0.288994
    24  C   -0.395533
    26  C   -0.301615
    28  C   -0.405915
    30  C   -0.027111
    34  C   -0.024554
    38  C   -0.004878
    42  C   -0.134001
    44  C   -0.035093
    47  C   -0.016218
    51  C   -0.097940
    53  C   -0.028659
    56  C   -0.025251
    60  C   -0.023881
    64  C    0.028786
    68  N    0.008114
    70  C    0.173166
    71  C    0.187567
    73  N    0.047346
    74  C   -0.057169
 Electronic spatial extent (au):  <R**2>=          19616.6924
 Charge=             -0.0000 electrons
 Dipole moment (field-independent basis, Debye):
    X=             -1.2413    Y=             -0.5973    Z=              5.7326  Tot=              5.8958
 Quadrupole moment (field-independent basis, Debye-Ang):
   XX=           -233.6488   YY=           -230.2719   ZZ=           -223.8849
   XY=             -2.8225   XZ=              3.6493   YZ=             -3.0687
 Traceless Quadrupole moment (field-independent basis, Debye-Ang):
   XX=             -4.3803   YY=             -1.0034   ZZ=              5.3837
   XY=             -2.8225   XZ=              3.6493   YZ=             -3.0687
 Octapole moment (field-independent basis, Debye-Ang**2):
  XXX=            -42.6337  YYY=            -22.6465  ZZZ=            163.9134  XYY=            -14.5198
  XXY=              9.3583  XXZ=             -3.5039  XZZ=            -13.3649  YZZ=            -12.7085
  YYZ=             -8.3490  XYZ=             -8.1096
 Hexadecapole moment (field-independent basis, Debye-Ang**3):
 XXXX=         -11823.6714 YYYY=         -11136.5887 ZZZZ=          -2821.9994 XXXY=             40.4734
 XXXZ=            117.5836 YYYX=            -14.8058 YYYZ=            -76.8692 ZZZX=             27.8757
 ZZZY=            -51.6116 XXYY=          -3800.5980 XXZZ=          -2646.3484 YYZZ=          -2553.4934
 XXYZ=             37.6357 YYXZ=             -4.3149 ZZXY=            -41.0152
 N-N= 5.576712876009D+03 E-N=-1.798570924738D+04  KE= 2.897585718089D+03
  Exact polarizability:     713.224      -2.495     674.797      17.534      -4.156     305.696
 Approx polarizability:    1318.384     -16.124    1261.123      48.786     -26.289     488.313

 ----------------------------------------------------------------------

 Electric dipole moment (input orientation):
 (Debye = 10**-18 statcoulomb cm , SI units = C m)
                  (au)            (Debye)         (10**-30 SI)
   Tot        0.231959D+01      0.589580D+01      0.196663D+02
   x         -0.810934D+00     -0.206119D+01     -0.687539D+01
   y          0.176660D+01      0.449026D+01      0.149779D+02
   z         -0.126570D+01     -0.321708D+01     -0.107310D+02

 Dipole polarizability, Alpha (input orientation).
 (esu units = cm**3 , SI units = C**2 m**2 J**-1)
 Alpha(0;0):
               (au)            (10**-24 esu)      (10**-40 SI)
   iso        0.564573D+03      0.836610D+02      0.930854D+02
   aniso      0.391010D+03      0.579417D+02      0.644688D+02
   xx         0.666985D+03      0.988370D+02      0.109971D+03
   yx         0.655025D+02      0.970647D+01      0.107999D+02
   yy         0.412289D+03      0.610949D+02      0.679773D+02
   zx        -0.216773D+02     -0.321225D+01     -0.357411D+01
   zy         0.167689D+03      0.248489D+02      0.276482D+02
   zz         0.614443D+03      0.910511D+02      0.101308D+03

 First dipole hyperpolarizability, Beta (input orientation).
 ||, _|_  parallel and perpendicular components, (z) with respect to z axis,
 vector components x,y,z.  Values do not include the 1/n! factor of 1/2.
 (esu units = statvolt**-1 cm**4 , SI units = C**3 m**3 J**-2)
 Beta(0;0,0):
               (au)            (10**-30 esu)      (10**-50 SI)
   || (z)     0.536842D+03      0.463789D+01      0.172131D+01
   _|_(z)     0.178947D+03      0.154596D+01      0.573769D+00
   x          0.289177D+04      0.249826D+02      0.927205D+01
   y          0.231901D+04      0.200344D+02      0.743558D+01
   z          0.268421D+04      0.231895D+02      0.860654D+01
   ||         0.915316D+03      0.790762D+01      0.293483D+01
   xxx        0.644842D+03      0.557093D+01      0.206760D+01
   xxy        0.175082D+03      0.151258D+01      0.561378D+00
   yxy       -0.390086D+02     -0.337004D+00     -0.125076D+00
   yyy        0.751251D+02      0.649022D+00      0.240878D+00
   xxz       -0.308603D+03     -0.266609D+01     -0.989493D+00
   yxz        0.771513D+01      0.666527D-01      0.247375D-01
   yyz       -0.622682D+02     -0.537949D+00     -0.199654D+00
   zxz        0.358089D+03      0.309361D+01      0.114816D+01
   zyz        0.522795D+03      0.451654D+01      0.167627D+01
   zzz        0.126561D+04      0.109339D+02      0.405799D+01

 ----------------------------------------------------------------------

 Dipole orientation:
    26         79.43440369       -129.96763789         13.67369965
     7         78.85202186       -126.25330365         13.95883122
     7         83.04730400       -129.33064642         12.70531860
     7         79.84763757       -133.56947110         12.66620086
     7         75.68404609       -130.48742185         13.93606218
     6         76.60199704       -125.00677372         14.08848253
     6         76.96410747       -122.30403759         13.94563317
     6         79.49506920       -121.92740611         13.72736263
     6         80.64053681       -124.40843696         13.71947713
     6         84.32455900       -127.11791410         13.03299049
     6         86.99682413       -127.47729951         12.69512779
     6         87.32968286       -129.97278951         12.10011254
     6         84.82861257       -131.08567908         12.09849994
     6         81.96167569       -134.69689188         11.70355856
     6         81.45792949       -137.26931081         10.97884196
     6         78.97233632       -137.71129000         11.54815716
     6         78.00897123       -135.36815427         12.58889492
     6         74.47136749       -132.75767741         14.02154186
     6         71.84711686       -132.43612342         14.70530382
     6         71.47895026       -129.90576720         14.97310992
     6         73.88887316       -128.72369225         14.47593968
     6         74.28227870       -126.14329309         14.47052798
     1         72.66215998       -124.93349968         14.73700016
     6         83.20982112       -124.79783046         13.49164191
     1         84.42521265       -123.16000942         13.53322110
     6         84.31944330       -133.58120235         11.53635170
     1         85.86374793       -134.72542424         10.85736907
     6         75.54294137       -135.05230023         13.39311772
     1         74.33432998       -136.69519600         13.41459352
     6         80.92919693       -119.51559725         13.49072334
     1         82.27526632       -119.31618257         15.03828873
     1         79.65639117       -117.90337358         13.53066702
     1         81.97963956       -119.46945994         11.71934468
     6         74.87358726       -120.41934483         14.01368965
     1         73.85493000       -120.53275177         15.80142600
     1         73.53289194       -120.77261295         12.49038805
     1         75.60374444       -118.51021372         13.80554389
     6         88.94572251       -125.46732724         12.98726029
     1         88.84354077       -124.62536317         14.86479025
     1         88.65549776       -123.96884504         11.60172202
     1         90.82953841       -126.24450305         12.72837668
     6         89.70791514       -131.23414112         11.59246967
     1         91.06807428       -130.12868625         10.52855053
     6         90.34899650       -133.53323128         12.36692539
     1         89.11478873       -134.67153816         13.51679356
     1         92.16343870       -134.33879671         11.91367739
     6         83.30119372       -138.98063902          9.71942376
     1         84.53611664       -139.87912753         11.10566657
     1         84.48140973       -137.93220358          8.39996780
     1         82.30437799       -140.45397978          8.68798869
     6         77.48308115       -139.97001953         11.15715127
     1         75.50929836       -139.66046720         10.70736552
     6         78.34234067       -142.32469614         11.31530280
     1         80.26299463       -142.74343979         11.83614038
     1         77.13251571       -143.92526656         10.96948417
     6         70.00360660       -134.54722770         14.97984560
     1         70.71237539       -135.96752171         16.29268744
     1         69.67822232       -135.46371502         13.16289753
     1         68.20097745       -133.85492320         15.68183794
     6         69.12671311       -128.50278130         15.62597170
     1         67.59659559       -129.80343100         16.06168508
     1         68.53454312       -127.31430384         14.04978175
     1         69.43774036       -127.28824522         17.26030007
     6         82.57960560       -129.08596789         23.70369196
     1         83.91292372       -130.47266344         24.43889096
     1         81.12722553       -128.76987692         25.12921187
     1         83.57664201       -127.32332236         23.37849062
     7         80.04370786       -132.15650095         21.15325795
     1         79.66744870       -133.33588426         22.59804512
     6         81.43650909       -129.97946119         21.30223380
     6         79.27681489       -132.42468609         18.73053310
     1         78.14914821       -133.96578573         18.05710756
     7         80.09901817       -130.54613826         17.33013633
     6         81.44880109       -129.01082871         18.91050520
     1         82.33077110       -127.32443405         18.22032338

 Electric dipole moment (dipole orientation):
 (Debye = 10**-18 statcoulomb cm , SI units = C m)
                  (au)            (Debye)         (10**-30 SI)
   Tot        0.231959D+01      0.589580D+01      0.196663D+02
   x          0.000000D+00      0.000000D+00      0.000000D+00
   y          0.000000D+00      0.000000D+00      0.000000D+00
   z          0.231959D+01      0.589580D+01      0.196663D+02

 Dipole polarizability, Alpha (dipole orientation).
 (esu units = cm**3 , SI units = C**2 m**2 J**-1)
 Alpha(0;0):
               (au)            (10**-24 esu)      (10**-40 SI)
   iso        0.564573D+03      0.836610D+02      0.930854D+02
   aniso      0.391010D+03      0.579417D+02      0.644688D+02
   xx         0.667549D+03      0.989206D+02      0.110064D+03
   yx         0.231376D+01      0.342863D+00      0.381487D+00
   yy         0.705086D+03      0.104483D+03      0.116253D+03
   zx        -0.536079D+02     -0.794387D+01     -0.883874D+01
   zy         0.571489D+02      0.846859D+01      0.942258D+01
   zz         0.321083D+03      0.475795D+02      0.529394D+02

 First dipole hyperpolarizability, Beta (dipole orientation).
 ||, _|_  parallel and perpendicular components, (z) with respect to z axis,
 vector components x,y,z.  Values do not include the 1/n! factor of 1/2.
 (esu units = statvolt**-1 cm**4 , SI units = C**3 m**3 J**-2)
 Beta(0;0,0):
               (au)            (10**-30 esu)      (10**-50 SI)
   || (z)    -0.141892D+03     -0.122584D+01     -0.454958D+00
   _|_(z)    -0.472974D+02     -0.408613D+00     -0.151653D+00
   x          0.212417D+04      0.183512D+02      0.681086D+01
   y         -0.399120D+04     -0.344808D+02     -0.127972D+02
   z         -0.709462D+03     -0.612920D+01     -0.227479D+01
   ||         0.915316D+03      0.790762D+01      0.293483D+01
   xxx        0.951302D+03      0.821851D+01      0.305022D+01
   xxy        0.315183D+02      0.272294D+00      0.101059D+00
   yxy       -0.243644D+03     -0.210489D+01     -0.781210D+00
   yyy       -0.118559D+04     -0.102426D+02     -0.380143D+01
   xxz        0.795518D+02      0.687266D+00      0.255072D+00
   yxz       -0.539381D+02     -0.465983D+00     -0.172945D+00
   yyz       -0.560098D+03     -0.483881D+01     -0.179588D+01
   zxz        0.399254D+00      0.344925D-02      0.128015D-02
   zyz       -0.176327D+03     -0.152333D+01     -0.565368D+00
   zzz        0.244059D+03      0.210848D+01      0.782542D+00

 ----------------------------------------------------------------------
 Unable to Open any file for archive entry.
 1\1\GINC-BGN1040\SP\RAPFD\def2TZVP\C34H34Fe1N6\BECSLEIP\21-Aug-2024\0\
 \# polar def2tzvp apfd int=(grid=ultrafine)\\2cmn_II_S\\0,1\Fe,0,48.02
 88238003,55.7182333773,33.7360994975\N,0,47.3536714344,54.5521263498,3
 2.2645498258\N,0,49.9105941529,55.4467114431,33.0906027969\N,0,48.7449
 288569,56.5405990584,35.4021839031\N,0,46.1999964633,55.6539357649,34.
 5636506199\C,0,46.1195446997,53.9871783655,32.1409925329\C,0,46.076066
 1612,53.069110108,31.0259856054\C,0,47.3155343133,53.0873461334,30.468
 9872135\C,0,48.1013811009,54.0087974114,31.2592615877\C,0,50.270715593
 1,54.9636877977,31.8679125919\C,0,51.6682636195,55.1899284052,31.61593
 61975\C,0,52.1680377131,55.8054580543,32.7319049854\C,0,51.0509307546,
 55.9447308176,33.6435928807\C,0,50.0560320806,56.7180601265,35.7434202
 608\C,0,50.1791088702,57.2304867243,37.0826177196\C,0,48.9027632899,57
 .3794687581,37.5561958019\C,0,48.0271515256,56.9364672755,36.489572364
 8\C,0,45.800155052,56.3283721665,35.6782803129\C,0,44.3654626494,56.25
 84204087,35.8367429443\C,0,43.9058378822,55.4962730201,34.8077354694\C
 ,0,45.0644947619,55.1247986123,34.0290495664\C,0,45.0219930335,54.3054
 173469,32.9178726104\H,0,44.0728768211,53.8651766386,32.6530803014\C,0
 ,49.4311233715,54.2799145726,31.0066604992\H,0,49.8664317861,53.866011
 5085,30.1097261641\C,0,51.1342796426,56.4967605962,34.9058615613\H,0,5
 2.1167870725,56.7421618316,35.2773646121\C,0,46.6477993872,56.93137128
 51,36.5862781686\H,0,46.2045924577,57.3729826582,37.4657963643\C,0,47.
 8383563248,52.3253791865,29.2999869648\H,0,48.1898592932,53.0058617645
 ,28.5237357297\H,0,47.0637208075,51.6924618839,28.8741624413\H,0,48.67
 37740383,51.6919766773,29.5985416985\C,0,44.8728931807,52.2829058451,3
 0.6335111209\H,0,44.0560714328,52.9480372078,30.3514639476\H,0,44.5335
 451967,51.66355488,31.4637683999\H,0,45.0931987288,51.6344321304,29.78
 91097256\C,0,52.380756757,54.8208378637,30.360969491\H,0,51.9068624376
 ,55.2898625138,29.498408858\H,0,52.3590503438,53.74059092,30.210811792
 7\H,0,53.4175410683,55.14515449,30.4004315207\C,0,53.5359243989,56.234
 653946,32.9468616334\H,0,54.29483118,55.5644034142,32.556911552\C,0,53
 .9146474298,57.3652794778,33.5312223649\H,0,53.2042148371,58.092511433
 6,33.8862936414\H,0,54.9561693748,57.6143243847,33.6510827475\C,0,51.4
 663866657,57.4566931587,37.7949691742\H,0,51.8936512249,58.4249864621,
 37.5283415425\H,0,52.1900738176,56.6859026433,37.5350749084\H,0,51.305
 729027,57.4372108223,38.8709967581\C,0,48.4552371304,57.8328483686,38.
 8549319453\H,0,47.5483414973,57.369314005,39.225203962\C,0,49.05937007
 32,58.7533545079,39.5992888221\H,0,49.9371831522,59.2767791632,39.2623
 36184\H,0,48.6796636362,59.0328348767,40.5680291896\C,0,43.6087116902,
 56.8989338476,36.9493447486\H,0,43.8407098543,57.9621873787,37.0115503
 898\H,0,43.8698246806,56.43998615,37.9035475221\H,0,42.5372530182,56.7
 88658618,36.8011210626\C,0,42.5108426977,55.0811499438,34.488956129\H,
 0,41.8031223415,55.5472565502,35.1704102198\H,0,42.4055186184,53.99902
 6981,34.5746481403\H,0,42.2493487224,55.3666562035,33.4700202623\C,0,4
 7.6256451415,59.7557797128,29.9027527642\H,0,48.2658088967,60.63205504
 31,30.0026681807\H,0,46.6253149342,60.093403686,29.632437303\H,0,48.01
 10184011,59.132885083,29.1018148083\N,0,47.141555993,59.511828772,32.3
 458265327\H,0,46.7984136498,60.4497075871,32.4735729772\C,0,47.5942996
 357,58.9791192048,31.1677431845\C,0,47.240479733,58.5541684894,33.2953
 460805\H,0,46.9559984168,58.6894446242,34.3195149628\N,0,47.728998951,
 57.443692141,32.7905024586\C,0,47.954466337,57.6960962202,31.465696628
 \H,0,48.3582368848,56.9408251199,30.822164569\\Version=ES64L-G16RevC.0
 2\State=1-A\HF=-2907.6008195\RMSD=2.096e-09\Dipole=-0.8109345,1.766602
 4,-1.2656958\Polar=666.9854591,65.5024993,412.2890317,-21.6773347,167.
 6888525,614.4432675\HyperPolar=644.8418117,175.0824677,-39.0085659,75.
 1250897,-308.6030211,7.715129,-62.2681813,358.0890227,522.7952586,1265
 .6071092\Quadrupole=-2.2942361,4.919329,-2.6250929,-3.1028411,-1.65823
 22,-0.0844797\PG=C01 [X(C34H34Fe1N6)]\\@
 The archive entry for this job was punched.


 REALITY IS FOR PEOPLE WHO CAN'T FACE SCIENCE FICTION.
 Job cpu time:       1 days 23 hours 25 minutes 48.3 seconds.
 Elapsed time:       0 days  0 hours 41 minutes 10.0 seconds.
 File lengths (MBytes):  RWF=   1142 Int=      0 D2E=      0 Chk=    146 Scr=      1
 Normal termination of Gaussian 16 at Wed Aug 21 02:29:54 2024.
 Initial command:
 /sw/chem/gaussian/g16_C02/a100/g16/l1.exe "/local/becsleip_7984892/Gau-88225.inp" -scrdir="/local/becsleip_7984892/"
 Entering Link 1 = /sw/chem/gaussian/g16_C02/a100/g16/l1.exe PID=     90127.
  
 Copyright (c) 1988-2021, Gaussian, Inc.  All Rights Reserved.
  
 This is part of the Gaussian(R) 16 program.  It is based on
 the Gaussian(R) 09 system (copyright 2009, Gaussian, Inc.),
 the Gaussian(R) 03 system (copyright 2003, Gaussian, Inc.),
 the Gaussian(R) 98 system (copyright 1998, Gaussian, Inc.),
 the Gaussian(R) 94 system (copyright 1995, Gaussian, Inc.),
 the Gaussian 92(TM) system (copyright 1992, Gaussian, Inc.),
 the Gaussian 90(TM) system (copyright 1990, Gaussian, Inc.),
 the Gaussian 88(TM) system (copyright 1988, Gaussian, Inc.),
 the Gaussian 86(TM) system (copyright 1986, Carnegie Mellon
 University), and the Gaussian 82(TM) system (copyright 1983,
 Carnegie Mellon University). Gaussian is a federally registered
 trademark of Gaussian, Inc.
  
 This software contains proprietary and confidential information,
 including trade secrets, belonging to Gaussian, Inc.
  
 This software is provided under written license and may be
 used, copied, transmitted, or stored only in accord with that
 written license.
  
 The following legend is applicable only to US Government
 contracts under FAR:
  
                    RESTRICTED RIGHTS LEGEND
  
 Use, reproduction and disclosure by the US Government is
 subject to restrictions as set forth in subparagraphs (a)
 and (c) of the Commercial Computer Software - Restricted
 Rights clause in FAR 52.227-19.
  
 Gaussian, Inc.
 340 Quinnipiac St., Bldg. 40, Wallingford CT 06492
  
  
 ---------------------------------------------------------------
 Warning -- This program may not be used in any manner that
 competes with the business of Gaussian, Inc. or will provide
 assistance to any competitor of Gaussian, Inc.  The licensee
 of this program is prohibited from giving any competitor of
 Gaussian, Inc. access to this program.  By using this program,
 the user acknowledges that Gaussian, Inc. is engaged in the
 business of creating and licensing software in the field of
 computational chemistry and represents and warrants to the
 licensee that it is not a competitor of Gaussian, Inc. and that
 it will not use this program in any manner prohibited above.
 ---------------------------------------------------------------
  

 Cite this work as:
 Gaussian 16, Revision C.02,
 M. J. Frisch, G. W. Trucks, H. B. Schlegel, G. E. Scuseria, 
 M. A. Robb, J. R. Cheeseman, G. Scalmani, V. Barone, 
 G. A. Petersson, H. Nakatsuji, X. Li, M. Caricato, A. V. Marenich, 
 J. Bloino, B. G. Janesko, R. Gomperts, B. Mennucci, H. P. Hratchian, 
 J. V. Ortiz, A. F. Izmaylov, J. L. Sonnenberg, D. Williams-Young, 
 F. Ding, F. Lipparini, F. Egidi, J. Goings, B. Peng, A. Petrone, 
 T. Henderson, D. Ranasinghe, V. G. Zakrzewski, J. Gao, N. Rega, 
 G. Zheng, W. Liang, M. Hada, M. Ehara, K. Toyota, R. Fukuda, 
 J. Hasegawa, M. Ishida, T. Nakajima, Y. Honda, O. Kitao, H. Nakai, 
 T. Vreven, K. Throssell, J. A. Montgomery, Jr., J. E. Peralta, 
 F. Ogliaro, M. J. Bearpark, J. J. Heyd, E. N. Brothers, K. N. Kudin, 
 V. N. Staroverov, T. A. Keith, R. Kobayashi, J. Normand, 
 K. Raghavachari, A. P. Rendell, J. C. Burant, S. S. Iyengar, 
 J. Tomasi, M. Cossi, J. M. Millam, M. Klene, C. Adamo, R. Cammi, 
 J. W. Ochterski, R. L. Martin, K. Morokuma, O. Farkas, 
 J. B. Foresman, and D. J. Fox, Gaussian, Inc., Wallingford CT, 2019.
 
 ******************************************
 Gaussian 16:  ES64L-G16RevC.02  7-Dec-2021
                21-Aug-2024 
 ******************************************
 %mem=16GB
 %CPU=0-71
 SetSPE:  set environment variable "OMP_PROC_BIND" = "true"
 SetSPE:  set environment variable "OMP_PLACES" = "{0},{1},{2},{3},{4},{5},{6},{7},{8},{9},{10},{11},{12},{13},{14},{15},{16},{17},{18},{19},{20},{21},{22},{23},{24},{25},{26},{27},{28},{29},{30},{31},{32},{33},{34},{35},{36},{37},{38},{39},{40},{41},{42},{43},{44},{45},{46},{47},{48},{49},{50},{51},{52},{53},{54},{55},{56},{57},{58},{59},{60},{61},{62},{63},{64},{65},{66},{67},{68},{69},{70},{71}"
 Will use up to   72 processors via shared memory.
 %gpucpu=0,1,2,3=0,1,2,3
 Will use    4 GPUs:
 Thread  CPU   GPU
      0    0     0
      1    1     1
      2    2     2
      3    3     3
      4    4    -1
      5    5    -1
      6    6    -1
[...]
                                                    1340(v),1483(g),148(r)
                                                    151(r),147(r),168(r)
   137. CR (   1) C  64                  1.99940   -10.06428  1483(v),1283(v),1481(v)
                                                    1291(v)
   138. CR (   1) N  68                  1.99938   -14.22752  1311(v),1285(v),1279(v)
                                                    1479(v),1286(v)
   139. CR (   1) C  70                  1.99915   -10.09543  1368(v),1483(g),1489(v)
                                                    1213(v),1256(v)
   140. CR (   1) C  71                  1.99938   -10.12959  1340(v),1480(v),1336(v)
                                                    148(r),147(r)
   141. CR (   1) N  73                  1.99932   -14.16656  147(r),148(r),151(r),1309(v)
                                                    1366(v),1368(v),1485(v)
                                                    166(r),165(r),173(r),164(r)
   142. CR (   1) C  74                  1.99900   -10.06687  1479(v),1283(v),1483(g)
                                                    1342(v),1286(v),148(r)
                                                    147(r)
   158. LP (   1) N  68                  1.57715    -0.29029  1487(v),1484(v),1312(v)
                                                    1284(v),1278(v),163(r)
   159. LP (   1) N  73                  1.61956    -0.38583  147(r),148(r),151(r),1482(v)
                                                    1483(v),1309(v),1485(v)
                                                    1489(v),1366(v),154(r)
                                                    1486(g),1343(g),1488(g)
                                                    165(r),185(r),268(r),189(r)
                                                    241(r),190(r),242(r),216(r)
                                                    267(r),1407(r),215(r),186(r)
                                                    1403(r),1402(r),1397(r)
                                                    1398(r),1406(r),1401(r)
                                                    1405(r),1400(r),164(r)
                                                    273(r),221(r)
  1211. RY*(   1) C  64                  0.00121     1.14024   
  1212. RY*(   2) C  64                  0.00077     1.99588   
  1213. RY*(   3) C  64                  0.00052     1.30532   
  1214. RY*(   4) C  64                  0.00012     1.25699   
  1215. RY*(   5) C  64                  0.00007     1.07624   
  1216. RY*(   6) C  64                  0.00008     2.38053   
  1217. RY*(   7) C  64                  0.00001     2.04651   
  1218. RY*(   8) C  64                  0.00001     1.89486   
  1219. RY*(   9) C  64                  0.00001     1.41500   
  1220. RY*(  10) C  64                  0.00000     3.18224   
  1221. RY*(  11) C  64                  0.00000     2.47031   
  1222. RY*(  12) C  64                  0.00001     1.42728   
  1223. RY*(  13) C  64                  0.00000     2.45730   
  1224. RY*(  14) C  64                  0.00001     2.91309   
  1225. RY*(  15) C  64                  0.00000     2.45218   
  1226. RY*(  16) C  64                  0.00000     2.31952   
  1227. RY*(  17) C  64                  0.00000     2.62077   
  1228. RY*(  18) C  64                  0.00000    21.59517   
  1229. RY*(  19) C  64                  0.00000     2.69584   
  1230. RY*(  20) C  64                  0.00000     3.64891   
  1231. RY*(  21) C  64                  0.00001     3.40910   
  1232. RY*(  22) C  64                  0.00001     3.39347   
  1233. RY*(  23) C  64                  0.00000     3.33176   
  1234. RY*(  24) C  64                  0.00000     3.78113   
  1235. RY*(  25) C  64                  0.00000     3.31247   
  1236. RY*(  26) C  64                  0.00000     3.29373   
  1237. RY*(   1) H  65                  0.00073     1.00433   
  1238. RY*(   2) H  65                  0.00014     1.69287   
  1239. RY*(   3) H  65                  0.00008     1.95207   
  1240. RY*(   4) H  65                  0.00006     2.00585   
  1241. RY*(   5) H  65                  0.00000     2.86980   
  1242. RY*(   1) H  66                  0.00074     0.99410   
  1243. RY*(   2) H  66                  0.00014     1.69575   
  1244. RY*(   3) H  66                  0.00008     1.95617   
  1245. RY*(   4) H  66                  0.00006     2.00819   
  1246. RY*(   5) H  66                  0.00000     2.86834   
  1247. RY*(   1) H  67                  0.00024     1.31537   
  1248. RY*(   2) H  67                  0.00013     1.64049   
  1249. RY*(   3) H  67                  0.00008     2.05269   
  1250. RY*(   4) H  67                  0.00003     1.69912   
  1251. RY*(   5) H  67                  0.00001     2.89306   
  1252. RY*(   1) N  68                  0.00282     0.65839   
  1253. RY*(   2) N  68                  0.00233     1.74152   
  1254. RY*(   3) N  68                  0.00102     2.05386   
  1255. RY*(   4) N  68                  0.00075     2.19994   
  1256. RY*(   5) N  68                  0.00052     1.09850   
  1257. RY*(   6) N  68                  0.00025     2.02170   
  1258. RY*(   7) N  68                  0.00021     1.68968   
  1259. RY*(   8) N  68                  0.00006     2.91871   
  1260. RY*(   9) N  68                  0.00007     2.44785   
  1261. RY*(  10) N  68                  0.00006     2.31681   
  1262. RY*(  11) N  68                  0.00005     3.59936   
  1263. RY*(  12) N  68                  0.00001     3.84969   
  1264. RY*(  13) N  68                  0.00001     3.55401   
  1265. RY*(  14) N  68                  0.00000     2.53748   
  1266. RY*(  15) N  68                  0.00001     3.91355   
  1267. RY*(  16) N  68                  0.00000     2.13025   
  1268. RY*(  17) N  68                  0.00000     4.01120   
  1269. RY*(  18) N  68                  0.00000     4.86256   
  1270. RY*(  19) N  68                  0.00000    30.52975   
  1271. RY*(  20) N  68                  0.00000     4.63966   
  1272. RY*(  21) N  68                  0.00000     4.53080   
  1273. RY*(  22) N  68                  0.00000     4.49542   
  1274. RY*(  23) N  68                  0.00000     4.27738   
  1275. RY*(  24) N  68                  0.00000     4.51794   
  1276. RY*(  25) N  68                  0.00000     4.46845   
  1277. RY*(  26) N  68                  0.00000     4.45472   
  1278. RY*(   1) H  69                  0.00057     2.14354   
  1279. RY*(   2) H  69                  0.00039     2.14863   
  1280. RY*(   3) H  69                  0.00029     1.08576   
  1281. RY*(   4) H  69                  0.00021     2.44993   
  1282. RY*(   5) H  69                  0.00001     3.05516   
  1283. RY*(   1) C  70                  0.00417     1.66937   
  1284. RY*(   2) C  70                  0.00258     0.98399   
  1285. RY*(   3) C  70                  0.00189     1.44705   
  1286. RY*(   4) C  70                  0.00164     2.01707   
  1287. RY*(   5) C  70                  0.00120     1.73108   
  1288. RY*(   6) C  70                  0.00109     1.67695   
  1289. RY*(   7) C  70                  0.00037     2.86153   
  1290. RY*(   8) C  70                  0.00018     2.77535   
  1291. RY*(   9) C  70                  0.00016     2.31291   
  1292. RY*(  10) C  70                  0.00008     3.50842   
  1293. RY*(  11) C  70                  0.00003     2.46150   
  1294. RY*(  12) C  70                  0.00003     2.61306   
  1295. RY*(  13) C  70                  0.00001     2.78713   
  1296. RY*(  14) C  70                  0.00001     1.46245   
  1297. RY*(  15) C  70                  0.00001     2.36903   
  1298. RY*(  16) C  70                  0.00000     1.05535   
  1299. RY*(  17) C  70                  0.00000    20.47546   
  1300. RY*(  18) C  70                  0.00000     3.38946   
  1301. RY*(  19) C  70                  0.00001     1.60516   
  1302. RY*(  20) C  70                  0.00000     4.02214   
  1303. RY*(  21) C  70                  0.00000     3.69998   
  1304. RY*(  22) C  70                  0.00000     3.61093   
  1305. RY*(  23) C  70                  0.00000     3.36346   
  1306. RY*(  24) C  70                  0.00000     3.83111   
  1307. RY*(  25) C  70                  0.00000     3.49549   
  1308. RY*(  26) C  70                  0.00000     3.47404   
  1309. RY*(   1) C  71                  0.00407     1.57741   
  1310. RY*(   2) C  71                  0.00319     0.68197   
  1311. RY*(   3) C  71                  0.00206     1.31515   
  1312. RY*(   4) C  71                  0.00129     2.50913   
  1313. RY*(   5) C  71                  0.00080     1.61196   
  1314. RY*(   6) C  71                  0.00039     1.57962   
  1315. RY*(   7) C  71                  0.00032     1.78853   
  1316. RY*(   8) C  71                  0.00012     2.86504   
  1317. RY*(   9) C  71                  0.00005     3.51678   
  1318. RY*(  10) C  71                  0.00004     1.92331   
  1319. RY*(  11) C  71                  0.00005     2.39868   
  1320. RY*(  12) C  71                  0.00003     1.66941   
  1321. RY*(  13) C  71                  0.00001     2.63320   
  1322. RY*(  14) C  71                  0.00001     3.59308   
  1323. RY*(  15) C  71                  0.00001     2.37126   
  1324. RY*(  16) C  71                  0.00001     2.68188   
  1325. RY*(  17) C  71                  0.00001     2.78540   
  1326. RY*(  18) C  71                  0.00000    21.42481   
  1327. RY*(  19) C  71                  0.00000     3.13744   
  1328. RY*(  20) C  71                  0.00001     3.82990   
  1329. RY*(  21) C  71                  0.00000     3.77684   
  1330. RY*(  22) C  71                  0.00000     3.82523   
  1331. RY*(  23) C  71                  0.00000     3.56588   
  1332. RY*(  24) C  71                  0.00000     3.72939   
  1333. RY*(  25) C  71                  0.00000     3.41378   
  1334. RY*(  26) C  71                  0.00000     3.46307   
  1335. RY*(   1) H  72                  0.00059     0.84763   
  1336. RY*(   2) H  72                  0.00028     2.31765   
  1337. RY*(   3) H  72                  0.00021     2.09022   
  1338. RY*(   4) H  72                  0.00011     2.40049   
  1339. RY*(   5) H  72                  0.00002     3.14030   
  1340. RY*(   1) N  73                  0.00597     1.44555   
  1341. RY*(   2) N  73                  0.00553     0.89094   
  1342. RY*(   3) N  73                  0.00518     1.46450   
  1343. RY*(   4) N  73                  0.00122     1.42393   
  1344. RY*(   5) N  73                  0.00070     1.67547   
  1345. RY*(   6) N  73                  0.00044     2.15514   
  1346. RY*(   7) N  73                  0.00035     3.44713   
  1347. RY*(   8) N  73                  0.00034     3.01839   
  1348. RY*(   9) N  73                  0.00010     2.88250   
  1349. RY*(  10) N  73                  0.00010     2.27865   
  1350. RY*(  11) N  73                  0.00009     3.35713   
  1351. RY*(  12) N  73                  0.00007     2.98611   
  1352. RY*(  13) N  73                  0.00006     3.17105   
  1353. RY*(  14) N  73                  0.00002     3.95072   
  1354. RY*(  15) N  73                  0.00001     4.26897   
  1355. RY*(  16) N  73                  0.00001     4.34840   
  1356. RY*(  17) N  73                  0.00001     4.51805   
  1357. RY*(  18) N  73                  0.00001     4.41817   
  1358. RY*(  19) N  73                  0.00001     3.79681   
  1359. RY*(  20) N  73                  0.00000     4.34954   
  1360. RY*(  21) N  73                  0.00001     4.53092   
  1361. RY*(  22) N  73                  0.00000    31.70517   
  1362. RY*(  23) N  73                  0.00000     4.64573   
  1363. RY*(  24) N  73                  0.00000     4.72530   
  1364. RY*(  25) N  73                  0.00000     4.65900   
  1365. RY*(  26) N  73                  0.00000     4.64779   
  1366. RY*(   1) C  74                  0.00365     1.62039   
  1367. RY*(   2) C  74                  0.00252     0.71586   
  1368. RY*(   3) C  74                  0.00170     1.77029   
  1369. RY*(   4) C  74                  0.00065     2.06463   
  1370. RY*(   5) C  74                  0.00059     1.63423   
  1371. RY*(   6) C  74                  0.00046     1.82087   
  1372. RY*(   7) C  74                  0.00044     1.91026   
  1373. RY*(   8) C  74                  0.00020     1.63697   
  1374. RY*(   9) C  74                  0.00015     1.82270   
  1375. RY*(  10) C  74                  0.00012     1.78234   
  1376. RY*(  11) C  74                  0.00007     2.00768   
  1377. RY*(  12) C  74                  0.00007     2.00687   
  1378. RY*(  13) C  74                  0.00005     2.68782   
  1379. RY*(  14) C  74                  0.00004     2.44285   
  1380. RY*(  15) C  74                  0.00002     4.78927   
  1381. RY*(  16) C  74                  0.00002     2.00535   
  1382. RY*(  17) C  74                  0.00000     3.19853   
  1383. RY*(  18) C  74                  0.00000     3.63425   
  1384. RY*(  19) C  74                  0.00000    19.10520   
  1385. RY*(  20) C  74                  0.00001     3.39967   
  1386. RY*(  21) C  74                  0.00001     3.78600   
  1387. RY*(  22) C  74                  0.00001     3.76115   
  1388. RY*(  23) C  74                  0.00000     3.29068   
  1389. RY*(  24) C  74                  0.00000     3.73285   
  1390. RY*(  25) C  74                  0.00000     3.53180   
  1391. RY*(  26) C  74                  0.00000     3.54167   
  1392. RY*(   1) H  75                  0.00061     0.98546   
  1393. RY*(   2) H  75                  0.00025     2.26844   
  1394. RY*(   3) H  75                  0.00023     2.15793   
  1395. RY*(   4) H  75                  0.00007     2.66910   
  1396. RY*(   5) H  75                  0.00001     3.08716   
  1476. BD*(   1) C  64 - H  65          0.01177     0.35490   
  1477. BD*(   1) C  64 - H  66          0.01163     0.35459   
  1478. BD*(   1) C  64 - H  67          0.00341     0.36779   
  1479. BD*(   1) C  64 - C  70          0.01353     0.38354   
  1480. BD*(   1) N  68 - H  69          0.01401     0.36099   
  1481. BD*(   1) N  68 - C  70          0.02726     0.42393   
  1482. BD*(   1) N  68 - C  71          0.02224     0.43996   
  1483. BD*(   1) C  70 - C  74          0.02101     0.55887   
  1484. BD*(   2) C  70 - C  74          0.29818     0.02810  1487(v),1476(v),1477(v)
                                                    1287(g),1419(r)
  1485. BD*(   1) C  71 - H  72          0.01794     0.38348   
  1486. BD*(   1) C  71 - N  73          0.01535     0.52748   
  1487. BD*(   2) C  71 - N  73          0.42347    -0.01440  1484(v),1310(g),1341(g)
                                                    1367(v),150(r),1399(r)
  1488. BD*(   1) N  73 - C  74          0.01570     0.47235   
  1489. BD*(   1) C  74 - H  75          0.01451     0.42342   
       -------------------------------
              Total Lewis   42.70268  ( 97.7467%)
        Valence non-Lewis    0.91001  (  2.0830%)
        Rydberg non-Lewis    0.07437  (  0.1702%)
       -------------------------------
            Total unit  3   43.68707  (100.0000%)
           Charge unit  3    0.31293
 Unable to Open any file for archive entry.
 1\1\GINC-BGN1040\SP\RAPFD\def2TZVP\C34H34Fe1N6\BECSLEIP\21-Aug-2024\0\
 \# apfd/def2TZVP int=(grid=ultrafine) geom=check guess=read pop=nbo sc
 f=qc\\2cmn_II_S_nbo\\0,1\Fe,0,48.0288238003,55.7182333773,33.736099497
 5\N,0,47.3536714344,54.5521263498,32.2645498258\N,0,49.9105941529,55.4
 467114431,33.0906027969\N,0,48.7449288569,56.5405990584,35.4021839031\
 N,0,46.1999964633,55.6539357649,34.5636506199\C,0,46.1195446997,53.987
 1783655,32.1409925329\C,0,46.0760661612,53.069110108,31.0259856054\C,0
 ,47.3155343133,53.0873461334,30.4689872135\C,0,48.1013811009,54.008797
 4114,31.2592615877\C,0,50.2707155931,54.9636877977,31.8679125919\C,0,5
 1.6682636195,55.1899284052,31.6159361975\C,0,52.1680377131,55.80545805
 43,32.7319049854\C,0,51.0509307546,55.9447308176,33.6435928807\C,0,50.
 0560320806,56.7180601265,35.7434202608\C,0,50.1791088702,57.2304867243
 ,37.0826177196\C,0,48.9027632899,57.3794687581,37.5561958019\C,0,48.02
 71515256,56.9364672755,36.4895723648\C,0,45.800155052,56.3283721665,35
 .6782803129\C,0,44.3654626494,56.2584204087,35.8367429443\C,0,43.90583
 78822,55.4962730201,34.8077354694\C,0,45.0644947619,55.1247986123,34.0
 290495664\C,0,45.0219930335,54.3054173469,32.9178726104\H,0,44.0728768
 211,53.8651766386,32.6530803014\C,0,49.4311233715,54.2799145726,31.006
 6604992\H,0,49.8664317861,53.8660115085,30.1097261641\C,0,51.134279642
 6,56.4967605962,34.9058615613\H,0,52.1167870725,56.7421618316,35.27736
 46121\C,0,46.6477993872,56.9313712851,36.5862781686\H,0,46.2045924577,
 57.3729826582,37.4657963643\C,0,47.8383563248,52.3253791865,29.2999869
 648\H,0,48.1898592932,53.0058617645,28.5237357297\H,0,47.0637208075,51
 .6924618839,28.8741624413\H,0,48.6737740383,51.6919766773,29.598541698
 5\C,0,44.8728931807,52.2829058451,30.6335111209\H,0,44.0560714328,52.9
 480372078,30.3514639476\H,0,44.5335451967,51.66355488,31.4637683999\H,
 0,45.0931987288,51.6344321304,29.7891097256\C,0,52.380756757,54.820837
 8637,30.360969491\H,0,51.9068624376,55.2898625138,29.498408858\H,0,52.
 3590503438,53.74059092,30.2108117927\H,0,53.4175410683,55.14515449,30.
 4004315207\C,0,53.5359243989,56.234653946,32.9468616334\H,0,54.2948311
 8,55.5644034142,32.556911552\C,0,53.9146474298,57.3652794778,33.531222
 3649\H,0,53.2042148371,58.0925114336,33.8862936414\H,0,54.9561693748,5
 7.6143243847,33.6510827475\C,0,51.4663866657,57.4566931587,37.79496917
 42\H,0,51.8936512249,58.4249864621,37.5283415425\H,0,52.1900738176,56.
 6859026433,37.5350749084\H,0,51.305729027,57.4372108223,38.8709967581\
 C,0,48.4552371304,57.8328483686,38.8549319453\H,0,47.5483414973,57.369
 314005,39.225203962\C,0,49.0593700732,58.7533545079,39.5992888221\H,0,
 49.9371831522,59.2767791632,39.262336184\H,0,48.6796636362,59.03283487
 67,40.5680291896\C,0,43.6087116902,56.8989338476,36.9493447486\H,0,43.
 8407098543,57.9621873787,37.0115503898\H,0,43.8698246806,56.43998615,3
 7.9035475221\H,0,42.5372530182,56.788658618,36.8011210626\C,0,42.51084
 26977,55.0811499438,34.488956129\H,0,41.8031223415,55.5472565502,35.17
 04102198\H,0,42.4055186184,53.999026981,34.5746481403\H,0,42.249348722
 4,55.3666562035,33.4700202623\C,0,47.6256451415,59.7557797128,29.90275
 27642\H,0,48.2658088967,60.6320550431,30.0026681807\H,0,46.6253149342,
 60.093403686,29.632437303\H,0,48.0110184011,59.132885083,29.1018148083
 \N,0,47.141555993,59.511828772,32.3458265327\H,0,46.7984136498,60.4497
 075871,32.4735729772\C,0,47.5942996357,58.9791192048,31.1677431845\C,0
 ,47.240479733,58.5541684894,33.2953460805\H,0,46.9559984168,58.6894446
 242,34.3195149628\N,0,47.728998951,57.443692141,32.7905024586\C,0,47.9
 54466337,57.6960962202,31.465696628\H,0,48.3582368848,56.9408251199,30
 .822164569\\Version=ES64L-G16RevC.02\State=1-A\HF=-2907.6008195\RMSD=1
 .508e-09\Dipole=-0.8109345,1.7666024,-1.2656958\Quadrupole=-2.2942361,
 4.919329,-2.6250929,-3.1028411,-1.6582322,-0.0844797\PG=C01 [X(C34H34F
 e1N6)]\\@
 The archive entry for this job was punched.


 IT CANNOT BE MY BEAUTY, FOR I HAVE NONE; AND IT CANNOT BE MY WIT,
 FOR HE HAS NOT ENOUGH TO KNOW THAT I HAVE ANY.
 -- CATHARINE SEDLEY, PUZZLED ABOUT WHY SHE WAS MISTRESS TO JAMES II
 Job cpu time:       0 days  0 hours 40 minutes 55.8 seconds.
 Elapsed time:       0 days  0 hours  0 minutes 50.6 seconds.
 File lengths (MBytes):  RWF=    749 Int=      0 D2E=      0 Chk=    150 Scr=      1
 Normal termination of Gaussian 16 at Wed Aug 21 02:30:47 2024.
