 Entering Gaussian System, Link 0=g16
 Input=2cmn12.com
 Output=2cmn12.log
 Initial command:
 /sw/chem/gaussian/g16_C02/a100/g16/l1.exe "/local/becsleip_7986740/Gau-2621887.inp" -scrdir="/local/becsleip_7986740/"
 Entering Link 1 = /sw/chem/gaussian/g16_C02/a100/g16/l1.exe PID=   2621888.
  
 Copyright (c) 1988-2021, Gaussian, Inc.  All Rights Reserved.
  
 This is part of the Gaussian(R) 16 program.  It is based on
 the Gaussian(R) 09 system (copyright 2009, Gaussian, Inc.),
 the Gaussian(R) 03 system (copyright 2003, Gaussian, Inc.),
 the Gaussian(R) 98 system (copyright 1998, Gaussian, Inc.),
 the Gaussian(R) 94 system (copyright 1995, Gaussian, Inc.),
 the Gaussian 92(TM) system (copyright 1992, Gaussian, Inc.),
 the Gaussian 90(TM) system (copyright 1990, Gaussian, Inc.),
 the Gaussian 88(TM) system (copyright 1988, Gaussian, Inc.),
 the Gaussian 86(TM) system (copyright 1986, Carnegie Mellon
 University), and the Gaussian 82(TM) system (copyright 1983,
 Carnegie Mellon University). Gaussian is a federally registered
 trademark of Gaussian, Inc.
  
 This software contains proprietary and confidential information,
 including trade secrets, belonging to Gaussian, Inc.
  
 This software is provided under written license and may be
 used, copied, transmitted, or stored only in accord with that
 written license.
  
 The following legend is applicable only to US Government
 contracts under FAR:
  
                    RESTRICTED RIGHTS LEGEND
  
 Use, reproduction and disclosure by the US Government is
 subject to restrictions as set forth in subparagraphs (a)
 and (c) of the Commercial Computer Software - Restricted
 Rights clause in FAR 52.227-19.
  
 Gaussian, Inc.
 340 Quinnipiac St., Bldg. 40, Wallingford CT 06492
  
  
 ---------------------------------------------------------------
 Warning -- This program may not be used in any manner that
 competes with the business of Gaussian, Inc. or will provide
 assistance to any competitor of Gaussian, Inc.  The licensee
 of this program is prohibited from giving any competitor of
 Gaussian, Inc. access to this program.  By using this program,
 the user acknowledges that Gaussian, Inc. is engaged in the
 business of creating and licensing software in the field of
 computational chemistry and represents and warrants to the
 licensee that it is not a competitor of Gaussian, Inc. and that
 it will not use this program in any manner prohibited above.
 ---------------------------------------------------------------
  

 Cite this work as:
 Gaussian 16, Revision C.02,
 M. J. Frisch, G. W. Trucks, H. B. Schlegel, G. E. Scuseria, 
 M. A. Robb, J. R. Cheeseman, G. Scalmani, V. Barone, 
 G. A. Petersson, H. Nakatsuji, X. Li, M. Caricato, A. V. Marenich, 
 J. Bloino, B. G. Janesko, R. Gomperts, B. Mennucci, H. P. Hratchian, 
 J. V. Ortiz, A. F. Izmaylov, J. L. Sonnenberg, D. Williams-Young, 
 F. Ding, F. Lipparini, F. Egidi, J. Goings, B. Peng, A. Petrone, 
 T. Henderson, D. Ranasinghe, V. G. Zakrzewski, J. Gao, N. Rega, 
 G. Zheng, W. Liang, M. Hada, M. Ehara, K. Toyota, R. Fukuda, 
 J. Hasegawa, M. Ishida, T. Nakajima, Y. Honda, O. Kitao, H. Nakai, 
 T. Vreven, K. Throssell, J. A. Montgomery, Jr., J. E. Peralta, 
 F. Ogliaro, M. J. Bearpark, J. J. Heyd, E. N. Brothers, K. N. Kudin, 
 V. N. Staroverov, T. A. Keith, R. Kobayashi, J. Normand, 
 K. Raghavachari, A. P. Rendell, J. C. Burant, S. S. Iyengar, 
 J. Tomasi, M. Cossi, J. M. Millam, M. Klene, C. Adamo, R. Cammi, 
 J. W. Ochterski, R. L. Martin, K. Morokuma, O. Farkas, 
 J. B. Foresman, and D. J. Fox, Gaussian, Inc., Wallingford CT, 2019.
 
 ******************************************
 Gaussian 16:  ES64L-G16RevC.02  7-Dec-2021
                22-Aug-2024 
 ******************************************
 %mem=16GB
 %CPU=0-71
 SetSPE:  set environment variable "OMP_PROC_BIND" = "true"
 SetSPE:  set environment variable "OMP_PLACES" = "{0},{1},{2},{3},{4},{5},{6},{7},{8},{9},{10},{11},{12},{13},{14},{15},{16},{17},{18},{19},{20},{21},{22},{23},{24},{25},{26},{27},{28},{29},{30},{31},{32},{33},{34},{35},{36},{37},{38},{39},{40},{41},{42},{43},{44},{45},{46},{47},{48},{49},{50},{51},{52},{53},{54},{55},{56},{57},{58},{59},{60},{61},{62},{63},{64},{65},{66},{67},{68},{69},{70},{71}"
 Will use up to   72 processors via shared memory.
 %gpucpu=0,1,2,3=0,1,2,3
 Will use    4 GPUs:
 Thread  CPU   GPU
      0    0     0
      1    1     1
      2    2     2
      3    3     3
      4    4    -1
      5    5    -1
      6    6    -1
      7    7    -1
      8    8    -1
      9    9    -1
     10   10    -1
     11   11    -1
     12   12    -1
     13   13    -1
     14   14    -1
     15   15    -1
     16   16    -1
     17   17    -1
     18   18    -1
     19   19    -1
     20   20    -1
     21   21    -1
     22   22    -1
     23   23    -1
     24   24    -1
     25   25    -1
     26   26    -1
     27   27    -1
     28   28    -1
     29   29    -1
     30   30    -1
     31   31    -1
     32   32    -1
     33   33    -1
     34   34    -1
     35   35    -1
     36   36    -1
     37   37    -1
     38   38    -1
     39   39    -1
     40   40    -1
     41   41    -1
     42   42    -1
     43   43    -1
     44   44    -1
     45   45    -1
     46   46    -1
     47   47    -1
     48   48    -1
     49   49    -1
     50   50    -1
     51   51    -1
     52   52    -1
     53   53    -1
     54   54    -1
     55   55    -1
     56   56    -1
     57   57    -1
     58   58    -1
     59   59    -1
     60   60    -1
     61   61    -1
     62   62    -1
     63   63    -1
     64   64    -1
     65   65    -1
     66   66    -1
     67   67    -1
     68   68    -1
     69   69    -1
     70   70    -1
     71   71    -1
 SetGPE:  set environment variable "OMP_PROC_BIND" = "true"
 SetGPE:  set environment variable "OMP_PLACES" = "{0},{1},{2},{3},{4},{5},{6},{7},{8},{9},{10},{11},{12},{13},{14},{15},{16},{17},{18},{19},{20},{21},{22},{23},{24},{25},{26},{27},{28},{29},{30},{31},{32},{33},{34},{35},{36},{37},{38},{39},{40},{41},{42},{43},{44},{45},{46},{47},{48},{49},{50},{51},{52},{53},{54},{55},{56},{57},{58},{59},{60},{61},{62},{63},{64},{65},{66},{67},{68},{69},{70},{71}"
 %oldchk=2cmn_II_Sre.chk
 %chk=2cmn_III_Dn.chk
 Properties for Device   0
 Minimum vector length:                              32
 Maximum vector length:                            1024
 Number of SMPs:                                    108
 Maximum number of threads per SMP:                2048
 Number of ASync Engines:                             5
 Memory:                                           9207742464
 Properties for Device   1
 Minimum vector length:                              32
 Maximum vector length:                            1024
 Number of SMPs:                                    108
 Maximum number of threads per SMP:                2048
 Number of ASync Engines:                             5
 Memory:                                           9207742464
 Properties for Device   2
 Minimum vector length:                              32
 Maximum vector length:                            1024
 Number of SMPs:                                    108
 Maximum number of threads per SMP:                2048
 Number of ASync Engines:                             5
 Memory:                                           9207742464
 Properties for Device   3
 Minimum vector length:                              32
 Maximum vector length:                            1024
 Number of SMPs:                                    108
 Maximum number of threads per SMP:                2048
 Number of ASync Engines:                             5
 Memory:                                           9207742464
   8286968217 words of memory will be used on each GPU.
 Copying data from "2cmn_II_Sre.chk" to current chk file "2cmn_III_Dn.chk"
 IOpt=  2 FromEx=T IUOpen= 4 IOptOp= 5 NList=   0 IFRang= 0 IUIn= 4 IUOut= 2.
 --------------------------------------------------------------
 # apfd/def2TZVP guess=read scf=maxcycle=999 geom=check pop=nbo
 --------------------------------------------------------------
 1/29=2,38=1,172=1/1;
 2/12=2,40=1/2;
 3/5=44,7=101,11=2,14=-4,25=1,30=1,74=-44,116=-2/1,2,3;
 4/5=1/1;
 5/5=2,7=999,38=6/2;
 6/7=2,8=2,9=2,10=2,28=1,40=1/1,7;
 99/5=1,9=1/99;
 ----------
 2cmn_III_D
 ----------
 Structure from the checkpoint file:  "2cmn_III_Dn.chk"
 Charge =  1 Multiplicity = 2
 Z-Matrix found in chk file.
 Fe,0,48.0288238003,55.7182333773,33.7360994975
 N,0,47.3536714344,54.5521263498,32.2645498258
 N,0,49.9105941529,55.4467114431,33.0906027969
 N,0,48.7449288569,56.5405990584,35.4021839031
 N,0,46.1999964633,55.6539357649,34.5636506199
 C,0,46.1195446997,53.9871783655,32.1409925329
 C,0,46.0760661612,53.069110108,31.0259856054
 C,0,47.3155343133,53.0873461334,30.4689872135
 C,0,48.1013811009,54.0087974114,31.2592615877
 C,0,50.2707155931,54.9636877977,31.8679125919
 C,0,51.6682636195,55.1899284052,31.6159361975
 C,0,52.1680377131,55.8054580543,32.7319049854
 C,0,51.0509307546,55.9447308176,33.6435928807
 C,0,50.0560320806,56.7180601265,35.7434202608
 C,0,50.1791088702,57.2304867243,37.0826177196
 C,0,48.9027632899,57.3794687581,37.5561958019
 C,0,48.0271515256,56.9364672755,36.4895723648
 C,0,45.800155052,56.3283721665,35.6782803129
 C,0,44.3654626494,56.2584204087,35.8367429443
 C,0,43.9058378822,55.4962730201,34.8077354694
 C,0,45.0644947619,55.1247986123,34.0290495664
 C,0,45.0219930335,54.3054173469,32.9178726104
 H,0,44.0728768211,53.8651766386,32.6530803014
 C,0,49.4311233715,54.2799145726,31.0066604992
 H,0,49.8664317861,53.8660115085,30.1097261641
 C,0,51.1342796426,56.4967605962,34.9058615613
 H,0,52.1167870725,56.7421618316,35.2773646121
 C,0,46.6477993872,56.9313712851,36.5862781686
 H,0,46.2045924577,57.3729826582,37.4657963643
 C,0,47.8383563248,52.3253791865,29.2999869648
 H,0,48.1898592932,53.0058617645,28.5237357297
 H,0,47.0637208075,51.6924618839,28.8741624413
 H,0,48.6737740383,51.6919766773,29.5985416985
 C,0,44.8728931807,52.2829058451,30.6335111209
 H,0,44.0560714328,52.9480372078,30.3514639476
 H,0,44.5335451967,51.66355488,31.4637683999
 H,0,45.0931987288,51.6344321304,29.7891097256
 C,0,52.380756757,54.8208378637,30.360969491
 H,0,51.9068624376,55.2898625138,29.498408858
 H,0,52.3590503438,53.74059092,30.2108117927
 H,0,53.4175410683,55.14515449,30.4004315207
 C,0,53.5359243989,56.234653946,32.9468616334
 H,0,54.29483118,55.5644034142,32.556911552
 C,0,53.9146474298,57.3652794778,33.5312223649
 H,0,53.2042148371,58.0925114336,33.8862936414
 H,0,54.9561693748,57.6143243847,33.6510827475
 C,0,51.4663866657,57.4566931587,37.7949691742
 H,0,51.8936512249,58.4249864621,37.5283415425
 H,0,52.1900738176,56.6859026433,37.5350749084
 H,0,51.305729027,57.4372108223,38.8709967581
 C,0,48.4552371304,57.8328483686,38.8549319453
 H,0,47.5483414973,57.369314005,39.225203962
 C,0,49.0593700732,58.7533545079,39.5992888221
 H,0,49.9371831522,59.2767791632,39.262336184
 H,0,48.6796636362,59.0328348767,40.5680291896
 C,0,43.6087116902,56.8989338476,36.9493447486
 H,0,43.8407098543,57.9621873787,37.0115503898
 H,0,43.8698246806,56.43998615,37.9035475221
 H,0,42.5372530182,56.788658618,36.8011210626
 C,0,42.5108426977,55.0811499438,34.488956129
 H,0,41.8031223415,55.5472565502,35.1704102198
 H,0,42.4055186184,53.999026981,34.5746481403
 H,0,42.2493487224,55.3666562035,33.4700202623
 C,0,47.6256451415,59.7557797128,29.9027527642
 H,0,48.2658088967,60.6320550431,30.0026681807
 H,0,46.6253149342,60.093403686,29.632437303
 H,0,48.0110184011,59.132885083,29.1018148083
 N,0,47.141555993,59.511828772,32.3458265327
 H,0,46.7984136498,60.4497075871,32.4735729772
 C,0,47.5942996357,58.9791192048,31.1677431845
 C,0,47.240479733,58.5541684894,33.2953460805
 H,0,46.9559984168,58.6894446242,34.3195149628
 N,0,47.728998951,57.443692141,32.7905024586
 C,0,47.954466337,57.6960962202,31.465696628
 H,0,48.3582368848,56.9408251199,30.822164569
 Recover connectivity data from disk.
 Stoichiometry    C34H34FeN6(1+,2)
 Framework group  C1[X(C34H34FeN6)]
 Deg. of freedom   219
 Full point group                 C1      NOp   1
 Largest Abelian subgroup         C1      NOp   1
 Largest concise Abelian subgroup C1      NOp   1
                         Standard orientation:                         
 ---------------------------------------------------------------------
 Center     Atomic      Atomic             Coordinates (Angstroms)
 Number     Number       Type             X           Y           Z
 ---------------------------------------------------------------------
      1         26           0       -0.157585   -0.100501   -0.309378
      2          7           0       -2.132183    0.020155   -0.569187
      3          7           0        0.003079    1.880391   -0.595213
      4          7           0        1.822897   -0.256077   -0.445075
      5          7           0       -0.313277   -2.100372   -0.408688
      6          6           0       -3.012225   -0.995728   -0.795037
      7          6           0       -4.328315   -0.485780   -1.104619
      8          6           0       -4.231754    0.869086   -1.061326
      9          6           0       -2.854502    1.166972   -0.736360
     10          6           0       -1.021982    2.777461   -0.545363
     11          6           0       -0.524421    4.125096   -0.481081
     12          6           0        0.841096    4.035679   -0.518553
     13          6           0        1.145249    2.621745   -0.600904
     14          6           0        2.721248    0.748614   -0.669775
     15          6           0        4.053231    0.227739   -0.830055
     16          6           0        3.955391   -1.130313   -0.682904
     17          6           0        2.551878   -1.406250   -0.449149
     18          6           0        0.701618   -2.993182   -0.235441
     19          6           0        0.189682   -4.339146   -0.114409
     20          6           0       -1.160719   -4.246227   -0.251380
     21          6           0       -1.453837   -2.844235   -0.439342
     22          6           0       -2.719990   -2.339915   -0.663898
     23          1           0       -3.531177   -3.044123   -0.767899
     24          6           0       -2.364698    2.452337   -0.620364
     25          1           0       -3.072972    3.265685   -0.666348
     26          6           0        2.419588    2.098373   -0.685450
     27          1           0        3.235623    2.793461   -0.805855
     28          6           0        2.045858   -2.678130   -0.253557
     29          1           0        2.750384   -3.491972   -0.174119
     30          6           0       -5.278521    1.900237   -1.309326
     31          1           0       -5.412063    2.531511   -0.430215
     32          1           0       -6.232302    1.433556   -1.542739
     33          1           0       -4.995350    2.539771   -2.145429
     34          6           0       -5.508311   -1.341778   -1.412281
     35          1           0       -5.755910   -1.973750   -0.558786
     36          1           0       -5.298946   -1.989607   -2.263494
     37          1           0       -6.376696   -0.732334   -1.650091
     38          6           0       -1.372950    5.345068   -0.378703
     39          1           0       -2.019428    5.290534    0.497461
     40          1           0       -2.008132    5.445826   -1.259807
     41          1           0       -0.754431    6.234866   -0.292952
     42          6           0        1.784090    5.135898   -0.476003
     43          1           0        1.483815    6.020492   -1.027876
     44          6           0        2.929546    5.154254    0.195427
     45          1           0        3.249987    4.325852    0.804298
     46          1           0        3.576895    6.015541    0.178668
     47          6           0        5.252400    1.040998   -1.171083
     48          1           0        5.681654    1.495334   -0.276344
     49          1           0        4.990784    1.840258   -1.862550
     50          1           0        6.010326    0.412166   -1.633842
     51          6           0        4.988780   -2.138186   -0.776965
     52          1           0        4.676836   -3.090915   -1.188577
     53          6           0        6.253748   -1.981311   -0.400641
     54          1           0        6.607587   -1.072445    0.054141
     55          1           0        6.977620   -2.771128   -0.514408
     56          6           0        1.037283   -5.547248    0.092656
     57          1           0        1.684451   -5.420128    0.960536
     58          1           0        1.670330   -5.724144   -0.777560
     59          1           0        0.420846   -6.429069    0.249345
     60          6           0       -2.188965   -5.324307   -0.231048
     61          1           0       -1.737451   -6.285308    0.003715
     62          1           0       -2.677195   -5.404601   -1.202959
     63          1           0       -2.954198   -5.110094    0.515044
     64          6           0       -1.394883    1.079314    5.004379
     65          1           0       -0.635461    1.561900    5.619228
     66          1           0       -1.864869    0.294429    5.596654
     67          1           0       -2.148249    1.814865    4.740908
     68          7           0        0.181680   -0.445038    3.798865
     69          1           0        0.579267   -0.853701    4.628685
     70          6           0       -0.793374    0.516740    3.769032
     71          6           0        0.507784   -0.740168    2.520178
     72          1           0        1.246558   -1.463289    2.238291
     73          7           0       -0.202703   -0.023140    1.678897
     74          6           0       -1.016496    0.764684    2.444878
     75          1           0       -1.702520    1.451816    1.992306
 ---------------------------------------------------------------------
 Rotational constants (GHZ):           0.0955409           0.0922847           0.0604518
 Standard basis: def2TZVP (5D, 7F)
 There are  1696 symmetry adapted cartesian basis functions of A   symmetry.
 There are  1489 symmetry adapted basis functions of A   symmetry.
  1489 basis functions,  2414 primitive gaussians,  1696 cartesian basis functions
   153 alpha electrons      152 beta electrons
       nuclear repulsion energy      5576.8457593809 Hartrees.
 NAtoms=   75 NActive=   75 NUniq=   75 SFac= 1.00D+00 NAtFMM=   60 NAOKFM=T Big=T
 Integral buffers will be    131072 words long.
 Raffenetti 2 integral format.
 Two-electron integral symmetry is turned on.
 R6APFD:  NTU= -4 IXU= 1 FactS= 1.050
 Nuclear repulsion after empirical dispersion term =     5576.7128760091 Hartrees.
 One-electron integrals computed using PRISM.
   1 Symmetry operations used in ECPInt.
 ECPInt:  NShTT=  174936 NPrTT=  542361 LenC2=  137687 LenP2D=  282613.
 LDataN:  DoStor=T MaxTD1= 6 Len=  172
 Number of processors reduced to  23 by ecpmxn.
 NBasis=  1489 RedAO= T EigKep=  3.20D-06  NBF=  1489
 NBsUse=  1489 1.00D-06 EigRej= -1.00D+00 NBFU=  1489
 Initial guess from the checkpoint file:  "2cmn_III_Dn.chk"
 B after Tr=     0.000000    0.000000    0.000000
         Rot=    1.000000    0.000000    0.000000    0.000000 Ang=   0.00 deg.
 Initial guess <Sx>= 0.0000 <Sy>= 0.0000 <Sz>= 0.5000 <S**2>= 0.9529 S= 0.5968
 Requested convergence on RMS density matrix=1.00D-08 within 999 cycles.
 Requested convergence on MAX density matrix=1.00D-06.
 Requested convergence on             energy=1.00D-06.
 No special actions if energy rises.
 Restarting incremental Fock formation.
 Restarting incremental Fock formation.
 Restarting incremental Fock formation.
 Restarting incremental Fock formation.
 SCF Done:  E(UAPFD) =  -2907.40475125     A.U. after   90 cycles
            NFock= 90  Conv=0.14D-08     -V/T= 2.0035
 <Sx>= 0.0000 <Sy>= 0.0000 <Sz>= 0.5000 <S**2>= 0.8726 S= 0.5595
 <L.S>=  0.00000000000    
 Annihilation of the first spin contaminant:
 S**2 before annihilation     0.8726,   after     0.7543

 **********************************************************************

            Population analysis using the SCF Density.

 **********************************************************************

 Orbital symmetries:
 Alpha Orbitals:
       Occupied  (A) (A) (A) (A) (A) (A) (A) (A) (A) (A) (A) (A)
                 (A) (A) (A) (A) (A) (A) (A) (A) (A) (A) (A) (A)
                 (A) (A) (A) (A) (A) (A) (A) (A) (A) (A) (A) (A)
                 (A) (A) (A) (A) (A) (A) (A) (A) (A) (A) (A) (A)
                 (A) (A) (A) (A) (A) (A) (A) (A) (A) (A) (A) (A)
                 (A) (A) (A) (A) (A) (A) (A) (A) (A) (A) (A) (A)
                 (A) (A) (A) (A) (A) (A) (A) (A) (A) (A) (A) (A)
                 (A) (A) (A) (A) (A) (A) (A) (A) (A) (A) (A) (A)
                 (A) (A) (A) (A) (A) (A) (A) (A) (A) (A) (A) (A)
                 (A) (A) (A) (A) (A) (A) (A) (A) (A) (A) (A) (A)
                 (A) (A) (A) (A) (A) (A) (A) (A) (A) (A) (A) (A)
                 (A) (A) (A) (A) (A) (A) (A) (A) (A) (A) (A) (A)
                 (A) (A) (A) (A) (A) (A) (A) (A) (A)
       Virtual   (A) (A) (A) (A) (A) (A) (A) (A) (A) (A) (A) (A)
                 (A) (A) (A) (A) (A) (A) (A) (A) (A) (A) (A) (A)
                 (A) (A) (A) (A) (A) (A) (A) (A) (A) (A) (A) (A)
                 (A) (A) (A) (A) (A) (A) (A) (A) (A) (A) (A) (A)
                 (A) (A) (A) (A) (A) (A) (A) (A) (A) (A) (A) (A)
                 (A) (A) (A) (A) (A) (A) (A) (A) (A) (A) (A) (A)
                 (A) (A) (A) (A) (A) (A) (A) (A) (A) (A) (A) (A)
                 (A) (A) (A) (A) (A) (A) (A) (A) (A) (A) (A) (A)
                 (A) (A) (A) (A) (A) (A) (A) (A) (A) (A) (A) (A)
                 (A) (A) (A) (A) (A) (A) (A) (A) (A) (A) (A) (A)
                 (A) (A) (A) (A) (A) (A) (A) (A) (A) (A) (A) (A)
                 (A) (A) (A) (A) (A) (A) (A) (A) (A) (A) (A) (A)
                 (A) (A) (A) (A) (A) (A) (A) (A) (A) (A) (A) (A)
                 (A) (A) (A) (A) (A) (A) (A) (A) (A) (A) (A) (A)
                 (A) (A) (A) (A) (A) (A) (A) (A) (A) (A) (A) (A)
                 (A) (A) (A) (A) (A) (A) (A) (A) (A) (A) (A) (A)
                 (A) (A) (A) (A) (A) (A) (A) (A) (A) (A) (A) (A)
                 (A) (A) (A) (A) (A) (A) (A) (A) (A) (A) (A) (A)
                 (A) (A) (A) (A) (A) (A) (A) (A) (A) (A) (A) (A)
                 (A) (A) (A) (A) (A) (A) (A) (A) (A) (A) (A) (A)
                 (A) (A) (A) (A) (A) (A) (A) (A) (A) (A) (A) (A)
                 (A) (A) (A) (A) (A) (A) (A) (A) (A) (A) (A) (A)
                 (A) (A) (A) (A) (A) (A) (A) (A) (A) (A) (A) (A)
                 (A) (A) (A) (A) (A) (A) (A) (A) (A) (A) (A) (A)
                 (A) (A) (A) (A) (A) (A) (A) (A) (A) (A) (A) (A)
                 (A) (A) (A) (A) (A) (A) (A) (A) (A) (A) (A) (A)
                 (A) (A) (A) (A) (A) (A) (A) (A) (A) (A) (A) (A)
                 (A) (A) (A) (A) (A) (A) (A) (A) (A) (A) (A) (A)
                 (A) (A) (A) (A) (A) (A) (A) (A) (A) (A) (A) (A)
                 (A) (A) (A) (A) (A) (A) (A) (A) (A) (A) (A) (A)
                 (A) (A) (A) (A) (A) (A) (A) (A) (A) (A) (A) (A)
                 (A) (A) (A) (A) (A) (A) (A) (A) (A) (A) (A) (A)
                 (A) (A) (A) (A) (A) (A) (A) (A) (A) (A) (A) (A)
                 (A) (A) (A) (A) (A) (A) (A) (A) (A) (A) (A) (A)
                 (A) (A) (A) (A) (A) (A) (A) (A) (A) (A) (A) (A)
                 (A) (A) (A) (A) (A) (A) (A) (A) (A) (A) (A) (A)
                 (A) (A) (A) (A) (A) (A) (A) (A) (A) (A) (A) (A)
                 (A) (A) (A) (A) (A) (A) (A) (A) (A) (A) (A) (A)
                 (A) (A) (A) (A) (A) (A) (A) (A) (A) (A) (A) (A)
                 (A) (A) (A) (A) (A) (A) (A) (A) (A) (A) (A) (A)
                 (A) (A) (A) (A) (A) (A) (A) (A) (A) (A) (A) (A)
                 (A) (A) (A) (A) (A) (A) (A) (A) (A) (A) (A) (A)
                 (A) (A) (A) (A) (A) (A) (A) (A) (A) (A) (A) (A)
                 (A) (A) (A) (A) (A) (A) (A) (A) (A) (A) (A) (A)
                 (A) (A) (A) (A) (A) (A) (A) (A) (A) (A) (A) (A)
                 (A) (A) (A) (A) (A) (A) (A) (A) (A) (A) (A) (A)
                 (A) (A) (A) (A) (A) (A) (A) (A) (A) (A) (A) (A)
                 (A) (A) (A) (A) (A) (A) (A) (A) (A) (A) (A) (A)
                 (A) (A) (A) (A) (A) (A) (A) (A) (A) (A) (A) (A)
                 (A) (A) (A) (A) (A) (A) (A) (A) (A) (A) (A) (A)
                 (A) (A) (A) (A) (A) (A) (A) (A) (A) (A) (A) (A)
                 (A) (A) (A) (A) (A) (A) (A) (A) (A) (A) (A) (A)
                 (A) (A) (A) (A) (A) (A) (A) (A) (A) (A) (A) (A)
                 (A) (A) (A) (A) (A) (A) (A) (A) (A) (A) (A) (A)
                 (A) (A) (A) (A) (A) (A) (A) (A) (A) (A) (A) (A)
                 (A) (A) (A) (A) (A) (A) (A) (A) (A) (A) (A) (A)
                 (A) (A) (A) (A) (A) (A) (A) (A) (A) (A) (A) (A)
                 (A) (A) (A) (A) (A) (A) (A) (A) (A) (A) (A) (A)
                 (A) (A) (A) (A) (A) (A) (A) (A) (A) (A) (A) (A)
                 (A) (A) (A) (A) (A) (A) (A) (A) (A) (A) (A) (A)
                 (A) (A) (A) (A) (A) (A) (A) (A) (A) (A) (A) (A)
                 (A) (A) (A) (A) (A) (A) (A) (A) (A) (A) (A) (A)
                 (A) (A) (A) (A) (A) (A) (A) (A) (A) (A) (A) (A)
                 (A) (A) (A) (A) (A) (A) (A) (A) (A) (A) (A) (A)
                 (A) (A) (A) (A) (A) (A) (A) (A) (A) (A) (A) (A)
                 (A) (A) (A) (A) (A) (A) (A) (A) (A) (A) (A) (A)
                 (A) (A) (A) (A) (A) (A) (A) (A) (A) (A) (A) (A)
                 (A) (A) (A) (A) (A) (A) (A) (A) (A) (A) (A) (A)
                 (A) (A) (A) (A) (A) (A) (A) (A) (A) (A) (A) (A)
                 (A) (A) (A) (A) (A) (A) (A) (A) (A) (A) (A) (A)
                 (A) (A) (A) (A) (A) (A) (A) (A) (A) (A) (A) (A)
                 (A) (A) (A) (A) (A) (A) (A) (A) (A) (A) (A) (A)
                 (A) (A) (A) (A) (A) (A) (A) (A) (A) (A) (A) (A)
                 (A) (A) (A) (A) (A) (A) (A) (A) (A) (A) (A) (A)
                 (A) (A) (A) (A) (A) (A) (A) (A) (A) (A) (A) (A)
                 (A) (A) (A) (A) (A) (A) (A) (A) (A) (A) (A) (A)
                 (A) (A) (A) (A) (A) (A) (A) (A) (A) (A) (A) (A)
                 (A) (A) (A) (A) (A) (A) (A) (A) (A) (A) (A) (A)
                 (A) (A) (A) (A) (A) (A) (A) (A) (A) (A) (A) (A)
                 (A) (A) (A) (A) (A) (A) (A) (A) (A) (A) (A) (A)
                 (A) (A) (A) (A) (A) (A) (A) (A) (A) (A) (A) (A)
                 (A) (A) (A) (A) (A) (A) (A) (A) (A) (A) (A) (A)
                 (A) (A) (A) (A) (A) (A) (A) (A) (A) (A) (A) (A)
                 (A) (A) (A) (A) (A) (A) (A) (A) (A) (A) (A) (A)
                 (A) (A) (A) (A) (A) (A) (A) (A) (A) (A) (A) (A)
                 (A) (A) (A) (A) (A) (A) (A) (A) (A) (A) (A) (A)
                 (A) (A) (A) (A) (A) (A) (A) (A) (A) (A) (A) (A)
                 (A) (A) (A) (A) (A) (A) (A) (A) (A) (A) (A) (A)
                 (A) (A) (A) (A) (A) (A) (A) (A) (A) (A) (A) (A)
                 (A) (A) (A) (A) (A) (A) (A) (A) (A) (A) (A) (A)
                 (A) (A) (A) (A) (A) (A) (A) (A) (A) (A) (A) (A)
                 (A) (A) (A) (A) (A) (A) (A) (A) (A) (A) (A) (A)
                 (A) (A) (A) (A) (A) (A) (A) (A) (A) (A) (A) (A)
                 (A) (A) (A) (A) (A) (A) (A) (A) (A) (A) (A) (A)
                 (A) (A) (A) (A) (A) (A) (A) (A) (A) (A) (A) (A)
                 (A) (A) (A) (A) (A) (A) (A) (A) (A) (A) (A) (A)
                 (A) (A) (A) (A) (A) (A) (A) (A) (A) (A) (A) (A)
                 (A) (A) (A) (A) (A) (A) (A) (A) (A) (A) (A) (A)
                 (A) (A) (A) (A) (A) (A) (A) (A) (A) (A) (A) (A)
                 (A) (A) (A) (A) (A) (A) (A) (A) (A) (A) (A) (A)
                 (A) (A) (A) (A) (A) (A) (A) (A) (A) (A) (A) (A)
                 (A) (A) (A) (A) (A) (A) (A) (A) (A) (A) (A) (A)
                 (A) (A) (A) (A) (A) (A) (A) (A) (A) (A) (A) (A)
                 (A) (A) (A) (A) (A) (A) (A) (A) (A) (A) (A) (A)
                 (A) (A) (A) (A) (A) (A) (A) (A) (A) (A) (A) (A)
                 (A) (A) (A) (A) (A) (A) (A) (A) (A) (A) (A) (A)
                 (A) (A) (A) (A) (A) (A) (A) (A) (A) (A) (A) (A)
                 (A) (A) (A) (A) (A) (A) (A) (A) (A) (A) (A) (A)
                 (A) (A) (A) (A) (A) (A) (A) (A) (A) (A) (A) (A)
                 (A) (A) (A) (A) (A) (A) (A) (A) (A) (A) (A) (A)
                 (A) (A) (A) (A) (A) (A) (A) (A) (A) (A) (A) (A)
                 (A) (A) (A) (A)
 Beta  Orbitals:
       Occupied  (A) (A) (A) (A) (A) (A) (A) (A) (A) (A) (A) (A)
                 (A) (A) (A) (A) (A) (A) (A) (A) (A) (A) (A) (A)
                 (A) (A) (A) (A) (A) (A) (A) (A) (A) (A) (A) (A)
                 (A) (A) (A) (A) (A) (A) (A) (A) (A) (A) (A) (A)
                 (A) (A) (A) (A) (A) (A) (A) (A) (A) (A) (A) (A)
                 (A) (A) (A) (A) (A) (A) (A) (A) (A) (A) (A) (A)
                 (A) (A) (A) (A) (A) (A) (A) (A) (A) (A) (A) (A)
                 (A) (A) (A) (A) (A) (A) (A) (A) (A) (A) (A) (A)
                 (A) (A) (A) (A) (A) (A) (A) (A) (A) (A) (A) (A)
                 (A) (A) (A) (A) (A) (A) (A) (A) (A) (A) (A) (A)
                 (A) (A) (A) (A) (A) (A) (A) (A) (A) (A) (A) (A)
                 (A) (A) (A) (A) (A) (A) (A) (A) (A) (A) (A) (A)
                 (A) (A) (A) (A) (A) (A) (A) (A)
       Virtual   (A) (A) (A) (A) (A) (A) (A) (A) (A) (A) (A) (A)
                 (A) (A) (A) (A) (A) (A) (A) (A) (A) (A) (A) (A)
                 (A) (A) (A) (A) (A) (A) (A) (A) (A) (A) (A) (A)
                 (A) (A) (A) (A) (A) (A) (A) (A) (A) (A) (A) (A)
                 (A) (A) (A) (A) (A) (A) (A) (A) (A) (A) (A) (A)
                 (A) (A) (A) (A) (A) (A) (A) (A) (A) (A) (A) (A)
                 (A) (A) (A) (A) (A) (A) (A) (A) (A) (A) (A) (A)
                 (A) (A) (A) (A) (A) (A) (A) (A) (A) (A) (A) (A)
                 (A) (A) (A) (A) (A) (A) (A) (A) (A) (A) (A) (A)
                 (A) (A) (A) (A) (A) (A) (A) (A) (A) (A) (A) (A)
                 (A) (A) (A) (A) (A) (A) (A) (A) (A) (A) (A) (A)
                 (A) (A) (A) (A) (A) (A) (A) (A) (A) (A) (A) (A)
                 (A) (A) (A) (A) (A) (A) (A) (A) (A) (A) (A) (A)
                 (A) (A) (A) (A) (A) (A) (A) (A) (A) (A) (A) (A)
                 (A) (A) (A) (A) (A) (A) (A) (A) (A) (A) (A) (A)
                 (A) (A) (A) (A) (A) (A) (A) (A) (A) (A) (A) (A)
                 (A) (A) (A) (A) (A) (A) (A) (A) (A) (A) (A) (A)
                 (A) (A) (A) (A) (A) (A) (A) (A) (A) (A) (A) (A)
                 (A) (A) (A) (A) (A) (A) (A) (A) (A) (A) (A) (A)
                 (A) (A) (A) (A) (A) (A) (A) (A) (A) (A) (A) (A)
                 (A) (A) (A) (A) (A) (A) (A) (A) (A) (A) (A) (A)
                 (A) (A) (A) (A) (A) (A) (A) (A) (A) (A) (A) (A)
                 (A) (A) (A) (A) (A) (A) (A) (A) (A) (A) (A) (A)
                 (A) (A) (A) (A) (A) (A) (A) (A) (A) (A) (A) (A)
                 (A) (A) (A) (A) (A) (A) (A) (A) (A) (A) (A) (A)
                 (A) (A) (A) (A) (A) (A) (A) (A) (A) (A) (A) (A)
                 (A) (A) (A) (A) (A) (A) (A) (A) (A) (A) (A) (A)
                 (A) (A) (A) (A) (A) (A) (A) (A) (A) (A) (A) (A)
                 (A) (A) (A) (A) (A) (A) (A) (A) (A) (A) (A) (A)
                 (A) (A) (A) (A) (A) (A) (A) (A) (A) (A) (A) (A)
                 (A) (A) (A) (A) (A) (A) (A) (A) (A) (A) (A) (A)
                 (A) (A) (A) (A) (A) (A) (A) (A) (A) (A) (A) (A)
                 (A) (A) (A) (A) (A) (A) (A) (A) (A) (A) (A) (A)
                 (A) (A) (A) (A) (A) (A) (A) (A) (A) (A) (A) (A)
                 (A) (A) (A) (A) (A) (A) (A) (A) (A) (A) (A) (A)
                 (A) (A) (A) (A) (A) (A) (A) (A) (A) (A) (A) (A)
                 (A) (A) (A) (A) (A) (A) (A) (A) (A) (A) (A) (A)
                 (A) (A) (A) (A) (A) (A) (A) (A) (A) (A) (A) (A)
                 (A) (A) (A) (A) (A) (A) (A) (A) (A) (A) (A) (A)
                 (A) (A) (A) (A) (A) (A) (A) (A) (A) (A) (A) (A)
                 (A) (A) (A) (A) (A) (A) (A) (A) (A) (A) (A) (A)
                 (A) (A) (A) (A) (A) (A) (A) (A) (A) (A) (A) (A)
                 (A) (A) (A) (A) (A) (A) (A) (A) (A) (A) (A) (A)
                 (A) (A) (A) (A) (A) (A) (A) (A) (A) (A) (A) (A)
                 (A) (A) (A) (A) (A) (A) (A) (A) (A) (A) (A) (A)
                 (A) (A) (A) (A) (A) (A) (A) (A) (A) (A) (A) (A)
                 (A) (A) (A) (A) (A) (A) (A) (A) (A) (A) (A) (A)
                 (A) (A) (A) (A) (A) (A) (A) (A) (A) (A) (A) (A)
                 (A) (A) (A) (A) (A) (A) (A) (A) (A) (A) (A) (A)
                 (A) (A) (A) (A) (A) (A) (A) (A) (A) (A) (A) (A)
                 (A) (A) (A) (A) (A) (A) (A) (A) (A) (A) (A) (A)
                 (A) (A) (A) (A) (A) (A) (A) (A) (A) (A) (A) (A)
                 (A) (A) (A) (A) (A) (A) (A) (A) (A) (A) (A) (A)
                 (A) (A) (A) (A) (A) (A) (A) (A) (A) (A) (A) (A)
                 (A) (A) (A) (A) (A) (A) (A) (A) (A) (A) (A) (A)
                 (A) (A) (A) (A) (A) (A) (A) (A) (A) (A) (A) (A)
                 (A) (A) (A) (A) (A) (A) (A) (A) (A) (A) (A) (A)
                 (A) (A) (A) (A) (A) (A) (A) (A) (A) (A) (A) (A)
                 (A) (A) (A) (A) (A) (A) (A) (A) (A) (A) (A) (A)
                 (A) (A) (A) (A) (A) (A) (A) (A) (A) (A) (A) (A)
                 (A) (A) (A) (A) (A) (A) (A) (A) (A) (A) (A) (A)
                 (A) (A) (A) (A) (A) (A) (A) (A) (A) (A) (A) (A)
                 (A) (A) (A) (A) (A) (A) (A) (A) (A) (A) (A) (A)
                 (A) (A) (A) (A) (A) (A) (A) (A) (A) (A) (A) (A)
                 (A) (A) (A) (A) (A) (A) (A) (A) (A) (A) (A) (A)
                 (A) (A) (A) (A) (A) (A) (A) (A) (A) (A) (A) (A)
                 (A) (A) (A) (A) (A) (A) (A) (A) (A) (A) (A) (A)
                 (A) (A) (A) (A) (A) (A) (A) (A) (A) (A) (A) (A)
                 (A) (A) (A) (A) (A) (A) (A) (A) (A) (A) (A) (A)
                 (A) (A) (A) (A) (A) (A) (A) (A) (A) (A) (A) (A)
                 (A) (A) (A) (A) (A) (A) (A) (A) (A) (A) (A) (A)
                 (A) (A) (A) (A) (A) (A) (A) (A) (A) (A) (A) (A)
                 (A) (A) (A) (A) (A) (A) (A) (A) (A) (A) (A) (A)
                 (A) (A) (A) (A) (A) (A) (A) (A) (A) (A) (A) (A)
                 (A) (A) (A) (A) (A) (A) (A) (A) (A) (A) (A) (A)
                 (A) (A) (A) (A) (A) (A) (A) (A) (A) (A) (A) (A)
                 (A) (A) (A) (A) (A) (A) (A) (A) (A) (A) (A) (A)
                 (A) (A) (A) (A) (A) (A) (A) (A) (A) (A) (A) (A)
                 (A) (A) (A) (A) (A) (A) (A) (A) (A) (A) (A) (A)
                 (A) (A) (A) (A) (A) (A) (A) (A) (A) (A) (A) (A)
                 (A) (A) (A) (A) (A) (A) (A) (A) (A) (A) (A) (A)
                 (A) (A) (A) (A) (A) (A) (A) (A) (A) (A) (A) (A)
                 (A) (A) (A) (A) (A) (A) (A) (A) (A) (A) (A) (A)
                 (A) (A) (A) (A) (A) (A) (A) (A) (A) (A) (A) (A)
                 (A) (A) (A) (A) (A) (A) (A) (A) (A) (A) (A) (A)
                 (A) (A) (A) (A) (A) (A) (A) (A) (A) (A) (A) (A)
                 (A) (A) (A) (A) (A) (A) (A) (A) (A) (A) (A) (A)
                 (A) (A) (A) (A) (A) (A) (A) (A) (A) (A) (A) (A)
                 (A) (A) (A) (A) (A) (A) (A) (A) (A) (A) (A) (A)
                 (A) (A) (A) (A) (A) (A) (A) (A) (A) (A) (A) (A)
                 (A) (A) (A) (A) (A) (A) (A) (A) (A) (A) (A) (A)
                 (A) (A) (A) (A) (A) (A) (A) (A) (A) (A) (A) (A)
                 (A) (A) (A) (A) (A) (A) (A) (A) (A) (A) (A) (A)
                 (A) (A) (A) (A) (A) (A) (A) (A) (A) (A) (A) (A)
                 (A) (A) (A) (A) (A) (A) (A) (A) (A) (A) (A) (A)
                 (A) (A) (A) (A) (A) (A) (A) (A) (A) (A) (A) (A)
                 (A) (A) (A) (A) (A) (A) (A) (A) (A) (A) (A) (A)
                 (A) (A) (A) (A) (A) (A) (A) (A) (A) (A) (A) (A)
                 (A) (A) (A) (A) (A) (A) (A) (A) (A) (A) (A) (A)
                 (A) (A) (A) (A) (A) (A) (A) (A) (A) (A) (A) (A)
                 (A) (A) (A) (A) (A) (A) (A) (A) (A) (A) (A) (A)
                 (A) (A) (A) (A) (A) (A) (A) (A) (A) (A) (A) (A)
                 (A) (A) (A) (A) (A) (A) (A) (A) (A) (A) (A) (A)
                 (A) (A) (A) (A) (A) (A) (A) (A) (A) (A) (A) (A)
                 (A) (A) (A) (A) (A) (A) (A) (A) (A) (A) (A) (A)
                 (A) (A) (A) (A) (A) (A) (A) (A) (A) (A) (A) (A)
                 (A) (A) (A) (A) (A) (A) (A) (A) (A) (A) (A) (A)
                 (A) (A) (A) (A) (A) (A) (A) (A) (A) (A) (A) (A)
                 (A) (A) (A) (A) (A) (A) (A) (A) (A) (A) (A) (A)
                 (A) (A) (A) (A) (A) (A) (A) (A) (A) (A) (A) (A)
                 (A) (A) (A) (A) (A) (A) (A) (A) (A) (A) (A) (A)
                 (A) (A) (A) (A) (A)
 The electronic state is 2-A.
 Alpha  occ. eigenvalues -- -256.37946 -30.24720 -26.09342 -26.09134 -26.06542
 Alpha  occ. eigenvalues --  -14.53888 -14.50940 -14.47029 -14.46972 -14.46644
 Alpha  occ. eigenvalues --  -14.46633 -10.38613 -10.35694 -10.33329 -10.33320
 Alpha  occ. eigenvalues --  -10.33181 -10.33175 -10.33163 -10.33152 -10.32958
 Alpha  occ. eigenvalues --  -10.32945 -10.32819 -10.30902 -10.30500 -10.30493
 Alpha  occ. eigenvalues --  -10.30290 -10.30259 -10.30214 -10.30154 -10.30129
 Alpha  occ. eigenvalues --  -10.30064 -10.29842 -10.29640 -10.29556 -10.29507
 Alpha  occ. eigenvalues --  -10.29315 -10.28881 -10.28363 -10.28309 -10.28246
 Alpha  occ. eigenvalues --  -10.28000 -10.28000 -10.27924 -10.27626 -10.27537
 Alpha  occ. eigenvalues --   -3.63879  -2.42394  -2.41655  -2.35960  -1.17883
 Alpha  occ. eigenvalues --   -1.09382  -1.08560  -1.08093  -1.07290  -1.03745
 Alpha  occ. eigenvalues --   -0.94102  -0.92660  -0.92228  -0.91874  -0.91673
 Alpha  occ. eigenvalues --   -0.91447  -0.91201  -0.91119  -0.87337  -0.86031
 Alpha  occ. eigenvalues --   -0.85709  -0.84722  -0.83276  -0.83144  -0.81376
 Alpha  occ. eigenvalues --   -0.80490  -0.78947  -0.78731  -0.78391  -0.76925
 Alpha  occ. eigenvalues --   -0.75755  -0.75522  -0.73462  -0.71285  -0.70589
 Alpha  occ. eigenvalues --   -0.69081  -0.68714  -0.67945  -0.65649  -0.65162
 Alpha  occ. eigenvalues --   -0.64470  -0.63298  -0.62266  -0.62092  -0.61497
 Alpha  occ. eigenvalues --   -0.59942  -0.59461  -0.59442  -0.58778  -0.58487
 Alpha  occ. eigenvalues --   -0.56778  -0.55992  -0.55740  -0.55548  -0.54814
 Alpha  occ. eigenvalues --   -0.54726  -0.54587  -0.54503  -0.53899  -0.53627
 Alpha  occ. eigenvalues --   -0.53349  -0.53137  -0.52982  -0.52802  -0.52328
 Alpha  occ. eigenvalues --   -0.51690  -0.51136  -0.51090  -0.50836  -0.50723
 Alpha  occ. eigenvalues --   -0.50628  -0.50535  -0.50420  -0.50191  -0.49902
 Alpha  occ. eigenvalues --   -0.49571  -0.49206  -0.48972  -0.48697  -0.48512
 Alpha  occ. eigenvalues --   -0.48130  -0.47939  -0.47683  -0.47356  -0.46671
 Alpha  occ. eigenvalues --   -0.46558  -0.46105  -0.45344  -0.44653  -0.44337
 Alpha  occ. eigenvalues --   -0.44135  -0.43422  -0.43171  -0.42553  -0.41881
 Alpha  occ. eigenvalues --   -0.40263  -0.39813  -0.39650  -0.39387  -0.37854
 Alpha  occ. eigenvalues --   -0.37566  -0.35983  -0.35064  -0.33741  -0.33092
 Alpha  occ. eigenvalues --   -0.32269  -0.30985  -0.29466
 Alpha virt. eigenvalues --   -0.23133  -0.18178  -0.17999  -0.14804  -0.12465
 Alpha virt. eigenvalues --   -0.10910  -0.09377  -0.08282  -0.06936  -0.06918
 Alpha virt. eigenvalues --   -0.06018  -0.05166  -0.04373  -0.03615  -0.03255
 Alpha virt. eigenvalues --   -0.02961  -0.02680  -0.02585  -0.02256  -0.01335
 Alpha virt. eigenvalues --   -0.00938  -0.00555  -0.00359   0.00050   0.00162
 Alpha virt. eigenvalues --    0.00777   0.01097   0.01480   0.01774   0.01998
 Alpha virt. eigenvalues --    0.02270   0.02304   0.02640   0.02855   0.03023
 Alpha virt. eigenvalues --    0.03326   0.03441   0.03588   0.03654   0.03972
 Alpha virt. eigenvalues --    0.04328   0.04430   0.04633   0.04957   0.05181
 Alpha virt. eigenvalues --    0.05330   0.05383   0.05861   0.06533   0.06703
 Alpha virt. eigenvalues --    0.06892   0.06986   0.07232   0.07332   0.07422
 Alpha virt. eigenvalues --    0.07739   0.08031   0.08256   0.08335   0.08502
 Alpha virt. eigenvalues --    0.08926   0.09065   0.09169   0.09560   0.09726
 Alpha virt. eigenvalues --    0.10376   0.10431   0.10676   0.10861   0.11075
 Alpha virt. eigenvalues --    0.11521   0.11687   0.11980   0.12338   0.12385
 Alpha virt. eigenvalues --    0.12597   0.12909   0.13134   0.13727   0.13999
 Alpha virt. eigenvalues --    0.14128   0.14423   0.14712   0.15070   0.15594
 Alpha virt. eigenvalues --    0.15786   0.15998   0.16509   0.16691   0.16898
 Alpha virt. eigenvalues --    0.16922   0.17138   0.17720   0.18082   0.18284
 Alpha virt. eigenvalues --    0.18406   0.18493   0.18978   0.19169   0.19642
 Alpha virt. eigenvalues --    0.19787   0.20042   0.20359   0.20552   0.20661
 Alpha virt. eigenvalues --    0.20822   0.21370   0.21467   0.21649   0.21874
 Alpha virt. eigenvalues --    0.22014   0.22676   0.22888   0.23086   0.23414
 Alpha virt. eigenvalues --    0.23693   0.23816   0.24059   0.24402   0.25078
 Alpha virt. eigenvalues --    0.25356   0.25658   0.25974   0.26055   0.26188
 Alpha virt. eigenvalues --    0.26478   0.26763   0.26937   0.27100   0.27440
 Alpha virt. eigenvalues --    0.27633   0.28261   0.28611   0.28831   0.29110
 Alpha virt. eigenvalues --    0.29445   0.29585   0.29620   0.29957   0.30397
 Alpha virt. eigenvalues --    0.30498   0.30822   0.31100   0.31189   0.31434
 Alpha virt. eigenvalues --    0.31761   0.31842   0.32244   0.32439   0.32639
 Alpha virt. eigenvalues --    0.32726   0.32860   0.33233   0.33300   0.33456
 Alpha virt. eigenvalues --    0.33911   0.34084   0.34222   0.34412   0.34969
 Alpha virt. eigenvalues --    0.35143   0.35368   0.35601   0.35881   0.36297
 Alpha virt. eigenvalues --    0.36359   0.36914   0.37028   0.37194   0.37432
 Alpha virt. eigenvalues --    0.37633   0.37776   0.37814   0.38077   0.38208
 Alpha virt. eigenvalues --    0.38455   0.38594   0.38675   0.39060   0.39455
 Alpha virt. eigenvalues --    0.39511   0.39779   0.39912   0.40137   0.40415
 Alpha virt. eigenvalues --    0.40739   0.41071   0.41144   0.41356   0.41950
 Alpha virt. eigenvalues --    0.42059   0.42172   0.42241   0.42445   0.42530
 Alpha virt. eigenvalues --    0.42745   0.42833   0.42980   0.43431   0.43654
 Alpha virt. eigenvalues --    0.43784   0.44087   0.44397   0.44637   0.44773
 Alpha virt. eigenvalues --    0.45032   0.45327   0.45640   0.46016   0.46158
 Alpha virt. eigenvalues --    0.46497   0.46845   0.47148   0.47327   0.47533
 Alpha virt. eigenvalues --    0.47952   0.48073   0.48677   0.48778   0.49206
 Alpha virt. eigenvalues --    0.49336   0.49613   0.49957   0.50463   0.50802
 Alpha virt. eigenvalues --    0.50937   0.51285   0.51455   0.52307   0.52501
 Alpha virt. eigenvalues --    0.52830   0.53237   0.53386   0.53644   0.53775
 Alpha virt. eigenvalues --    0.54225   0.54347   0.54672   0.55050   0.55327
 Alpha virt. eigenvalues --    0.55663   0.56055   0.56325   0.56616   0.57099
 Alpha virt. eigenvalues --    0.57363   0.57494   0.57607   0.58007   0.58504
 Alpha virt. eigenvalues --    0.58869   0.59304   0.59501   0.59960   0.60185
 Alpha virt. eigenvalues --    0.60485   0.60572   0.60848   0.61206   0.61521
 Alpha virt. eigenvalues --    0.61718   0.62242   0.62499   0.63043   0.63262
 Alpha virt. eigenvalues --    0.63754   0.63938   0.64394   0.64509   0.65011
 Alpha virt. eigenvalues --    0.65181   0.65451   0.66116   0.66387   0.66569
 Alpha virt. eigenvalues --    0.66788   0.66904   0.67213   0.67662   0.67755
 Alpha virt. eigenvalues --    0.68250   0.68814   0.69273   0.69662   0.69806
 Alpha virt. eigenvalues --    0.70270   0.70638   0.70824   0.71352   0.71744
 Alpha virt. eigenvalues --    0.72231   0.72483   0.73081   0.73253   0.73823
 Alpha virt. eigenvalues --    0.73972   0.74427   0.74539   0.75233   0.75992
 Alpha virt. eigenvalues --    0.76015   0.76537   0.76671   0.77115   0.77557
 Alpha virt. eigenvalues --    0.78076   0.78663   0.78745   0.79391   0.79650
 Alpha virt. eigenvalues --    0.80269   0.80577   0.80715   0.80975   0.81932
 Alpha virt. eigenvalues --    0.82078   0.82281   0.82983   0.83360   0.83553
 Alpha virt. eigenvalues --    0.83864   0.84163   0.84651   0.85404   0.85623
 Alpha virt. eigenvalues --    0.85817   0.85929   0.86591   0.86859   0.87438
 Alpha virt. eigenvalues --    0.87529   0.87975   0.88263   0.88650   0.88911
 Alpha virt. eigenvalues --    0.89276   0.89391   0.89885   0.90300   0.90804
 Alpha virt. eigenvalues --    0.90971   0.91172   0.91546   0.91740   0.91930
 Alpha virt. eigenvalues --    0.92232   0.92676   0.92945   0.93483   0.93582
 Alpha virt. eigenvalues --    0.93962   0.94382   0.94473   0.95197   0.95563
 Alpha virt. eigenvalues --    0.95745   0.95948   0.96679   0.96995   0.97481
 Alpha virt. eigenvalues --    0.97722   0.98016   0.98316   0.98761   0.99286
 Alpha virt. eigenvalues --    0.99875   1.00155   1.00238   1.00728   1.00936
 Alpha virt. eigenvalues --    1.01795   1.02533   1.03377   1.03627   1.03952
 Alpha virt. eigenvalues --    1.04550   1.04927   1.05344   1.05531   1.05991
 Alpha virt. eigenvalues --    1.06400   1.07084   1.07501   1.07993   1.08378
 Alpha virt. eigenvalues --    1.08432   1.08742   1.09274   1.09774   1.09983
 Alpha virt. eigenvalues --    1.10479   1.11008   1.11068   1.11303   1.11857
 Alpha virt. eigenvalues --    1.12495   1.12900   1.13573   1.14199   1.14679
 Alpha virt. eigenvalues --    1.14865   1.15612   1.16087   1.16195   1.16305
 Alpha virt. eigenvalues --    1.16734   1.17146   1.17553   1.17792   1.18094
 Alpha virt. eigenvalues --    1.18803   1.19097   1.19109   1.19450   1.19777
 Alpha virt. eigenvalues --    1.20288   1.20525   1.20867   1.21047   1.21984
 Alpha virt. eigenvalues --    1.22377   1.22652   1.23561   1.24676   1.25594
 Alpha virt. eigenvalues --    1.25624   1.26352   1.26633   1.27066   1.27695
 Alpha virt. eigenvalues --    1.27890   1.28585   1.29790   1.30409   1.30885
 Alpha virt. eigenvalues --    1.31523   1.31877   1.32429   1.32973   1.33108
 Alpha virt. eigenvalues --    1.33580   1.33900   1.34416   1.34661   1.35568
 Alpha virt. eigenvalues --    1.35755   1.36574   1.36690   1.37182   1.37646
 Alpha virt. eigenvalues --    1.37751   1.38140   1.39298   1.39399   1.39770
 Alpha virt. eigenvalues --    1.39997   1.40060   1.40728   1.40866   1.41039
 Alpha virt. eigenvalues --    1.41270   1.41900   1.42026   1.42471   1.42603
 Alpha virt. eigenvalues --    1.42784   1.43004   1.43508   1.43923   1.44019
 Alpha virt. eigenvalues --    1.44056   1.44587   1.44776   1.45013   1.45422
 Alpha virt. eigenvalues --    1.45861   1.46081   1.46330   1.46588   1.46843
 Alpha virt. eigenvalues --    1.46916   1.47141   1.47576   1.47754   1.47992
 Alpha virt. eigenvalues --    1.48142   1.48532   1.48869   1.49082   1.49299
 Alpha virt. eigenvalues --    1.49630   1.49764   1.50297   1.50807   1.51192
 Alpha virt. eigenvalues --    1.51491   1.51557   1.51919   1.52140   1.52554
 Alpha virt. eigenvalues --    1.52964   1.53335   1.53779   1.53903   1.54064
 Alpha virt. eigenvalues --    1.54354   1.54936   1.55441   1.55719   1.55824
 Alpha virt. eigenvalues --    1.56223   1.56538   1.57067   1.57379   1.57685
 Alpha virt. eigenvalues --    1.57882   1.58177   1.58758   1.59177   1.59567
 Alpha virt. eigenvalues --    1.59740   1.59928   1.60355   1.60913   1.61027
 Alpha virt. eigenvalues --    1.61331   1.61691   1.62001   1.62434   1.62999
 Alpha virt. eigenvalues --    1.63635   1.64170   1.64596   1.64957   1.66390
 Alpha virt. eigenvalues --    1.66499   1.66621   1.67390   1.67938   1.68330
 Alpha virt. eigenvalues --    1.68963   1.69877   1.70322   1.70479   1.71090
 Alpha virt. eigenvalues --    1.71575   1.71857   1.72545   1.72957   1.73722
 Alpha virt. eigenvalues --    1.74126   1.74419   1.75419   1.75813   1.75881
 Alpha virt. eigenvalues --    1.76709   1.76900   1.77126   1.77717   1.78324
 Alpha virt. eigenvalues --    1.78375   1.79191   1.79485   1.80175   1.80556
 Alpha virt. eigenvalues --    1.81535   1.81934   1.82453   1.82880   1.83117
 Alpha virt. eigenvalues --    1.84196   1.84520   1.84691   1.84826   1.85670
 Alpha virt. eigenvalues --    1.86069   1.86427   1.86542   1.87474   1.87847
 Alpha virt. eigenvalues --    1.88537   1.89206   1.89417   1.90025   1.90099
 Alpha virt. eigenvalues --    1.90679   1.90924   1.91125   1.91359   1.91966
 Alpha virt. eigenvalues --    1.92594   1.92658   1.92980   1.94102   1.94701
 Alpha virt. eigenvalues --    1.95663   1.95861   1.96387   1.96930   1.97630
 Alpha virt. eigenvalues --    1.97914   1.98155   1.98424   1.99195   1.99500
 Alpha virt. eigenvalues --    1.99837   2.00182   2.00699   2.00887   2.01410
 Alpha virt. eigenvalues --    2.02225   2.02313   2.02482   2.03419   2.03944
 Alpha virt. eigenvalues --    2.04353   2.04977   2.05176   2.05698   2.06050
 Alpha virt. eigenvalues --    2.06473   2.07508   2.07570   2.08224   2.08597
 Alpha virt. eigenvalues --    2.08952   2.09309   2.09765   2.10412   2.10611
 Alpha virt. eigenvalues --    2.11792   2.11977   2.12211   2.13687   2.13799
 Alpha virt. eigenvalues --    2.14690   2.15029   2.15387   2.15780   2.16308
 Alpha virt. eigenvalues --    2.16726   2.17125   2.17517   2.18129   2.18440
 Alpha virt. eigenvalues --    2.18886   2.19674   2.20227   2.20448   2.20959
 Alpha virt. eigenvalues --    2.21369   2.21799   2.22114   2.22425   2.23419
 Alpha virt. eigenvalues --    2.23840   2.24253   2.24685   2.25557   2.25735
 Alpha virt. eigenvalues --    2.26136   2.26213   2.26402   2.27189   2.27351
 Alpha virt. eigenvalues --    2.28051   2.28410   2.28894   2.29216   2.29670
 Alpha virt. eigenvalues --    2.29700   2.30253   2.30797   2.31143   2.31445
 Alpha virt. eigenvalues --    2.31596   2.31963   2.32529   2.32801   2.33361
 Alpha virt. eigenvalues --    2.34070   2.34282   2.34749   2.35016   2.35855
 Alpha virt. eigenvalues --    2.36493   2.36640   2.37020   2.37865   2.38030
 Alpha virt. eigenvalues --    2.38377   2.38865   2.39321   2.39937   2.40376
 Alpha virt. eigenvalues --    2.40649   2.41129   2.42432   2.42506   2.43122
 Alpha virt. eigenvalues --    2.43301   2.43788   2.44373   2.44859   2.45396
 Alpha virt. eigenvalues --    2.45623   2.45910   2.46351   2.46699   2.47097
 Alpha virt. eigenvalues --    2.47248   2.47387   2.47710   2.47921   2.48807
 Alpha virt. eigenvalues --    2.48986   2.49445   2.49758   2.49884   2.50715
 Alpha virt. eigenvalues --    2.51062   2.51181   2.51359   2.51854   2.52231
 Alpha virt. eigenvalues --    2.53183   2.53242   2.53800   2.54456   2.54659
 Alpha virt. eigenvalues --    2.55143   2.55623   2.55805   2.56225   2.56539
 Alpha virt. eigenvalues --    2.57213   2.57600   2.57878   2.58261   2.58512
 Alpha virt. eigenvalues --    2.59319   2.59781   2.60101   2.60736   2.61414
 Alpha virt. eigenvalues --    2.61506   2.61793   2.62484   2.62875   2.63558
 Alpha virt. eigenvalues --    2.63760   2.64353   2.64643   2.64992   2.65441
 Alpha virt. eigenvalues --    2.66082   2.66453   2.66956   2.67208   2.67899
 Alpha virt. eigenvalues --    2.68529   2.68708   2.69204   2.69499   2.70287
 Alpha virt. eigenvalues --    2.70720   2.70988   2.71432   2.72048   2.72684
 Alpha virt. eigenvalues --    2.72932   2.73336   2.73838   2.74416   2.74521
 Alpha virt. eigenvalues --    2.74824   2.74905   2.75092   2.75800   2.76550
 Alpha virt. eigenvalues --    2.77017   2.77687   2.77966   2.78242   2.78384
 Alpha virt. eigenvalues --    2.79019   2.79417   2.79667   2.79685   2.80223
 Alpha virt. eigenvalues --    2.80528   2.80905   2.81290   2.81642   2.81742
 Alpha virt. eigenvalues --    2.81954   2.82336   2.82849   2.83287   2.83902
 Alpha virt. eigenvalues --    2.84160   2.84518   2.84906   2.85136   2.86200
 Alpha virt. eigenvalues --    2.86318   2.87055   2.87166   2.87808   2.88133
 Alpha virt. eigenvalues --    2.88559   2.88913   2.89035   2.89884   2.90329
 Alpha virt. eigenvalues --    2.90642   2.90764   2.91548   2.91992   2.92114
 Alpha virt. eigenvalues --    2.92427   2.92576   2.93556   2.93815   2.94112
 Alpha virt. eigenvalues --    2.94543   2.94977   2.95175   2.95408   2.95629
 Alpha virt. eigenvalues --    2.95989   2.96772   2.97410   2.97696   2.97924
 Alpha virt. eigenvalues --    2.98247   2.98332   2.98770   2.98975   2.99194
 Alpha virt. eigenvalues --    2.99451   3.00004   3.00189   3.00616   3.00666
 Alpha virt. eigenvalues --    3.00856   3.01305   3.01628   3.02161   3.02552
 Alpha virt. eigenvalues --    3.03105   3.03614   3.03827   3.04232   3.04332
 Alpha virt. eigenvalues --    3.04469   3.04915   3.05630   3.05669   3.05833
 Alpha virt. eigenvalues --    3.06493   3.06649   3.07025   3.07421   3.08111
 Alpha virt. eigenvalues --    3.08293   3.08343   3.08663   3.08834   3.09653
 Alpha virt. eigenvalues --    3.09885   3.10078   3.10284   3.10733   3.11071
 Alpha virt. eigenvalues --    3.11623   3.11962   3.12264   3.12498   3.12824
 Alpha virt. eigenvalues --    3.13130   3.13276   3.13756   3.14020   3.14178
 Alpha virt. eigenvalues --    3.14223   3.14793   3.15071   3.15074   3.15377
 Alpha virt. eigenvalues --    3.15670   3.16012   3.16367   3.16988   3.17059
 Alpha virt. eigenvalues --    3.17196   3.17369   3.18032   3.18116   3.18752
 Alpha virt. eigenvalues --    3.18834   3.19031   3.19493   3.20033   3.20441
 Alpha virt. eigenvalues --    3.20616   3.21046   3.21170   3.21387   3.21721
 Alpha virt. eigenvalues --    3.22097   3.22425   3.22607   3.22689   3.22801
 Alpha virt. eigenvalues --    3.23277   3.23648   3.23702   3.23954   3.24285
 Alpha virt. eigenvalues --    3.24631   3.24832   3.25089   3.25249   3.25429
 Alpha virt. eigenvalues --    3.25801   3.26274   3.26402   3.26776   3.26950
 Alpha virt. eigenvalues --    3.27322   3.27489   3.27792   3.27983   3.28147
 Alpha virt. eigenvalues --    3.28538   3.28961   3.29462   3.29770   3.30380
 Alpha virt. eigenvalues --    3.30454   3.30750   3.31057   3.31524   3.31844
 Alpha virt. eigenvalues --    3.32064   3.32421   3.32623   3.33545   3.34066
 Alpha virt. eigenvalues --    3.34651   3.34693   3.35770   3.35966   3.36320
 Alpha virt. eigenvalues --    3.36520   3.37020   3.37319   3.37657   3.38150
 Alpha virt. eigenvalues --    3.38920   3.39161   3.39764   3.40381   3.40705
 Alpha virt. eigenvalues --    3.40734   3.41438   3.41715   3.41988   3.42549
 Alpha virt. eigenvalues --    3.43461   3.43985   3.44082   3.44756   3.44983
 Alpha virt. eigenvalues --    3.46014   3.46767   3.47150   3.47353   3.47804
 Alpha virt. eigenvalues --    3.48337   3.48624   3.48860   3.49452   3.49728
 Alpha virt. eigenvalues --    3.50416   3.51147   3.51450   3.51745   3.52229
 Alpha virt. eigenvalues --    3.52976   3.53656   3.53817   3.54167   3.54696
 Alpha virt. eigenvalues --    3.54806   3.55773   3.55882   3.56433   3.56768
 Alpha virt. eigenvalues --    3.57657   3.57991   3.58658   3.59593   3.59811
 Alpha virt. eigenvalues --    3.60303   3.60399   3.60687   3.60934   3.61261
 Alpha virt. eigenvalues --    3.61691   3.62157   3.62647   3.63054   3.63320
 Alpha virt. eigenvalues --    3.63893   3.64482   3.64637   3.64868   3.64975
 Alpha virt. eigenvalues --    3.65634   3.65991   3.67139   3.67667   3.68139
 Alpha virt. eigenvalues --    3.68692   3.69266   3.69409   3.70299   3.71042
 Alpha virt. eigenvalues --    3.71298   3.71970   3.72517   3.73666   3.73931
 Alpha virt. eigenvalues --    3.74331   3.75559   3.75639   3.76051   3.76771
 Alpha virt. eigenvalues --    3.77402   3.77687   3.78192   3.78943   3.79283
 Alpha virt. eigenvalues --    3.79647   3.80675   3.81093   3.81668   3.81852
 Alpha virt. eigenvalues --    3.82301   3.82951   3.83169   3.84289   3.84933
 Alpha virt. eigenvalues --    3.85275   3.86458   3.87434   3.88257   3.88329
 Alpha virt. eigenvalues --    3.88492   3.89794   3.90277   3.90446   3.90970
 Alpha virt. eigenvalues --    3.91519   3.91882   3.92405   3.92769   3.93760
 Alpha virt. eigenvalues --    3.94246   3.94521   3.95392   3.96172   3.97281
 Alpha virt. eigenvalues --    3.97755   3.98299   3.98636   3.99546   4.00144
 Alpha virt. eigenvalues --    4.00923   4.01796   4.02148   4.02448   4.02844
 Alpha virt. eigenvalues --    4.04230   4.05221   4.05381   4.05749   4.06418
 Alpha virt. eigenvalues --    4.06801   4.07613   4.08083   4.08352   4.09230
 Alpha virt. eigenvalues --    4.09589   4.10049   4.10189   4.11763   4.12049
 Alpha virt. eigenvalues --    4.12713   4.13095   4.13576   4.13970   4.14452
 Alpha virt. eigenvalues --    4.15211   4.15543   4.15877   4.16869   4.17929
 Alpha virt. eigenvalues --    4.18333   4.18986   4.19657   4.20357   4.21312
 Alpha virt. eigenvalues --    4.22256   4.22533   4.22664   4.23783   4.23988
 Alpha virt. eigenvalues --    4.24336   4.24798   4.26309   4.27414   4.28248
 Alpha virt. eigenvalues --    4.28777   4.29065   4.29686   4.29981   4.30149
 Alpha virt. eigenvalues --    4.30748   4.31007   4.31411   4.31535   4.32300
 Alpha virt. eigenvalues --    4.32889   4.33404   4.33659   4.33987   4.34430
 Alpha virt. eigenvalues --    4.35051   4.35280   4.36064   4.36746   4.37172
 Alpha virt. eigenvalues --    4.37411   4.40151   4.41603   4.41751   4.42557
 Alpha virt. eigenvalues --    4.43082   4.44490   4.45430   4.45642   4.47157
 Alpha virt. eigenvalues --    4.47439   4.48347   4.49863   4.50258   4.51563
 Alpha virt. eigenvalues --    4.52096   4.53142   4.54442   4.54742   4.56327
 Alpha virt. eigenvalues --    4.57119   4.57614   4.57973   4.58110   4.58704
 Alpha virt. eigenvalues --    4.59800   4.60405   4.61359   4.61850   4.63538
 Alpha virt. eigenvalues --    4.64089   4.64774   4.65606   4.66778   4.67561
 Alpha virt. eigenvalues --    4.68188   4.68960   4.70406   4.71055   4.71559
 Alpha virt. eigenvalues --    4.71841   4.72428   4.73151   4.73484   4.73876
 Alpha virt. eigenvalues --    4.74375   4.75919   4.76295   4.77079   4.78034
 Alpha virt. eigenvalues --    4.78742   4.79644   4.80007   4.80751   4.82073
 Alpha virt. eigenvalues --    4.82438   4.83220   4.83954   4.84515   4.85282
 Alpha virt. eigenvalues --    4.86677   4.86852   4.88675   4.89414   4.90265
 Alpha virt. eigenvalues --    4.91440   4.91604   4.92329   4.93187   4.93456
 Alpha virt. eigenvalues --    4.94103   4.95088   4.95947   4.96862   4.97368
 Alpha virt. eigenvalues --    4.97448   4.99191   4.99779   5.01871   5.03824
 Alpha virt. eigenvalues --    5.05253   5.06400   5.07815   5.08768   5.09299
 Alpha virt. eigenvalues --    5.09603   5.10347   5.11103   5.12642   5.13141
 Alpha virt. eigenvalues --    5.13449   5.16488   5.17399   5.18233   5.21798
 Alpha virt. eigenvalues --    5.23665   5.24372   5.24860   5.25229   5.25737
 Alpha virt. eigenvalues --    5.27048   5.27479   5.27912   5.29633   5.30282
 Alpha virt. eigenvalues --    5.31946   5.33995   5.36574   5.36734   5.37529
 Alpha virt. eigenvalues --    5.38378   5.39127   5.39582   5.41093   5.43109
 Alpha virt. eigenvalues --    5.45148   5.48535   5.49419   5.49665   5.50131
 Alpha virt. eigenvalues --    5.51689   5.52751   5.54002   5.54791   5.56321
 Alpha virt. eigenvalues --    5.57569   5.59109   5.62825   5.63884   5.64361
 Alpha virt. eigenvalues --    5.65870   5.65962   5.66406   5.73985   5.77541
 Alpha virt. eigenvalues --    5.78473   5.82395   5.88415   5.88991   5.89758
 Alpha virt. eigenvalues --    5.95221   5.96090   5.98967   5.99675   6.00420
 Alpha virt. eigenvalues --    6.03879   6.06114   6.13942   6.20909   6.21681
 Alpha virt. eigenvalues --    6.28422  22.25108  22.26432  22.34211  22.36299
 Alpha virt. eigenvalues --   22.37097  22.44305  22.45587  22.52697  22.53318
 Alpha virt. eigenvalues --   22.63278  22.70899  22.76770  22.78463  22.80745
 Alpha virt. eigenvalues --   22.82405  22.84096  22.85038  22.91965  22.92808
 Alpha virt. eigenvalues --   22.93363  23.04092  23.14576  23.16308  23.18075
 Alpha virt. eigenvalues --   23.19498  23.25241  23.31210  23.40063  23.40655
 Alpha virt. eigenvalues --   23.45692  23.63764  23.67898  23.68724  23.77586
 Alpha virt. eigenvalues --   32.28116  32.52483  32.71230  32.79884  32.81965
 Alpha virt. eigenvalues --   32.95154
  Beta  occ. eigenvalues -- -256.37902 -30.22146 -26.06442 -26.06423 -26.05712
  Beta  occ. eigenvalues --  -14.53885 -14.51065 -14.47153 -14.47099 -14.46807
  Beta  occ. eigenvalues --  -14.46776 -10.38595 -10.35698 -10.33320 -10.33301
  Beta  occ. eigenvalues --  -10.33158 -10.33139 -10.33132 -10.33114 -10.32928
  Beta  occ. eigenvalues --  -10.32913 -10.32798 -10.30903 -10.30578 -10.30570
  Beta  occ. eigenvalues --  -10.30336 -10.30286 -10.30273 -10.30131 -10.30106
  Beta  occ. eigenvalues --  -10.30046 -10.29844 -10.29638 -10.29556 -10.29506
  Beta  occ. eigenvalues --  -10.29321 -10.28883 -10.28365 -10.28310 -10.28247
  Beta  occ. eigenvalues --  -10.28001 -10.27989 -10.27925 -10.27626 -10.27535
  Beta  occ. eigenvalues --   -3.57588  -2.33609  -2.33219  -2.33085  -1.17910
  Beta  occ. eigenvalues --   -1.09495  -1.08647  -1.08246  -1.07415  -1.03825
  Beta  occ. eigenvalues --   -0.94173  -0.92662  -0.92258  -0.91876  -0.91682
  Beta  occ. eigenvalues --   -0.91499  -0.91278  -0.91207  -0.87332  -0.86111
  Beta  occ. eigenvalues --   -0.85820  -0.84731  -0.83289  -0.83152  -0.81390
  Beta  occ. eigenvalues --   -0.80509  -0.78958  -0.78743  -0.78432  -0.76979
  Beta  occ. eigenvalues --   -0.75778  -0.75543  -0.73471  -0.71284  -0.70605
  Beta  occ. eigenvalues --   -0.69084  -0.68791  -0.67961  -0.65665  -0.65179
  Beta  occ. eigenvalues --   -0.64487  -0.63295  -0.62309  -0.62126  -0.61526
  Beta  occ. eigenvalues --   -0.59954  -0.59431  -0.59387  -0.58799  -0.58491
  Beta  occ. eigenvalues --   -0.56802  -0.56010  -0.55787  -0.55536  -0.54828
  Beta  occ. eigenvalues --   -0.54666  -0.54579  -0.54483  -0.53902  -0.53664
  Beta  occ. eigenvalues --   -0.53343  -0.53148  -0.52974  -0.52810  -0.52301
  Beta  occ. eigenvalues --   -0.51694  -0.51080  -0.51048  -0.50744  -0.50718
  Beta  occ. eigenvalues --   -0.50592  -0.50479  -0.50326  -0.50141  -0.49922
  Beta  occ. eigenvalues --   -0.49568  -0.49172  -0.48813  -0.48668  -0.48427
  Beta  occ. eigenvalues --   -0.48059  -0.47736  -0.47588  -0.47242  -0.46494
  Beta  occ. eigenvalues --   -0.46224  -0.45373  -0.44604  -0.44495  -0.44331
  Beta  occ. eigenvalues --   -0.43438  -0.43205  -0.42655  -0.42366  -0.40015
  Beta  occ. eigenvalues --   -0.39803  -0.39006  -0.38293  -0.37093  -0.36837
  Beta  occ. eigenvalues --   -0.35990  -0.34992  -0.34024  -0.33278  -0.32067
  Beta  occ. eigenvalues --   -0.31002  -0.29222
  Beta virt. eigenvalues --   -0.20350  -0.18264  -0.18159  -0.16912  -0.12554
  Beta virt. eigenvalues --   -0.11391  -0.10622  -0.09254  -0.08304  -0.06884
  Beta virt. eigenvalues --   -0.06853  -0.06076  -0.05093  -0.04375  -0.03523
  Beta virt. eigenvalues --   -0.03233  -0.02777  -0.02646  -0.02523  -0.02091
  Beta virt. eigenvalues --   -0.01306  -0.00861  -0.00551  -0.00324   0.00067
  Beta virt. eigenvalues --    0.00313   0.00844   0.01114   0.01482   0.01763
  Beta virt. eigenvalues --    0.01997   0.02235   0.02291   0.02635   0.02842
  Beta virt. eigenvalues --    0.03019   0.03315   0.03434   0.03581   0.03651
  Beta virt. eigenvalues --    0.03967   0.04296   0.04439   0.04609   0.04943
  Beta virt. eigenvalues --    0.05169   0.05341   0.05371   0.05852   0.06538
  Beta virt. eigenvalues --    0.06702   0.06888   0.06988   0.07254   0.07333
  Beta virt. eigenvalues --    0.07420   0.07753   0.08050   0.08281   0.08379
  Beta virt. eigenvalues --    0.08518   0.08939   0.09078   0.09173   0.09664
  Beta virt. eigenvalues --    0.09928   0.10414   0.10539   0.10675   0.10868
  Beta virt. eigenvalues --    0.11095   0.11549   0.11722   0.12022   0.12373
  Beta virt. eigenvalues --    0.12420   0.12599   0.12917   0.13157   0.13736
  Beta virt. eigenvalues --    0.14008   0.14158   0.14445   0.14754   0.15081
  Beta virt. eigenvalues --    0.15634   0.15864   0.16025   0.16508   0.16718
  Beta virt. eigenvalues --    0.16928   0.17033   0.17146   0.17748   0.18176
  Beta virt. eigenvalues --    0.18307   0.18411   0.18504   0.19001   0.19182
  Beta virt. eigenvalues --    0.19652   0.19800   0.20048   0.20384   0.20567
  Beta virt. eigenvalues --    0.20670   0.20864   0.21387   0.21472   0.21667
  Beta virt. eigenvalues --    0.21877   0.22055   0.22708   0.22915   0.23099
  Beta virt. eigenvalues --    0.23413   0.23715   0.23836   0.24075   0.24443
  Beta virt. eigenvalues --    0.25089   0.25372   0.25674   0.26042   0.26101
  Beta virt. eigenvalues --    0.26315   0.26488   0.26766   0.27010   0.27126
  Beta virt. eigenvalues --    0.27502   0.27658   0.28230   0.28606   0.28865
  Beta virt. eigenvalues --    0.29127   0.29465   0.29568   0.29628   0.29956
  Beta virt. eigenvalues --    0.30383   0.30538   0.30821   0.31102   0.31207
  Beta virt. eigenvalues --    0.31468   0.31834   0.31893   0.32272   0.32460
  Beta virt. eigenvalues --    0.32626   0.32756   0.32862   0.33249   0.33304
  Beta virt. eigenvalues --    0.33469   0.33941   0.34155   0.34226   0.34407
  Beta virt. eigenvalues --    0.34979   0.35190   0.35413   0.35627   0.35936
  Beta virt. eigenvalues --    0.36307   0.36372   0.36955   0.37049   0.37204
  Beta virt. eigenvalues --    0.37462   0.37675   0.37804   0.37829   0.38065
  Beta virt. eigenvalues --    0.38203   0.38455   0.38618   0.38672   0.39098
  Beta virt. eigenvalues --    0.39473   0.39526   0.39783   0.39917   0.40139
  Beta virt. eigenvalues --    0.40420   0.40763   0.41093   0.41227   0.41398
  Beta virt. eigenvalues --    0.41955   0.42120   0.42185   0.42264   0.42514
  Beta virt. eigenvalues --    0.42542   0.42754   0.42866   0.42996   0.43466
  Beta virt. eigenvalues --    0.43661   0.43822   0.44153   0.44428   0.44650
  Beta virt. eigenvalues --    0.44771   0.45054   0.45375   0.45653   0.46041
  Beta virt. eigenvalues --    0.46201   0.46514   0.46843   0.47169   0.47354
  Beta virt. eigenvalues --    0.47533   0.47958   0.48100   0.48678   0.48794
  Beta virt. eigenvalues --    0.49201   0.49349   0.49620   0.49977   0.50462
  Beta virt. eigenvalues --    0.50788   0.50965   0.51337   0.51496   0.52334
  Beta virt. eigenvalues --    0.52504   0.52928   0.53234   0.53438   0.53675
  Beta virt. eigenvalues --    0.53783   0.54248   0.54359   0.54707   0.55075
  Beta virt. eigenvalues --    0.55350   0.55659   0.56063   0.56368   0.56645
  Beta virt. eigenvalues --    0.57109   0.57375   0.57497   0.57712   0.58013
  Beta virt. eigenvalues --    0.58521   0.58873   0.59366   0.59497   0.59971
  Beta virt. eigenvalues --    0.60184   0.60460   0.60583   0.60871   0.61216
  Beta virt. eigenvalues --    0.61602   0.61745   0.62235   0.62497   0.63097
  Beta virt. eigenvalues --    0.63250   0.63767   0.63974   0.64416   0.64514
  Beta virt. eigenvalues --    0.65067   0.65166   0.65482   0.66121   0.66406
  Beta virt. eigenvalues --    0.66580   0.66864   0.66940   0.67243   0.67672
  Beta virt. eigenvalues --    0.67757   0.68258   0.68803   0.69309   0.69673
  Beta virt. eigenvalues --    0.69851   0.70274   0.70641   0.70888   0.71349
  Beta virt. eigenvalues --    0.71746   0.72213   0.72506   0.73153   0.73391
  Beta virt. eigenvalues --    0.73834   0.73987   0.74435   0.74564   0.75233
  Beta virt. eigenvalues --    0.75989   0.76033   0.76577   0.76687   0.77135
  Beta virt. eigenvalues --    0.77591   0.78128   0.78663   0.78728   0.79427
  Beta virt. eigenvalues --    0.79661   0.80295   0.80588   0.80709   0.80984
  Beta virt. eigenvalues --    0.81990   0.82108   0.82283   0.82995   0.83369
  Beta virt. eigenvalues --    0.83569   0.83865   0.84164   0.84678   0.85420
  Beta virt. eigenvalues --    0.85646   0.85812   0.85969   0.86603   0.86883
  Beta virt. eigenvalues --    0.87511   0.87543   0.88020   0.88285   0.88695
  Beta virt. eigenvalues --    0.88939   0.89348   0.89440   0.89912   0.90317
  Beta virt. eigenvalues --    0.90854   0.90980   0.91168   0.91559   0.91766
  Beta virt. eigenvalues --    0.91956   0.92278   0.92725   0.92952   0.93487
  Beta virt. eigenvalues --    0.93611   0.93986   0.94423   0.94502   0.95246
  Beta virt. eigenvalues --    0.95712   0.95787   0.96007   0.96774   0.97094
  Beta virt. eigenvalues --    0.97578   0.97929   0.98277   0.98332   0.98903
  Beta virt. eigenvalues --    0.99299   0.99876   1.00197   1.00278   1.00838
  Beta virt. eigenvalues --    1.00945   1.01895   1.02615   1.03478   1.03646
  Beta virt. eigenvalues --    1.04012   1.04615   1.04938   1.05418   1.05552
  Beta virt. eigenvalues --    1.06066   1.06430   1.07116   1.07522   1.08021
  Beta virt. eigenvalues --    1.08411   1.08463   1.08799   1.09311   1.09818
  Beta virt. eigenvalues --    1.10010   1.10514   1.11039   1.11091   1.11391
  Beta virt. eigenvalues --    1.11893   1.12615   1.12975   1.13616   1.14291
  Beta virt. eigenvalues --    1.14713   1.14931   1.15727   1.16140   1.16329
  Beta virt. eigenvalues --    1.16347   1.16800   1.17223   1.17590   1.17811
  Beta virt. eigenvalues --    1.18125   1.18874   1.19131   1.19148   1.19467
  Beta virt. eigenvalues --    1.19785   1.20372   1.20676   1.20875   1.21064
  Beta virt. eigenvalues --    1.22011   1.22380   1.22702   1.23625   1.24680
  Beta virt. eigenvalues --    1.25608   1.25641   1.26393   1.26691   1.27085
  Beta virt. eigenvalues --    1.27760   1.27923   1.28687   1.29804   1.30452
  Beta virt. eigenvalues --    1.30898   1.31556   1.31875   1.32474   1.32984
  Beta virt. eigenvalues --    1.33130   1.33568   1.33915   1.34438   1.34653
  Beta virt. eigenvalues --    1.35569   1.35776   1.36616   1.36746   1.37204
  Beta virt. eigenvalues --    1.37713   1.37778   1.38219   1.39305   1.39422
  Beta virt. eigenvalues --    1.39764   1.40004   1.40082   1.40740   1.40877
  Beta virt. eigenvalues --    1.41081   1.41289   1.41908   1.42110   1.42509
  Beta virt. eigenvalues --    1.42628   1.42785   1.43039   1.43561   1.43938
  Beta virt. eigenvalues --    1.44036   1.44057   1.44601   1.44804   1.45024
  Beta virt. eigenvalues --    1.45433   1.45889   1.46088   1.46338   1.46601
  Beta virt. eigenvalues --    1.46855   1.46921   1.47143   1.47569   1.47774
  Beta virt. eigenvalues --    1.47992   1.48136   1.48550   1.48883   1.49069
  Beta virt. eigenvalues --    1.49309   1.49642   1.49775   1.50279   1.50824
  Beta virt. eigenvalues --    1.51180   1.51490   1.51551   1.51913   1.52145
  Beta virt. eigenvalues --    1.52571   1.52971   1.53344   1.53773   1.53922
  Beta virt. eigenvalues --    1.54083   1.54369   1.54937   1.55439   1.55734
  Beta virt. eigenvalues --    1.55833   1.56219   1.56542   1.57063   1.57383
  Beta virt. eigenvalues --    1.57705   1.57902   1.58198   1.58761   1.59180
  Beta virt. eigenvalues --    1.59562   1.59751   1.59938   1.60361   1.60942
  Beta virt. eigenvalues --    1.61054   1.61345   1.61683   1.62106   1.62466
  Beta virt. eigenvalues --    1.62998   1.63646   1.64172   1.64600   1.64965
  Beta virt. eigenvalues --    1.66387   1.66506   1.66606   1.67387   1.67934
  Beta virt. eigenvalues --    1.68353   1.68971   1.69874   1.70336   1.70453
  Beta virt. eigenvalues --    1.71095   1.71577   1.71855   1.72527   1.72965
  Beta virt. eigenvalues --    1.73708   1.74136   1.74385   1.75397   1.75844
  Beta virt. eigenvalues --    1.75871   1.76658   1.76904   1.77131   1.77775
  Beta virt. eigenvalues --    1.78350   1.78371   1.79258   1.79529   1.80195
  Beta virt. eigenvalues --    1.80554   1.81588   1.81872   1.82440   1.82902
  Beta virt. eigenvalues --    1.83138   1.84189   1.84527   1.84726   1.84877
  Beta virt. eigenvalues --    1.85679   1.86082   1.86439   1.86564   1.87544
  Beta virt. eigenvalues --    1.87861   1.88579   1.89220   1.89497   1.90033
  Beta virt. eigenvalues --    1.90115   1.90692   1.90934   1.91128   1.91391
  Beta virt. eigenvalues --    1.92001   1.92621   1.92662   1.93025   1.94142
  Beta virt. eigenvalues --    1.94736   1.95780   1.95885   1.96397   1.97028
  Beta virt. eigenvalues --    1.97639   1.97941   1.98200   1.98468   1.99255
  Beta virt. eigenvalues --    1.99566   1.99887   2.00232   2.00784   2.00963
  Beta virt. eigenvalues --    2.01444   2.02271   2.02364   2.02648   2.03492
  Beta virt. eigenvalues --    2.03966   2.04386   2.05016   2.05271   2.05742
  Beta virt. eigenvalues --    2.06072   2.06491   2.07502   2.07596   2.08249
  Beta virt. eigenvalues --    2.08631   2.08965   2.09512   2.09783   2.10416
  Beta virt. eigenvalues --    2.10664   2.11803   2.11999   2.12209   2.13694
  Beta virt. eigenvalues --    2.13853   2.14739   2.15169   2.15711   2.15857
  Beta virt. eigenvalues --    2.16361   2.16750   2.17236   2.17538   2.18179
  Beta virt. eigenvalues --    2.18495   2.18943   2.19680   2.20258   2.20472
  Beta virt. eigenvalues --    2.20981   2.21390   2.21879   2.22121   2.22477
  Beta virt. eigenvalues --    2.23416   2.23882   2.24255   2.24749   2.25566
  Beta virt. eigenvalues --    2.25750   2.26160   2.26218   2.26414   2.27242
  Beta virt. eigenvalues --    2.27364   2.28094   2.28450   2.28926   2.29240
  Beta virt. eigenvalues --    2.29698   2.29831   2.30230   2.30816   2.31143
  Beta virt. eigenvalues --    2.31443   2.31597   2.32016   2.32594   2.32873
  Beta virt. eigenvalues --    2.33387   2.34231   2.34334   2.34914   2.35030
  Beta virt. eigenvalues --    2.35877   2.36519   2.36705   2.37050   2.37945
  Beta virt. eigenvalues --    2.38041   2.38376   2.38896   2.39290   2.39944
  Beta virt. eigenvalues --    2.40413   2.40722   2.41205   2.42419   2.42507
  Beta virt. eigenvalues --    2.43130   2.43297   2.43792   2.44369   2.44850
  Beta virt. eigenvalues --    2.45402   2.45620   2.45895   2.46322   2.46718
  Beta virt. eigenvalues --    2.47135   2.47241   2.47412   2.47712   2.47911
  Beta virt. eigenvalues --    2.48792   2.48984   2.49451   2.49770   2.49888
  Beta virt. eigenvalues --    2.50729   2.51046   2.51178   2.51356   2.51861
  Beta virt. eigenvalues --    2.52232   2.53169   2.53251   2.53848   2.54464
  Beta virt. eigenvalues --    2.54671   2.55154   2.55648   2.55818   2.56238
  Beta virt. eigenvalues --    2.56554   2.57215   2.57623   2.57880   2.58276
  Beta virt. eigenvalues --    2.58521   2.59371   2.59787   2.60138   2.60757
  Beta virt. eigenvalues --    2.61414   2.61531   2.61807   2.62619   2.62914
  Beta virt. eigenvalues --    2.63609   2.63823   2.64362   2.64650   2.65068
  Beta virt. eigenvalues --    2.65474   2.66071   2.66441   2.66983   2.67235
  Beta virt. eigenvalues --    2.67913   2.68500   2.68697   2.69194   2.69528
  Beta virt. eigenvalues --    2.70274   2.70753   2.70975   2.71441   2.72058
  Beta virt. eigenvalues --    2.72672   2.72936   2.73329   2.73914   2.74433
  Beta virt. eigenvalues --    2.74508   2.74866   2.74900   2.75121   2.75811
  Beta virt. eigenvalues --    2.76609   2.76999   2.77701   2.77974   2.78275
  Beta virt. eigenvalues --    2.78432   2.79060   2.79399   2.79658   2.79771
  Beta virt. eigenvalues --    2.80227   2.80543   2.80914   2.81287   2.81683
  Beta virt. eigenvalues --    2.81769   2.81976   2.82330   2.82881   2.83315
  Beta virt. eigenvalues --    2.83929   2.84165   2.84530   2.84884   2.85141
  Beta virt. eigenvalues --    2.86211   2.86323   2.87063   2.87166   2.87812
  Beta virt. eigenvalues --    2.88135   2.88567   2.88933   2.89037   2.89870
  Beta virt. eigenvalues --    2.90323   2.90649   2.90764   2.91556   2.92000
  Beta virt. eigenvalues --    2.92126   2.92432   2.92575   2.93566   2.93832
  Beta virt. eigenvalues --    2.94139   2.94557   2.94998   2.95189   2.95416
  Beta virt. eigenvalues --    2.95634   2.96009   2.96783   2.97429   2.97691
  Beta virt. eigenvalues --    2.97939   2.98273   2.98342   2.98789   2.99009
  Beta virt. eigenvalues --    2.99219   2.99450   3.00011   3.00213   3.00623
  Beta virt. eigenvalues --    3.00685   3.00889   3.01333   3.01646   3.02146
  Beta virt. eigenvalues --    3.02545   3.03125   3.03611   3.03845   3.04228
  Beta virt. eigenvalues --    3.04347   3.04477   3.04908   3.05635   3.05686
  Beta virt. eigenvalues --    3.05849   3.06505   3.06650   3.07037   3.07433
  Beta virt. eigenvalues --    3.08130   3.08306   3.08354   3.08665   3.08845
  Beta virt. eigenvalues --    3.09685   3.09891   3.10072   3.10278   3.10743
  Beta virt. eigenvalues --    3.11084   3.11629   3.11963   3.12275   3.12493
  Beta virt. eigenvalues --    3.12845   3.13133   3.13283   3.13791   3.14080
  Beta virt. eigenvalues --    3.14230   3.14248   3.14802   3.15052   3.15106
  Beta virt. eigenvalues --    3.15395   3.15696   3.16033   3.16362   3.17007
  Beta virt. eigenvalues --    3.17109   3.17181   3.17394   3.18045   3.18117
  Beta virt. eigenvalues --    3.18783   3.18856   3.19045   3.19510   3.20032
  Beta virt. eigenvalues --    3.20446   3.20620   3.21058   3.21248   3.21383
  Beta virt. eigenvalues --    3.21718   3.22113   3.22438   3.22620   3.22703
  Beta virt. eigenvalues --    3.22819   3.23276   3.23667   3.23724   3.23974
  Beta virt. eigenvalues --    3.24275   3.24658   3.24841   3.25109   3.25285
  Beta virt. eigenvalues --    3.25457   3.25820   3.26294   3.26421   3.26784
  Beta virt. eigenvalues --    3.26981   3.27341   3.27512   3.27799   3.27998
  Beta virt. eigenvalues --    3.28184   3.28556   3.28973   3.29499   3.29803
  Beta virt. eigenvalues --    3.30411   3.30488   3.30775   3.31071   3.31641
  Beta virt. eigenvalues --    3.31880   3.32151   3.32436   3.32668   3.33598
  Beta virt. eigenvalues --    3.34083   3.34650   3.34719   3.35786   3.35974
  Beta virt. eigenvalues --    3.36333   3.36548   3.37016   3.37323   3.37675
  Beta virt. eigenvalues --    3.38166   3.38924   3.39170   3.39806   3.40425
  Beta virt. eigenvalues --    3.40722   3.40769   3.41482   3.41748   3.42031
  Beta virt. eigenvalues --    3.42576   3.43462   3.44048   3.44121   3.44780
  Beta virt. eigenvalues --    3.45049   3.46040   3.46909   3.47258   3.47443
  Beta virt. eigenvalues --    3.47807   3.48490   3.48665   3.48933   3.49467
  Beta virt. eigenvalues --    3.49760   3.50626   3.51160   3.51652   3.51833
  Beta virt. eigenvalues --    3.52310   3.52974   3.53648   3.53918   3.54317
  Beta virt. eigenvalues --    3.54721   3.55049   3.55829   3.56101   3.56440
  Beta virt. eigenvalues --    3.56915   3.57732   3.58117   3.58722   3.59748
  Beta virt. eigenvalues --    3.59840   3.60338   3.60427   3.60905   3.61090
  Beta virt. eigenvalues --    3.61441   3.61864   3.62200   3.62731   3.63118
  Beta virt. eigenvalues --    3.63472   3.64062   3.64653   3.64804   3.64936
  Beta virt. eigenvalues --    3.65106   3.65724   3.66123   3.67322   3.68192
  Beta virt. eigenvalues --    3.68275   3.68775   3.69467   3.70318   3.70685
  Beta virt. eigenvalues --    3.71335   3.71578   3.72327   3.72737   3.73754
  Beta virt. eigenvalues --    3.74224   3.74548   3.75703   3.76042   3.76293
  Beta virt. eigenvalues --    3.77107   3.77479   3.77946   3.78324   3.79088
  Beta virt. eigenvalues --    3.79346   3.79777   3.80759   3.81164   3.81844
  Beta virt. eigenvalues --    3.82226   3.82524   3.83178   3.83327   3.84439
  Beta virt. eigenvalues --    3.85089   3.85483   3.86557   3.87696   3.88415
  Beta virt. eigenvalues --    3.88447   3.88680   3.89840   3.90382   3.90757
  Beta virt. eigenvalues --    3.91159   3.91970   3.92234   3.92715   3.93159
  Beta virt. eigenvalues --    3.94023   3.94455   3.94702   3.95670   3.96353
  Beta virt. eigenvalues --    3.97472   3.97886   3.98828   3.99662   3.99694
  Beta virt. eigenvalues --    4.00472   4.01164   4.02118   4.02519   4.02916
  Beta virt. eigenvalues --    4.04198   4.04862   4.05371   4.05759   4.06097
  Beta virt. eigenvalues --    4.06638   4.06911   4.08160   4.08308   4.08988
  Beta virt. eigenvalues --    4.09632   4.09678   4.10141   4.10351   4.12093
  Beta virt. eigenvalues --    4.12291   4.12969   4.13882   4.14037   4.14875
[...]
  1083. RY*(  24) C  51                  0.00000     3.51515   
  1084. RY*(  25) C  51                  0.00000     4.06233   
  1085. RY*(  26) C  51                  0.00000     3.91655   
  1086. RY*(   1) H  52                  0.00055     0.61051   
  1087. RY*(   2) H  52                  0.00011     2.17000   
  1088. RY*(   3) H  52                  0.00006     2.20845   
  1089. RY*(   4) H  52                  0.00005     2.68217   
  1090. RY*(   5) H  52                  0.00000     3.03118   
  1091. RY*(   1) C  53                  0.00113     1.18812   
  1092. RY*(   2) C  53                  0.00068     0.93807   
  1093. RY*(   3) C  53                  0.00043     0.49595   
  1094. RY*(   4) C  53                  0.00014     0.93056   
  1095. RY*(   5) C  53                  0.00007     0.97126   
  1096. RY*(   6) C  53                  0.00002     1.38819   
  1097. RY*(   7) C  53                  0.00002     1.36371   
  1098. RY*(   8) C  53                  0.00000     1.13638   
  1099. RY*(   9) C  53                  0.00000     1.54058   
  1100. RY*(  10) C  53                  0.00000     2.20694   
  1101. RY*(  11) C  53                  0.00000     3.11331   
  1102. RY*(  12) C  53                  0.00000     1.34072   
  1103. RY*(  13) C  53                  0.00000     2.76073   
  1104. RY*(  14) C  53                  0.00000    21.07933   
  1105. RY*(  15) C  53                  0.00000     3.03889   
  1106. RY*(  16) C  53                  0.00000     1.82793   
  1107. RY*(  17) C  53                  0.00000     3.03990   
  1108. RY*(  18) C  53                  0.00000     1.33642   
  1109. RY*(  19) C  53                  0.00000     2.90134   
  1110. RY*(  20) C  53                  0.00000     3.26593   
  1111. RY*(  21) C  53                  0.00000     3.46019   
  1112. RY*(  22) C  53                  0.00000     3.04483   
  1113. RY*(  23) C  53                  0.00000     3.41199   
  1114. RY*(  24) C  53                  0.00000     3.30287   
  1115. RY*(  25) C  53                  0.00000     3.87375   
  1116. RY*(  26) C  53                  0.00000     3.65043   
  1117. RY*(   1) H  54                  0.00031     1.00272   
  1118. RY*(   2) H  54                  0.00014     1.59996   
  1119. RY*(   3) H  54                  0.00009     2.09751   
  1120. RY*(   4) H  54                  0.00003     2.25749   
  1121. RY*(   5) H  54                  0.00001     3.02771   
  1122. RY*(   1) H  55                  0.00018     0.89711   
  1123. RY*(   2) H  55                  0.00015     1.53728   
  1124. RY*(   3) H  55                  0.00007     2.04161   
  1125. RY*(   4) H  55                  0.00003     2.38959   
  1126. RY*(   5) H  55                  0.00000     2.98569   
  1127. RY*(   1) C  56                  0.00060     1.01718   
  1128. RY*(   2) C  56                  0.00061     0.82139   
  1129. RY*(   3) C  56                  0.00039     1.55936   
  1130. RY*(   4) C  56                  0.00012     1.09239   
  1131. RY*(   5) C  56                  0.00006     1.10926   
  1132. RY*(   6) C  56                  0.00005     1.11859   
  1133. RY*(   7) C  56                  0.00001     1.51360   
  1134. RY*(   8) C  56                  0.00002     1.15425   
  1135. RY*(   9) C  56                  0.00002     2.79698   
  1136. RY*(  10) C  56                  0.00000    21.48235   
  1137. RY*(  11) C  56                  0.00000     3.28718   
  1138. RY*(  12) C  56                  0.00000     1.43932   
  1139. RY*(  13) C  56                  0.00000     2.86990   
  1140. RY*(  14) C  56                  0.00001     1.67585   
  1141. RY*(  15) C  56                  0.00000     2.89613   
  1142. RY*(  16) C  56                  0.00000     1.52765   
  1143. RY*(  17) C  56                  0.00000     2.73045   
  1144. RY*(  18) C  56                  0.00001     1.55963   
  1145. RY*(  19) C  56                  0.00000     2.83843   
  1146. RY*(  20) C  56                  0.00000     3.18200   
  1147. RY*(  21) C  56                  0.00000     3.70275   
  1148. RY*(  22) C  56                  0.00000     3.43113   
  1149. RY*(  23) C  56                  0.00000     3.48043   
  1150. RY*(  24) C  56                  0.00000     3.29868   
  1151. RY*(  25) C  56                  0.00000     3.52194   
  1152. RY*(  26) C  56                  0.00000     3.65210   
  1153. RY*(   1) H  57                  0.00031     0.79734   
  1154. RY*(   2) H  57                  0.00011     1.75077   
  1155. RY*(   3) H  57                  0.00004     2.11385   
  1156. RY*(   4) H  57                  0.00004     2.32587   
  1157. RY*(   5) H  57                  0.00001     2.93072   
  1158. RY*(   1) H  58                  0.00034     0.87140   
  1159. RY*(   2) H  58                  0.00011     1.66292   
  1160. RY*(   3) H  58                  0.00005     2.11745   
  1161. RY*(   4) H  58                  0.00003     2.29329   
  1162. RY*(   5) H  58                  0.00001     2.93694   
  1163. RY*(   1) H  59                  0.00031     0.78794   
  1164. RY*(   2) H  59                  0.00008     1.95856   
  1165. RY*(   3) H  59                  0.00005     2.10707   
  1166. RY*(   4) H  59                  0.00003     2.21113   
  1167. RY*(   5) H  59                  0.00000     2.94344   
  1168. RY*(   1) C  60                  0.00062     0.84110   
  1169. RY*(   2) C  60                  0.00060     0.98586   
  1170. RY*(   3) C  60                  0.00040     1.56473   
  1171. RY*(   4) C  60                  0.00012     1.10091   
  1172. RY*(   5) C  60                  0.00005     1.16315   
  1173. RY*(   6) C  60                  0.00005     1.12130   
  1174. RY*(   7) C  60                  0.00002     2.15705   
  1175. RY*(   8) C  60                  0.00001     1.50573   
  1176. RY*(   9) C  60                  0.00001     1.48778   
  1177. RY*(  10) C  60                  0.00001     2.31345   
  1178. RY*(  11) C  60                  0.00000     3.05847   
  1179. RY*(  12) C  60                  0.00000     1.32721   
  1180. RY*(  13) C  60                  0.00000     2.84365   
  1181. RY*(  14) C  60                  0.00000     1.51931   
  1182. RY*(  15) C  60                  0.00000     2.96738   
  1183. RY*(  16) C  60                  0.00000    21.46575   
  1184. RY*(  17) C  60                  0.00001     2.70245   
  1185. RY*(  18) C  60                  0.00001     1.56499   
  1186. RY*(  19) C  60                  0.00000     2.85164   
  1187. RY*(  20) C  60                  0.00000     3.30954   
  1188. RY*(  21) C  60                  0.00000     3.59085   
  1189. RY*(  22) C  60                  0.00000     3.33588   
  1190. RY*(  23) C  60                  0.00000     3.48161   
  1191. RY*(  24) C  60                  0.00000     3.38054   
  1192. RY*(  25) C  60                  0.00000     3.64444   
  1193. RY*(  26) C  60                  0.00000     3.48997   
  1194. RY*(   1) H  61                  0.00031     0.78368   
  1195. RY*(   2) H  61                  0.00008     1.96376   
  1196. RY*(   3) H  61                  0.00005     2.10485   
  1197. RY*(   4) H  61                  0.00004     2.21456   
  1198. RY*(   5) H  61                  0.00000     2.94779   
  1199. RY*(   1) H  62                  0.00034     0.86049   
  1200. RY*(   2) H  62                  0.00011     1.66995   
  1201. RY*(   3) H  62                  0.00005     2.11657   
  1202. RY*(   4) H  62                  0.00003     2.29712   
  1203. RY*(   5) H  62                  0.00001     2.93759   
  1204. RY*(   1) H  63                  0.00031     0.82110   
  1205. RY*(   2) H  63                  0.00011     1.72349   
  1206. RY*(   3) H  63                  0.00005     2.12410   
  1207. RY*(   4) H  63                  0.00003     2.31729   
  1208. RY*(   5) H  63                  0.00001     2.93178   
  1396. BD*(   1) N   2 - C   6          0.01318     0.38838   
  1397. BD*(   2) N   2 - C   6          0.31728    -0.10680  1443(v),1411(v),1416(v)
                                                    291(g),152(r),185(g),1403(r)
                                                    705(v),290(g),147(r),1395(r)
                                                    1484(r),1487(r)
  1398. BD*(   1) N   2 - C   9          0.01349     0.38332   
  1399. BD*(   1) N   3 - C  10          0.01341     0.38036   
  1400. BD*(   2) N   3 - C  10          0.33715    -0.11594  1416(v),1420(v),1425(v)
                                                    395(g),151(r),213(g),147(r)
                                                    152(r),736(v),1406(r),148(r)
                                                    393(g),1487(r)
  1401. BD*(   1) N   3 - C  13          0.01291     0.38398   
  1402. BD*(   1) N   4 - C  14          0.01376     0.38364   
  1403. BD*(   2) N   4 - C  14          0.32813    -0.10799  1425(v),1429(v),1434(v)
                                                    499(g),152(r),237(g),1397(r)
                                                    768(v),1395(r),170(r),149(r)
  1404. BD*(   1) N   4 - C  17          0.01306     0.38839   
  1405. BD*(   1) N   5 - C  18          0.01337     0.38091   
  1406. BD*(   2) N   5 - C  18          0.33756    -0.11551  1434(v),1438(v),1443(v)
                                                    603(g),151(r),265(g),147(r)
                                                    798(v),1400(r),152(r),148(r)
                                                    601(g),1487(r)
  1407. BD*(   1) N   5 - C  21          0.01318     0.38329   
  1408. BD*(   1) C   6 - C   7          0.01724     0.38314   
  1409. BD*(   1) C   6 - C  22          0.01013     0.46442   
  1410. BD*(   1) C   7 - C   8          0.01151     0.50597   
  1411. BD*(   2) C   7 - C   8          0.11499    -0.03253  1416(v),1397(v),1451(v)
                                                    1450(v),1448(v),1452(v)
  1412. BD*(   1) C   7 - C  34          0.00806     0.31951   
  1413. BD*(   1) C   8 - C   9          0.01765     0.38183   
  1414. BD*(   1) C   8 - C  30          0.00809     0.31859   
  1415. BD*(   1) C   9 - C  24          0.01019     0.46456   
  1416. BD*(   2) C   9 - C  24          0.19551    -0.06613  1400(v),1411(v),1397(v)
                                                    736(g),1443(r),1425(r)
                                                    371(g),152(r),1395(r)
  1417. BD*(   1) C  10 - C  11          0.01703     0.38795   
  1418. BD*(   1) C  10 - C  24          0.01047     0.45836   
  1419. BD*(   1) C  11 - C  12          0.01122     0.48466   
  1420. BD*(   2) C  11 - C  12          0.13722    -0.04044  1459(v),1425(v),1400(v)
                                                    1455(v),1454(v),1457(v)
  1421. BD*(   1) C  11 - C  38          0.00780     0.31513   
  1422. BD*(   1) C  12 - C  13          0.01863     0.37735   
  1423. BD*(   1) C  12 - C  42          0.01321     0.39238   
  1424. BD*(   1) C  13 - C  26          0.01008     0.46602   
  1425. BD*(   2) C  13 - C  26          0.19214    -0.06306  1403(v),1420(v),1400(v)
                                                    768(g),1416(r),1434(r)
                                                    475(g),1459(r),152(r)
  1426. BD*(   1) C  14 - C  15          0.01677     0.39085   
  1427. BD*(   1) C  14 - C  26          0.01047     0.46367   
  1428. BD*(   1) C  15 - C  16          0.01269     0.48946   
  1429. BD*(   2) C  15 - C  16          0.13592    -0.03656  1467(v),1434(v),1403(v)
                                                    1462(v)
  1430. BD*(   1) C  15 - C  47          0.00767     0.32208   
  1431. BD*(   1) C  16 - C  17          0.01713     0.37938   
  1432. BD*(   1) C  16 - C  51          0.01333     0.39943   
  1433. BD*(   1) C  17 - C  28          0.01032     0.46090   
  1434. BD*(   2) C  17 - C  28          0.20604    -0.06805  1406(v),1429(v),1403(v)
                                                    798(g),1443(r),1425(r)
                                                    579(g),152(r),1395(r)
  1435. BD*(   1) C  18 - C  19          0.01753     0.38011   
  1436. BD*(   1) C  18 - C  28          0.01046     0.46239   
  1437. BD*(   1) C  19 - C  20          0.01153     0.49975   
  1438. BD*(   2) C  19 - C  20          0.12018    -0.03666  1443(v),1406(v),1471(v)
                                                    1474(v),1475(v),1470(v)
  1439. BD*(   1) C  19 - C  56          0.00808     0.31469   
  1440. BD*(   1) C  20 - C  21          0.01715     0.38071   
  1441. BD*(   1) C  20 - C  60          0.00802     0.31589   
  1442. BD*(   1) C  21 - C  22          0.01015     0.46425   
  1443. BD*(   2) C  21 - C  22          0.19584    -0.06464  1397(v),1438(v),1406(v)
                                                    705(g),1416(r),1434(r)
                                                    683(g),152(r)
  1444. BD*(   1) C  22 - H  23          0.00604     0.32573   
  1445. BD*(   1) C  24 - H  25          0.00621     0.32668   
  1446. BD*(   1) C  26 - H  27          0.00715     0.33273   
  1447. BD*(   1) C  28 - H  29          0.00635     0.32707   
  1448. BD*(   1) C  30 - H  31          0.00463     0.29019   
  1449. BD*(   1) C  30 - H  32          0.00301     0.30525   
  1450. BD*(   1) C  30 - H  33          0.00466     0.29317   
  1451. BD*(   1) C  34 - H  35          0.00471     0.29134   
  1452. BD*(   1) C  34 - H  36          0.00452     0.29413   
  1453. BD*(   1) C  34 - H  37          0.00299     0.30552   
  1454. BD*(   1) C  38 - H  39          0.00429     0.28841   
  1455. BD*(   1) C  38 - H  40          0.00459     0.28857   
  1456. BD*(   1) C  38 - H  41          0.00268     0.30236   
  1457. BD*(   1) C  42 - H  43          0.01031     0.33124   
  1458. BD*(   1) C  42 - C  44          0.00343     0.53112   
  1459. BD*(   2) C  42 - C  44          0.02563    -0.02588   
  1460. BD*(   1) C  44 - H  45          0.00549     0.34187   
  1461. BD*(   1) C  44 - H  46          0.00407     0.35037   
  1462. BD*(   1) C  47 - H  48          0.00542     0.29124   
  1463. BD*(   1) C  47 - H  49          0.00432     0.30100   
  1464. BD*(   1) C  47 - H  50          0.00371     0.30811   
  1465. BD*(   1) C  51 - H  52          0.01031     0.33369   
  1466. BD*(   1) C  51 - C  53          0.00366     0.54372   
  1467. BD*(   2) C  51 - C  53          0.03039    -0.03030   
  1468. BD*(   1) C  53 - H  54          0.00515     0.34939   
  1469. BD*(   1) C  53 - H  55          0.00387     0.35412   
  1470. BD*(   1) C  56 - H  57          0.00419     0.28775   
  1471. BD*(   1) C  56 - H  58          0.00475     0.28882   
  1472. BD*(   1) C  56 - H  59          0.00300     0.30116   
  1473. BD*(   1) C  60 - H  61          0.00299     0.30166   
  1474. BD*(   1) C  60 - H  62          0.00466     0.28974   
  1475. BD*(   1) C  60 - H  63          0.00423     0.28980   
       -------------------------------
              Total Lewis  114.63052  ( 97.0373%)
        Valence non-Lewis    3.26831  (  2.7667%)
        Rydberg non-Lewis    0.23154  (  0.1960%)
       -------------------------------
            Total unit  2  118.13037  (100.0000%)
           Charge unit  2   -0.13037
 Unable to Open any file for archive entry.
 1\1\GINC-BGN1008\SP\UAPFD\def2TZVP\C34H34Fe1N6(1+,2)\BECSLEIP\22-Aug-2
 024\0\\# apfd/def2TZVP guess=read scf=maxcycle=999 geom=check pop=nbo\
 \2cmn_III_D\\1,2\Fe,0,48.0288238003,55.7182333773,33.7360994975\N,0,47
 .3536714344,54.5521263498,32.2645498258\N,0,49.9105941529,55.446711443
 1,33.0906027969\N,0,48.7449288569,56.5405990584,35.4021839031\N,0,46.1
 999964633,55.6539357649,34.5636506199\C,0,46.1195446997,53.9871783655,
 32.1409925329\C,0,46.0760661612,53.069110108,31.0259856054\C,0,47.3155
 343133,53.0873461334,30.4689872135\C,0,48.1013811009,54.0087974114,31.
 2592615877\C,0,50.2707155931,54.9636877977,31.8679125919\C,0,51.668263
 6195,55.1899284052,31.6159361975\C,0,52.1680377131,55.8054580543,32.73
 19049854\C,0,51.0509307546,55.9447308176,33.6435928807\C,0,50.05603208
 06,56.7180601265,35.7434202608\C,0,50.1791088702,57.2304867243,37.0826
 177196\C,0,48.9027632899,57.3794687581,37.5561958019\C,0,48.0271515256
 ,56.9364672755,36.4895723648\C,0,45.800155052,56.3283721665,35.6782803
 129\C,0,44.3654626494,56.2584204087,35.8367429443\C,0,43.9058378822,55
 .4962730201,34.8077354694\C,0,45.0644947619,55.1247986123,34.029049566
 4\C,0,45.0219930335,54.3054173469,32.9178726104\H,0,44.0728768211,53.8
 651766386,32.6530803014\C,0,49.4311233715,54.2799145726,31.0066604992\
 H,0,49.8664317861,53.8660115085,30.1097261641\C,0,51.1342796426,56.496
 7605962,34.9058615613\H,0,52.1167870725,56.7421618316,35.2773646121\C,
 0,46.6477993872,56.9313712851,36.5862781686\H,0,46.2045924577,57.37298
 26582,37.4657963643\C,0,47.8383563248,52.3253791865,29.2999869648\H,0,
 48.1898592932,53.0058617645,28.5237357297\H,0,47.0637208075,51.6924618
 839,28.8741624413\H,0,48.6737740383,51.6919766773,29.5985416985\C,0,44
 .8728931807,52.2829058451,30.6335111209\H,0,44.0560714328,52.948037207
 8,30.3514639476\H,0,44.5335451967,51.66355488,31.4637683999\H,0,45.093
 1987288,51.6344321304,29.7891097256\C,0,52.380756757,54.8208378637,30.
 360969491\H,0,51.9068624376,55.2898625138,29.498408858\H,0,52.35905034
 38,53.74059092,30.2108117927\H,0,53.4175410683,55.14515449,30.40043152
 07\C,0,53.5359243989,56.234653946,32.9468616334\H,0,54.29483118,55.564
 4034142,32.556911552\C,0,53.9146474298,57.3652794778,33.5312223649\H,0
 ,53.2042148371,58.0925114336,33.8862936414\H,0,54.9561693748,57.614324
 3847,33.6510827475\C,0,51.4663866657,57.4566931587,37.7949691742\H,0,5
 1.8936512249,58.4249864621,37.5283415425\H,0,52.1900738176,56.68590264
 33,37.5350749084\H,0,51.305729027,57.4372108223,38.8709967581\C,0,48.4
 552371304,57.8328483686,38.8549319453\H,0,47.5483414973,57.369314005,3
 9.225203962\C,0,49.0593700732,58.7533545079,39.5992888221\H,0,49.93718
 31522,59.2767791632,39.262336184\H,0,48.6796636362,59.0328348767,40.56
 80291896\C,0,43.6087116902,56.8989338476,36.9493447486\H,0,43.84070985
 43,57.9621873787,37.0115503898\H,0,43.8698246806,56.43998615,37.903547
 5221\H,0,42.5372530182,56.788658618,36.8011210626\C,0,42.5108426977,55
 .0811499438,34.488956129\H,0,41.8031223415,55.5472565502,35.1704102198
 \H,0,42.4055186184,53.999026981,34.5746481403\H,0,42.2493487224,55.366
 6562035,33.4700202623\C,0,47.6256451415,59.7557797128,29.9027527642\H,
 0,48.2658088967,60.6320550431,30.0026681807\H,0,46.6253149342,60.09340
 3686,29.632437303\H,0,48.0110184011,59.132885083,29.1018148083\N,0,47.
 141555993,59.511828772,32.3458265327\H,0,46.7984136498,60.4497075871,3
 2.4735729772\C,0,47.5942996357,58.9791192048,31.1677431845\C,0,47.2404
 79733,58.5541684894,33.2953460805\H,0,46.9559984168,58.6894446242,34.3
 195149628\N,0,47.728998951,57.443692141,32.7905024586\C,0,47.954466337
 ,57.6960962202,31.465696628\H,0,48.3582368848,56.9408251199,30.8221645
 69\\Version=ES64L-G16RevC.02\State=2-A\HF=-2907.4047513\S2=0.872623\S2
 -1=0.\S2A=0.754323\RMSD=1.439e-09\Dipole=-0.8566369,1.9516847,-1.28915
 66\Quadrupole=5.4103892,-5.9635845,0.5531953,1.0773061,-3.4727399,9.96
 98923\PG=C01 [X(C34H34Fe1N6)]\\@
 The archive entry for this job was punched.


 KEEP CLOSE TO NATURES HEART, YOURSELF;
 AND BREAK CLEAR AWAY, ONCE IN A WHILE, AND
 CLIMB A MOUNTAIN OR SPEND A WEEK IN THE
 WOODS.  WASH YOUR SPIRIT CLEAN...
                                         -- JOHN MUIR
 Job cpu time:       2 days  6 hours  3 minutes 29.2 seconds.
 Elapsed time:       0 days  0 hours 49 minutes 54.2 seconds.
 File lengths (MBytes):  RWF=   2047 Int=      0 D2E=      0 Chk=    186 Scr=      1
 Normal termination of Gaussian 16 at Thu Aug 22 08:10:51 2024.
