 Entering Gaussian System, Link 0=g16
 Input=2cp416re.com
 Output=2cp416re.log
 Initial command:
 /sw/chem/gaussian/g16_C02/a100/g16/l1.exe "/local/becsleip_7987947/Gau-187713.inp" -scrdir="/local/becsleip_7987947/"
 Entering Link 1 = /sw/chem/gaussian/g16_C02/a100/g16/l1.exe PID=    187714.
  
 Copyright (c) 1988-2021, Gaussian, Inc.  All Rights Reserved.
  
 This is part of the Gaussian(R) 16 program.  It is based on
 the Gaussian(R) 09 system (copyright 2009, Gaussian, Inc.),
 the Gaussian(R) 03 system (copyright 2003, Gaussian, Inc.),
 the Gaussian(R) 98 system (copyright 1998, Gaussian, Inc.),
 the Gaussian(R) 94 system (copyright 1995, Gaussian, Inc.),
 the Gaussian 92(TM) system (copyright 1992, Gaussian, Inc.),
 the Gaussian 90(TM) system (copyright 1990, Gaussian, Inc.),
 the Gaussian 88(TM) system (copyright 1988, Gaussian, Inc.),
 the Gaussian 86(TM) system (copyright 1986, Carnegie Mellon
 University), and the Gaussian 82(TM) system (copyright 1983,
 Carnegie Mellon University). Gaussian is a federally registered
 trademark of Gaussian, Inc.
  
 This software contains proprietary and confidential information,
 including trade secrets, belonging to Gaussian, Inc.
  
 This software is provided under written license and may be
 used, copied, transmitted, or stored only in accord with that
 written license.
  
 The following legend is applicable only to US Government
 contracts under FAR:
  
                    RESTRICTED RIGHTS LEGEND
  
 Use, reproduction and disclosure by the US Government is
 subject to restrictions as set forth in subparagraphs (a)
 and (c) of the Commercial Computer Software - Restricted
 Rights clause in FAR 52.227-19.
  
 Gaussian, Inc.
 340 Quinnipiac St., Bldg. 40, Wallingford CT 06492
  
  
 ---------------------------------------------------------------
 Warning -- This program may not be used in any manner that
 competes with the business of Gaussian, Inc. or will provide
 assistance to any competitor of Gaussian, Inc.  The licensee
 of this program is prohibited from giving any competitor of
 Gaussian, Inc. access to this program.  By using this program,
 the user acknowledges that Gaussian, Inc. is engaged in the
 business of creating and licensing software in the field of
 computational chemistry and represents and warrants to the
 licensee that it is not a competitor of Gaussian, Inc. and that
 it will not use this program in any manner prohibited above.
 ---------------------------------------------------------------
  

 Cite this work as:
 Gaussian 16, Revision C.02,
 M. J. Frisch, G. W. Trucks, H. B. Schlegel, G. E. Scuseria, 
 M. A. Robb, J. R. Cheeseman, G. Scalmani, V. Barone, 
 G. A. Petersson, H. Nakatsuji, X. Li, M. Caricato, A. V. Marenich, 
 J. Bloino, B. G. Janesko, R. Gomperts, B. Mennucci, H. P. Hratchian, 
 J. V. Ortiz, A. F. Izmaylov, J. L. Sonnenberg, D. Williams-Young, 
 F. Ding, F. Lipparini, F. Egidi, J. Goings, B. Peng, A. Petrone, 
 T. Henderson, D. Ranasinghe, V. G. Zakrzewski, J. Gao, N. Rega, 
 G. Zheng, W. Liang, M. Hada, M. Ehara, K. Toyota, R. Fukuda, 
 J. Hasegawa, M. Ishida, T. Nakajima, Y. Honda, O. Kitao, H. Nakai, 
 T. Vreven, K. Throssell, J. A. Montgomery, Jr., J. E. Peralta, 
 F. Ogliaro, M. J. Bearpark, J. J. Heyd, E. N. Brothers, K. N. Kudin, 
 V. N. Staroverov, T. A. Keith, R. Kobayashi, J. Normand, 
 K. Raghavachari, A. P. Rendell, J. C. Burant, S. S. Iyengar, 
 J. Tomasi, M. Cossi, J. M. Millam, M. Klene, C. Adamo, R. Cammi, 
 J. W. Ochterski, R. L. Martin, K. Morokuma, O. Farkas, 
 J. B. Foresman, and D. J. Fox, Gaussian, Inc., Wallingford CT, 2019.
 
 ******************************************
 Gaussian 16:  ES64L-G16RevC.02  7-Dec-2021
                22-Aug-2024 
 ******************************************
 %mem=16GB
 %CPU=0-71
 SetSPE:  set environment variable "OMP_PROC_BIND" = "true"
 SetSPE:  set environment variable "OMP_PLACES" = "{0},{1},{2},{3},{4},{5},{6},{7},{8},{9},{10},{11},{12},{13},{14},{15},{16},{17},{18},{19},{20},{21},{22},{23},{24},{25},{26},{27},{28},{29},{30},{31},{32},{33},{34},{35},{36},{37},{38},{39},{40},{41},{42},{43},{44},{45},{46},{47},{48},{49},{50},{51},{52},{53},{54},{55},{56},{57},{58},{59},{60},{61},{62},{63},{64},{65},{66},{67},{68},{69},{70},{71}"
 Will use up to   72 processors via shared memory.
 %gpucpu=0,1,2,3=0,1,2,3
 Will use    4 GPUs:
 Thread  CPU   GPU
      0    0     0
      1    1     1
      2    2     2
      3    3     3
      4    4    -1
      5    5    -1
      6    6    -1
      7    7    -1
      8    8    -1
      9    9    -1
     10   10    -1
     11   11    -1
     12   12    -1
     13   13    -1
     14   14    -1
     15   15    -1
     16   16    -1
     17   17    -1
     18   18    -1
     19   19    -1
     20   20    -1
     21   21    -1
     22   22    -1
     23   23    -1
     24   24    -1
     25   25    -1
     26   26    -1
     27   27    -1
     28   28    -1
     29   29    -1
     30   30    -1
     31   31    -1
     32   32    -1
     33   33    -1
     34   34    -1
     35   35    -1
     36   36    -1
     37   37    -1
     38   38    -1
     39   39    -1
     40   40    -1
     41   41    -1
     42   42    -1
     43   43    -1
     44   44    -1
     45   45    -1
     46   46    -1
     47   47    -1
     48   48    -1
     49   49    -1
     50   50    -1
     51   51    -1
     52   52    -1
     53   53    -1
     54   54    -1
     55   55    -1
     56   56    -1
     57   57    -1
     58   58    -1
     59   59    -1
     60   60    -1
     61   61    -1
     62   62    -1
     63   63    -1
     64   64    -1
     65   65    -1
     66   66    -1
     67   67    -1
     68   68    -1
     69   69    -1
     70   70    -1
     71   71    -1
 SetGPE:  set environment variable "OMP_PROC_BIND" = "true"
 SetGPE:  set environment variable "OMP_PLACES" = "{0},{1},{2},{3},{4},{5},{6},{7},{8},{9},{10},{11},{12},{13},{14},{15},{16},{17},{18},{19},{20},{21},{22},{23},{24},{25},{26},{27},{28},{29},{30},{31},{32},{33},{34},{35},{36},{37},{38},{39},{40},{41},{42},{43},{44},{45},{46},{47},{48},{49},{50},{51},{52},{53},{54},{55},{56},{57},{58},{59},{60},{61},{62},{63},{64},{65},{66},{67},{68},{69},{70},{71}"
 %oldchk=2cp4_III_D.chk
 %chk=2cp4_III_Dre.chk
 Properties for Device   0
 Minimum vector length:                              32
 Maximum vector length:                            1024
 Number of SMPs:                                    108
 Maximum number of threads per SMP:                2048
 Number of ASync Engines:                             5
 Memory:                                           9207742464
 Properties for Device   1
 Minimum vector length:                              32
 Maximum vector length:                            1024
 Number of SMPs:                                    108
 Maximum number of threads per SMP:                2048
 Number of ASync Engines:                             5
 Memory:                                           9207742464
 Properties for Device   2
 Minimum vector length:                              32
 Maximum vector length:                            1024
 Number of SMPs:                                    108
 Maximum number of threads per SMP:                2048
 Number of ASync Engines:                             5
 Memory:                                           9207742464
 Properties for Device   3
 Minimum vector length:                              32
 Maximum vector length:                            1024
 Number of SMPs:                                    108
 Maximum number of threads per SMP:                2048
 Number of ASync Engines:                             5
 Memory:                                           9207742464
   8286968217 words of memory will be used on each GPU.
 Copying data from "2cp4_III_D.chk" to current chk file "2cp4_III_Dre.chk"
 IOpt=  2 FromEx=T IUOpen= 4 IOptOp= 5 NList=   0 IFRang= 0 IUIn= 4 IUOut= 2.
 --------------------------------------
 # apfd/gen scf=maxcycle=999 geom=check
 --------------------------------------
 1/29=2,38=1,172=1/1;
 2/12=2,40=1/2;
 3/5=7,11=2,14=-4,25=1,30=1,74=-44/1,2,3;
 4//1;
 5/5=2,7=999,38=5/2;
 6/7=2,8=2,9=2,10=2,28=1/1;
 99/5=1,9=1/99;
 ----------
 2cp4_III_H
 ----------
 Structure from the checkpoint file:  "2cp4_III_Dre.chk"
 Charge =  1 Multiplicity = 6
 Z-Matrix found in chk file.
 Fe,0,48.4588047307,46.2221491187,9.1210179491
 N,0,47.7385192463,44.353677502,9.1919032413
 N,0,50.2814876987,45.4804862209,9.6777642974
 N,0,49.1214192352,48.0572761797,9.6513427325
 N,0,46.5566251616,46.9105111417,9.3193386379
 C,0,46.4593801439,43.9776800261,8.9085712736
 C,0,46.3522298218,42.5397255152,8.8099375284
 C,0,47.6048161779,42.04895712,9.0082529958
 C,0,48.4638728642,43.1961030755,9.2022614079
 C,0,50.6862365147,44.1874105052,9.5033995074
 C,0,52.1176204902,44.0815751702,9.4430009014
 C,0,52.5954665395,45.3643293709,9.5108993801
 C,0,51.4323236383,46.2166755789,9.6265382105
 C,0,50.4245232993,48.4568369194,9.6100803056
 C,0,50.53520287,49.891371862,9.5720289776
 C,0,49.2545612572,50.3715682084,9.5983157532
 C,0,48.3897549048,49.206669679,9.6409089752
 C,0,46.1699599203,48.2151935836,9.3116599355
 C,0,44.7419783499,48.3347164263,9.1251601694
 C,0,44.2791994162,47.0706896102,8.9281810473
 C,0,45.4333105127,46.2035957358,8.9988086734
 C,0,45.3806854935,44.8365897142,8.8064372545
 H,0,44.4217920386,44.4037611983,8.5659264561
 C,0,49.8264214272,43.1048643448,9.397694467
 H,0,50.2677938604,42.1212911103,9.3456486716
 C,0,51.5056657561,47.5970988902,9.6551217139
 H,0,52.4899110277,48.0388585168,9.6234390177
 C,0,47.0142079985,49.2865851993,9.5297183019
 H,0,46.5707267339,50.2702264713,9.5362118028
 C,0,48.0747594614,40.6357299387,9.0244617233
 H,0,47.2433179908,39.9508757557,8.8786218083
 H,0,48.5483435938,40.402550521,9.9778583082
 H,0,48.8045699286,40.4629541935,8.2326992734
 C,0,45.0803182692,41.8093614063,8.5510411888
 H,0,44.6391944878,42.1295408232,7.606814075
 H,0,44.3597231415,42.0051434743,9.3450441426
 H,0,45.2531830891,40.7372444791,8.5024812737
 C,0,52.8836393552,42.8079640747,9.3697018616
 H,0,52.4173778894,42.0424985095,9.98833019
 H,0,53.9018989481,42.9663336035,9.7192435747
 H,0,52.9253835835,42.435244802,8.3446266034
 C,0,53.9654392016,45.8299865541,9.494150438
 H,0,54.172624022,46.6982165102,10.1084210205
 C,0,54.9528074133,45.2817752242,8.7942990477
 H,0,54.7928028356,44.4470425342,8.1340584924
 H,0,55.9567320794,45.6696417596,8.8384397618
 C,0,51.8112947862,50.6457987998,9.446926284
 H,0,52.4938942487,50.1356581409,8.7688354878
 H,0,52.3036415062,50.7396867517,10.4159748103
 H,0,51.6172933266,51.6442477327,9.0616380517
 C,0,48.7968025696,51.7448434532,9.5700958652
 H,0,47.8707015021,51.9225249595,9.036668993
 C,0,49.4167729775,52.769613672,10.1439733808
 H,0,50.3134551471,52.6443100266,10.7249904483
 H,0,49.0294985698,53.772377285,10.0739220287
 C,0,43.9970508481,49.6236910329,9.1469128365
 H,0,44.3461208905,50.27972865,8.3491703316
 H,0,44.1477900339,50.1359544785,10.0970569104
 H,0,42.9313318297,49.4571629216,9.011763184
 C,0,42.8882469616,46.6014367507,8.6760247034
 H,0,42.8142118445,46.1253775154,7.6977623779
 H,0,42.1894362826,47.4335039215,8.7048031003
 H,0,42.5881812805,45.8741032585,9.430209476
 C,0,47.8608715898,45.1171726711,5.9785508747
 H,0,48.139631382,45.1289345209,4.9295349049
 H,0,46.8142680622,45.3789834851,6.093922889
 H,0,48.0487842357,44.1465670191,6.4242458682
 S,0,48.8177234627,46.4053505954,6.8668334721
 H,0,50.0023842429,45.8043941993,6.6743213518
 Recover connectivity data from disk.
 Stoichiometry    C31H32FeN4S(1+,6)
 Framework group  C1[X(C31H32FeN4S)]
 Deg. of freedom   201
 Full point group                 C1      NOp   1
 Largest Abelian subgroup         C1      NOp   1
 Largest concise Abelian subgroup C1      NOp   1
                         Standard orientation:                         
 ---------------------------------------------------------------------
 Center     Atomic      Atomic             Coordinates (Angstroms)
 Number     Number       Type             X           Y           Z
 ---------------------------------------------------------------------
      1         26           0       -0.090862   -0.132486   -0.116308
      2          7           0       -2.020807   -0.586635   -0.406279
      3          7           0       -0.531575    1.804107   -0.603734
      4          7           0        1.857885    0.305158   -0.430709
      5          7           0        0.361278   -2.095244   -0.389455
      6          6           0       -2.585483   -1.817462   -0.251186
      7          6           0       -4.027862   -1.733926   -0.289781
      8          6           0       -4.330203   -0.416663   -0.439991
      9          6           0       -3.067904    0.288600   -0.467711
     10          6           0       -1.772107    2.369645   -0.517038
     11          6           0       -1.696937    3.795925   -0.362821
     12          6           0       -0.362665    4.098225   -0.280742
     13          6           0        0.338930    2.839076   -0.403527
     14          6           0        2.416967    1.537048   -0.259522
     15          6           0        3.842975    1.449284   -0.085203
     16          6           0        4.153357    0.119160   -0.161080
     17          6           0        2.896086   -0.575210   -0.370392
     18          6           0        1.597688   -2.655376   -0.292970
     19          6           0        1.512162   -4.094933   -0.200460
     20          6           0        0.185615   -4.392606   -0.151549
     21          6           0       -0.513367   -3.129233   -0.215766
     22          6           0       -1.887902   -3.007029   -0.150942
     23          1           0       -2.462926   -3.910874   -0.020274
     24          6           0       -2.962074    1.660141   -0.571302
     25          1           0       -3.880443    2.227162   -0.575732
     26          6           0        1.713266    2.725731   -0.302951
     27          1           0        2.273597    3.637136   -0.160600
     28          6           0        2.785690   -1.953023   -0.352439
     29          1           0        3.699370   -2.524866   -0.302906
     30          6           0       -5.662076    0.241084   -0.548639
     31          1           0       -6.459926   -0.496806   -0.525355
     32          1           0       -5.736916    0.798185   -1.482265
     33          1           0       -5.815882    0.938878    0.275248
     34          6           0       -4.938838   -2.907987   -0.190181
     35          1           0       -4.773047   -3.444261    0.744482
     36          1           0       -4.760918   -3.599661   -1.013565
     37          1           0       -5.979032   -2.594256   -0.225459
     38          6           0       -2.861488    4.722134   -0.348602
     39          1           0       -3.616293    4.402099   -1.065459
     40          1           0       -2.538836    5.728511   -0.607858
     41          1           0       -3.324724    4.752692    0.639285
     42          6           0        0.272713    5.388729   -0.123140
     43          1           0        1.216684    5.512410   -0.640536
     44          6           0       -0.209090    6.397746    0.594476
     45          1           0       -1.118420    6.313418    1.163955
     46          1           0        0.308080    7.340476    0.658106
     47          6           0        4.740438    2.601219    0.199097
     48          1           0        4.258835    3.304976    0.876429
     49          1           0        4.992277    3.133366   -0.719419
     50          1           0        5.662503    2.250622    0.657204
     51          6           0        5.446207   -0.521827   -0.043196
     52          1           0        5.448971   -1.493743    0.435501
     53          6           0        6.594162   -0.013628   -0.476540
     54          1           0        6.643948    0.924927   -0.999949
     55          1           0        7.526460   -0.537068   -0.345186
     56          6           0        2.689531   -5.005458   -0.160572
     57          1           0        3.303547   -4.797169    0.715914
     58          1           0        3.308026   -4.869116   -1.047581
     59          1           0        2.373780   -6.044824   -0.118449
     60          6           0       -0.482499   -5.719468   -0.043878
     61          1           0       -1.058097   -5.786560    0.879862
     62          1           0        0.250725   -6.521877   -0.048558
     63          1           0       -1.164795   -5.872216   -0.879934
     64          6           0       -1.567922   -0.761777    2.862934
     65          1           0       -1.623439   -0.550511    3.926214
     66          1           0       -1.433909   -1.825447    2.695958
     67          1           0       -2.457359   -0.417368    2.346875
     68         16           0       -0.085458    0.062599    2.165280
     69          1           0       -0.543793    1.304264    2.388504
 ---------------------------------------------------------------------
 Rotational constants (GHZ):           0.1110938           0.1098519           0.0598120
 General basis read from cards:  (5D, 7F)
 There are   644 symmetry adapted cartesian basis functions of A   symmetry.
 There are   605 symmetry adapted basis functions of A   symmetry.
   605 basis functions,  1246 primitive gaussians,   644 cartesian basis functions
   146 alpha electrons      141 beta electrons
       nuclear repulsion energy      5032.3549044897 Hartrees.
 NAtoms=   69 NActive=   69 NUniq=   69 SFac= 1.00D+00 NAtFMM=   60 NAOKFM=T Big=T
 Integral buffers will be    131072 words long.
 Raffenetti 2 integral format.
 Two-electron integral symmetry is turned on.
 R6APFD:  NTU= -4 IXU= 1 FactS= 1.050
 Nuclear repulsion after empirical dispersion term =     5032.2240450592 Hartrees.
 One-electron integrals computed using PRISM.
 NBasis=   605 RedAO= T EigKep=  2.66D-04  NBF=   605
 NBsUse=   605 1.00D-06 EigRej= -1.00D+00 NBFU=   605
 ExpMin= 4.20D-02 ExpMax= 3.01D+05 ExpMxC= 3.30D+03 IAcc=3 IRadAn=         5 AccDes= 0.00D+00
 Harris functional with IExCor= 3731 and IRadAn=       5 diagonalized for initial guess.
 HarFok:  IExCor= 3731 AccDes= 0.00D+00 IRadAn=         5 IDoV= 1 UseB2=F ITyADJ=14
 ICtDFT=  3500011 ScaDFX=  1.000000  1.000000  1.000000  1.000000
 FoFCou: FMM=F IPFlag=           0 FMFlag=      100000 FMFlg1=        2001
         NFxFlg=           0 DoJE=T BraDBF=F KetDBF=T FulRan=T
         wScrn=  0.000000 ICntrl=       500 IOpCl=  0 I1Cent=   200000004 NGrid=           0
         NMat0=    1 NMatS0=      1 NMatT0=    0 NMatD0=    1 NMtDS0=    0 NMtDT0=    0
 Petite list used in FoFCou.
 Initial guess <Sx>= 0.0000 <Sy>= 0.0000 <Sz>= 2.5000 <S**2>= 8.7500 S= 2.5000
 Requested convergence on RMS density matrix=1.00D-08 within 999 cycles.
 Requested convergence on MAX density matrix=1.00D-06.
 Requested convergence on             energy=1.00D-06.
 No special actions if energy rises.
 EnCoef did   100 forward-backward iterations
 EnCoef did   100 forward-backward iterations
 EnCoef did   100 forward-backward iterations
 EnCoef did   100 forward-backward iterations
 EnCoef did   100 forward-backward iterations
 EnCoef did     2 forward-backward iterations
 Restarting incremental Fock formation.
 SCF Done:  E(UAPFD) =  -3080.03541992     A.U. after   32 cycles
            NFock= 32  Conv=0.77D-08     -V/T= 2.0031
 <Sx>= 0.0000 <Sy>= 0.0000 <Sz>= 2.5000 <S**2>= 8.7633 S= 2.5022
 <L.S>=  0.00000000000    
 Annihilation of the first spin contaminant:
 S**2 before annihilation     8.7633,   after     8.7501

 **********************************************************************

            Population analysis using the SCF Density.

 **********************************************************************

 Orbital symmetries:
 Alpha Orbitals:
       Occupied  (A) (A) (A) (A) (A) (A) (A) (A) (A) (A) (A) (A)
                 (A) (A) (A) (A) (A) (A) (A) (A) (A) (A) (A) (A)
                 (A) (A) (A) (A) (A) (A) (A) (A) (A) (A) (A) (A)
                 (A) (A) (A) (A) (A) (A) (A) (A) (A) (A) (A) (A)
                 (A) (A) (A) (A) (A) (A) (A) (A) (A) (A) (A) (A)
                 (A) (A) (A) (A) (A) (A) (A) (A) (A) (A) (A) (A)
                 (A) (A) (A) (A) (A) (A) (A) (A) (A) (A) (A) (A)
                 (A) (A) (A) (A) (A) (A) (A) (A) (A) (A) (A) (A)
                 (A) (A) (A) (A) (A) (A) (A) (A) (A) (A) (A) (A)
                 (A) (A) (A) (A) (A) (A) (A) (A) (A) (A) (A) (A)
                 (A) (A) (A) (A) (A) (A) (A) (A) (A) (A) (A) (A)
                 (A) (A) (A) (A) (A) (A) (A) (A) (A) (A) (A) (A)
                 (A) (A)
       Virtual   (A) (A) (A) (A) (A) (A) (A) (A) (A) (A) (A) (A)
                 (A) (A) (A) (A) (A) (A) (A) (A) (A) (A) (A) (A)
                 (A) (A) (A) (A) (A) (A) (A) (A) (A) (A) (A) (A)
                 (A) (A) (A) (A) (A) (A) (A) (A) (A) (A) (A) (A)
                 (A) (A) (A) (A) (A) (A) (A) (A) (A) (A) (A) (A)
                 (A) (A) (A) (A) (A) (A) (A) (A) (A) (A) (A) (A)
                 (A) (A) (A) (A) (A) (A) (A) (A) (A) (A) (A) (A)
                 (A) (A) (A) (A) (A) (A) (A) (A) (A) (A) (A) (A)
                 (A) (A) (A) (A) (A) (A) (A) (A) (A) (A) (A) (A)
                 (A) (A) (A) (A) (A) (A) (A) (A) (A) (A) (A) (A)
                 (A) (A) (A) (A) (A) (A) (A) (A) (A) (A) (A) (A)
                 (A) (A) (A) (A) (A) (A) (A) (A) (A) (A) (A) (A)
                 (A) (A) (A) (A) (A) (A) (A) (A) (A) (A) (A) (A)
                 (A) (A) (A) (A) (A) (A) (A) (A) (A) (A) (A) (A)
                 (A) (A) (A) (A) (A) (A) (A) (A) (A) (A) (A) (A)
                 (A) (A) (A) (A) (A) (A) (A) (A) (A) (A) (A) (A)
                 (A) (A) (A) (A) (A) (A) (A) (A) (A) (A) (A) (A)
                 (A) (A) (A) (A) (A) (A) (A) (A) (A) (A) (A) (A)
                 (A) (A) (A) (A) (A) (A) (A) (A) (A) (A) (A) (A)
                 (A) (A) (A) (A) (A) (A) (A) (A) (A) (A) (A) (A)
                 (A) (A) (A) (A) (A) (A) (A) (A) (A) (A) (A) (A)
                 (A) (A) (A) (A) (A) (A) (A) (A) (A) (A) (A) (A)
                 (A) (A) (A) (A) (A) (A) (A) (A) (A) (A) (A) (A)
                 (A) (A) (A) (A) (A) (A) (A) (A) (A) (A) (A) (A)
                 (A) (A) (A) (A) (A) (A) (A) (A) (A) (A) (A) (A)
                 (A) (A) (A) (A) (A) (A) (A) (A) (A) (A) (A) (A)
                 (A) (A) (A) (A) (A) (A) (A) (A) (A) (A) (A) (A)
                 (A) (A) (A) (A) (A) (A) (A) (A) (A) (A) (A) (A)
                 (A) (A) (A) (A) (A) (A) (A) (A) (A) (A) (A) (A)
                 (A) (A) (A) (A) (A) (A) (A) (A) (A) (A) (A) (A)
                 (A) (A) (A) (A) (A) (A) (A) (A) (A) (A) (A) (A)
                 (A) (A) (A) (A) (A) (A) (A) (A) (A) (A) (A) (A)
                 (A) (A) (A) (A) (A) (A) (A) (A) (A) (A) (A) (A)
                 (A) (A) (A) (A) (A) (A) (A) (A) (A) (A) (A) (A)
                 (A) (A) (A) (A) (A) (A) (A) (A) (A) (A) (A) (A)
                 (A) (A) (A) (A) (A) (A) (A) (A) (A) (A) (A) (A)
                 (A) (A) (A) (A) (A) (A) (A) (A) (A) (A) (A) (A)
                 (A) (A) (A) (A) (A) (A) (A) (A) (A) (A) (A) (A)
                 (A) (A) (A)
 Beta  Orbitals:
       Occupied  (A) (A) (A) (A) (A) (A) (A) (A) (A) (A) (A) (A)
                 (A) (A) (A) (A) (A) (A) (A) (A) (A) (A) (A) (A)
                 (A) (A) (A) (A) (A) (A) (A) (A) (A) (A) (A) (A)
                 (A) (A) (A) (A) (A) (A) (A) (A) (A) (A) (A) (A)
                 (A) (A) (A) (A) (A) (A) (A) (A) (A) (A) (A) (A)
                 (A) (A) (A) (A) (A) (A) (A) (A) (A) (A) (A) (A)
                 (A) (A) (A) (A) (A) (A) (A) (A) (A) (A) (A) (A)
                 (A) (A) (A) (A) (A) (A) (A) (A) (A) (A) (A) (A)
                 (A) (A) (A) (A) (A) (A) (A) (A) (A) (A) (A) (A)
                 (A) (A) (A) (A) (A) (A) (A) (A) (A) (A) (A) (A)
                 (A) (A) (A) (A) (A) (A) (A) (A) (A) (A) (A) (A)
                 (A) (A) (A) (A) (A) (A) (A) (A) (A)
       Virtual   (A) (A) (A) (A) (A) (A) (A) (A) (A) (A) (A) (A)
                 (A) (A) (A) (A) (A) (A) (A) (A) (A) (A) (A) (A)
                 (A) (A) (A) (A) (A) (A) (A) (A) (A) (A) (A) (A)
                 (A) (A) (A) (A) (A) (A) (A) (A) (A) (A) (A) (A)
                 (A) (A) (A) (A) (A) (A) (A) (A) (A) (A) (A) (A)
                 (A) (A) (A) (A) (A) (A) (A) (A) (A) (A) (A) (A)
                 (A) (A) (A) (A) (A) (A) (A) (A) (A) (A) (A) (A)
                 (A) (A) (A) (A) (A) (A) (A) (A) (A) (A) (A) (A)
                 (A) (A) (A) (A) (A) (A) (A) (A) (A) (A) (A) (A)
                 (A) (A) (A) (A) (A) (A) (A) (A) (A) (A) (A) (A)
                 (A) (A) (A) (A) (A) (A) (A) (A) (A) (A) (A) (A)
                 (A) (A) (A) (A) (A) (A) (A) (A) (A) (A) (A) (A)
                 (A) (A) (A) (A) (A) (A) (A) (A) (A) (A) (A) (A)
                 (A) (A) (A) (A) (A) (A) (A) (A) (A) (A) (A) (A)
                 (A) (A) (A) (A) (A) (A) (A) (A) (A) (A) (A) (A)
                 (A) (A) (A) (A) (A) (A) (A) (A) (A) (A) (A) (A)
                 (A) (A) (A) (A) (A) (A) (A) (A) (A) (A) (A) (A)
                 (A) (A) (A) (A) (A) (A) (A) (A) (A) (A) (A) (A)
                 (A) (A) (A) (A) (A) (A) (A) (A) (A) (A) (A) (A)
                 (A) (A) (A) (A) (A) (A) (A) (A) (A) (A) (A) (A)
                 (A) (A) (A) (A) (A) (A) (A) (A) (A) (A) (A) (A)
                 (A) (A) (A) (A) (A) (A) (A) (A) (A) (A) (A) (A)
                 (A) (A) (A) (A) (A) (A) (A) (A) (A) (A) (A) (A)
                 (A) (A) (A) (A) (A) (A) (A) (A) (A) (A) (A) (A)
                 (A) (A) (A) (A) (A) (A) (A) (A) (A) (A) (A) (A)
                 (A) (A) (A) (A) (A) (A) (A) (A) (A) (A) (A) (A)
                 (A) (A) (A) (A) (A) (A) (A) (A) (A) (A) (A) (A)
                 (A) (A) (A) (A) (A) (A) (A) (A) (A) (A) (A) (A)
                 (A) (A) (A) (A) (A) (A) (A) (A) (A) (A) (A) (A)
                 (A) (A) (A) (A) (A) (A) (A) (A) (A) (A) (A) (A)
                 (A) (A) (A) (A) (A) (A) (A) (A) (A) (A) (A) (A)
                 (A) (A) (A) (A) (A) (A) (A) (A) (A) (A) (A) (A)
                 (A) (A) (A) (A) (A) (A) (A) (A) (A) (A) (A) (A)
                 (A) (A) (A) (A) (A) (A) (A) (A) (A) (A) (A) (A)
                 (A) (A) (A) (A) (A) (A) (A) (A) (A) (A) (A) (A)
                 (A) (A) (A) (A) (A) (A) (A) (A) (A) (A) (A) (A)
                 (A) (A) (A) (A) (A) (A) (A) (A) (A) (A) (A) (A)
                 (A) (A) (A) (A) (A) (A) (A) (A) (A) (A) (A) (A)
                 (A) (A) (A) (A) (A) (A) (A) (A)
 The electronic state is 6-A.
 Alpha  occ. eigenvalues -- -256.43518 -89.10632 -30.34173 -26.17220 -26.17139
 Alpha  occ. eigenvalues --  -26.17091 -14.48409 -14.48332 -14.48250 -14.48189
 Alpha  occ. eigenvalues --  -10.35994 -10.34714 -10.34710 -10.34704 -10.34645
 Alpha  occ. eigenvalues --  -10.34640 -10.34590 -10.34448 -10.34445 -10.31669
 Alpha  occ. eigenvalues --  -10.31636 -10.31625 -10.31596 -10.31579 -10.31500
 Alpha  occ. eigenvalues --  -10.31496 -10.31414 -10.31384 -10.31356 -10.31318
 Alpha  occ. eigenvalues --  -10.31212 -10.30290 -10.30020 -10.29258 -10.29238
 Alpha  occ. eigenvalues --  -10.29089 -10.29055 -10.28971 -10.28954 -10.28734
 Alpha  occ. eigenvalues --  -10.28726  -8.14134  -6.08659  -6.08418  -6.07936
 Alpha  occ. eigenvalues --   -3.79403  -2.56167  -2.55994  -2.55819  -1.10407
 Alpha  occ. eigenvalues --   -1.09390  -1.09341  -1.08377  -0.95473  -0.94733
 Alpha  occ. eigenvalues --   -0.93346  -0.93010  -0.92659  -0.92312  -0.91940
 Alpha  occ. eigenvalues --   -0.91876  -0.87720  -0.86489  -0.86433  -0.85313
 Alpha  occ. eigenvalues --   -0.83950  -0.82233  -0.81234  -0.80914  -0.79683
 Alpha  occ. eigenvalues --   -0.79445  -0.79298  -0.76228  -0.76225  -0.71705
 Alpha  occ. eigenvalues --   -0.71018  -0.69966  -0.69498  -0.66285  -0.65578
 Alpha  occ. eigenvalues --   -0.64877  -0.64713  -0.63036  -0.62952  -0.62751
 Alpha  occ. eigenvalues --   -0.62479  -0.61858  -0.59593  -0.59550  -0.59020
 Alpha  occ. eigenvalues --   -0.58622  -0.57972  -0.57277  -0.56854  -0.56490
 Alpha  occ. eigenvalues --   -0.56227  -0.55757  -0.55300  -0.54861  -0.54801
 Alpha  occ. eigenvalues --   -0.54479  -0.54234  -0.54140  -0.53737  -0.53606
 Alpha  occ. eigenvalues --   -0.53301  -0.53030  -0.52588  -0.51983  -0.51572
 Alpha  occ. eigenvalues --   -0.51346  -0.51175  -0.51080  -0.50754  -0.50640
 Alpha  occ. eigenvalues --   -0.50371  -0.50188  -0.49759  -0.49567  -0.49171
 Alpha  occ. eigenvalues --   -0.48990  -0.48572  -0.48122  -0.47882  -0.47644
 Alpha  occ. eigenvalues --   -0.46827  -0.46526  -0.46124  -0.45818  -0.44623
 Alpha  occ. eigenvalues --   -0.44346  -0.43755  -0.43360  -0.43057  -0.41557
 Alpha  occ. eigenvalues --   -0.40073  -0.40010  -0.38456  -0.38334  -0.35399
 Alpha  occ. eigenvalues --   -0.35000  -0.34406  -0.33445  -0.32917  -0.30736
 Alpha  occ. eigenvalues --   -0.29653
 Alpha virt. eigenvalues --   -0.18685  -0.18639  -0.12617  -0.11925  -0.08854
 Alpha virt. eigenvalues --   -0.07950  -0.07083  -0.06029  -0.03241  -0.02243
 Alpha virt. eigenvalues --   -0.02001  -0.00487   0.00430   0.00513   0.01116
 Alpha virt. eigenvalues --    0.02028   0.02286   0.02798   0.02911   0.03169
 Alpha virt. eigenvalues --    0.03587   0.03804   0.03900   0.04296   0.04923
 Alpha virt. eigenvalues --    0.05037   0.05524   0.06306   0.06878   0.07036
 Alpha virt. eigenvalues --    0.07054   0.07551   0.07778   0.07952   0.08456
 Alpha virt. eigenvalues --    0.08838   0.08911   0.09324   0.09678   0.10267
 Alpha virt. eigenvalues --    0.10598   0.10882   0.10951   0.11236   0.11520
 Alpha virt. eigenvalues --    0.11851   0.12454   0.12692   0.13139   0.13842
 Alpha virt. eigenvalues --    0.14002   0.14394   0.14677   0.15330   0.15793
 Alpha virt. eigenvalues --    0.16206   0.16838   0.17108   0.18202   0.18539
 Alpha virt. eigenvalues --    0.19043   0.19742   0.20465   0.20853   0.21901
 Alpha virt. eigenvalues --    0.22357   0.22383   0.23261   0.23556   0.24366
 Alpha virt. eigenvalues --    0.24980   0.25286   0.26187   0.26752   0.27402
 Alpha virt. eigenvalues --    0.28605   0.29193   0.30867   0.31122   0.32829
 Alpha virt. eigenvalues --    0.33222   0.33895   0.34297   0.34641   0.34963
 Alpha virt. eigenvalues --    0.36811   0.37206   0.37967   0.38646   0.39210
 Alpha virt. eigenvalues --    0.39407   0.40472   0.40742   0.41458   0.41950
 Alpha virt. eigenvalues --    0.42562   0.42858   0.42919   0.43329   0.44006
 Alpha virt. eigenvalues --    0.44207   0.44454   0.45223   0.45956   0.46485
 Alpha virt. eigenvalues --    0.46903   0.47233   0.47566   0.48150   0.48584
 Alpha virt. eigenvalues --    0.48957   0.49366   0.49792   0.50120   0.50937
 Alpha virt. eigenvalues --    0.51297   0.51614   0.51860   0.51967   0.52449
 Alpha virt. eigenvalues --    0.52790   0.53850   0.53890   0.54659   0.54980
 Alpha virt. eigenvalues --    0.55225   0.55801   0.56243   0.56681   0.56915
 Alpha virt. eigenvalues --    0.57532   0.57812   0.58369   0.58677   0.59407
 Alpha virt. eigenvalues --    0.60136   0.60758   0.61262   0.61553   0.61879
 Alpha virt. eigenvalues --    0.62511   0.63426   0.63844   0.64419   0.64473
 Alpha virt. eigenvalues --    0.64835   0.65070   0.65502   0.65669   0.66551
 Alpha virt. eigenvalues --    0.67163   0.67267   0.67561   0.67852   0.68154
 Alpha virt. eigenvalues --    0.68479   0.68921   0.69360   0.69620   0.69910
 Alpha virt. eigenvalues --    0.70023   0.70555   0.71833   0.72304   0.72547
 Alpha virt. eigenvalues --    0.73137   0.73448   0.74941   0.76071   0.76914
 Alpha virt. eigenvalues --    0.77059   0.77239   0.77696   0.77985   0.78262
 Alpha virt. eigenvalues --    0.78668   0.79195   0.79609   0.80287   0.80710
 Alpha virt. eigenvalues --    0.81277   0.81599   0.81975   0.82240   0.82377
 Alpha virt. eigenvalues --    0.82894   0.83248   0.83846   0.83956   0.84112
 Alpha virt. eigenvalues --    0.84802   0.85060   0.85518   0.86120   0.86529
 Alpha virt. eigenvalues --    0.87148   0.88014   0.88679   0.89113   0.89410
 Alpha virt. eigenvalues --    0.89684   0.90174   0.90517   0.90983   0.91532
 Alpha virt. eigenvalues --    0.91736   0.92083   0.92358   0.93113   0.93497
 Alpha virt. eigenvalues --    0.93836   0.94430   0.94995   0.95500   0.95657
 Alpha virt. eigenvalues --    0.96614   0.96964   0.97225   0.98124   0.99965
 Alpha virt. eigenvalues --    1.00918   1.01122   1.02991   1.03870   1.04504
 Alpha virt. eigenvalues --    1.05654   1.06418   1.06993   1.07165   1.08211
 Alpha virt. eigenvalues --    1.08531   1.09277   1.09514   1.10022   1.10826
 Alpha virt. eigenvalues --    1.11540   1.12002   1.12392   1.12651   1.13664
 Alpha virt. eigenvalues --    1.14319   1.14795   1.15675   1.17437   1.17842
 Alpha virt. eigenvalues --    1.18782   1.19803   1.20037   1.20530   1.21030
 Alpha virt. eigenvalues --    1.22459   1.22781   1.23589   1.24518   1.25451
 Alpha virt. eigenvalues --    1.25977   1.26201   1.26631   1.27020   1.27948
 Alpha virt. eigenvalues --    1.28989   1.30448   1.30674   1.31171   1.32548
 Alpha virt. eigenvalues --    1.33501   1.34114   1.36635   1.36822   1.38926
 Alpha virt. eigenvalues --    1.39897   1.40328   1.41990   1.42860   1.43366
 Alpha virt. eigenvalues --    1.44279   1.44572   1.45220   1.45912   1.46426
 Alpha virt. eigenvalues --    1.48206   1.48871   1.49442   1.50988   1.52039
 Alpha virt. eigenvalues --    1.53912   1.54551   1.54732   1.56266   1.57779
 Alpha virt. eigenvalues --    1.58031   1.59098   1.59780   1.60263   1.60544
 Alpha virt. eigenvalues --    1.62917   1.63547   1.66209   1.66629   1.68255
 Alpha virt. eigenvalues --    1.68376   1.68702   1.69059   1.69457   1.70184
 Alpha virt. eigenvalues --    1.70840   1.70954   1.72423   1.72841   1.73033
 Alpha virt. eigenvalues --    1.73912   1.74531   1.75465   1.75873   1.76428
 Alpha virt. eigenvalues --    1.77339   1.78380   1.78723   1.79065   1.79917
 Alpha virt. eigenvalues --    1.80499   1.80645   1.81043   1.81181   1.83512
 Alpha virt. eigenvalues --    1.83681   1.84084   1.84881   1.88218   1.88626
 Alpha virt. eigenvalues --    1.88920   1.89643   1.89870   1.90132   1.90597
 Alpha virt. eigenvalues --    1.91664   1.92317   1.92642   1.93723   1.94890
 Alpha virt. eigenvalues --    1.95315   1.95699   1.96552   1.97932   1.98304
 Alpha virt. eigenvalues --    2.00927   2.01122   2.01468   2.02500   2.03698
 Alpha virt. eigenvalues --    2.04128   2.04482   2.04888   2.06128   2.06651
 Alpha virt. eigenvalues --    2.07988   2.08149   2.09647   2.10991   2.11685
 Alpha virt. eigenvalues --    2.11885   2.12200   2.13451   2.13734   2.14538
 Alpha virt. eigenvalues --    2.15107   2.15478   2.15531   2.16262   2.16909
 Alpha virt. eigenvalues --    2.17817   2.18734   2.19255   2.19502   2.20213
 Alpha virt. eigenvalues --    2.20560   2.21247   2.22413   2.23301   2.23606
 Alpha virt. eigenvalues --    2.24169   2.24976   2.25359   2.25848   2.26639
 Alpha virt. eigenvalues --    2.27454   2.28905   2.29478   2.30344   2.31516
 Alpha virt. eigenvalues --    2.31727   2.32674   2.32699   2.32917   2.34092
 Alpha virt. eigenvalues --    2.34347   2.35968   2.37557   2.38743   2.40066
 Alpha virt. eigenvalues --    2.41048   2.41542   2.42004   2.42238   2.42592
 Alpha virt. eigenvalues --    2.44530   2.44657   2.45297   2.46480   2.49002
 Alpha virt. eigenvalues --    2.49749   2.52184   2.52577   2.54581   2.55215
 Alpha virt. eigenvalues --    2.56169   2.56770   2.58771   2.59508   2.60492
 Alpha virt. eigenvalues --    2.64191   2.65826   2.66986   2.68615   2.69805
 Alpha virt. eigenvalues --    2.70449   2.74873   2.75830   2.77148   2.78643
 Alpha virt. eigenvalues --    2.79480   2.80985   2.82826   2.83817   2.84681
 Alpha virt. eigenvalues --    2.85642   2.87063   2.87555   2.88528   2.92918
 Alpha virt. eigenvalues --    2.93632   3.00402   3.01433   3.07362   3.08688
 Alpha virt. eigenvalues --    3.09448   3.11956   3.18495   3.18938   3.25688
 Alpha virt. eigenvalues --    3.26229   3.28321   3.33482   3.33909   3.35960
 Alpha virt. eigenvalues --    3.37005   3.54138   3.72058   3.77381
  Beta  occ. eigenvalues -- -256.43357 -89.10537 -30.24934 -26.09561 -26.09390
  Beta  occ. eigenvalues --  -26.09324 -14.48028 -14.47937 -14.47879 -14.47825
  Beta  occ. eigenvalues --  -10.35989 -10.34718 -10.34713 -10.34704 -10.34649
  Beta  occ. eigenvalues --  -10.34639 -10.34587 -10.34455 -10.34446 -10.31630
  Beta  occ. eigenvalues --  -10.31603 -10.31578 -10.31552 -10.31548 -10.31463
  Beta  occ. eigenvalues --  -10.31461 -10.31369 -10.31354 -10.31321 -10.31289
  Beta  occ. eigenvalues --  -10.31174 -10.30297 -10.30028 -10.29258 -10.29238
  Beta  occ. eigenvalues --  -10.29089 -10.29039 -10.28971 -10.28953 -10.28726
  Beta  occ. eigenvalues --  -10.28716  -8.14029  -6.08592  -6.08300  -6.07707
  Beta  occ. eigenvalues --   -3.57599  -2.33243  -2.32478  -2.32372  -1.09935
  Beta  occ. eigenvalues --   -1.08927  -1.08875  -1.07889  -0.95036  -0.94632
  Beta  occ. eigenvalues --   -0.93147  -0.92822  -0.92450  -0.92106  -0.91787
  Beta  occ. eigenvalues --   -0.91704  -0.87661  -0.86347  -0.86325  -0.85247
  Beta  occ. eigenvalues --   -0.83907  -0.82123  -0.81083  -0.80612  -0.79497
  Beta  occ. eigenvalues --   -0.79337  -0.79079  -0.76131  -0.76123  -0.71532
  Beta  occ. eigenvalues --   -0.70858  -0.69827  -0.69056  -0.66149  -0.65366
  Beta  occ. eigenvalues --   -0.64502  -0.64228  -0.62756  -0.62706  -0.62270
  Beta  occ. eigenvalues --   -0.60808  -0.60036  -0.59268  -0.58983  -0.58209
  Beta  occ. eigenvalues --   -0.56718  -0.56080  -0.55516  -0.55255  -0.54877
  Beta  occ. eigenvalues --   -0.54651  -0.54337  -0.54205  -0.54024  -0.53746
  Beta  occ. eigenvalues --   -0.53471  -0.53022  -0.52799  -0.52091  -0.51551
  Beta  occ. eigenvalues --   -0.51325  -0.51294  -0.51058  -0.50906  -0.50736
  Beta  occ. eigenvalues --   -0.50558  -0.50193  -0.49989  -0.49889  -0.49414
  Beta  occ. eigenvalues --   -0.49198  -0.48919  -0.48507  -0.48274  -0.47729
  Beta  occ. eigenvalues --   -0.47523  -0.46978  -0.46666  -0.45806  -0.45059
  Beta  occ. eigenvalues --   -0.44486  -0.43781  -0.43531  -0.43416  -0.43079
  Beta  occ. eigenvalues --   -0.42978  -0.40325  -0.39827  -0.38298  -0.38222
  Beta  occ. eigenvalues --   -0.35597  -0.34703  -0.33860  -0.32948  -0.30952
  Beta  occ. eigenvalues --   -0.29691
  Beta virt. eigenvalues --   -0.23057  -0.22303  -0.21283  -0.20430  -0.17760
  Beta virt. eigenvalues --   -0.17618  -0.14538  -0.12361  -0.10823  -0.08670
  Beta virt. eigenvalues --   -0.07525  -0.06596  -0.05212  -0.02815  -0.01856
  Beta virt. eigenvalues --   -0.01321  -0.00086   0.00666   0.01106   0.01156
  Beta virt. eigenvalues --    0.02095   0.02340   0.03058   0.03103   0.03240
  Beta virt. eigenvalues --    0.03873   0.04005   0.04319   0.04528   0.05000
  Beta virt. eigenvalues --    0.05174   0.05732   0.06341   0.06965   0.07095
  Beta virt. eigenvalues --    0.07174   0.07629   0.07885   0.08099   0.08675
  Beta virt. eigenvalues --    0.08981   0.09198   0.09532   0.09846   0.10393
  Beta virt. eigenvalues --    0.10899   0.11345   0.11545   0.11839   0.11912
  Beta virt. eigenvalues --    0.12057   0.12533   0.13041   0.13834   0.14115
  Beta virt. eigenvalues --    0.14422   0.15023   0.15180   0.15652   0.16064
  Beta virt. eigenvalues --    0.16753   0.16977   0.17223   0.18736   0.18908
  Beta virt. eigenvalues --    0.19688   0.20008   0.20771   0.21352   0.22313
  Beta virt. eigenvalues --    0.22728   0.23001   0.23577   0.23986   0.24619
  Beta virt. eigenvalues --    0.25430   0.25577   0.26408   0.27010   0.27567
  Beta virt. eigenvalues --    0.28891   0.29671   0.31295   0.31444   0.32915
  Beta virt. eigenvalues --    0.33566   0.34153   0.34573   0.34920   0.35238
  Beta virt. eigenvalues --    0.37154   0.37419   0.38179   0.38906   0.39462
  Beta virt. eigenvalues --    0.39947   0.40677   0.40963   0.41581   0.42188
  Beta virt. eigenvalues --    0.42690   0.42980   0.43180   0.43487   0.44145
  Beta virt. eigenvalues --    0.44280   0.44583   0.45403   0.46155   0.46721
  Beta virt. eigenvalues --    0.47050   0.47347   0.47687   0.48326   0.48883
  Beta virt. eigenvalues --    0.49144   0.49464   0.49904   0.50313   0.51212
  Beta virt. eigenvalues --    0.51484   0.51708   0.51947   0.52267   0.52698
  Beta virt. eigenvalues --    0.53279   0.53986   0.54291   0.54786   0.55213
  Beta virt. eigenvalues --    0.55375   0.55978   0.56398   0.56831   0.57076
  Beta virt. eigenvalues --    0.57916   0.58077   0.58552   0.59038   0.59605
  Beta virt. eigenvalues --    0.60514   0.60983   0.61531   0.61703   0.62039
  Beta virt. eigenvalues --    0.62747   0.63668   0.64076   0.64760   0.64909
  Beta virt. eigenvalues --    0.65256   0.65552   0.65695   0.66301   0.66870
  Beta virt. eigenvalues --    0.67295   0.67594   0.68245   0.68283   0.68753
  Beta virt. eigenvalues --    0.68876   0.69118   0.69578   0.69939   0.70223
  Beta virt. eigenvalues --    0.70653   0.71017   0.72105   0.72610   0.72754
  Beta virt. eigenvalues --    0.74071   0.74852   0.75169   0.76213   0.76952
  Beta virt. eigenvalues --    0.77178   0.77305   0.77753   0.78338   0.78456
  Beta virt. eigenvalues --    0.79043   0.79449   0.79973   0.80496   0.80888
  Beta virt. eigenvalues --    0.81415   0.81709   0.82165   0.82376   0.82557
  Beta virt. eigenvalues --    0.82992   0.83414   0.84021   0.84085   0.84256
  Beta virt. eigenvalues --    0.84964   0.85207   0.85703   0.86224   0.86676
  Beta virt. eigenvalues --    0.87265   0.88100   0.89035   0.89283   0.89577
  Beta virt. eigenvalues --    0.89862   0.90274   0.90638   0.91070   0.91882
  Beta virt. eigenvalues --    0.91932   0.92190   0.93006   0.93416   0.93726
  Beta virt. eigenvalues --    0.94316   0.94912   0.95379   0.95832   0.95917
  Beta virt. eigenvalues --    0.96995   0.97296   0.98199   0.99396   1.00230
  Beta virt. eigenvalues --    1.01299   1.01970   1.03958   1.04057   1.04633
  Beta virt. eigenvalues --    1.05860   1.06582   1.07141   1.07290   1.08329
  Beta virt. eigenvalues --    1.08828   1.09375   1.09633   1.10270   1.10980
  Beta virt. eigenvalues --    1.11833   1.12343   1.12866   1.13164   1.14736
  Beta virt. eigenvalues --    1.14786   1.16273   1.16359   1.17893   1.18203
  Beta virt. eigenvalues --    1.19206   1.19996   1.20241   1.20849   1.21254
  Beta virt. eigenvalues --    1.22655   1.22990   1.23797   1.24792   1.25675
  Beta virt. eigenvalues --    1.26111   1.26404   1.26775   1.27233   1.28183
  Beta virt. eigenvalues --    1.29158   1.30643   1.31077   1.31469   1.32815
  Beta virt. eigenvalues --    1.33783   1.34394   1.36823   1.36979   1.39390
  Beta virt. eigenvalues --    1.40645   1.40790   1.42240   1.43185   1.44104
  Beta virt. eigenvalues --    1.44496   1.45110   1.45433   1.46349   1.46949
  Beta virt. eigenvalues --    1.48857   1.49064   1.49612   1.51288   1.52322
  Beta virt. eigenvalues --    1.54098   1.54745   1.54902   1.56694   1.57917
  Beta virt. eigenvalues --    1.58314   1.59328   1.60001   1.60553   1.60804
  Beta virt. eigenvalues --    1.63204   1.63827   1.66678   1.67021   1.68371
  Beta virt. eigenvalues --    1.68597   1.68820   1.69303   1.69603   1.70473
  Beta virt. eigenvalues --    1.71069   1.71809   1.72618   1.73039   1.73308
  Beta virt. eigenvalues --    1.74183   1.74790   1.75602   1.76037   1.76728
  Beta virt. eigenvalues --    1.77587   1.78691   1.78923   1.80177   1.80714
  Beta virt. eigenvalues --    1.80821   1.81270   1.81399   1.82721   1.83721
  Beta virt. eigenvalues --    1.84106   1.85083   1.85712   1.88734   1.89039
  Beta virt. eigenvalues --    1.89165   1.89882   1.90051   1.90440   1.91263
  Beta virt. eigenvalues --    1.91906   1.92815   1.93374   1.94195   1.95378
  Beta virt. eigenvalues --    1.95730   1.96317   1.96874   1.98159   1.98538
  Beta virt. eigenvalues --    2.01188   2.01525   2.02600   2.03848   2.04224
  Beta virt. eigenvalues --    2.04575   2.05252   2.05830   2.06497   2.07795
  Beta virt. eigenvalues --    2.08645   2.10053   2.10788   2.11501   2.11809
  Beta virt. eigenvalues --    2.11979   2.12333   2.13879   2.14379   2.14813
  Beta virt. eigenvalues --    2.15265   2.15708   2.16139   2.16374   2.17036
  Beta virt. eigenvalues --    2.18059   2.18878   2.19429   2.19773   2.20402
  Beta virt. eigenvalues --    2.20832   2.21480   2.22662   2.23456   2.23859
  Beta virt. eigenvalues --    2.24381   2.25035   2.25546   2.26033   2.26809
  Beta virt. eigenvalues --    2.27620   2.29079   2.29609   2.30616   2.31723
  Beta virt. eigenvalues --    2.31814   2.32789   2.32799   2.33147   2.34276
  Beta virt. eigenvalues --    2.34516   2.36239   2.37867   2.39134   2.40514
  Beta virt. eigenvalues --    2.41282   2.41755   2.42223   2.42525   2.42841
  Beta virt. eigenvalues --    2.44738   2.44833   2.45457   2.46652   2.49162
  Beta virt. eigenvalues --    2.49924   2.52329   2.53071   2.54997   2.55387
  Beta virt. eigenvalues --    2.56433   2.57086   2.58984   2.59749   2.60874
  Beta virt. eigenvalues --    2.64343   2.66147   2.67256   2.68719   2.69956
  Beta virt. eigenvalues --    2.70537   2.75032   2.76062   2.77368   2.78915
  Beta virt. eigenvalues --    2.79695   2.81239   2.83067   2.84277   2.85050
  Beta virt. eigenvalues --    2.86092   2.87271   2.87689   2.88636   2.93133
  Beta virt. eigenvalues --    2.93810   3.00675   3.01668   3.08405   3.09160
  Beta virt. eigenvalues --    3.12123   3.17236   3.18649   3.19045   3.25909
  Beta virt. eigenvalues --    3.27936   3.28495   3.33834   3.34234   3.48823
  Beta virt. eigenvalues --    3.49977   3.65577   3.82750   3.88276
          Condensed to atoms (all electrons):
          Atomic-Atomic Spin Densities.
 Mulliken charges and spin densities:
               1          2
     1  Fe   0.888101   4.168512
     2  N   -0.718152   0.121971
     3  N   -0.686469   0.116519
     4  N   -0.725005   0.114585
     5  N   -0.716251   0.127284
     6  C    0.310622  -0.011004
     7  C    0.048168   0.020058
     8  C    0.046961   0.016520
     9  C    0.298483  -0.008219
    10  C    0.284353  -0.006305
    11  C    0.055704   0.018386
    12  C    0.014215   0.019243
    13  C    0.281710  -0.008995
    14  C    0.293646  -0.009222
    15  C    0.063549   0.022656
    16  C    0.006032   0.022094
    17  C    0.336871  -0.011043
    18  C    0.318708  -0.013437
    19  C    0.052165   0.017775
    20  C    0.048396   0.016089
    21  C    0.312061  -0.010948
    22  C   -0.298558   0.034310
    23  H    0.196943  -0.001418
    24  C   -0.274407   0.030426
    25  H    0.194681  -0.001170
    26  C   -0.255734   0.036204
    27  H    0.196152  -0.001485
    28  C   -0.280272   0.035268
    29  H    0.198391  -0.001427
    30  C   -0.613425  -0.000510
    31  H    0.208009   0.000416
    32  H    0.214227   0.000647
    33  H    0.202154   0.000696
    34  C   -0.612170  -0.000741
    35  H    0.200493   0.000758
    36  H    0.213700   0.000849
    37  H    0.207749   0.000420
    38  C   -0.615253  -0.000798
    39  H    0.204213   0.000556
    40  H    0.218150   0.000513
    41  H    0.202942   0.000964
    42  C   -0.155771  -0.005934
    43  H    0.189383   0.000544
    44  C   -0.387773   0.011615
    45  H    0.188179  -0.000577
    46  H    0.199644  -0.000434
    47  C   -0.616500  -0.001060
    48  H    0.198143   0.000775
    49  H    0.213559   0.001253
    50  H    0.214954   0.000459
    51  C   -0.154835  -0.006817
    52  H    0.180557   0.000609
    53  C   -0.383304   0.012589
    54  H    0.193339  -0.000615
    55  H    0.198229  -0.000468
    56  C   -0.614065  -0.000589
    57  H    0.206114   0.000704
    58  H    0.213556   0.000680
    59  H    0.207372   0.000422
    60  C   -0.612200  -0.000460
    61  H    0.202002   0.000646
    62  H    0.208642   0.000412
    63  H    0.211346   0.000635
    64  C   -0.691724   0.002049
    65  H    0.255573   0.003433
    66  H    0.253113  -0.000060
    67  H    0.254958   0.001959
    68  S    0.108859   0.119259
    69  H    0.196793   0.001971
 Sum of Mulliken charges =   1.00000   5.00000
 Mulliken charges and spin densities with hydrogens summed into heavy atoms:
               1          2
     1  Fe   0.888101   4.168512
     2  N   -0.718152   0.121971
     3  N   -0.686469   0.116519
     4  N   -0.725005   0.114585
     5  N   -0.716251   0.127284
     6  C    0.310622  -0.011004
     7  C    0.048168   0.020058
     8  C    0.046961   0.016520
     9  C    0.298483  -0.008219
    10  C    0.284353  -0.006305
    11  C    0.055704   0.018386
    12  C    0.014215   0.019243
    13  C    0.281710  -0.008995
    14  C    0.293646  -0.009222
    15  C    0.063549   0.022656
    16  C    0.006032   0.022094
    17  C    0.336871  -0.011043
    18  C    0.318708  -0.013437
    19  C    0.052165   0.017775
    20  C    0.048396   0.016089
    21  C    0.312061  -0.010948
    22  C   -0.101615   0.032892
    24  C   -0.079726   0.029256
    26  C   -0.059582   0.034719
    28  C   -0.081881   0.033841
    30  C    0.010964   0.001250
    34  C    0.009772   0.001285
    38  C    0.010053   0.001234
    42  C    0.033613  -0.005389
    44  C    0.000050   0.010604
    47  C    0.010157   0.001427
    51  C    0.025722  -0.006208
    53  C    0.008264   0.011506
    56  C    0.012977   0.001218
    60  C    0.009790   0.001233
    64  C    0.071920   0.007381
    68  S    0.305652   0.121231
 Electronic spatial extent (au):  <R**2>=          17982.2426
 Charge=              1.0000 electrons
 Dipole moment (field-independent basis, Debye):
    X=             -1.9371    Y=             -0.5090    Z=              4.4898  Tot=              4.9163
 Quadrupole moment (field-independent basis, Debye-Ang):
   XX=           -153.7454   YY=           -154.9747   ZZ=           -221.0070
   XY=              0.7544   XZ=             -6.0719   YZ=              0.5670
 Traceless Quadrupole moment (field-independent basis, Debye-Ang):
   XX=             22.8303   YY=             21.6010   ZZ=            -44.4313
   XY=              0.7544   XZ=             -6.0719   YZ=              0.5670
 Octapole moment (field-independent basis, Debye-Ang**2):
  XXX=             28.6606  YYY=             -0.9126  ZZZ=             51.1349  XYY=              0.7487
  XXY=            -11.0477  XXZ=            -18.4238  XZZ=            -31.9823  YZZ=             -3.1556
  YYZ=             15.4078  XYZ=             -5.6472
 Hexadecapole moment (field-independent basis, Debye-Ang**3):
 XXXX=          -9437.7267 YYYY=          -9424.5959 ZZZZ=          -1037.9481 XXXY=             73.6725
 XXXZ=             -7.0271 YYYX=            -52.0527 YYYZ=            125.3666 ZZZX=            -74.8105
 ZZZY=             -5.5268 XXYY=          -3367.8733 XXZZ=          -2171.5792 YYZZ=          -2145.0410
 XXYZ=            -42.0674 YYXZ=            -33.9304 ZZXY=              7.4361
 N-N= 5.032224045059D+03 E-N=-1.728031477317D+04  KE= 3.070568057779D+03
                          Isotropic Fermi Contact Couplings
        Atom                 a.u.       MegaHertz       Gauss      10(-4) cm-1
     1  Fe(57)             0.57500      16.67950       5.95166       5.56368
     2  N(14)              0.13296       8.59221       3.06591       2.86605
     3  N(14)              0.13378       8.64470       3.08464       2.88356
     4  N(14)              0.12949       8.36769       2.98580       2.79116
     5  N(14)              0.13191       8.52433       3.04169       2.84341
     6  C(13)              0.00221       0.49679       0.17727       0.16571
     7  C(13)              0.00576       1.29546       0.46225       0.43212
     8  C(13)              0.00526       1.18268       0.42201       0.39450
     9  C(13)              0.00263       0.59209       0.21127       0.19750
    10  C(13)              0.00258       0.58017       0.20702       0.19353
    11  C(13)              0.00548       1.23230       0.43971       0.41105
    12  C(13)              0.00575       1.29374       0.46164       0.43155
    13  C(13)              0.00198       0.44538       0.15892       0.14856
    14  C(13)              0.00210       0.47204       0.16843       0.15745
    15  C(13)              0.00597       1.34260       0.47907       0.44784
    16  C(13)              0.00623       1.40146       0.50008       0.46748
    17  C(13)              0.00206       0.46416       0.16563       0.15483
    18  C(13)              0.00163       0.36594       0.13058       0.12207
    19  C(13)              0.00549       1.23447       0.44049       0.41177
    20  C(13)              0.00513       1.15443       0.41193       0.38508
    21  C(13)              0.00177       0.39732       0.14177       0.13253
    22  C(13)              0.00394       0.88678       0.31643       0.29580
    23  H(1)              -0.00049      -0.43634      -0.15570      -0.14555
    24  C(13)              0.00329       0.73977       0.26397       0.24676
    25  H(1)              -0.00039      -0.35144      -0.12540      -0.11723
    26  C(13)              0.00402       0.90452       0.32275       0.30171
    27  H(1)              -0.00051      -0.45844      -0.16358      -0.15292
    28  C(13)              0.00401       0.90153       0.32169       0.30072
    29  H(1)              -0.00048      -0.42806      -0.15274      -0.14279
    30  C(13)             -0.00003      -0.00740      -0.00264      -0.00247
    31  H(1)               0.00017       0.14849       0.05298       0.04953
    32  H(1)               0.00035       0.31635       0.11288       0.10552
    33  H(1)               0.00040       0.35667       0.12727       0.11897
    34  C(13)             -0.00012      -0.02706      -0.00965      -0.00902
    35  H(1)               0.00044       0.39509       0.14098       0.13179
    36  H(1)               0.00047       0.41607       0.14846       0.13879
    37  H(1)               0.00017       0.15026       0.05362       0.05012
    38  C(13)             -0.00017      -0.03712      -0.01325      -0.01238
    39  H(1)               0.00029       0.25594       0.09132       0.08537
    40  H(1)               0.00018       0.16335       0.05829       0.05449
    41  H(1)               0.00051       0.45976       0.16405       0.15336
    42  C(13)             -0.00090      -0.20164      -0.07195      -0.06726
    43  H(1)               0.00021       0.19192       0.06848       0.06402
    44  C(13)              0.00188       0.42254       0.15077       0.14094
    45  H(1)              -0.00017      -0.15556      -0.05551      -0.05189
    46  H(1)              -0.00013      -0.11273      -0.04022      -0.03760
    47  C(13)             -0.00029      -0.06593      -0.02352      -0.02199
    48  H(1)               0.00037       0.33490       0.11950       0.11171
    49  H(1)               0.00066       0.59037       0.21066       0.19693
    50  H(1)               0.00016       0.14312       0.05107       0.04774
    51  C(13)             -0.00104      -0.23350      -0.08332      -0.07789
    52  H(1)               0.00023       0.20453       0.07298       0.06822
    53  C(13)              0.00201       0.45242       0.16143       0.15091
    54  H(1)              -0.00019      -0.16724      -0.05968      -0.05579
    55  H(1)              -0.00013      -0.11654      -0.04159      -0.03887
    56  C(13)             -0.00009      -0.01958      -0.00699      -0.00653
    57  H(1)               0.00040       0.36159       0.12902       0.12061
    58  H(1)               0.00038       0.34305       0.12241       0.11443
    59  H(1)               0.00017       0.15304       0.05461       0.05105
    60  C(13)             -0.00006      -0.01265      -0.00451      -0.00422
    61  H(1)               0.00038       0.34050       0.12150       0.11358
    62  H(1)               0.00017       0.14918       0.05323       0.04976
    63  H(1)               0.00036       0.32526       0.11606       0.10849
    64  C(13)             -0.00135      -0.30438      -0.10861      -0.10153
    65  H(1)               0.00250       2.23450       0.79732       0.74535
    66  H(1)               0.00004       0.03392       0.01210       0.01131
    67  H(1)               0.00086       0.77316       0.27588       0.25790
    68  S(33)              0.14637      10.05498       3.58787       3.35398
    69  H(1)               0.00101       0.90012       0.32119       0.30025
 --------------------------------------------------------
       Center         ----  Spin Dipole Couplings  ----
                      3XX-RR        3YY-RR        3ZZ-RR
 --------------------------------------------------------
     1   Atom        0.271230      0.236954     -0.508184
     2   Atom        0.190636     -0.192856      0.002220
     3   Atom       -0.187197      0.196987     -0.009790
     4   Atom        0.188612     -0.186446     -0.002166
     5   Atom       -0.201360      0.185163      0.016196
     6   Atom        0.025817      0.014056     -0.039874
     7   Atom        0.011538     -0.015357      0.003818
     8   Atom        0.015034     -0.015939      0.000905
     9   Atom        0.053787     -0.016578     -0.037209
    10   Atom        0.010904      0.022445     -0.033349
    11   Atom       -0.015387      0.012057      0.003330
    12   Atom       -0.017636      0.014420      0.003217
    13   Atom       -0.017922      0.053993     -0.036072
    14   Atom        0.025039      0.011757     -0.036796
    15   Atom        0.010548     -0.017103      0.006555
    16   Atom        0.012682     -0.019038      0.006356
    17   Atom        0.053591     -0.015217     -0.038373
    18   Atom        0.015480      0.026240     -0.041719
    19   Atom       -0.014501      0.012988      0.001513
    20   Atom       -0.015916      0.015742      0.000174
    21   Atom       -0.015987      0.055481     -0.039494
    22   Atom       -0.015224      0.005999      0.009225
    23   Atom       -0.001625      0.009996     -0.008371
    24   Atom        0.005830     -0.014266      0.008436
    25   Atom        0.009834     -0.001755     -0.008079
    26   Atom       -0.015677      0.004032      0.011644
    27   Atom       -0.001731      0.010217     -0.008486
    28   Atom        0.004245     -0.015841      0.011595
    29   Atom        0.009814     -0.001550     -0.008264
    30   Atom        0.008946     -0.004629     -0.004317
    31   Atom        0.005938     -0.002829     -0.003109
    32   Atom        0.006304     -0.003184     -0.003120
    33   Atom        0.006908     -0.003086     -0.003822
    34   Atom        0.005155     -0.000840     -0.004315
    35   Atom        0.003395      0.000170     -0.003565
    36   Atom        0.003053      0.000523     -0.003576
    37   Atom        0.004638     -0.001479     -0.003159
    38   Atom       -0.000770      0.005253     -0.004484
    39   Atom        0.000767      0.002939     -0.003705
    40   Atom       -0.001448      0.004592     -0.003144
    41   Atom       -0.000121      0.003532     -0.003411
    42   Atom       -0.004235      0.011206     -0.006971
    43   Atom       -0.003096      0.007087     -0.003990
    44   Atom       -0.003960      0.002353      0.001607
    45   Atom       -0.001830      0.004039     -0.002209
    46   Atom       -0.001923      0.003953     -0.002030
    47   Atom        0.005449     -0.000886     -0.004563
    48   Atom        0.003025      0.000836     -0.003861
    49   Atom        0.003471     -0.000117     -0.003354
    50   Atom        0.004672     -0.001573     -0.003100
    51   Atom        0.011983     -0.003527     -0.008456
    52   Atom        0.007291     -0.003107     -0.004183
    53   Atom        0.000312     -0.004841      0.004530
    54   Atom        0.003833     -0.001532     -0.002301
    55   Atom        0.003813     -0.001873     -0.001940
    56   Atom       -0.000852      0.005167     -0.004315
    57   Atom        0.000347      0.003235     -0.003582
    58   Atom        0.000271      0.003207     -0.003478
    59   Atom       -0.001459      0.004576     -0.003118
    60   Atom       -0.004652      0.008940     -0.004287
    61   Atom       -0.003259      0.006694     -0.003435
    62   Atom       -0.002804      0.005924     -0.003120
    63   Atom       -0.003020      0.006651     -0.003631
    64   Atom       -0.003213     -0.020323      0.023536
    65   Atom       -0.004838     -0.009143      0.013980
    66   Atom       -0.008909     -0.003526      0.012435
    67   Atom        0.007778     -0.017162      0.009384
    68   Atom       -0.272774     -0.326523      0.599297
    69   Atom       -0.028076     -0.002237      0.030313
 --------------------------------------------------------
                        XY            XZ            YZ
 --------------------------------------------------------
     1   Atom        0.038424      0.000239     -0.082994
     2   Atom        0.094372      0.030936      0.029418
     3   Atom       -0.090119      0.008109     -0.072984
     4   Atom        0.089658     -0.021528     -0.015475
     5   Atom       -0.092239     -0.004299      0.053600
     6   Atom        0.041627      0.002556     -0.001741
     7   Atom        0.009469      0.001508      0.002872
     8   Atom        0.004878      0.002145      0.002559
     9   Atom       -0.021431      0.007498     -0.001248
    10   Atom       -0.039917      0.003715     -0.006629
    11   Atom       -0.009255     -0.000326     -0.002132
    12   Atom       -0.005153     -0.000921     -0.003248
    13   Atom        0.020199      0.001566     -0.004444
    14   Atom        0.040330      0.000058      0.002835
    15   Atom        0.010181     -0.005014     -0.003499
    16   Atom        0.004874     -0.002666     -0.001026
    17   Atom       -0.021050     -0.001904     -0.000148
    18   Atom       -0.040702     -0.000640      0.001673
    19   Atom       -0.009252     -0.000020      0.001880
    20   Atom       -0.004760      0.000593      0.001460
    21   Atom        0.020888     -0.001329      0.001868
    22   Atom        0.021891      0.003789      0.005185
    23   Atom        0.012105     -0.000370     -0.000639
    24   Atom       -0.020498      0.006428     -0.002264
    25   Atom       -0.011567      0.002083     -0.001247
    26   Atom        0.021971     -0.008184     -0.004709
    27   Atom        0.012247     -0.000091      0.000131
    28   Atom       -0.021099     -0.004531      0.004194
    29   Atom       -0.012031     -0.000720      0.000548
    30   Atom       -0.001576      0.001207     -0.000037
    31   Atom        0.000389      0.000575     -0.000010
    32   Atom       -0.001798      0.002635     -0.000698
    33   Atom       -0.002228     -0.000923      0.000368
    34   Atom        0.006411      0.000104      0.000108
    35   Atom        0.005233     -0.001448     -0.001353
    36   Atom        0.005101      0.001356      0.001279
    37   Atom        0.003240      0.000104      0.000025
    38   Atom       -0.006278      0.000270     -0.000322
    39   Atom       -0.005303      0.001355     -0.001454
    40   Atom       -0.003208      0.000336     -0.000637
    41   Atom       -0.004920     -0.001095      0.001266
    42   Atom        0.002455     -0.002830      0.002172
    43   Atom        0.002488     -0.000277     -0.000836
    44   Atom       -0.003193      0.006406     -0.003622
    45   Atom       -0.001140     -0.000586      0.001420
    46   Atom        0.000835      0.000334      0.000460
    47   Atom        0.006402      0.000469      0.000602
    48   Atom        0.005678      0.001792      0.001729
    49   Atom        0.004658     -0.000886     -0.000798
    50   Atom        0.003285      0.001260      0.000605
    51   Atom       -0.002167     -0.001259     -0.003229
    52   Atom       -0.002728      0.001143     -0.000344
    53   Atom        0.001686      0.002724      0.006990
    54   Atom        0.001131     -0.000964     -0.000459
    55   Atom       -0.000981      0.000114      0.000193
    56   Atom       -0.006281     -0.000024      0.000154
    57   Atom       -0.005172      0.001276     -0.001367
    58   Atom       -0.004989     -0.001289      0.001404
    59   Atom       -0.003171      0.000004     -0.000043
    60   Atom        0.001547     -0.000056     -0.000224
    61   Atom        0.001946     -0.000608     -0.002096
    62   Atom       -0.000375     -0.000005     -0.000146
    63   Atom        0.002115      0.000492      0.001522
    64   Atom        0.006981     -0.024769     -0.008821
    65   Atom        0.001951     -0.008630     -0.002056
    66   Atom        0.009074     -0.013202     -0.016563
    67   Atom        0.003030     -0.023587     -0.002968
    68   Atom        0.006198      0.162735      0.084482
    69   Atom       -0.008953     -0.009011      0.032200
 --------------------------------------------------------


 ---------------------------------------------------------------------------------
              Anisotropic Spin Dipole Couplings in Principal Axis System
 ---------------------------------------------------------------------------------

       Atom             a.u.   MegaHertz   Gauss  10(-4) cm-1        Axes

              Baa    -0.5173    -8.957    -3.196    -2.988 -0.0056  0.1097  0.9940
     1 Fe(57) Bbb     0.2185     3.783     1.350     1.262 -0.5860  0.8050 -0.0921
              Bcc     0.2989     5.174     1.846     1.726  0.8103  0.5830 -0.0597
 
              Baa    -0.2170    -8.369    -2.986    -2.792 -0.2172  0.9710 -0.0997
     2 N(14)  Bbb    -0.0019    -0.073    -0.026    -0.024 -0.1865  0.0589  0.9807
              Bcc     0.2189     8.442     3.012     2.816  0.9581  0.2316  0.1683
 
              Baa    -0.2076    -8.008    -2.857    -2.671  0.9735  0.2246  0.0429
     3 N(14)  Bbb    -0.0309    -1.192    -0.425    -0.398 -0.1036  0.2659  0.9584
              Bcc     0.2385     9.200     3.283     3.069 -0.2038  0.9375 -0.2822
 
              Baa    -0.2073    -7.995    -2.853    -2.667 -0.2180  0.9746  0.0507
     4 N(14)  Bbb    -0.0044    -0.171    -0.061    -0.057  0.1219 -0.0243  0.9922
              Bcc     0.2117     8.166     2.914     2.724  0.9683  0.2224 -0.1135
 
              Baa    -0.2225    -8.581    -3.062    -2.862  0.9739  0.2247 -0.0329
     5 N(14)  Bbb     0.0025     0.098     0.035     0.033  0.0879 -0.2394  0.9669
              Bcc     0.2200     8.483     3.027     2.830 -0.2094  0.9446  0.2529
 
              Baa    -0.0404    -5.417    -1.933    -1.807 -0.1117  0.1170  0.9868
     6 C(13)  Bbb    -0.0216    -2.900    -1.035    -0.967 -0.6460  0.7460 -0.1616
              Bcc     0.0620     8.318     2.968     2.774  0.7551  0.6556  0.0077
 
              Baa    -0.0186    -2.495    -0.890    -0.832 -0.2936  0.9505 -0.1020
     7 C(13)  Bbb     0.0036     0.479     0.171     0.160 -0.2257  0.0348  0.9736
              Bcc     0.0150     2.015     0.719     0.672  0.9289  0.3089  0.2043
 
              Baa    -0.0170    -2.276    -0.812    -0.759 -0.1414  0.9822 -0.1237
     8 C(13)  Bbb     0.0008     0.102     0.037     0.034 -0.1804  0.0973  0.9788
              Bcc     0.0162     2.174     0.776     0.725  0.9734  0.1607  0.1634
 
              Baa    -0.0378    -5.078    -1.812    -1.694 -0.0887 -0.0310  0.9956
     9 C(13)  Bbb    -0.0225    -3.026    -1.080    -1.009  0.2650  0.9627  0.0536
              Bcc     0.0604     8.103     2.891     2.703  0.9602 -0.2686  0.0772
 
              Baa    -0.0342    -4.586    -1.637    -1.530  0.0557  0.1548  0.9864
    10 C(13)  Bbb    -0.0234    -3.145    -1.122    -1.049  0.7568  0.6378 -0.1428
              Bcc     0.0576     7.731     2.759     2.579 -0.6512  0.7545 -0.0816
 
              Baa    -0.0183    -2.450    -0.874    -0.817  0.9547  0.2945  0.0435
    11 C(13)  Bbb     0.0031     0.410     0.146     0.137 -0.0888  0.1421  0.9859
              Bcc     0.0152     2.040     0.728     0.681 -0.2842  0.9450 -0.1618
 
              Baa    -0.0185    -2.488    -0.888    -0.830  0.9849  0.1605  0.0657
    12 C(13)  Bbb     0.0026     0.345     0.123     0.115 -0.1008  0.2220  0.9698
              Bcc     0.0160     2.143     0.765     0.715 -0.1411  0.9618 -0.2348
 
              Baa    -0.0367    -4.931    -1.759    -1.645 -0.1749  0.0870  0.9807
    13 C(13)  Bbb    -0.0227    -3.045    -1.087    -1.016  0.9519 -0.2397  0.1910
              Bcc     0.0594     7.976     2.846     2.661  0.2517  0.9670 -0.0409
 
              Baa    -0.0371    -4.984    -1.778    -1.662  0.0780 -0.1217  0.9895
    14 C(13)  Bbb    -0.0222    -2.975    -1.061    -0.992 -0.6430  0.7524  0.1433
              Bcc     0.0593     7.959     2.840     2.655  0.7619  0.6474  0.0196
 
              Baa    -0.0206    -2.760    -0.985    -0.921 -0.3005  0.9514  0.0672
    15 C(13)  Bbb     0.0034     0.458     0.163     0.153  0.4825  0.0909  0.8712
              Bcc     0.0172     2.302     0.821     0.768  0.8227  0.2942 -0.4864
 
              Baa    -0.0198    -2.655    -0.947    -0.886 -0.1465  0.9889  0.0239
    16 C(13)  Bbb     0.0054     0.725     0.259     0.242  0.3284  0.0258  0.9442
              Bcc     0.0144     1.930     0.689     0.644  0.9331  0.1462 -0.3285
 
              Baa    -0.0384    -5.157    -1.840    -1.720  0.0279  0.0317  0.9991
    17 C(13)  Bbb    -0.0211    -2.834    -1.011    -0.945  0.2701  0.9621 -0.0380
              Bcc     0.0596     7.991     2.852     2.666  0.9624 -0.2709 -0.0183
 
              Baa    -0.0418    -5.604    -2.000    -1.869 -0.0110 -0.0312  0.9995
    18 C(13)  Bbb    -0.0202    -2.708    -0.966    -0.903  0.7521  0.6584  0.0288
              Bcc     0.0619     8.312     2.966     2.773 -0.6590  0.7520  0.0162
 
              Baa    -0.0173    -2.327    -0.830    -0.776  0.9556  0.2933 -0.0282
    19 C(13)  Bbb     0.0013     0.175     0.062     0.058  0.0630 -0.1097  0.9920
              Bcc     0.0160     2.152     0.768     0.718 -0.2878  0.9497  0.1233
 
              Baa    -0.0167    -2.235    -0.797    -0.745  0.9879  0.1473 -0.0476
    20 C(13)  Bbb     0.0001     0.013     0.005     0.004  0.0591 -0.0749  0.9954
              Bcc     0.0166     2.221     0.793     0.741 -0.1431  0.9862  0.0827
 
              Baa    -0.0397    -5.326    -1.900    -1.777  0.0905 -0.0394  0.9951
    21 C(13)  Bbb    -0.0215    -2.881    -1.028    -0.961  0.9611 -0.2585 -0.0976
              Bcc     0.0612     8.207     2.928     2.738  0.2611  0.9652  0.0145
 
              Baa    -0.0289    -3.884    -1.386    -1.296  0.8482 -0.5295 -0.0123
    22 C(13)  Bbb     0.0062     0.831     0.297     0.277 -0.2173 -0.3691  0.9036
              Bcc     0.0227     3.053     1.089     1.018  0.4830  0.7638  0.4281
 
              Baa    -0.0092    -4.932    -1.760    -1.645  0.8455 -0.5330 -0.0317
    23 H(1)   Bbb    -0.0084    -4.477    -1.598    -1.493  0.0419  0.0071  0.9991
              Bcc     0.0176     9.409     3.357     3.138  0.5323  0.8461 -0.0284
 
              Baa    -0.0271    -3.638    -1.298    -1.213  0.5339  0.8445 -0.0428
    24 C(13)  Bbb     0.0052     0.698     0.249     0.233 -0.3551  0.2698  0.8950
              Bcc     0.0219     2.940     1.049     0.981  0.7674 -0.4626  0.4440
 
              Baa    -0.0089    -4.748    -1.694    -1.584  0.5291  0.8467 -0.0567
    25 H(1)   Bbb    -0.0083    -4.434    -1.582    -1.479 -0.0513  0.0985  0.9938
              Bcc     0.0172     9.182     3.276     3.063  0.8470 -0.5229  0.0955
 
              Baa    -0.0304    -4.074    -1.454    -1.359  0.8445 -0.5250  0.1057
    26 C(13)  Bbb     0.0063     0.842     0.300     0.281  0.2289  0.5323  0.8150
              Bcc     0.0241     3.232     1.153     1.078  0.4842  0.6641 -0.5697
 
              Baa    -0.0094    -5.019    -1.791    -1.674  0.8373 -0.5236  0.1573
    27 H(1)   Bbb    -0.0085    -4.515    -1.611    -1.506 -0.1346  0.0813  0.9876
              Bcc     0.0179     9.534     3.402     3.180  0.5299  0.8481  0.0024
 
              Baa    -0.0292    -3.918    -1.398    -1.307  0.5306  0.8471 -0.0282
    28 C(13)  Bbb     0.0078     1.052     0.375     0.351  0.4613 -0.2608  0.8481
              Bcc     0.0214     2.866     1.023     0.956  0.7111 -0.4630 -0.5291
 
              Baa    -0.0092    -4.898    -1.748    -1.634  0.5307  0.8431 -0.0872
    29 H(1)   Bbb    -0.0083    -4.422    -1.578    -1.475  0.0762  0.0550  0.9956
              Bcc     0.0175     9.321     3.326     3.109  0.8441 -0.5350 -0.0350
 
              Baa    -0.0048    -0.649    -0.231    -0.216  0.1309  0.9626 -0.2373
    30 C(13)  Bbb    -0.0044    -0.590    -0.211    -0.197 -0.0584  0.2464  0.9674
              Bcc     0.0092     1.239     0.442     0.413  0.9897 -0.1128  0.0884
 
              Baa    -0.0031    -1.680    -0.600    -0.561 -0.0676  0.1135  0.9912
    31 H(1)   Bbb    -0.0028    -1.516    -0.541    -0.506 -0.0364  0.9926 -0.1161
              Bcc     0.0060     3.197     1.141     1.066  0.9971  0.0439  0.0630
 
              Baa    -0.0039    -2.095    -0.748    -0.699 -0.1397  0.4768  0.8679
    32 H(1)   Bbb    -0.0034    -1.821    -0.650    -0.607  0.2755  0.8606 -0.4284
              Bcc     0.0073     3.916     1.397     1.306  0.9511 -0.1792  0.2516
 
              Baa    -0.0040    -2.121    -0.757    -0.707  0.0002 -0.3821  0.9241
    33 H(1)   Bbb    -0.0035    -1.864    -0.665    -0.622  0.2259  0.9003  0.3721
              Bcc     0.0075     3.984     1.422     1.329  0.9742 -0.2087 -0.0864
 
              Baa    -0.0049    -0.660    -0.236    -0.220 -0.5355  0.8425 -0.0586
    34 C(13)  Bbb    -0.0043    -0.579    -0.207    -0.193 -0.0405  0.0437  0.9982
              Bcc     0.0092     1.239     0.442     0.413  0.8436  0.5369  0.0108
 
              Baa    -0.0041    -2.162    -0.772    -0.721 -0.1982  0.5132  0.8351
    35 H(1)   Bbb    -0.0036    -1.895    -0.676    -0.632 -0.5799  0.6255 -0.5221
              Bcc     0.0076     4.058     1.448     1.353  0.7902  0.5877 -0.1736
 
              Baa    -0.0040    -2.108    -0.752    -0.703  0.0799 -0.3571  0.9306
    36 H(1)   Bbb    -0.0034    -1.818    -0.649    -0.607 -0.6270  0.7078  0.3255
              Bcc     0.0074     3.926     1.401     1.310  0.7749  0.6095  0.1673
 
              Baa    -0.0032    -1.687    -0.602    -0.563 -0.0364  0.0556  0.9978
    37 H(1)   Bbb    -0.0029    -1.534    -0.547    -0.512 -0.3944  0.9166 -0.0655
              Bcc     0.0060     3.221     1.149     1.074  0.9182  0.3959  0.0114
 
              Baa    -0.0047    -0.635    -0.227    -0.212  0.8266  0.5121 -0.2334
    38 C(13)  Bbb    -0.0045    -0.601    -0.215    -0.201  0.1819  0.1494  0.9719
              Bcc     0.0092     1.237     0.441     0.413 -0.5325  0.8459 -0.0304
 
              Baa    -0.0041    -2.179    -0.778    -0.727 -0.2901 -0.0210  0.9568
    39 H(1)   Bbb    -0.0035    -1.883    -0.672    -0.628  0.7253  0.6474  0.2342
              Bcc     0.0076     4.062     1.450     1.355 -0.6243  0.7619 -0.1726
 
              Baa    -0.0032    -1.712    -0.611    -0.571 -0.1655  0.0125  0.9861
    40 H(1)   Bbb    -0.0028    -1.507    -0.538    -0.503  0.9033  0.4032  0.1464
              Bcc     0.0060     3.219     1.149     1.074 -0.3958  0.9150 -0.0781
 
              Baa    -0.0038    -2.024    -0.722    -0.675  0.5403  0.2227  0.8115
    41 H(1)   Bbb    -0.0034    -1.826    -0.651    -0.609  0.6225  0.5431 -0.5635
              Bcc     0.0072     3.849     1.374     1.284 -0.5662  0.8096  0.1548
 
              Baa    -0.0092    -1.239    -0.442    -0.413  0.5427 -0.1529  0.8259
    42 C(13)  Bbb    -0.0025    -0.338    -0.120    -0.113  0.8290 -0.0603 -0.5560
              Bcc     0.0117     1.577     0.563     0.526  0.1349  0.9864  0.0940
 
              Baa    -0.0041    -2.173    -0.775    -0.725  0.2107  0.0262  0.9772
    43 H(1)   Bbb    -0.0037    -1.950    -0.696    -0.650  0.9513 -0.2358 -0.1988
              Bcc     0.0077     4.123     1.471     1.375  0.2252  0.9715 -0.0746
 
              Baa    -0.0082    -1.102    -0.393    -0.368  0.8478  0.0763 -0.5248
    44 C(13)  Bbb    -0.0010    -0.129    -0.046    -0.043  0.2507  0.8143  0.5234
              Bcc     0.0092     1.231     0.439     0.411  0.4673 -0.5754  0.6712
 
              Baa    -0.0027    -1.435    -0.512    -0.479  0.4585 -0.1084  0.8820
    45 H(1)   Bbb    -0.0019    -1.013    -0.361    -0.338  0.8681  0.2668 -0.4185
              Bcc     0.0046     2.447     0.873     0.816 -0.1899  0.9576  0.2164
 
              Baa    -0.0023    -1.239    -0.442    -0.413 -0.6872  0.0383  0.7254
    46 H(1)   Bbb    -0.0018    -0.954    -0.340    -0.318  0.7126 -0.1583  0.6835
              Bcc     0.0041     2.193     0.782     0.731  0.1410  0.9866  0.0815
 
              Baa    -0.0050    -0.674    -0.241    -0.225 -0.4261  0.7357 -0.5265
    47 C(13)  Bbb    -0.0044    -0.595    -0.212    -0.199 -0.3153  0.4247  0.8486
              Bcc     0.0095     1.270     0.453     0.423  0.8480  0.5276  0.0510
 
              Baa    -0.0044    -2.365    -0.844    -0.789  0.0500 -0.3597  0.9317
    48 H(1)   Bbb    -0.0038    -2.023    -0.722    -0.675 -0.6558  0.6918  0.3022
              Bcc     0.0082     4.387     1.565     1.463  0.7533  0.6261  0.2013
 
              Baa    -0.0036    -1.911    -0.682    -0.638 -0.2031  0.4707  0.8586
    49 H(1)   Bbb    -0.0032    -1.720    -0.614    -0.574 -0.5383  0.6788 -0.4994
              Bcc     0.0068     3.632     1.296     1.211  0.8179  0.5636 -0.1155
 
              Baa    -0.0033    -1.770    -0.632    -0.590 -0.0653 -0.2150  0.9744
    50 H(1)   Bbb    -0.0030    -1.586    -0.566    -0.529 -0.4126  0.8949  0.1698
              Bcc     0.0063     3.356     1.198     1.119  0.9086  0.3909  0.1472
 
              Baa    -0.0103    -1.376    -0.491    -0.459  0.0945  0.4554  0.8852
    51 C(13)  Bbb    -0.0021    -0.277    -0.099    -0.092  0.0944  0.8811 -0.4634
              Bcc     0.0123     1.652     0.590     0.551  0.9910 -0.1274 -0.0403
 
              Baa    -0.0043    -2.298    -0.820    -0.766 -0.0663  0.1327  0.9889
    52 H(1)   Bbb    -0.0038    -2.013    -0.718    -0.671  0.2489  0.9620 -0.1125
              Bcc     0.0081     4.311     1.538     1.438  0.9663 -0.2386  0.0968
 
              Baa    -0.0086    -1.151    -0.411    -0.384 -0.0247  0.8842 -0.4664
    53 C(13)  Bbb    -0.0008    -0.109    -0.039    -0.036  0.9428 -0.1345 -0.3049
              Bcc     0.0094     1.259     0.449     0.420  0.3324  0.4473  0.8303
 
              Baa    -0.0025    -1.360    -0.485    -0.453  0.0832  0.3316  0.9398
    54 H(1)   Bbb    -0.0017    -0.895    -0.319    -0.299 -0.2423  0.9215 -0.3037
              Bcc     0.0042     2.255     0.805     0.752  0.9666  0.2024 -0.1570
 
              Baa    -0.0022    -1.176    -0.420    -0.392  0.1375  0.7710 -0.6218
    55 H(1)   Bbb    -0.0018    -0.947    -0.338    -0.316  0.0921  0.6151  0.7830
              Bcc     0.0040     2.123     0.757     0.708  0.9862 -0.1649  0.0135
 
              Baa    -0.0048    -0.646    -0.231    -0.216  0.8390  0.5298 -0.1236
    56 C(13)  Bbb    -0.0043    -0.578    -0.206    -0.193  0.1102  0.0569  0.9923
              Bcc     0.0091     1.224     0.437     0.408 -0.5328  0.8462  0.0106
 
              Baa    -0.0040    -2.125    -0.758    -0.709 -0.4264 -0.1363  0.8942
    57 H(1)   Bbb    -0.0035    -1.863    -0.665    -0.621  0.6782  0.6059  0.4158
              Bcc     0.0075     3.987     1.423     1.330 -0.5985  0.7838 -0.1660
 
              Baa    -0.0039    -2.078    -0.741    -0.693  0.4146  0.1128  0.9030
    58 H(1)   Bbb    -0.0034    -1.803    -0.643    -0.601  0.6907  0.6070 -0.3930
              Bcc     0.0073     3.881     1.385     1.295 -0.5924  0.7867  0.1737
 
              Baa    -0.0031    -1.664    -0.594    -0.555  0.0372  0.0209  0.9991
    59 H(1)   Bbb    -0.0028    -1.503    -0.536    -0.501  0.9183  0.3936 -0.0424
              Bcc     0.0059     3.167     1.130     1.057 -0.3941  0.9191 -0.0045
 
              Baa    -0.0048    -0.648    -0.231    -0.216  0.9922 -0.1106  0.0571
    60 C(13)  Bbb    -0.0043    -0.576    -0.205    -0.192 -0.0548  0.0233  0.9982
              Bcc     0.0091     1.223     0.437     0.408  0.1117  0.9936 -0.0171
 
              Baa    -0.0040    -2.126    -0.759    -0.709  0.5197  0.0724  0.8513
    61 H(1)   Bbb    -0.0035    -1.872    -0.668    -0.624  0.8340 -0.2592 -0.4871
              Bcc     0.0075     3.998     1.427     1.334  0.1854  0.9631 -0.1950
 
              Baa    -0.0031    -1.666    -0.595    -0.556  0.0351  0.0176  0.9992
    62 H(1)   Bbb    -0.0028    -1.504    -0.537    -0.502  0.9985  0.0422 -0.0358
              Bcc     0.0059     3.171     1.131     1.058 -0.0428  0.9990 -0.0161
 
              Baa    -0.0039    -2.093    -0.747    -0.698 -0.3627 -0.0613  0.9299
    63 H(1)   Bbb    -0.0034    -1.815    -0.648    -0.605  0.9091 -0.2425  0.3386
              Bcc     0.0073     3.908     1.394     1.303  0.2048  0.9682  0.1437
 
              Baa    -0.0228    -3.061    -1.092    -1.021 -0.3358  0.9419 -0.0002
    64 C(13)  Bbb    -0.0176    -2.355    -0.840    -0.786  0.7934  0.2829  0.5390
              Bcc     0.0404     5.416     1.933     1.807 -0.5078 -0.1808  0.8423
 
              Baa    -0.0100    -5.348    -1.908    -1.784 -0.4999  0.8596 -0.1061
    65 H(1)   Bbb    -0.0076    -4.041    -1.442    -1.348  0.7855  0.5016  0.3624
              Bcc     0.0176     9.389     3.350     3.132 -0.3647 -0.0978  0.9260
 
              Baa    -0.0158    -8.419    -3.004    -2.808  0.8772 -0.4589  0.1411
    66 H(1)   Bbb    -0.0137    -7.326    -2.614    -2.444  0.2873  0.7372  0.6116
              Bcc     0.0295    15.745     5.618     5.252 -0.3847 -0.4960  0.7785
 
              Baa    -0.0175    -9.353    -3.337    -3.120 -0.0921  0.9953  0.0290
    67 H(1)   Bbb    -0.0150    -8.011    -2.858    -2.672  0.7154  0.0459  0.6972
              Bcc     0.0325    17.364     6.196     5.792 -0.6926 -0.0850  0.7163
 
              Baa    -0.3362   -13.784    -4.919    -4.598  0.2332  0.9640 -0.1276
    68 S(33)  Bbb    -0.2998   -12.293    -4.386    -4.101  0.9563 -0.2512 -0.1495
              Bcc     0.6360    26.077     9.305     8.698  0.1762  0.0872  0.9805
 
              Baa    -0.0309   -16.495    -5.886    -5.502  0.9405  0.3375 -0.0391
    69 H(1)   Bbb    -0.0211   -11.265    -4.020    -3.758 -0.3035  0.7828 -0.5433
              Bcc     0.0520    27.760     9.906     9.260 -0.1528  0.5228  0.8386
 

 ---------------------------------------------------------------------------------

 Unable to Open any file for archive entry.
 1\1\GINC-BGN1040\SP\UAPFD\Gen\C31H32Fe1N4S1(1+,6)\BECSLEIP\22-Aug-2024
 \0\\# apfd/gen scf=maxcycle=999 geom=check\\2cp4_III_H\\1,6\Fe,0,48.45
 88047307,46.2221491187,9.1210179491\N,0,47.7385192463,44.353677502,9.1
 919032413\N,0,50.2814876987,45.4804862209,9.6777642974\N,0,49.12141923
 52,48.0572761797,9.6513427325\N,0,46.5566251616,46.9105111417,9.319338
 6379\C,0,46.4593801439,43.9776800261,8.9085712736\C,0,46.3522298218,42
 .5397255152,8.8099375284\C,0,47.6048161779,42.04895712,9.0082529958\C,
 0,48.4638728642,43.1961030755,9.2022614079\C,0,50.6862365147,44.187410
 5052,9.5033995074\C,0,52.1176204902,44.0815751702,9.4430009014\C,0,52.
 5954665395,45.3643293709,9.5108993801\C,0,51.4323236383,46.2166755789,
 9.6265382105\C,0,50.4245232993,48.4568369194,9.6100803056\C,0,50.53520
 287,49.891371862,9.5720289776\C,0,49.2545612572,50.3715682084,9.598315
 7532\C,0,48.3897549048,49.206669679,9.6409089752\C,0,46.1699599203,48.
 2151935836,9.3116599355\C,0,44.7419783499,48.3347164263,9.1251601694\C
 ,0,44.2791994162,47.0706896102,8.9281810473\C,0,45.4333105127,46.20359
 57358,8.9988086734\C,0,45.3806854935,44.8365897142,8.8064372545\H,0,44
 .4217920386,44.4037611983,8.5659264561\C,0,49.8264214272,43.1048643448
 ,9.397694467\H,0,50.2677938604,42.1212911103,9.3456486716\C,0,51.50566
 57561,47.5970988902,9.6551217139\H,0,52.4899110277,48.0388585168,9.623
 4390177\C,0,47.0142079985,49.2865851993,9.5297183019\H,0,46.5707267339
 ,50.2702264713,9.5362118028\C,0,48.0747594614,40.6357299387,9.02446172
 33\H,0,47.2433179908,39.9508757557,8.8786218083\H,0,48.5483435938,40.4
 02550521,9.9778583082\H,0,48.8045699286,40.4629541935,8.2326992734\C,0
 ,45.0803182692,41.8093614063,8.5510411888\H,0,44.6391944878,42.1295408
 232,7.606814075\H,0,44.3597231415,42.0051434743,9.3450441426\H,0,45.25
 31830891,40.7372444791,8.5024812737\C,0,52.8836393552,42.8079640747,9.
 3697018616\H,0,52.4173778894,42.0424985095,9.98833019\H,0,53.901898948
 1,42.9663336035,9.7192435747\H,0,52.9253835835,42.435244802,8.34462660
 34\C,0,53.9654392016,45.8299865541,9.494150438\H,0,54.172624022,46.698
 2165102,10.1084210205\C,0,54.9528074133,45.2817752242,8.7942990477\H,0
 ,54.7928028356,44.4470425342,8.1340584924\H,0,55.9567320794,45.6696417
 596,8.8384397618\C,0,51.8112947862,50.6457987998,9.446926284\H,0,52.49
 38942487,50.1356581409,8.7688354878\H,0,52.3036415062,50.7396867517,10
 .4159748103\H,0,51.6172933266,51.6442477327,9.0616380517\C,0,48.796802
 5696,51.7448434532,9.5700958652\H,0,47.8707015021,51.9225249595,9.0366
 68993\C,0,49.4167729775,52.769613672,10.1439733808\H,0,50.3134551471,5
 2.6443100266,10.7249904483\H,0,49.0294985698,53.772377285,10.073922028
 7\C,0,43.9970508481,49.6236910329,9.1469128365\H,0,44.3461208905,50.27
 972865,8.3491703316\H,0,44.1477900339,50.1359544785,10.0970569104\H,0,
 42.9313318297,49.4571629216,9.011763184\C,0,42.8882469616,46.601436750
 7,8.6760247034\H,0,42.8142118445,46.1253775154,7.6977623779\H,0,42.189
 4362826,47.4335039215,8.7048031003\H,0,42.5881812805,45.8741032585,9.4
 30209476\C,0,47.8608715898,45.1171726711,5.9785508747\H,0,48.139631382
 ,45.1289345209,4.9295349049\H,0,46.8142680622,45.3789834851,6.09392288
 9\H,0,48.0487842357,44.1465670191,6.4242458682\S,0,48.8177234627,46.40
 53505954,6.8668334721\H,0,50.0023842429,45.8043941993,6.6743213518\\Ve
 rsion=ES64L-G16RevC.02\State=6-A\HF=-3080.0354199\S2=8.763253\S2-1=0.\
 S2A=8.750053\RMSD=7.681e-09\Dipole=-0.1688449,-0.566504,-1.8416592\Qua
 drupole=15.936905,15.5969556,-31.5338606,-0.0062441,3.7404449,8.926641
 9\PG=C01 [X(C31H32Fe1N4S1)]\\@
 The archive entry for this job was punched.


 I do not feel obliged to believe that the same God who
 has endowed us with sense, reason, and intellect has
 intended us to forgo their use.
                   --Galileo Galilei
 Job cpu time:       0 days  1 hours 25 minutes 21.0 seconds.
 Elapsed time:       0 days  0 hours  1 minutes 29.3 seconds.
 File lengths (MBytes):  RWF=    343 Int=      0 D2E=      0 Chk=    150 Scr=      1
 Normal termination of Gaussian 16 at Thu Aug 22 11:10:10 2024.
