 Entering Gaussian System, Link 0=g16
 Input=2cpo16.com
 Output=2cpo16.log
 Initial command:
 /sw/chem/gaussian/g16_C02/a100/g16/l1.exe "/local/becsleip_7987968/Gau-2638333.inp" -scrdir="/local/becsleip_7987968/"
 Entering Link 1 = /sw/chem/gaussian/g16_C02/a100/g16/l1.exe PID=   2638334.
  
 Copyright (c) 1988-2021, Gaussian, Inc.  All Rights Reserved.
  
 This is part of the Gaussian(R) 16 program.  It is based on
 the Gaussian(R) 09 system (copyright 2009, Gaussian, Inc.),
 the Gaussian(R) 03 system (copyright 2003, Gaussian, Inc.),
 the Gaussian(R) 98 system (copyright 1998, Gaussian, Inc.),
 the Gaussian(R) 94 system (copyright 1995, Gaussian, Inc.),
 the Gaussian 92(TM) system (copyright 1992, Gaussian, Inc.),
 the Gaussian 90(TM) system (copyright 1990, Gaussian, Inc.),
 the Gaussian 88(TM) system (copyright 1988, Gaussian, Inc.),
 the Gaussian 86(TM) system (copyright 1986, Carnegie Mellon
 University), and the Gaussian 82(TM) system (copyright 1983,
 Carnegie Mellon University). Gaussian is a federally registered
 trademark of Gaussian, Inc.
  
 This software contains proprietary and confidential information,
 including trade secrets, belonging to Gaussian, Inc.
  
 This software is provided under written license and may be
 used, copied, transmitted, or stored only in accord with that
 written license.
  
 The following legend is applicable only to US Government
 contracts under FAR:
  
                    RESTRICTED RIGHTS LEGEND
  
 Use, reproduction and disclosure by the US Government is
 subject to restrictions as set forth in subparagraphs (a)
 and (c) of the Commercial Computer Software - Restricted
 Rights clause in FAR 52.227-19.
  
 Gaussian, Inc.
 340 Quinnipiac St., Bldg. 40, Wallingford CT 06492
  
  
 ---------------------------------------------------------------
 Warning -- This program may not be used in any manner that
 competes with the business of Gaussian, Inc. or will provide
 assistance to any competitor of Gaussian, Inc.  The licensee
 of this program is prohibited from giving any competitor of
 Gaussian, Inc. access to this program.  By using this program,
 the user acknowledges that Gaussian, Inc. is engaged in the
 business of creating and licensing software in the field of
 computational chemistry and represents and warrants to the
 licensee that it is not a competitor of Gaussian, Inc. and that
 it will not use this program in any manner prohibited above.
 ---------------------------------------------------------------
  

 Cite this work as:
 Gaussian 16, Revision C.02,
 M. J. Frisch, G. W. Trucks, H. B. Schlegel, G. E. Scuseria, 
 M. A. Robb, J. R. Cheeseman, G. Scalmani, V. Barone, 
 G. A. Petersson, H. Nakatsuji, X. Li, M. Caricato, A. V. Marenich, 
 J. Bloino, B. G. Janesko, R. Gomperts, B. Mennucci, H. P. Hratchian, 
 J. V. Ortiz, A. F. Izmaylov, J. L. Sonnenberg, D. Williams-Young, 
 F. Ding, F. Lipparini, F. Egidi, J. Goings, B. Peng, A. Petrone, 
 T. Henderson, D. Ranasinghe, V. G. Zakrzewski, J. Gao, N. Rega, 
 G. Zheng, W. Liang, M. Hada, M. Ehara, K. Toyota, R. Fukuda, 
 J. Hasegawa, M. Ishida, T. Nakajima, Y. Honda, O. Kitao, H. Nakai, 
 T. Vreven, K. Throssell, J. A. Montgomery, Jr., J. E. Peralta, 
 F. Ogliaro, M. J. Bearpark, J. J. Heyd, E. N. Brothers, K. N. Kudin, 
 V. N. Staroverov, T. A. Keith, R. Kobayashi, J. Normand, 
 K. Raghavachari, A. P. Rendell, J. C. Burant, S. S. Iyengar, 
 J. Tomasi, M. Cossi, J. M. Millam, M. Klene, C. Adamo, R. Cammi, 
 J. W. Ochterski, R. L. Martin, K. Morokuma, O. Farkas, 
 J. B. Foresman, and D. J. Fox, Gaussian, Inc., Wallingford CT, 2019.
 
 ******************************************
 Gaussian 16:  ES64L-G16RevC.02  7-Dec-2021
                22-Aug-2024 
 ******************************************
 %mem=16GB
 %CPU=0-71
 SetSPE:  set environment variable "OMP_PROC_BIND" = "true"
 SetSPE:  set environment variable "OMP_PLACES" = "{0},{1},{2},{3},{4},{5},{6},{7},{8},{9},{10},{11},{12},{13},{14},{15},{16},{17},{18},{19},{20},{21},{22},{23},{24},{25},{26},{27},{28},{29},{30},{31},{32},{33},{34},{35},{36},{37},{38},{39},{40},{41},{42},{43},{44},{45},{46},{47},{48},{49},{50},{51},{52},{53},{54},{55},{56},{57},{58},{59},{60},{61},{62},{63},{64},{65},{66},{67},{68},{69},{70},{71}"
 Will use up to   72 processors via shared memory.
 %gpucpu=0,1,2,3=0,1,2,3
 Will use    4 GPUs:
 Thread  CPU   GPU
      0    0     0
      1    1     1
      2    2     2
      3    3     3
      4    4    -1
      5    5    -1
      6    6    -1
      7    7    -1
      8    8    -1
      9    9    -1
     10   10    -1
     11   11    -1
     12   12    -1
     13   13    -1
     14   14    -1
     15   15    -1
     16   16    -1
     17   17    -1
     18   18    -1
     19   19    -1
     20   20    -1
     21   21    -1
     22   22    -1
     23   23    -1
     24   24    -1
     25   25    -1
     26   26    -1
     27   27    -1
     28   28    -1
     29   29    -1
     30   30    -1
     31   31    -1
     32   32    -1
     33   33    -1
     34   34    -1
     35   35    -1
     36   36    -1
     37   37    -1
     38   38    -1
     39   39    -1
     40   40    -1
     41   41    -1
     42   42    -1
     43   43    -1
     44   44    -1
     45   45    -1
     46   46    -1
     47   47    -1
     48   48    -1
     49   49    -1
     50   50    -1
     51   51    -1
     52   52    -1
     53   53    -1
     54   54    -1
     55   55    -1
     56   56    -1
     57   57    -1
     58   58    -1
     59   59    -1
     60   60    -1
     61   61    -1
     62   62    -1
     63   63    -1
     64   64    -1
     65   65    -1
     66   66    -1
     67   67    -1
     68   68    -1
     69   69    -1
     70   70    -1
     71   71    -1
 SetGPE:  set environment variable "OMP_PROC_BIND" = "true"
 SetGPE:  set environment variable "OMP_PLACES" = "{0},{1},{2},{3},{4},{5},{6},{7},{8},{9},{10},{11},{12},{13},{14},{15},{16},{17},{18},{19},{20},{21},{22},{23},{24},{25},{26},{27},{28},{29},{30},{31},{32},{33},{34},{35},{36},{37},{38},{39},{40},{41},{42},{43},{44},{45},{46},{47},{48},{49},{50},{51},{52},{53},{54},{55},{56},{57},{58},{59},{60},{61},{62},{63},{64},{65},{66},{67},{68},{69},{70},{71}"
 %oldchk=2cpo_III_Dre.chk
 %chk=2cpo_III_Hn.chk
 Properties for Device   0
 Minimum vector length:                              32
 Maximum vector length:                            1024
 Number of SMPs:                                    108
 Maximum number of threads per SMP:                2048
 Number of ASync Engines:                             5
 Memory:                                           9207742464
 Properties for Device   1
 Minimum vector length:                              32
 Maximum vector length:                            1024
 Number of SMPs:                                    108
 Maximum number of threads per SMP:                2048
 Number of ASync Engines:                             5
 Memory:                                           9207742464
 Properties for Device   2
 Minimum vector length:                              32
 Maximum vector length:                            1024
 Number of SMPs:                                    108
 Maximum number of threads per SMP:                2048
 Number of ASync Engines:                             5
 Memory:                                           9207742464
 Properties for Device   3
 Minimum vector length:                              32
 Maximum vector length:                            1024
 Number of SMPs:                                    108
 Maximum number of threads per SMP:                2048
 Number of ASync Engines:                             5
 Memory:                                           9207742464
   8286968217 words of memory will be used on each GPU.
 Copying data from "2cpo_III_Dre.chk" to current chk file "2cpo_III_Hn.chk"
 IOpt=  2 FromEx=T IUOpen= 4 IOptOp= 5 NList=   0 IFRang= 0 IUIn= 4 IUOut= 2.
 --------------------------------------------------------------
 # apfd/def2TZVP guess=read scf=maxcycle=999 geom=check pop=nbo
 --------------------------------------------------------------
 1/29=2,38=1,172=1/1;
 2/12=2,40=1/2;
 3/5=44,7=101,11=2,14=-4,25=1,30=1,74=-44,116=-2/1,2,3;
 4/5=1/1;
 5/5=2,7=999,38=6/2;
 6/7=2,8=2,9=2,10=2,28=1,40=1/1,7;
 99/5=1,9=1/99;
 ----------
 2cpo_III_H
 ----------
 Structure from the checkpoint file:  "2cpo_III_Hn.chk"
 Charge =  1 Multiplicity = 6
 Z-Matrix found in chk file.
 Fe,0,9.0402613961,18.9726780177,-2.8737232524
 N,0,10.6224482798,19.051718402,-4.1044407499
 N,0,8.8428516459,17.0015731926,-3.2823841309
 N,0,7.3195999651,18.8873449962,-1.8238553904
 N,0,9.0680708167,20.9502434533,-2.6480858873
 C,0,11.2497283903,20.1807323438,-4.5290828854
 C,0,12.1977218729,19.8755546383,-5.5757113566
 C,0,12.2327862155,18.5171584044,-5.6697819143
 C,0,11.1856285073,18.0261799845,-4.8023107627
 C,0,9.6483141284,16.2487667048,-4.0868540381
 C,0,9.217387973,14.8747172071,-4.1035194179
 C,0,8.0489693181,14.8333706489,-3.3909108889
 C,0,7.8149097473,16.1871749508,-2.927047244
 C,0,6.4675744554,17.8330927028,-1.7081822256
 C,0,5.2730376104,18.2029481614,-0.9916244933
 C,0,5.4553346867,19.5022615875,-0.6013200522
 C,0,6.7011653237,19.9282123356,-1.2092424562
 C,0,8.181845179,21.7215018896,-1.9721822267
 C,0,8.4762870841,23.1268064903,-2.1527579816
 C,0,9.5801382487,23.1839599657,-2.9423354895
 C,0,9.9272587505,21.812513494,-3.2535666968
 C,0,10.9431712347,21.4676380487,-4.1227088369
 H,0,11.524198421,22.2702373407,-4.5497765771
 C,0,10.7452049284,16.7172310033,-4.7906182393
 H,0,11.2892538494,16.0075850052,-5.3941954447
 C,0,6.6999297227,16.5649949752,-2.207394241
 H,0,5.9416076472,15.8170910866,-2.0379179225
 C,0,7.0942146725,21.2509337238,-1.2648459826
 H,0,6.4705646672,21.9764693505,-0.7659893013
 C,0,13.0558020193,17.6545613656,-6.5636910059
 H,0,13.8381837452,18.2354535863,-7.0457443599
 H,0,12.4393945197,17.1993596497,-7.3403117521
 H,0,13.5251238917,16.8541117104,-5.9925085682
 C,0,13.0209619649,20.8908505372,-6.2903443772
 H,0,13.6630925543,21.4287064801,-5.5923486447
 H,0,12.3799445476,21.6184701406,-6.7881957958
 H,0,13.6489973646,20.4185963722,-7.0416574154
 C,0,9.8774994694,13.7754666866,-4.8596409768
 H,0,10.7399868495,13.3905770324,-4.3128259419
 H,0,10.2248195118,14.1268083742,-5.8302409667
 H,0,9.1770481381,12.9580043902,-5.0166298857
 C,0,7.1802871285,13.7070921122,-3.128770796
 H,0,6.119699059,13.9280993548,-3.099728686
 C,0,7.5844051815,12.4586810964,-2.9197111652
 H,0,8.6264877282,12.1913721449,-2.8892948109
 H,0,6.8819906486,11.6613126967,-2.7428695535
 C,0,4.1672887311,17.2746685917,-0.6283616475
 H,0,4.5526372135,16.2837968037,-0.3928133221
 H,0,3.4586772298,17.174546001,-1.4521439799
 H,0,3.6330473769,17.6545505934,0.2399798319
 C,0,4.6027250133,20.3547577156,0.1981929574
 H,0,5.1237494295,21.0694387306,0.824994131
 C,0,3.2745981688,20.32172029,0.2203274963
 H,0,2.7066522503,19.6650382202,-0.415411696
 H,0,2.7057851185,20.9753978488,0.860555211
 C,0,7.6842575338,24.2338399567,-1.5481599974
 H,0,7.6864797735,24.1549546128,-0.460955744
 H,0,6.6492104141,24.1938342901,-1.887889885
 H,0,8.0980867385,25.2008208821,-1.8230933834
 C,0,10.3194536121,24.3745850391,-3.4480311234
 H,0,9.9015856243,25.290416525,-3.0377262874
 H,0,10.2631029053,24.4298812329,-4.5357428828
 H,0,11.370622721,24.3198601255,-3.1656044318
 O,0,7.919,19.3489999998,-4.7990000001
 H,0,8.682,19.3729999997,-5.376
 H,0,7.0679999993,19.3960000001,-5.0509999997
 C,0,11.7386477825,17.5715898523,-1.4345972393
 H,0,12.1899835414,17.1337795146,-0.5496814371
 H,0,12.4371174472,18.2471656925,-1.916719086
 H,0,11.4216395112,16.8089220227,-2.1372674471
 S,0,10.2980809083,18.5817957987,-0.9374110561
 H,0,9.5941241229,17.5526299003,-0.4509937842
 Recover connectivity data from disk.
 Stoichiometry    C31H34FeN4OS(1+,6)
 Framework group  C1[X(C31H34FeN4OS)]
 Deg. of freedom   210
 Full point group                 C1      NOp   1
 Largest Abelian subgroup         C1      NOp   1
 Largest concise Abelian subgroup C1      NOp   1
                         Standard orientation:                         
 ---------------------------------------------------------------------
 Center     Atomic      Atomic             Coordinates (Angstroms)
 Number     Number       Type             X           Y           Z
 ---------------------------------------------------------------------
      1         26           0        0.015429   -0.204287    0.139952
      2          7           0       -1.403972   -1.613124   -0.017235
      3          7           0       -1.402914    1.222973   -0.066110
      4          7           0        1.422735    1.239699    0.072328
      5          7           0        1.446793   -1.587079    0.100746
      6          6           0       -1.192890   -2.948508   -0.161000
      7          6           0       -2.428776   -3.630947   -0.467790
      8          6           0       -3.413576   -2.696052   -0.360738
      9          6           0       -2.746331   -1.429405   -0.159506
     10          6           0       -2.747223    1.026820   -0.196554
     11          6           0       -3.443899    2.284480   -0.279740
     12          6           0       -2.477162    3.252891   -0.327936
     13          6           0       -1.208329    2.556653   -0.238175
     14          6           0        1.242286    2.565809   -0.171898
     15          6           0        2.504229    3.253340   -0.281292
     16          6           0        3.467139    2.317040   -0.016846
     17          6           0        2.767101    1.053695    0.113552
     18          6           0        2.788098   -1.393486    0.078294
     19          6           0        3.489236   -2.649440   -0.080358
     20          6           0        2.533046   -3.612817   -0.133189
     21          6           0        1.261008   -2.927245   -0.032513
     22          6           0        0.044135   -3.568912   -0.150447
     23          1           0        0.058886   -4.639733   -0.281864
     24          6           0       -3.380113   -0.204471   -0.232408
     25          1           0       -4.452969   -0.209368   -0.345756
     26          6           0        0.015739    3.190199   -0.302254
     27          1           0        0.015685    4.252598   -0.487842
     28          6           0        3.416048   -0.165305    0.122447
     29          1           0        4.494810   -0.154581    0.103559
     30          6           0       -4.884539   -2.850609   -0.542075
     31          1           0       -5.159314   -3.901749   -0.581251
     32          1           0       -5.214391   -2.375699   -1.467259
     33          1           0       -5.420205   -2.386452    0.285483
     34          6           0       -2.542374   -5.093057   -0.729665
     35          1           0       -2.208236   -5.667698    0.134603
     36          1           0       -1.924757   -5.376035   -1.582110
     37          1           0       -3.571604   -5.366905   -0.947880
     38          6           0       -4.918323    2.444070   -0.407897
     39          1           0       -5.405033    2.356548    0.564977
     40          1           0       -5.335507    1.679707   -1.061995
     41          1           0       -5.152762    3.421943   -0.823018
     42          6           0       -2.627644    4.686041   -0.451489
     43          1           0       -1.867695    5.189817   -1.037340
     44          6           0       -3.601803    5.405298    0.095532
     45          1           0       -4.354545    4.964604    0.725995
     46          1           0       -3.663325    6.471269   -0.047213
     47          6           0        2.669153    4.720088   -0.475693
     48          1           0        1.892621    5.272217    0.051521
     49          1           0        2.609418    4.980115   -1.533799
     50          1           0        3.638500    5.038548   -0.097949
     51          6           0        4.903166    2.468516    0.071440
     52          1           0        5.391494    1.818819    0.788757
     53          6           0        5.638142    3.319718   -0.636209
     54          1           0        5.211267    3.953625   -1.393770
     55          1           0        6.704366    3.391644   -0.499361
     56          6           0        4.971314   -2.779226   -0.150886
     57          1           0        5.431816   -2.392965    0.758499
     58          1           0        5.365272   -2.214013   -0.995676
     59          1           0        5.263574   -3.819730   -0.268493
     60          6           0        2.684464   -5.086732   -0.289874
     61          1           0        3.734493   -5.368060   -0.292034
     62          1           0        2.238175   -5.422599   -1.226554
     63          1           0        2.190092   -5.610619    0.527960
     64          8           0       -0.011375   -0.369625   -2.113375
     65          1           0       -0.697616   -1.033773   -2.173815
     66          1           0        0.379617    0.045449   -2.795103
     67          6           0       -1.769466   -0.417859    2.983182
     68          1           0       -1.900606   -0.110236    4.015959
     69          1           0       -1.932925   -1.485846    2.886291
     70          1           0       -2.440994    0.117541    2.321140
     71         16           0       -0.039198   -0.109402    2.479229
     72          1           0       -0.110225    1.219715    2.619740
 ---------------------------------------------------------------------
 Rotational constants (GHZ):           0.1085653           0.1060863           0.0597490
 Standard basis: def2TZVP (5D, 7F)
 There are  1594 symmetry adapted cartesian basis functions of A   symmetry.
 There are  1402 symmetry adapted basis functions of A   symmetry.
  1402 basis functions,  2279 primitive gaussians,  1594 cartesian basis functions
   151 alpha electrons      146 beta electrons
       nuclear repulsion energy      5403.5103211476 Hartrees.
 NAtoms=   72 NActive=   72 NUniq=   72 SFac= 1.00D+00 NAtFMM=   60 NAOKFM=T Big=T
 Integral buffers will be    131072 words long.
 Raffenetti 2 integral format.
 Two-electron integral symmetry is turned on.
 R6APFD:  NTU= -4 IXU= 1 FactS= 1.050
 Nuclear repulsion after empirical dispersion term =     5403.3594193032 Hartrees.
 One-electron integrals computed using PRISM.
   1 Symmetry operations used in ECPInt.
 ECPInt:  NShTT=  157080 NPrTT=  488567 LenC2=  124655 LenP2D=  258539.
 LDataN:  DoStor=T MaxTD1= 6 Len=  172
 Number of processors reduced to  25 by ecpmxn.
 NBasis=  1402 RedAO= T EigKep=  4.05D-06  NBF=  1402
 NBsUse=  1402 1.00D-06 EigRej= -1.00D+00 NBFU=  1402
 Initial guess from the checkpoint file:  "2cpo_III_Hn.chk"
 B after Tr=     0.000000    0.000000    0.000000
         Rot=    1.000000   -0.000000    0.000000   -0.000000 Ang=   0.00 deg.
 Initial guess <Sx>= 0.0000 <Sy>= 0.0000 <Sz>= 2.5000 <S**2>= 8.8387 S= 2.5147
 Requested convergence on RMS density matrix=1.00D-08 within 999 cycles.
 Requested convergence on MAX density matrix=1.00D-06.
 Requested convergence on             energy=1.00D-06.
 No special actions if energy rises.
 EnCoef did   100 forward-backward iterations
 EnCoef did     5 forward-backward iterations
 EnCoef did    26 forward-backward iterations
 EnCoef did     4 forward-backward iterations
 EnCoef did     4 forward-backward iterations
 EnCoef did     5 forward-backward iterations
 Restarting incremental Fock formation.
 Rare condition: small coef for last iteration:  0.000D+00
 Rare condition: small coef for last iteration:  0.000D+00
 Rare condition: small coef for last iteration:  0.000D+00
 Rare condition: small coef for last iteration:  0.000D+00
 Rare condition: small coef for last iteration:  0.000D+00
 Restarting incremental Fock formation.
 Restarting incremental Fock formation.
 Restarting incremental Fock formation.
 SCF Done:  E(UAPFD) =  -3156.92985347     A.U. after   90 cycles
            NFock= 90  Conv=0.32D-08     -V/T= 2.0029
 <Sx>= 0.0000 <Sy>= 0.0000 <Sz>= 2.5000 <S**2>= 8.8523 S= 2.5170
 <L.S>=  0.00000000000    
 Annihilation of the first spin contaminant:
 S**2 before annihilation     8.8523,   after     8.7530

 **********************************************************************

            Population analysis using the SCF Density.

 **********************************************************************

 Orbital symmetries:
 Alpha Orbitals:
       Occupied  (A) (A) (A) (A) (A) (A) (A) (A) (A) (A) (A) (A)
                 (A) (A) (A) (A) (A) (A) (A) (A) (A) (A) (A) (A)
                 (A) (A) (A) (A) (A) (A) (A) (A) (A) (A) (A) (A)
                 (A) (A) (A) (A) (A) (A) (A) (A) (A) (A) (A) (A)
                 (A) (A) (A) (A) (A) (A) (A) (A) (A) (A) (A) (A)
                 (A) (A) (A) (A) (A) (A) (A) (A) (A) (A) (A) (A)
                 (A) (A) (A) (A) (A) (A) (A) (A) (A) (A) (A) (A)
                 (A) (A) (A) (A) (A) (A) (A) (A) (A) (A) (A) (A)
                 (A) (A) (A) (A) (A) (A) (A) (A) (A) (A) (A) (A)
                 (A) (A) (A) (A) (A) (A) (A) (A) (A) (A) (A) (A)
                 (A) (A) (A) (A) (A) (A) (A) (A) (A) (A) (A) (A)
                 (A) (A) (A) (A) (A) (A) (A) (A) (A) (A) (A) (A)
                 (A) (A) (A) (A) (A) (A) (A)
       Virtual   (A) (A) (A) (A) (A) (A) (A) (A) (A) (A) (A) (A)
                 (A) (A) (A) (A) (A) (A) (A) (A) (A) (A) (A) (A)
                 (A) (A) (A) (A) (A) (A) (A) (A) (A) (A) (A) (A)
                 (A) (A) (A) (A) (A) (A) (A) (A) (A) (A) (A) (A)
                 (A) (A) (A) (A) (A) (A) (A) (A) (A) (A) (A) (A)
                 (A) (A) (A) (A) (A) (A) (A) (A) (A) (A) (A) (A)
                 (A) (A) (A) (A) (A) (A) (A) (A) (A) (A) (A) (A)
                 (A) (A) (A) (A) (A) (A) (A) (A) (A) (A) (A) (A)
                 (A) (A) (A) (A) (A) (A) (A) (A) (A) (A) (A) (A)
                 (A) (A) (A) (A) (A) (A) (A) (A) (A) (A) (A) (A)
                 (A) (A) (A) (A) (A) (A) (A) (A) (A) (A) (A) (A)
                 (A) (A) (A) (A) (A) (A) (A) (A) (A) (A) (A) (A)
                 (A) (A) (A) (A) (A) (A) (A) (A) (A) (A) (A) (A)
                 (A) (A) (A) (A) (A) (A) (A) (A) (A) (A) (A) (A)
                 (A) (A) (A) (A) (A) (A) (A) (A) (A) (A) (A) (A)
                 (A) (A) (A) (A) (A) (A) (A) (A) (A) (A) (A) (A)
                 (A) (A) (A) (A) (A) (A) (A) (A) (A) (A) (A) (A)
                 (A) (A) (A) (A) (A) (A) (A) (A) (A) (A) (A) (A)
                 (A) (A) (A) (A) (A) (A) (A) (A) (A) (A) (A) (A)
                 (A) (A) (A) (A) (A) (A) (A) (A) (A) (A) (A) (A)
                 (A) (A) (A) (A) (A) (A) (A) (A) (A) (A) (A) (A)
                 (A) (A) (A) (A) (A) (A) (A) (A) (A) (A) (A) (A)
                 (A) (A) (A) (A) (A) (A) (A) (A) (A) (A) (A) (A)
                 (A) (A) (A) (A) (A) (A) (A) (A) (A) (A) (A) (A)
                 (A) (A) (A) (A) (A) (A) (A) (A) (A) (A) (A) (A)
                 (A) (A) (A) (A) (A) (A) (A) (A) (A) (A) (A) (A)
                 (A) (A) (A) (A) (A) (A) (A) (A) (A) (A) (A) (A)
                 (A) (A) (A) (A) (A) (A) (A) (A) (A) (A) (A) (A)
                 (A) (A) (A) (A) (A) (A) (A) (A) (A) (A) (A) (A)
                 (A) (A) (A) (A) (A) (A) (A) (A) (A) (A) (A) (A)
                 (A) (A) (A) (A) (A) (A) (A) (A) (A) (A) (A) (A)
                 (A) (A) (A) (A) (A) (A) (A) (A) (A) (A) (A) (A)
                 (A) (A) (A) (A) (A) (A) (A) (A) (A) (A) (A) (A)
                 (A) (A) (A) (A) (A) (A) (A) (A) (A) (A) (A) (A)
                 (A) (A) (A) (A) (A) (A) (A) (A) (A) (A) (A) (A)
                 (A) (A) (A) (A) (A) (A) (A) (A) (A) (A) (A) (A)
                 (A) (A) (A) (A) (A) (A) (A) (A) (A) (A) (A) (A)
                 (A) (A) (A) (A) (A) (A) (A) (A) (A) (A) (A) (A)
                 (A) (A) (A) (A) (A) (A) (A) (A) (A) (A) (A) (A)
                 (A) (A) (A) (A) (A) (A) (A) (A) (A) (A) (A) (A)
                 (A) (A) (A) (A) (A) (A) (A) (A) (A) (A) (A) (A)
                 (A) (A) (A) (A) (A) (A) (A) (A) (A) (A) (A) (A)
                 (A) (A) (A) (A) (A) (A) (A) (A) (A) (A) (A) (A)
                 (A) (A) (A) (A) (A) (A) (A) (A) (A) (A) (A) (A)
                 (A) (A) (A) (A) (A) (A) (A) (A) (A) (A) (A) (A)
                 (A) (A) (A) (A) (A) (A) (A) (A) (A) (A) (A) (A)
                 (A) (A) (A) (A) (A) (A) (A) (A) (A) (A) (A) (A)
                 (A) (A) (A) (A) (A) (A) (A) (A) (A) (A) (A) (A)
                 (A) (A) (A) (A) (A) (A) (A) (A) (A) (A) (A) (A)
                 (A) (A) (A) (A) (A) (A) (A) (A) (A) (A) (A) (A)
                 (A) (A) (A) (A) (A) (A) (A) (A) (A) (A) (A) (A)
                 (A) (A) (A) (A) (A) (A) (A) (A) (A) (A) (A) (A)
                 (A) (A) (A) (A) (A) (A) (A) (A) (A) (A) (A) (A)
                 (A) (A) (A) (A) (A) (A) (A) (A) (A) (A) (A) (A)
                 (A) (A) (A) (A) (A) (A) (A) (A) (A) (A) (A) (A)
                 (A) (A) (A) (A) (A) (A) (A) (A) (A) (A) (A) (A)
                 (A) (A) (A) (A) (A) (A) (A) (A) (A) (A) (A) (A)
                 (A) (A) (A) (A) (A) (A) (A) (A) (A) (A) (A) (A)
                 (A) (A) (A) (A) (A) (A) (A) (A) (A) (A) (A) (A)
                 (A) (A) (A) (A) (A) (A) (A) (A) (A) (A) (A) (A)
                 (A) (A) (A) (A) (A) (A) (A) (A) (A) (A) (A) (A)
                 (A) (A) (A) (A) (A) (A) (A) (A) (A) (A) (A) (A)
                 (A) (A) (A) (A) (A) (A) (A) (A) (A) (A) (A) (A)
                 (A) (A) (A) (A) (A) (A) (A) (A) (A) (A) (A) (A)
                 (A) (A) (A) (A) (A) (A) (A) (A) (A) (A) (A) (A)
                 (A) (A) (A) (A) (A) (A) (A) (A) (A) (A) (A) (A)
                 (A) (A) (A) (A) (A) (A) (A) (A) (A) (A) (A) (A)
                 (A) (A) (A) (A) (A) (A) (A) (A) (A) (A) (A) (A)
                 (A) (A) (A) (A) (A) (A) (A) (A) (A) (A) (A) (A)
                 (A) (A) (A) (A) (A) (A) (A) (A) (A) (A) (A) (A)
                 (A) (A) (A) (A) (A) (A) (A) (A) (A) (A) (A) (A)
                 (A) (A) (A) (A) (A) (A) (A) (A) (A) (A) (A) (A)
                 (A) (A) (A) (A) (A) (A) (A) (A) (A) (A) (A) (A)
                 (A) (A) (A) (A) (A) (A) (A) (A) (A) (A) (A) (A)
                 (A) (A) (A) (A) (A) (A) (A) (A) (A) (A) (A) (A)
                 (A) (A) (A) (A) (A) (A) (A) (A) (A) (A) (A) (A)
                 (A) (A) (A) (A) (A) (A) (A) (A) (A) (A) (A) (A)
                 (A) (A) (A) (A) (A) (A) (A) (A) (A) (A) (A) (A)
                 (A) (A) (A) (A) (A) (A) (A) (A) (A) (A) (A) (A)
                 (A) (A) (A) (A) (A) (A) (A) (A) (A) (A) (A) (A)
                 (A) (A) (A) (A) (A) (A) (A) (A) (A) (A) (A) (A)
                 (A) (A) (A) (A) (A) (A) (A) (A) (A) (A) (A) (A)
                 (A) (A) (A) (A) (A) (A) (A) (A) (A) (A) (A) (A)
                 (A) (A) (A) (A) (A) (A) (A) (A) (A) (A) (A) (A)
                 (A) (A) (A) (A) (A) (A) (A) (A) (A) (A) (A) (A)
                 (A) (A) (A) (A) (A) (A) (A) (A) (A) (A) (A) (A)
                 (A) (A) (A) (A) (A) (A) (A) (A) (A) (A) (A) (A)
                 (A) (A) (A) (A) (A) (A) (A) (A) (A) (A) (A) (A)
                 (A) (A) (A) (A) (A) (A) (A) (A) (A) (A) (A) (A)
                 (A) (A) (A) (A) (A) (A) (A) (A) (A) (A) (A) (A)
                 (A) (A) (A) (A) (A) (A) (A) (A) (A) (A) (A) (A)
                 (A) (A) (A) (A) (A) (A) (A) (A) (A) (A) (A) (A)
                 (A) (A) (A) (A) (A) (A) (A) (A) (A) (A) (A) (A)
                 (A) (A) (A) (A) (A) (A) (A) (A) (A) (A) (A) (A)
                 (A) (A) (A) (A) (A) (A) (A) (A) (A) (A) (A) (A)
                 (A) (A) (A) (A) (A) (A) (A) (A) (A) (A) (A) (A)
                 (A) (A) (A) (A) (A) (A) (A) (A) (A) (A) (A) (A)
                 (A) (A) (A) (A) (A) (A) (A) (A) (A) (A) (A) (A)
                 (A) (A) (A) (A) (A) (A) (A) (A) (A) (A) (A) (A)
                 (A) (A) (A) (A) (A) (A) (A) (A) (A) (A) (A) (A)
                 (A) (A) (A) (A) (A) (A) (A) (A) (A) (A) (A) (A)
                 (A) (A) (A) (A) (A) (A) (A) (A) (A) (A) (A) (A)
                 (A) (A) (A) (A) (A) (A) (A) (A) (A) (A) (A) (A)
                 (A) (A) (A) (A) (A) (A) (A) (A) (A) (A) (A) (A)
                 (A) (A) (A)
 Beta  Orbitals:
       Occupied  (A) (A) (A) (A) (A) (A) (A) (A) (A) (A) (A) (A)
                 (A) (A) (A) (A) (A) (A) (A) (A) (A) (A) (A) (A)
                 (A) (A) (A) (A) (A) (A) (A) (A) (A) (A) (A) (A)
                 (A) (A) (A) (A) (A) (A) (A) (A) (A) (A) (A) (A)
                 (A) (A) (A) (A) (A) (A) (A) (A) (A) (A) (A) (A)
                 (A) (A) (A) (A) (A) (A) (A) (A) (A) (A) (A) (A)
                 (A) (A) (A) (A) (A) (A) (A) (A) (A) (A) (A) (A)
                 (A) (A) (A) (A) (A) (A) (A) (A) (A) (A) (A) (A)
                 (A) (A) (A) (A) (A) (A) (A) (A) (A) (A) (A) (A)
                 (A) (A) (A) (A) (A) (A) (A) (A) (A) (A) (A) (A)
                 (A) (A) (A) (A) (A) (A) (A) (A) (A) (A) (A) (A)
                 (A) (A) (A) (A) (A) (A) (A) (A) (A) (A) (A) (A)
                 (A) (A)
       Virtual   (A) (A) (A) (A) (A) (A) (A) (A) (A) (A) (A) (A)
                 (A) (A) (A) (A) (A) (A) (A) (A) (A) (A) (A) (A)
                 (A) (A) (A) (A) (A) (A) (A) (A) (A) (A) (A) (A)
                 (A) (A) (A) (A) (A) (A) (A) (A) (A) (A) (A) (A)
                 (A) (A) (A) (A) (A) (A) (A) (A) (A) (A) (A) (A)
                 (A) (A) (A) (A) (A) (A) (A) (A) (A) (A) (A) (A)
                 (A) (A) (A) (A) (A) (A) (A) (A) (A) (A) (A) (A)
                 (A) (A) (A) (A) (A) (A) (A) (A) (A) (A) (A) (A)
                 (A) (A) (A) (A) (A) (A) (A) (A) (A) (A) (A) (A)
                 (A) (A) (A) (A) (A) (A) (A) (A) (A) (A) (A) (A)
                 (A) (A) (A) (A) (A) (A) (A) (A) (A) (A) (A) (A)
                 (A) (A) (A) (A) (A) (A) (A) (A) (A) (A) (A) (A)
                 (A) (A) (A) (A) (A) (A) (A) (A) (A) (A) (A) (A)
                 (A) (A) (A) (A) (A) (A) (A) (A) (A) (A) (A) (A)
                 (A) (A) (A) (A) (A) (A) (A) (A) (A) (A) (A) (A)
                 (A) (A) (A) (A) (A) (A) (A) (A) (A) (A) (A) (A)
                 (A) (A) (A) (A) (A) (A) (A) (A) (A) (A) (A) (A)
                 (A) (A) (A) (A) (A) (A) (A) (A) (A) (A) (A) (A)
                 (A) (A) (A) (A) (A) (A) (A) (A) (A) (A) (A) (A)
                 (A) (A) (A) (A) (A) (A) (A) (A) (A) (A) (A) (A)
                 (A) (A) (A) (A) (A) (A) (A) (A) (A) (A) (A) (A)
                 (A) (A) (A) (A) (A) (A) (A) (A) (A) (A) (A) (A)
                 (A) (A) (A) (A) (A) (A) (A) (A) (A) (A) (A) (A)
                 (A) (A) (A) (A) (A) (A) (A) (A) (A) (A) (A) (A)
                 (A) (A) (A) (A) (A) (A) (A) (A) (A) (A) (A) (A)
                 (A) (A) (A) (A) (A) (A) (A) (A) (A) (A) (A) (A)
                 (A) (A) (A) (A) (A) (A) (A) (A) (A) (A) (A) (A)
                 (A) (A) (A) (A) (A) (A) (A) (A) (A) (A) (A) (A)
                 (A) (A) (A) (A) (A) (A) (A) (A) (A) (A) (A) (A)
                 (A) (A) (A) (A) (A) (A) (A) (A) (A) (A) (A) (A)
                 (A) (A) (A) (A) (A) (A) (A) (A) (A) (A) (A) (A)
                 (A) (A) (A) (A) (A) (A) (A) (A) (A) (A) (A) (A)
                 (A) (A) (A) (A) (A) (A) (A) (A) (A) (A) (A) (A)
                 (A) (A) (A) (A) (A) (A) (A) (A) (A) (A) (A) (A)
                 (A) (A) (A) (A) (A) (A) (A) (A) (A) (A) (A) (A)
                 (A) (A) (A) (A) (A) (A) (A) (A) (A) (A) (A) (A)
                 (A) (A) (A) (A) (A) (A) (A) (A) (A) (A) (A) (A)
                 (A) (A) (A) (A) (A) (A) (A) (A) (A) (A) (A) (A)
                 (A) (A) (A) (A) (A) (A) (A) (A) (A) (A) (A) (A)
                 (A) (A) (A) (A) (A) (A) (A) (A) (A) (A) (A) (A)
                 (A) (A) (A) (A) (A) (A) (A) (A) (A) (A) (A) (A)
                 (A) (A) (A) (A) (A) (A) (A) (A) (A) (A) (A) (A)
                 (A) (A) (A) (A) (A) (A) (A) (A) (A) (A) (A) (A)
                 (A) (A) (A) (A) (A) (A) (A) (A) (A) (A) (A) (A)
                 (A) (A) (A) (A) (A) (A) (A) (A) (A) (A) (A) (A)
                 (A) (A) (A) (A) (A) (A) (A) (A) (A) (A) (A) (A)
                 (A) (A) (A) (A) (A) (A) (A) (A) (A) (A) (A) (A)
                 (A) (A) (A) (A) (A) (A) (A) (A) (A) (A) (A) (A)
                 (A) (A) (A) (A) (A) (A) (A) (A) (A) (A) (A) (A)
                 (A) (A) (A) (A) (A) (A) (A) (A) (A) (A) (A) (A)
                 (A) (A) (A) (A) (A) (A) (A) (A) (A) (A) (A) (A)
                 (A) (A) (A) (A) (A) (A) (A) (A) (A) (A) (A) (A)
                 (A) (A) (A) (A) (A) (A) (A) (A) (A) (A) (A) (A)
                 (A) (A) (A) (A) (A) (A) (A) (A) (A) (A) (A) (A)
                 (A) (A) (A) (A) (A) (A) (A) (A) (A) (A) (A) (A)
                 (A) (A) (A) (A) (A) (A) (A) (A) (A) (A) (A) (A)
                 (A) (A) (A) (A) (A) (A) (A) (A) (A) (A) (A) (A)
                 (A) (A) (A) (A) (A) (A) (A) (A) (A) (A) (A) (A)
                 (A) (A) (A) (A) (A) (A) (A) (A) (A) (A) (A) (A)
                 (A) (A) (A) (A) (A) (A) (A) (A) (A) (A) (A) (A)
                 (A) (A) (A) (A) (A) (A) (A) (A) (A) (A) (A) (A)
                 (A) (A) (A) (A) (A) (A) (A) (A) (A) (A) (A) (A)
                 (A) (A) (A) (A) (A) (A) (A) (A) (A) (A) (A) (A)
                 (A) (A) (A) (A) (A) (A) (A) (A) (A) (A) (A) (A)
                 (A) (A) (A) (A) (A) (A) (A) (A) (A) (A) (A) (A)
                 (A) (A) (A) (A) (A) (A) (A) (A) (A) (A) (A) (A)
                 (A) (A) (A) (A) (A) (A) (A) (A) (A) (A) (A) (A)
                 (A) (A) (A) (A) (A) (A) (A) (A) (A) (A) (A) (A)
                 (A) (A) (A) (A) (A) (A) (A) (A) (A) (A) (A) (A)
                 (A) (A) (A) (A) (A) (A) (A) (A) (A) (A) (A) (A)
                 (A) (A) (A) (A) (A) (A) (A) (A) (A) (A) (A) (A)
                 (A) (A) (A) (A) (A) (A) (A) (A) (A) (A) (A) (A)
                 (A) (A) (A) (A) (A) (A) (A) (A) (A) (A) (A) (A)
                 (A) (A) (A) (A) (A) (A) (A) (A) (A) (A) (A) (A)
                 (A) (A) (A) (A) (A) (A) (A) (A) (A) (A) (A) (A)
                 (A) (A) (A) (A) (A) (A) (A) (A) (A) (A) (A) (A)
                 (A) (A) (A) (A) (A) (A) (A) (A) (A) (A) (A) (A)
                 (A) (A) (A) (A) (A) (A) (A) (A) (A) (A) (A) (A)
                 (A) (A) (A) (A) (A) (A) (A) (A) (A) (A) (A) (A)
                 (A) (A) (A) (A) (A) (A) (A) (A) (A) (A) (A) (A)
                 (A) (A) (A) (A) (A) (A) (A) (A) (A) (A) (A) (A)
                 (A) (A) (A) (A) (A) (A) (A) (A) (A) (A) (A) (A)
                 (A) (A) (A) (A) (A) (A) (A) (A) (A) (A) (A) (A)
                 (A) (A) (A) (A) (A) (A) (A) (A) (A) (A) (A) (A)
                 (A) (A) (A) (A) (A) (A) (A) (A) (A) (A) (A) (A)
                 (A) (A) (A) (A) (A) (A) (A) (A) (A) (A) (A) (A)
                 (A) (A) (A) (A) (A) (A) (A) (A) (A) (A) (A) (A)
                 (A) (A) (A) (A) (A) (A) (A) (A) (A) (A) (A) (A)
                 (A) (A) (A) (A) (A) (A) (A) (A) (A) (A) (A) (A)
                 (A) (A) (A) (A) (A) (A) (A) (A) (A) (A) (A) (A)
                 (A) (A) (A) (A) (A) (A) (A) (A) (A) (A) (A) (A)
                 (A) (A) (A) (A) (A) (A) (A) (A) (A) (A) (A) (A)
                 (A) (A) (A) (A) (A) (A) (A) (A) (A) (A) (A) (A)
                 (A) (A) (A) (A) (A) (A) (A) (A) (A) (A) (A) (A)
                 (A) (A) (A) (A) (A) (A) (A) (A) (A) (A) (A) (A)
                 (A) (A) (A) (A) (A) (A) (A) (A) (A) (A) (A) (A)
                 (A) (A) (A) (A) (A) (A) (A) (A) (A) (A) (A) (A)
                 (A) (A) (A) (A) (A) (A) (A) (A) (A) (A) (A) (A)
                 (A) (A) (A) (A) (A) (A) (A) (A) (A) (A) (A) (A)
                 (A) (A) (A) (A) (A) (A) (A) (A) (A) (A) (A) (A)
                 (A) (A) (A) (A) (A) (A) (A) (A) (A) (A) (A) (A)
                 (A) (A) (A) (A) (A) (A) (A) (A) (A) (A) (A) (A)
                 (A) (A) (A) (A) (A) (A) (A) (A) (A) (A) (A) (A)
                 (A) (A) (A) (A) (A) (A) (A) (A) (A) (A) (A) (A)
                 (A) (A) (A) (A) (A) (A) (A) (A)
 The electronic state is 6-A.
 Alpha  occ. eigenvalues -- -256.40661 -89.07944 -30.29396 -26.14167 -26.11953
 Alpha  occ. eigenvalues --  -26.11936 -19.29051 -14.47166 -14.46953 -14.46581
 Alpha  occ. eigenvalues --  -14.46574 -10.35186 -10.34989 -10.34927 -10.34857
 Alpha  occ. eigenvalues --  -10.34377 -10.34287 -10.34272 -10.34010 -10.33295
 Alpha  occ. eigenvalues --  -10.31297 -10.30971 -10.30824 -10.30816 -10.30683
 Alpha  occ. eigenvalues --  -10.30675 -10.30573 -10.30498 -10.30355 -10.30308
 Alpha  occ. eigenvalues --  -10.29713 -10.29513 -10.29073 -10.28764 -10.28719
 Alpha  occ. eigenvalues --  -10.28578 -10.28570 -10.28531 -10.28485 -10.28397
 Alpha  occ. eigenvalues --  -10.28290 -10.28229  -8.10918  -6.05436  -6.05184
 Alpha  occ. eigenvalues --   -6.04785  -3.71526  -2.51820  -2.45955  -2.45871
 Alpha  occ. eigenvalues --   -1.17250  -1.10573  -1.09747  -1.09355  -1.08563
 Alpha  occ. eigenvalues --   -0.94904  -0.93484  -0.93124  -0.92807  -0.92383
 Alpha  occ. eigenvalues --   -0.92329  -0.92029  -0.91909  -0.87982  -0.86570
 Alpha  occ. eigenvalues --   -0.86256  -0.85507  -0.83912  -0.82346  -0.81270
 Alpha  occ. eigenvalues --   -0.79799  -0.79682  -0.79155  -0.78184  -0.76592
 Alpha  occ. eigenvalues --   -0.76405  -0.72947  -0.71820  -0.71203  -0.70207
 Alpha  occ. eigenvalues --   -0.69289  -0.66500  -0.65775  -0.64788  -0.64692
 Alpha  occ. eigenvalues --   -0.63109  -0.63043  -0.62784  -0.60669  -0.59475
 Alpha  occ. eigenvalues --   -0.59325  -0.58842  -0.57929  -0.57230  -0.57045
 Alpha  occ. eigenvalues --   -0.56330  -0.56041  -0.55622  -0.55194  -0.55012
 Alpha  occ. eigenvalues --   -0.54504  -0.54340  -0.54124  -0.53963  -0.53248
 Alpha  occ. eigenvalues --   -0.53079  -0.52640  -0.52385  -0.52032  -0.51798
 Alpha  occ. eigenvalues --   -0.51689  -0.51528  -0.51294  -0.51187  -0.50880
 Alpha  occ. eigenvalues --   -0.50771  -0.50371  -0.49933  -0.49726  -0.49658
 Alpha  occ. eigenvalues --   -0.49282  -0.49188  -0.49083  -0.49013  -0.48753
 Alpha  occ. eigenvalues --   -0.48361  -0.47750  -0.47723  -0.47256  -0.46245
 Alpha  occ. eigenvalues --   -0.46075  -0.45541  -0.44841  -0.44687  -0.44511
 Alpha  occ. eigenvalues --   -0.44187  -0.43697  -0.43206  -0.42241  -0.41249
 Alpha  occ. eigenvalues --   -0.41056  -0.39337  -0.39126  -0.36371  -0.35233
 Alpha  occ. eigenvalues --   -0.34768  -0.33910  -0.33671  -0.32056  -0.31221
 Alpha  occ. eigenvalues --   -0.23181
 Alpha virt. eigenvalues --   -0.20515  -0.19076  -0.13962  -0.10375  -0.10153
 Alpha virt. eigenvalues --   -0.09362  -0.08028  -0.07848  -0.06398  -0.04977
 Alpha virt. eigenvalues --   -0.04424  -0.04217  -0.03784  -0.03453  -0.02951
 Alpha virt. eigenvalues --   -0.02247  -0.01871  -0.01698  -0.00581  -0.00386
 Alpha virt. eigenvalues --   -0.00129  -0.00093   0.00318   0.00576   0.00867
 Alpha virt. eigenvalues --    0.01170   0.01566   0.01682   0.01867   0.02224
 Alpha virt. eigenvalues --    0.02303   0.02547   0.03050   0.03125   0.03433
 Alpha virt. eigenvalues --    0.03902   0.04033   0.04128   0.04340   0.04511
 Alpha virt. eigenvalues --    0.04750   0.05261   0.05452   0.05914   0.06018
 Alpha virt. eigenvalues --    0.06204   0.06546   0.06721   0.06804   0.07011
 Alpha virt. eigenvalues --    0.07270   0.07508   0.07686   0.08009   0.08162
 Alpha virt. eigenvalues --    0.08249   0.08289   0.09085   0.09510   0.09902
 Alpha virt. eigenvalues --    0.10084   0.10389   0.10539   0.10687   0.10839
 Alpha virt. eigenvalues --    0.11192   0.11516   0.11784   0.11916   0.12205
 Alpha virt. eigenvalues --    0.12507   0.12789   0.12805   0.13481   0.13721
 Alpha virt. eigenvalues --    0.13997   0.14186   0.14495   0.15287   0.15592
 Alpha virt. eigenvalues --    0.15757   0.16055   0.16392   0.16697   0.16719
 Alpha virt. eigenvalues --    0.16839   0.16983   0.17485   0.17742   0.18026
 Alpha virt. eigenvalues --    0.18376   0.18644   0.18955   0.19150   0.19583
 Alpha virt. eigenvalues --    0.19904   0.20115   0.20452   0.20602   0.20686
 Alpha virt. eigenvalues --    0.20696   0.21034   0.21632   0.21722   0.21895
 Alpha virt. eigenvalues --    0.22175   0.22398   0.23096   0.23286   0.23602
 Alpha virt. eigenvalues --    0.23728   0.24019   0.24429   0.24698   0.25255
 Alpha virt. eigenvalues --    0.25436   0.25797   0.25898   0.26622   0.26914
 Alpha virt. eigenvalues --    0.27025   0.27113   0.27768   0.27961   0.28178
 Alpha virt. eigenvalues --    0.28625   0.28858   0.28999   0.29066   0.29359
 Alpha virt. eigenvalues --    0.29542   0.29828   0.30030   0.30228   0.30551
 Alpha virt. eigenvalues --    0.30761   0.31171   0.31356   0.31683   0.32195
 Alpha virt. eigenvalues --    0.32287   0.32426   0.32737   0.32895   0.33130
 Alpha virt. eigenvalues --    0.33235   0.33641   0.34054   0.34095   0.34412
 Alpha virt. eigenvalues --    0.34789   0.34996   0.35387   0.35443   0.35774
 Alpha virt. eigenvalues --    0.36264   0.36387   0.36925   0.37102   0.37341
 Alpha virt. eigenvalues --    0.37437   0.37668   0.37742   0.38125   0.38618
 Alpha virt. eigenvalues --    0.38765   0.38887   0.39298   0.39435   0.39813
 Alpha virt. eigenvalues --    0.39890   0.40113   0.40254   0.40584   0.40660
 Alpha virt. eigenvalues --    0.41120   0.41273   0.41691   0.41853   0.42101
 Alpha virt. eigenvalues --    0.42215   0.42404   0.42603   0.42672   0.43004
 Alpha virt. eigenvalues --    0.43092   0.43395   0.43569   0.44053   0.44289
 Alpha virt. eigenvalues --    0.44570   0.44871   0.44928   0.45137   0.45338
 Alpha virt. eigenvalues --    0.45630   0.45972   0.46482   0.46935   0.47312
 Alpha virt. eigenvalues --    0.47357   0.47702   0.48162   0.48315   0.48759
 Alpha virt. eigenvalues --    0.48982   0.49717   0.49928   0.50143   0.50339
 Alpha virt. eigenvalues --    0.50542   0.50960   0.51323   0.51625   0.51949
 Alpha virt. eigenvalues --    0.52262   0.52610   0.52774   0.53071   0.53575
 Alpha virt. eigenvalues --    0.53844   0.54169   0.54247   0.54618   0.54790
 Alpha virt. eigenvalues --    0.55200   0.55365   0.55836   0.55966   0.56197
 Alpha virt. eigenvalues --    0.56571   0.56796   0.57492   0.57961   0.58104
 Alpha virt. eigenvalues --    0.58556   0.58950   0.59192   0.59599   0.59823
 Alpha virt. eigenvalues --    0.59890   0.60521   0.60704   0.61167   0.61425
 Alpha virt. eigenvalues --    0.61610   0.61948   0.62247   0.62366   0.62671
 Alpha virt. eigenvalues --    0.63054   0.63196   0.63555   0.64030   0.64360
 Alpha virt. eigenvalues --    0.64905   0.65342   0.65985   0.66251   0.66428
 Alpha virt. eigenvalues --    0.66718   0.67356   0.67503   0.67865   0.68526
 Alpha virt. eigenvalues --    0.68871   0.68996   0.69587   0.70168   0.70426
 Alpha virt. eigenvalues --    0.70926   0.71803   0.72343   0.72458   0.72656
 Alpha virt. eigenvalues --    0.72928   0.73328   0.73584   0.74059   0.74484
 Alpha virt. eigenvalues --    0.75261   0.75472   0.75785   0.76070   0.76459
 Alpha virt. eigenvalues --    0.76855   0.76997   0.77831   0.78490   0.78979
 Alpha virt. eigenvalues --    0.79315   0.79651   0.79893   0.80057   0.80391
 Alpha virt. eigenvalues --    0.81267   0.81329   0.81749   0.82201   0.82610
 Alpha virt. eigenvalues --    0.83088   0.83699   0.83882   0.84678   0.84865
 Alpha virt. eigenvalues --    0.85491   0.85685   0.86373   0.86488   0.86894
 Alpha virt. eigenvalues --    0.87372   0.87654   0.87828   0.88266   0.88539
 Alpha virt. eigenvalues --    0.89111   0.89311   0.89592   0.90146   0.90458
 Alpha virt. eigenvalues --    0.90657   0.90895   0.91121   0.91589   0.91655
 Alpha virt. eigenvalues --    0.91809   0.92025   0.92434   0.92688   0.93082
 Alpha virt. eigenvalues --    0.93518   0.93869   0.94232   0.94514   0.94883
 Alpha virt. eigenvalues --    0.95596   0.95649   0.96139   0.96415   0.97003
 Alpha virt. eigenvalues --    0.97378   0.98213   0.98784   0.98859   0.99470
 Alpha virt. eigenvalues --    0.99933   1.00325   1.00934   1.01308   1.02282
 Alpha virt. eigenvalues --    1.02797   1.03300   1.03616   1.04355   1.05122
 Alpha virt. eigenvalues --    1.05957   1.06340   1.06927   1.06999   1.07579
 Alpha virt. eigenvalues --    1.08085   1.08191   1.08415   1.08788   1.09635
 Alpha virt. eigenvalues --    1.09743   1.09860   1.10521   1.11085   1.11187
 Alpha virt. eigenvalues --    1.12211   1.12595   1.12855   1.13360   1.13658
 Alpha virt. eigenvalues --    1.13869   1.14284   1.15144   1.15450   1.15676
 Alpha virt. eigenvalues --    1.16058   1.16322   1.16907   1.17100   1.17535
 Alpha virt. eigenvalues --    1.17670   1.17816   1.18492   1.18902   1.19467
 Alpha virt. eigenvalues --    1.20005   1.20850   1.21177   1.21548   1.23026
 Alpha virt. eigenvalues --    1.23447   1.23764   1.24656   1.25484   1.26077
 Alpha virt. eigenvalues --    1.26336   1.26559   1.26624   1.28201   1.28876
 Alpha virt. eigenvalues --    1.29173   1.29898   1.30286   1.31521   1.31741
 Alpha virt. eigenvalues --    1.32742   1.32975   1.32993   1.33820   1.33961
 Alpha virt. eigenvalues --    1.34671   1.35339   1.35763   1.36184   1.36809
 Alpha virt. eigenvalues --    1.36898   1.37197   1.37606   1.38029   1.38793
 Alpha virt. eigenvalues --    1.39042   1.39341   1.39500   1.40021   1.40605
 Alpha virt. eigenvalues --    1.40982   1.41094   1.41389   1.41928   1.42062
 Alpha virt. eigenvalues --    1.42443   1.42783   1.43050   1.43529   1.43612
 Alpha virt. eigenvalues --    1.44093   1.44207   1.44633   1.44781   1.45228
 Alpha virt. eigenvalues --    1.45400   1.45785   1.45860   1.46192   1.46645
 Alpha virt. eigenvalues --    1.46970   1.47079   1.47600   1.48040   1.48261
 Alpha virt. eigenvalues --    1.48414   1.48593   1.48791   1.49378   1.49658
 Alpha virt. eigenvalues --    1.49826   1.50178   1.50435   1.50548   1.50930
 Alpha virt. eigenvalues --    1.51215   1.51725   1.51862   1.52171   1.52596
 Alpha virt. eigenvalues --    1.52746   1.52996   1.53452   1.53974   1.54106
 Alpha virt. eigenvalues --    1.54478   1.54743   1.55181   1.55359   1.55859
 Alpha virt. eigenvalues --    1.56255   1.56399   1.57030   1.57225   1.57384
 Alpha virt. eigenvalues --    1.57765   1.58006   1.58412   1.59076   1.59431
 Alpha virt. eigenvalues --    1.59511   1.59929   1.60567   1.60664   1.61095
 Alpha virt. eigenvalues --    1.61548   1.61643   1.62428   1.62812   1.62929
 Alpha virt. eigenvalues --    1.64142   1.64561   1.64721   1.65307   1.65977
 Alpha virt. eigenvalues --    1.66619   1.66785   1.67132   1.67785   1.68394
 Alpha virt. eigenvalues --    1.68698   1.69663   1.70437   1.70570   1.70962
 Alpha virt. eigenvalues --    1.71359   1.72009   1.72758   1.73430   1.73635
 Alpha virt. eigenvalues --    1.74528   1.74739   1.75096   1.75560   1.75797
 Alpha virt. eigenvalues --    1.76246   1.76534   1.77085   1.77208   1.77437
 Alpha virt. eigenvalues --    1.78081   1.78355   1.78696   1.78991   1.79467
 Alpha virt. eigenvalues --    1.80236   1.80971   1.81212   1.81790   1.83223
 Alpha virt. eigenvalues --    1.83392   1.83758   1.84016   1.84333   1.85081
 Alpha virt. eigenvalues --    1.85184   1.86152   1.86615   1.87072   1.87728
 Alpha virt. eigenvalues --    1.87944   1.88307   1.88952   1.89551   1.89743
 Alpha virt. eigenvalues --    1.90154   1.90587   1.91024   1.91399   1.91639
 Alpha virt. eigenvalues --    1.92196   1.92972   1.93630   1.94548   1.94941
 Alpha virt. eigenvalues --    1.95191   1.95477   1.96004   1.97050   1.97478
 Alpha virt. eigenvalues --    1.97909   1.98215   1.98725   1.99059   1.99371
 Alpha virt. eigenvalues --    2.00081   2.00568   2.01060   2.01604   2.02068
 Alpha virt. eigenvalues --    2.02516   2.03613   2.04224   2.04412   2.04671
 Alpha virt. eigenvalues --    2.04974   2.06342   2.06727   2.07251   2.07586
 Alpha virt. eigenvalues --    2.07976   2.08601   2.09166   2.09377   2.09888
 Alpha virt. eigenvalues --    2.09947   2.10782   2.11605   2.12437   2.13029
 Alpha virt. eigenvalues --    2.14108   2.14300   2.14703   2.15049   2.15247
 Alpha virt. eigenvalues --    2.15625   2.16151   2.16665   2.17038   2.17278
 Alpha virt. eigenvalues --    2.17963   2.18553   2.18845   2.19234   2.19998
 Alpha virt. eigenvalues --    2.20314   2.20771   2.21037   2.21233   2.22532
 Alpha virt. eigenvalues --    2.22870   2.23507   2.23850   2.24545   2.25179
 Alpha virt. eigenvalues --    2.25385   2.25698   2.26170   2.26524   2.26928
 Alpha virt. eigenvalues --    2.27302   2.27727   2.27926   2.28074   2.28638
 Alpha virt. eigenvalues --    2.28871   2.29148   2.29689   2.30587   2.31419
 Alpha virt. eigenvalues --    2.31745   2.31770   2.32351   2.32710   2.33737
 Alpha virt. eigenvalues --    2.34218   2.34251   2.34774   2.34951   2.35624
 Alpha virt. eigenvalues --    2.35899   2.36271   2.36679   2.37200   2.37797
 Alpha virt. eigenvalues --    2.38433   2.38741   2.39306   2.40420   2.41340
 Alpha virt. eigenvalues --    2.42248   2.42504   2.43190   2.43229   2.43381
 Alpha virt. eigenvalues --    2.44016   2.44087   2.44733   2.45586   2.45876
 Alpha virt. eigenvalues --    2.46265   2.46336   2.46724   2.46818   2.47158
 Alpha virt. eigenvalues --    2.47605   2.47837   2.48435   2.49016   2.49214
 Alpha virt. eigenvalues --    2.49517   2.49702   2.50288   2.50433   2.50468
 Alpha virt. eigenvalues --    2.51016   2.51659   2.52391   2.52768   2.53192
 Alpha virt. eigenvalues --    2.53276   2.53386   2.54477   2.54950   2.55404
 Alpha virt. eigenvalues --    2.55845   2.56191   2.56455   2.56793   2.57331
 Alpha virt. eigenvalues --    2.57778   2.58157   2.58324   2.58608   2.59159
 Alpha virt. eigenvalues --    2.59639   2.59849   2.60527   2.61201   2.61845
 Alpha virt. eigenvalues --    2.62204   2.62697   2.63065   2.63262   2.63465
 Alpha virt. eigenvalues --    2.63792   2.64911   2.65455   2.66124   2.66353
 Alpha virt. eigenvalues --    2.66612   2.67366   2.67730   2.68423   2.68852
 Alpha virt. eigenvalues --    2.69338   2.69860   2.70298   2.70700   2.71011
 Alpha virt. eigenvalues --    2.71488   2.71774   2.72300   2.72403   2.72719
 Alpha virt. eigenvalues --    2.73081   2.73728   2.74095   2.74198   2.74932
 Alpha virt. eigenvalues --    2.75633   2.75827   2.76244   2.76729   2.76918
 Alpha virt. eigenvalues --    2.77818   2.78135   2.78519   2.78542   2.78864
 Alpha virt. eigenvalues --    2.79546   2.80395   2.80877   2.81349   2.81769
 Alpha virt. eigenvalues --    2.82502   2.82693   2.82969   2.83129   2.83615
 Alpha virt. eigenvalues --    2.83883   2.84094   2.85045   2.85303   2.85694
 Alpha virt. eigenvalues --    2.86273   2.86350   2.86954   2.87186   2.87843
 Alpha virt. eigenvalues --    2.88354   2.88638   2.89044   2.89397   2.90308
 Alpha virt. eigenvalues --    2.91031   2.91208   2.91664   2.91953   2.92357
 Alpha virt. eigenvalues --    2.93370   2.93871   2.94346   2.94968   2.95042
 Alpha virt. eigenvalues --    2.95311   2.96087   2.96297   2.96734   2.97265
 Alpha virt. eigenvalues --    2.97974   2.98213   2.98403   2.98611   2.98702
 Alpha virt. eigenvalues --    2.98989   2.99179   3.00061   3.00197   3.00522
 Alpha virt. eigenvalues --    3.01013   3.01668   3.01937   3.02050   3.02282
 Alpha virt. eigenvalues --    3.02651   3.03354   3.03760   3.04231   3.04479
 Alpha virt. eigenvalues --    3.04930   3.05230   3.06100   3.06313   3.06552
 Alpha virt. eigenvalues --    3.06808   3.07013   3.07217   3.07953   3.08070
 Alpha virt. eigenvalues --    3.08518   3.08966   3.09220   3.10093   3.10181
 Alpha virt. eigenvalues --    3.10480   3.10602   3.11027   3.11470   3.12103
 Alpha virt. eigenvalues --    3.12236   3.12425   3.12855   3.13216   3.13723
 Alpha virt. eigenvalues --    3.13992   3.14295   3.14580   3.14788   3.14978
 Alpha virt. eigenvalues --    3.15486   3.15910   3.16089   3.16601   3.16707
 Alpha virt. eigenvalues --    3.17104   3.17343   3.17936   3.18131   3.18685
 Alpha virt. eigenvalues --    3.19058   3.19317   3.19806   3.20237   3.20407
 Alpha virt. eigenvalues --    3.20640   3.20880   3.21073   3.21250   3.21381
 Alpha virt. eigenvalues --    3.21677   3.22229   3.22382   3.22500   3.23017
 Alpha virt. eigenvalues --    3.23284   3.23528   3.24049   3.24315   3.24631
 Alpha virt. eigenvalues --    3.24808   3.25151   3.25647   3.25806   3.26158
 Alpha virt. eigenvalues --    3.26378   3.26754   3.26962   3.27070   3.27819
 Alpha virt. eigenvalues --    3.28053   3.28295   3.28412   3.28748   3.29172
 Alpha virt. eigenvalues --    3.29460   3.29645   3.30237   3.30672   3.30866
 Alpha virt. eigenvalues --    3.31361   3.31827   3.32298   3.32437   3.33068
 Alpha virt. eigenvalues --    3.33434   3.33649   3.34104   3.34493   3.34970
 Alpha virt. eigenvalues --    3.35494   3.35766   3.36372   3.37453   3.37676
 Alpha virt. eigenvalues --    3.38416   3.38768   3.38973   3.39348   3.40023
 Alpha virt. eigenvalues --    3.40634   3.40879   3.41333   3.41692   3.42748
 Alpha virt. eigenvalues --    3.42819   3.43540   3.44258   3.44706   3.45023
 Alpha virt. eigenvalues --    3.45637   3.46024   3.46828   3.47699   3.47854
 Alpha virt. eigenvalues --    3.48536   3.48589   3.49275   3.49795   3.50332
 Alpha virt. eigenvalues --    3.50587   3.50933   3.52106   3.52691   3.53596
 Alpha virt. eigenvalues --    3.53699   3.54262   3.54961   3.55564   3.55996
 Alpha virt. eigenvalues --    3.56596   3.56793   3.57260   3.57609   3.58686
 Alpha virt. eigenvalues --    3.58865   3.59271   3.59628   3.60190   3.60572
 Alpha virt. eigenvalues --    3.60941   3.61298   3.61483   3.62152   3.62891
 Alpha virt. eigenvalues --    3.62997   3.63217   3.63788   3.64339   3.64791
 Alpha virt. eigenvalues --    3.64950   3.65345   3.66034   3.66324   3.67457
 Alpha virt. eigenvalues --    3.68721   3.69111   3.69371   3.70355   3.70644
 Alpha virt. eigenvalues --    3.70837   3.72398   3.72799   3.73546   3.73821
 Alpha virt. eigenvalues --    3.74280   3.75221   3.75561   3.75830   3.76684
 Alpha virt. eigenvalues --    3.77107   3.77892   3.78903   3.79749   3.80294
 Alpha virt. eigenvalues --    3.80812   3.81589   3.81754   3.83069   3.84074
 Alpha virt. eigenvalues --    3.85062   3.85274   3.86085   3.86629   3.86940
 Alpha virt. eigenvalues --    3.87103   3.87970   3.88210   3.88880   3.89129
 Alpha virt. eigenvalues --    3.89644   3.90333   3.90770   3.91579   3.92564
 Alpha virt. eigenvalues --    3.93195   3.93622   3.94949   3.95076   3.95586
 Alpha virt. eigenvalues --    3.96065   3.96669   3.97530   3.98295   3.98895
 Alpha virt. eigenvalues --    3.99306   4.00110   4.01175   4.01387   4.02326
 Alpha virt. eigenvalues --    4.02450   4.03028   4.03959   4.04826   4.05411
 Alpha virt. eigenvalues --    4.06241   4.06990   4.07116   4.07958   4.08225
 Alpha virt. eigenvalues --    4.08887   4.09186   4.09336   4.10106   4.10497
 Alpha virt. eigenvalues --    4.11993   4.12120   4.12216   4.12512   4.13534
 Alpha virt. eigenvalues --    4.14327   4.14978   4.16431   4.17024   4.17250
 Alpha virt. eigenvalues --    4.17807   4.18898   4.19842   4.20134   4.21084
 Alpha virt. eigenvalues --    4.21455   4.22017   4.22310   4.23324   4.23669
 Alpha virt. eigenvalues --    4.24239   4.25810   4.26143   4.27443   4.28562
 Alpha virt. eigenvalues --    4.28657   4.29444   4.29656   4.30237   4.31394
 Alpha virt. eigenvalues --    4.31837   4.32104   4.32364   4.32926   4.33862
 Alpha virt. eigenvalues --    4.34714   4.35134   4.35265   4.36172   4.37067
 Alpha virt. eigenvalues --    4.37332   4.38120   4.40043   4.40547   4.40895
 Alpha virt. eigenvalues --    4.41950   4.42243   4.42332   4.43563   4.44999
 Alpha virt. eigenvalues --    4.45330   4.46278   4.47036   4.47497   4.50784
 Alpha virt. eigenvalues --    4.51886   4.52454   4.53330   4.54242   4.55763
 Alpha virt. eigenvalues --    4.56061   4.57421   4.57838   4.58526   4.59884
 Alpha virt. eigenvalues --    4.60882   4.61921   4.62957   4.63466   4.65332
 Alpha virt. eigenvalues --    4.65597   4.66900   4.67920   4.69749   4.70681
 Alpha virt. eigenvalues --    4.71138   4.71977   4.72277   4.73059   4.73648
 Alpha virt. eigenvalues --    4.73992   4.74652   4.75402   4.75710   4.77590
 Alpha virt. eigenvalues --    4.79082   4.80139   4.81001   4.82390   4.82833
 Alpha virt. eigenvalues --    4.84411   4.85376   4.87219   4.88595   4.89480
 Alpha virt. eigenvalues --    4.90107   4.90223   4.90881   4.91533   4.93352
 Alpha virt. eigenvalues --    4.93798   4.95454   4.96427   4.97127   4.98425
 Alpha virt. eigenvalues --    5.01818   5.02271   5.03402   5.04805   5.05683
 Alpha virt. eigenvalues --    5.06609   5.07994   5.08501   5.10132   5.10797
 Alpha virt. eigenvalues --    5.11822   5.12167   5.12720   5.13466   5.15142
 Alpha virt. eigenvalues --    5.16159   5.22017   5.22528   5.22868   5.24532
 Alpha virt. eigenvalues --    5.25345   5.26244   5.26374   5.26982   5.27692
 Alpha virt. eigenvalues --    5.27801   5.34727   5.35668   5.36659   5.37108
 Alpha virt. eigenvalues --    5.38311   5.39381   5.41262   5.42304   5.45832
 Alpha virt. eigenvalues --    5.47512   5.48885   5.49472   5.49822   5.51544
 Alpha virt. eigenvalues --    5.53842   5.55254   5.55986   5.59913   5.62750
 Alpha virt. eigenvalues --    5.63549   5.65051   5.67362   5.72560   5.74879
 Alpha virt. eigenvalues --    5.76243   5.79197   5.86689   5.87844   5.88801
 Alpha virt. eigenvalues --    5.96922   5.97666   5.98097   5.99712   6.05185
 Alpha virt. eigenvalues --    6.11304   6.13604   6.20021   6.21815   6.27686
 Alpha virt. eigenvalues --    6.31454   6.39136   6.42535   6.48334   6.84697
 Alpha virt. eigenvalues --    7.17481   8.95273   9.11859   9.27547  19.49336
 Alpha virt. eigenvalues --   22.21432  22.25525  22.26767  22.36085  22.36940
 Alpha virt. eigenvalues --   22.41921  22.42558  22.50466  22.52934  22.72351
 Alpha virt. eigenvalues --   22.76477  22.79266  22.80986  22.81515  22.83864
 Alpha virt. eigenvalues --   22.84740  22.90997  22.93877  23.02627  23.14254
 Alpha virt. eigenvalues --   23.18151  23.18288  23.27489  23.28760  23.37088
 Alpha virt. eigenvalues --   23.39281  23.42826  23.59123  23.63619  23.67134
 Alpha virt. eigenvalues --   23.74948  32.76712  32.77925  32.79119  32.90658
 Alpha virt. eigenvalues --   43.79391
  Beta  occ. eigenvalues -- -256.40557 -89.07838 -30.23235 -26.07863 -26.07789
  Beta  occ. eigenvalues --  -26.06973 -19.28900 -14.47217 -14.47027 -14.46643
  Beta  occ. eigenvalues --  -14.46628 -10.34991 -10.34827 -10.34723 -10.34653
  Beta  occ. eigenvalues --  -10.33916 -10.33828 -10.33798 -10.33532 -10.33293
  Beta  occ. eigenvalues --  -10.31329 -10.31058 -10.30920 -10.30836 -10.30715
  Beta  occ. eigenvalues --  -10.30618 -10.30556 -10.30367 -10.30260 -10.30163
  Beta  occ. eigenvalues --  -10.29725 -10.29584 -10.29071 -10.28776 -10.28572
  Beta  occ. eigenvalues --  -10.28529 -10.28527 -10.28481 -10.28409 -10.28241
  Beta  occ. eigenvalues --  -10.28206 -10.28155  -8.10809  -6.05364  -6.05064
  Beta  occ. eigenvalues --   -6.04530  -3.56813  -2.33341  -2.33226  -2.29966
  Beta  occ. eigenvalues --   -1.16998  -1.10149  -1.09318  -1.08938  -1.08144
  Beta  occ. eigenvalues --   -0.94307  -0.93283  -0.92919  -0.92593  -0.92077
  Beta  occ. eigenvalues --   -0.91945  -0.91757  -0.91224  -0.87633  -0.86424
  Beta  occ. eigenvalues --   -0.85974  -0.85262  -0.83756  -0.82095  -0.81080
  Beta  occ. eigenvalues --   -0.79622  -0.79302  -0.79037  -0.77893  -0.76141
  Beta  occ. eigenvalues --   -0.75771  -0.72765  -0.71626  -0.70993  -0.69723
  Beta  occ. eigenvalues --   -0.69020  -0.66218  -0.65570  -0.64591  -0.64408
  Beta  occ. eigenvalues --   -0.62906  -0.62831  -0.62574  -0.60312  -0.59318
  Beta  occ. eigenvalues --   -0.59054  -0.58132  -0.57048  -0.56545  -0.55691
  Beta  occ. eigenvalues --   -0.55620  -0.55247  -0.54762  -0.54484  -0.54296
  Beta  occ. eigenvalues --   -0.54176  -0.53859  -0.53688  -0.52984  -0.52898
  Beta  occ. eigenvalues --   -0.52747  -0.51857  -0.51616  -0.51341  -0.51159
  Beta  occ. eigenvalues --   -0.51076  -0.51030  -0.50680  -0.50598  -0.50472
  Beta  occ. eigenvalues --   -0.50049  -0.49737  -0.49504  -0.49186  -0.48768
  Beta  occ. eigenvalues --   -0.48690  -0.48391  -0.48062  -0.47852  -0.47624
  Beta  occ. eigenvalues --   -0.47070  -0.46916  -0.45949  -0.45910  -0.45179
  Beta  occ. eigenvalues --   -0.44602  -0.43639  -0.43291  -0.42979  -0.42752
  Beta  occ. eigenvalues --   -0.40931  -0.40391  -0.39901  -0.38096  -0.38055
  Beta  occ. eigenvalues --   -0.37245  -0.35589  -0.34813  -0.33609  -0.33180
  Beta  occ. eigenvalues --   -0.30619
  Beta virt. eigenvalues --   -0.25502  -0.21115  -0.20485  -0.17053  -0.16240
  Beta virt. eigenvalues --   -0.16025  -0.12369  -0.12212  -0.09791  -0.09272
  Beta virt. eigenvalues --   -0.08089  -0.07563  -0.06224  -0.05817  -0.04436
  Beta virt. eigenvalues --   -0.04131  -0.03588  -0.03006  -0.02866  -0.02367
  Beta virt. eigenvalues --   -0.01946  -0.01591  -0.01114  -0.00441  -0.00094
  Beta virt. eigenvalues --    0.00211   0.00448   0.00618   0.01019   0.01429
  Beta virt. eigenvalues --    0.01551   0.02075   0.02261   0.02428   0.02680
  Beta virt. eigenvalues --    0.02877   0.03006   0.03252   0.03531   0.03732
  Beta virt. eigenvalues --    0.04142   0.04239   0.04260   0.04644   0.04896
  Beta virt. eigenvalues --    0.05006   0.05540   0.05654   0.06122   0.06223
  Beta virt. eigenvalues --    0.06458   0.06737   0.06921   0.06951   0.07267
  Beta virt. eigenvalues --    0.07684   0.07805   0.07964   0.08229   0.08389
  Beta virt. eigenvalues --    0.08410   0.08642   0.09327   0.09842   0.10041
  Beta virt. eigenvalues --    0.10300   0.10578   0.10713   0.10905   0.11056
  Beta virt. eigenvalues --    0.11462   0.11808   0.12002   0.12128   0.12441
  Beta virt. eigenvalues --    0.12806   0.12951   0.13083   0.13735   0.14042
  Beta virt. eigenvalues --    0.14421   0.14677   0.14791   0.15601   0.16002
  Beta virt. eigenvalues --    0.16101   0.16342   0.16666   0.16911   0.17144
  Beta virt. eigenvalues --    0.17191   0.17362   0.17718   0.17984   0.18232
  Beta virt. eigenvalues --    0.18636   0.18920   0.19355   0.19500   0.19941
  Beta virt. eigenvalues --    0.20153   0.20417   0.20736   0.20815   0.20959
  Beta virt. eigenvalues --    0.21257   0.21347   0.21896   0.22059   0.22290
  Beta virt. eigenvalues --    0.22499   0.22777   0.23417   0.23700   0.23905
  Beta virt. eigenvalues --    0.24274   0.24333   0.24767   0.25042   0.25693
  Beta virt. eigenvalues --    0.25875   0.26211   0.26244   0.26962   0.27160
  Beta virt. eigenvalues --    0.27359   0.27454   0.28197   0.28301   0.28502
  Beta virt. eigenvalues --    0.28963   0.29230   0.29295   0.29473   0.29717
  Beta virt. eigenvalues --    0.29965   0.30137   0.30370   0.30581   0.30924
  Beta virt. eigenvalues --    0.31022   0.31525   0.31707   0.32001   0.32424
  Beta virt. eigenvalues --    0.32698   0.32738   0.32889   0.33190   0.33459
  Beta virt. eigenvalues --    0.33529   0.33801   0.34237   0.34319   0.34698
  Beta virt. eigenvalues --    0.35079   0.35200   0.35620   0.35624   0.35981
  Beta virt. eigenvalues --    0.36452   0.36655   0.37098   0.37242   0.37493
  Beta virt. eigenvalues --    0.37655   0.37847   0.37936   0.38323   0.38841
  Beta virt. eigenvalues --    0.38926   0.39036   0.39486   0.39593   0.40023
  Beta virt. eigenvalues --    0.40162   0.40330   0.40482   0.40776   0.40855
  Beta virt. eigenvalues --    0.41319   0.41502   0.41889   0.42010   0.42349
  Beta virt. eigenvalues --    0.42453   0.42542   0.42800   0.42859   0.43172
  Beta virt. eigenvalues --    0.43302   0.43627   0.43824   0.44293   0.44509
  Beta virt. eigenvalues --    0.44731   0.45161   0.45269   0.45384   0.45591
  Beta virt. eigenvalues --    0.45855   0.46274   0.46714   0.47147   0.47541
  Beta virt. eigenvalues --    0.47693   0.48045   0.48479   0.48551   0.49028
  Beta virt. eigenvalues --    0.49234   0.50043   0.50188   0.50436   0.50678
  Beta virt. eigenvalues --    0.50868   0.51297   0.51658   0.51977   0.52198
  Beta virt. eigenvalues --    0.52547   0.52835   0.53023   0.53267   0.53761
  Beta virt. eigenvalues --    0.54133   0.54451   0.54487   0.54895   0.55057
  Beta virt. eigenvalues --    0.55442   0.55615   0.56066   0.56299   0.56456
  Beta virt. eigenvalues --    0.56839   0.57065   0.57804   0.58274   0.58402
  Beta virt. eigenvalues --    0.58905   0.59345   0.59484   0.60000   0.60156
  Beta virt. eigenvalues --    0.60330   0.60958   0.61076   0.61447   0.61851
  Beta virt. eigenvalues --    0.61905   0.62248   0.62575   0.62728   0.62999
  Beta virt. eigenvalues --    0.63405   0.63575   0.63892   0.64406   0.64701
  Beta virt. eigenvalues --    0.65175   0.65737   0.66286   0.66547   0.66735
  Beta virt. eigenvalues --    0.67117   0.67655   0.67772   0.68124   0.68824
  Beta virt. eigenvalues --    0.69225   0.69408   0.69991   0.70491   0.70753
  Beta virt. eigenvalues --    0.71233   0.72074   0.72695   0.72727   0.72982
  Beta virt. eigenvalues --    0.73275   0.73687   0.73913   0.74281   0.74856
  Beta virt. eigenvalues --    0.75526   0.75762   0.76103   0.76381   0.76712
  Beta virt. eigenvalues --    0.77102   0.77376   0.78163   0.78791   0.79353
  Beta virt. eigenvalues --    0.79665   0.79999   0.80263   0.80405   0.80634
  Beta virt. eigenvalues --    0.81510   0.81611   0.82064   0.82444   0.82955
  Beta virt. eigenvalues --    0.83325   0.84031   0.84111   0.84937   0.85255
  Beta virt. eigenvalues --    0.85689   0.86069   0.86581   0.86749   0.87199
  Beta virt. eigenvalues --    0.87742   0.87942   0.88129   0.88663   0.88807
  Beta virt. eigenvalues --    0.89434   0.89694   0.90021   0.90612   0.90740
  Beta virt. eigenvalues --    0.91050   0.91159   0.91425   0.91953   0.92050
  Beta virt. eigenvalues --    0.92151   0.92495   0.92679   0.93097   0.93505
  Beta virt. eigenvalues --    0.93909   0.94244   0.94559   0.94816   0.95174
  Beta virt. eigenvalues --    0.96011   0.96166   0.96536   0.97080   0.97445
  Beta virt. eigenvalues --    0.97822   0.98474   0.99311   0.99331   0.99896
  Beta virt. eigenvalues --    1.00355   1.00623   1.01158   1.01628   1.02702
  Beta virt. eigenvalues --    1.03076   1.03572   1.03875   1.04724   1.05686
  Beta virt. eigenvalues --    1.06290   1.06608   1.07184   1.07372   1.07861
  Beta virt. eigenvalues --    1.08388   1.08459   1.08834   1.09069   1.09883
  Beta virt. eigenvalues --    1.10127   1.10214   1.11012   1.11460   1.11540
  Beta virt. eigenvalues --    1.12595   1.12903   1.13389   1.13797   1.14148
  Beta virt. eigenvalues --    1.14380   1.14753   1.15442   1.15839   1.16047
  Beta virt. eigenvalues --    1.16417   1.16713   1.17104   1.17441   1.17780
  Beta virt. eigenvalues --    1.17989   1.18194   1.19063   1.19343   1.20002
  Beta virt. eigenvalues --    1.20421   1.21380   1.21606   1.22011   1.23366
  Beta virt. eigenvalues --    1.23817   1.24237   1.25088   1.25922   1.26475
  Beta virt. eigenvalues --    1.26702   1.26957   1.27111   1.28639   1.29364
  Beta virt. eigenvalues --    1.29706   1.30410   1.30638   1.31745   1.32220
  Beta virt. eigenvalues --    1.33115   1.33338   1.33495   1.34248   1.34416
  Beta virt. eigenvalues --    1.35017   1.35782   1.36131   1.36549   1.37138
  Beta virt. eigenvalues --    1.37271   1.37623   1.38078   1.38484   1.39221
  Beta virt. eigenvalues --    1.39482   1.39690   1.39768   1.40366   1.40891
  Beta virt. eigenvalues --    1.41304   1.41375   1.41794   1.42306   1.42403
  Beta virt. eigenvalues --    1.42884   1.43144   1.43390   1.43885   1.43930
  Beta virt. eigenvalues --    1.44280   1.44466   1.44830   1.44965   1.45411
  Beta virt. eigenvalues --    1.45769   1.46098   1.46138   1.46390   1.46868
  Beta virt. eigenvalues --    1.47184   1.47378   1.47813   1.48256   1.48513
  Beta virt. eigenvalues --    1.48720   1.48961   1.49080   1.49731   1.49945
  Beta virt. eigenvalues --    1.50160   1.50417   1.50793   1.50896   1.51300
  Beta virt. eigenvalues --    1.51485   1.52043   1.52267   1.52590   1.52969
  Beta virt. eigenvalues --    1.52996   1.53336   1.53835   1.54193   1.54503
  Beta virt. eigenvalues --    1.54910   1.54961   1.55382   1.55555   1.56158
  Beta virt. eigenvalues --    1.56530   1.56632   1.57226   1.57499   1.57642
  Beta virt. eigenvalues --    1.58064   1.58265   1.58663   1.59362   1.59625
  Beta virt. eigenvalues --    1.59874   1.60204   1.60822   1.60902   1.61349
  Beta virt. eigenvalues --    1.61733   1.61851   1.62814   1.63036   1.63154
  Beta virt. eigenvalues --    1.64406   1.64801   1.65028   1.65629   1.66257
  Beta virt. eigenvalues --    1.67000   1.67058   1.67431   1.68041   1.68774
  Beta virt. eigenvalues --    1.68990   1.70032   1.70817   1.70985   1.71199
  Beta virt. eigenvalues --    1.71638   1.72319   1.73096   1.73672   1.73953
  Beta virt. eigenvalues --    1.74817   1.75085   1.75541   1.76077   1.76303
  Beta virt. eigenvalues --    1.76628   1.76976   1.77397   1.77688   1.77758
  Beta virt. eigenvalues --    1.78405   1.78779   1.79089   1.79388   1.80087
  Beta virt. eigenvalues --    1.80549   1.81354   1.81820   1.82172   1.83617
  Beta virt. eigenvalues --    1.83791   1.84127   1.84406   1.84645   1.85461
  Beta virt. eigenvalues --    1.85618   1.86603   1.86936   1.87470   1.88113
  Beta virt. eigenvalues --    1.88407   1.88755   1.89356   1.89812   1.89992
  Beta virt. eigenvalues --    1.90579   1.90965   1.91346   1.91915   1.91945
  Beta virt. eigenvalues --    1.92540   1.93288   1.94071   1.94851   1.95443
  Beta virt. eigenvalues --    1.95625   1.95868   1.96418   1.97441   1.97756
  Beta virt. eigenvalues --    1.98157   1.98560   1.99038   1.99426   1.99749
  Beta virt. eigenvalues --    2.00450   2.00900   2.01337   2.01969   2.02396
  Beta virt. eigenvalues --    2.02914   2.03939   2.04629   2.04770   2.04990
  Beta virt. eigenvalues --    2.05292   2.06688   2.07032   2.07596   2.07933
  Beta virt. eigenvalues --    2.08393   2.08982   2.09572   2.09890   2.10136
  Beta virt. eigenvalues --    2.10411   2.11094   2.11918   2.12765   2.13391
  Beta virt. eigenvalues --    2.14401   2.14852   2.15054   2.15359   2.15546
  Beta virt. eigenvalues --    2.15933   2.16533   2.17014   2.17474   2.17801
  Beta virt. eigenvalues --    2.18303   2.18900   2.19110   2.19545   2.20478
  Beta virt. eigenvalues --    2.20599   2.21136   2.21478   2.21600   2.23051
  Beta virt. eigenvalues --    2.23133   2.23825   2.24508   2.24836   2.25476
  Beta virt. eigenvalues --    2.25654   2.26137   2.26420   2.26708   2.27338
  Beta virt. eigenvalues --    2.27530   2.27892   2.28239   2.28396   2.29058
  Beta virt. eigenvalues --    2.29212   2.29586   2.29940   2.30956   2.31793
  Beta virt. eigenvalues --    2.32055   2.32145   2.32718   2.33152   2.34156
  Beta virt. eigenvalues --    2.34487   2.34827   2.35147   2.35558   2.36015
  Beta virt. eigenvalues --    2.36223   2.36660   2.37218   2.37571   2.38128
  Beta virt. eigenvalues --    2.38762   2.39086   2.39631   2.40781   2.41634
  Beta virt. eigenvalues --    2.42519   2.42866   2.43337   2.43518   2.43658
  Beta virt. eigenvalues --    2.44276   2.44378   2.45021   2.45888   2.46115
  Beta virt. eigenvalues --    2.46527   2.46639   2.46885   2.47029   2.47469
  Beta virt. eigenvalues --    2.47775   2.48185   2.48707   2.49248   2.49444
  Beta virt. eigenvalues --    2.49813   2.49997   2.50539   2.50711   2.50843
  Beta virt. eigenvalues --    2.51363   2.51849   2.52715   2.53097   2.53549
  Beta virt. eigenvalues --    2.53627   2.53753   2.54789   2.55212   2.55768
  Beta virt. eigenvalues --    2.56271   2.56470   2.56843   2.57207   2.57639
  Beta virt. eigenvalues --    2.58055   2.58487   2.58673   2.58842   2.59598
  Beta virt. eigenvalues --    2.59860   2.60090   2.60870   2.61521   2.62146
  Beta virt. eigenvalues --    2.62585   2.63032   2.63324   2.63656   2.63836
  Beta virt. eigenvalues --    2.64111   2.65297   2.65890   2.66405   2.66635
  Beta virt. eigenvalues --    2.66987   2.67742   2.68086   2.68757   2.69262
  Beta virt. eigenvalues --    2.69609   2.70224   2.70752   2.71058   2.71354
  Beta virt. eigenvalues --    2.71923   2.72165   2.72645   2.72700   2.73015
  Beta virt. eigenvalues --    2.73423   2.74147   2.74450   2.74468   2.75301
  Beta virt. eigenvalues --    2.76031   2.76201   2.76720   2.77150   2.77465
  Beta virt. eigenvalues --    2.78353   2.78466   2.78822   2.78904   2.79513
  Beta virt. eigenvalues --    2.79956   2.80807   2.81475   2.81643   2.82169
  Beta virt. eigenvalues --    2.82857   2.83112   2.83366   2.83557   2.84017
  Beta virt. eigenvalues --    2.84191   2.84606   2.85542   2.85725   2.86254
  Beta virt. eigenvalues --    2.86650   2.86896   2.87317   2.87555   2.88201
  Beta virt. eigenvalues --    2.88727   2.89047   2.89384   2.89772   2.90683
  Beta virt. eigenvalues --    2.91345   2.91517   2.92042   2.92332   2.92721
  Beta virt. eigenvalues --    2.93719   2.94274   2.94802   2.95310   2.95407
  Beta virt. eigenvalues --    2.95638   2.96498   2.96694   2.97054   2.97638
  Beta virt. eigenvalues --    2.98346   2.98516   2.98786   2.99024   2.99161
  Beta virt. eigenvalues --    2.99393   2.99556   3.00468   3.00482   3.00846
  Beta virt. eigenvalues --    3.01420   3.02076   3.02360   3.02437   3.02740
  Beta virt. eigenvalues --    3.03036   3.03628   3.04152   3.04562   3.04867
  Beta virt. eigenvalues --    3.05433   3.05642   3.06427   3.06710   3.06793
  Beta virt. eigenvalues --    3.07199   3.07389   3.07632   3.08352   3.08477
  Beta virt. eigenvalues --    3.08862   3.09458   3.09672   3.10460   3.10579
  Beta virt. eigenvalues --    3.10823   3.11008   3.11437   3.11915   3.12461
  Beta virt. eigenvalues --    3.12607   3.12847   3.13365   3.13710   3.14095
  Beta virt. eigenvalues --    3.14378   3.14723   3.14999   3.15176   3.15332
  Beta virt. eigenvalues --    3.15862   3.16119   3.16472   3.17037   3.17087
  Beta virt. eigenvalues --    3.17410   3.17721   3.18214   3.18515   3.19028
  Beta virt. eigenvalues --    3.19370   3.19792   3.20139   3.20513   3.20698
  Beta virt. eigenvalues --    3.21027   3.21157   3.21397   3.21617   3.21804
  Beta virt. eigenvalues --    3.22099   3.22571   3.22828   3.22905   3.23375
  Beta virt. eigenvalues --    3.23634   3.23987   3.24391   3.24730   3.25086
  Beta virt. eigenvalues --    3.25208   3.25465   3.26097   3.26235   3.26429
  Beta virt. eigenvalues --    3.26720   3.27183   3.27367   3.27420   3.28202
  Beta virt. eigenvalues --    3.28429   3.28667   3.28918   3.29141   3.29558
  Beta virt. eigenvalues --    3.29938   3.29997   3.30535   3.31144   3.31254
  Beta virt. eigenvalues --    3.31689   3.32288   3.32687   3.32815   3.33502
  Beta virt. eigenvalues --    3.33898   3.34193   3.34540   3.34822   3.35381
  Beta virt. eigenvalues --    3.35923   3.36249   3.36832   3.37900   3.38096
  Beta virt. eigenvalues --    3.38850   3.39079   3.39363   3.39741   3.40525
  Beta virt. eigenvalues --    3.41030   3.41342   3.41716   3.42123   3.43267
  Beta virt. eigenvalues --    3.43296   3.43830   3.44689   3.45312   3.45611
  Beta virt. eigenvalues --    3.46112   3.46445   3.47151   3.48093   3.48220
  Beta virt. eigenvalues --    3.48962   3.48973   3.49915   3.50078   3.50737
  Beta virt. eigenvalues --    3.51002   3.51311   3.52556   3.53217   3.54051
  Beta virt. eigenvalues --    3.54172   3.55060   3.55426   3.56060   3.56436
  Beta virt. eigenvalues --    3.57086   3.57338   3.57787   3.58024   3.59169
  Beta virt. eigenvalues --    3.59518   3.59761   3.60291   3.60923   3.60988
  Beta virt. eigenvalues --    3.61719   3.61883   3.62360   3.62583   3.63228
  Beta virt. eigenvalues --    3.63441   3.63761   3.64267   3.64653   3.65218
  Beta virt. eigenvalues --    3.65625   3.66012   3.66622   3.67108   3.68560
  Beta virt. eigenvalues --    3.69239   3.69509   3.70749   3.70929   3.71198
  Beta virt. eigenvalues --    3.71653   3.72637   3.73532   3.74294   3.74958
  Beta virt. eigenvalues --    3.75379   3.75968   3.76156   3.76810   3.77147
  Beta virt. eigenvalues --    3.77898   3.78661   3.79518   3.80433   3.80924
  Beta virt. eigenvalues --    3.81493   3.82256   3.82525   3.84532   3.85133
  Beta virt. eigenvalues --    3.85860   3.86065   3.87123   3.87274   3.87731
  Beta virt. eigenvalues --    3.88381   3.88671   3.89373   3.90024   3.90409
  Beta virt. eigenvalues --    3.91322   3.92226   3.92761   3.93100   3.93876
  Beta virt. eigenvalues --    3.94270   3.95300   3.95465   3.96213   3.96662
  Beta virt. eigenvalues --    3.98011   3.98880   3.99512   3.99664   4.00279
  Beta virt. eigenvalues --    4.01732   4.02105   4.02343   4.02996   4.03425
  Beta virt. eigenvalues --    4.03798   4.04464   4.05249   4.05945   4.06337
  Beta virt. eigenvalues --    4.06896   4.07613   4.08071   4.08675   4.09261
  Beta virt. eigenvalues --    4.09609   4.09960   4.10561   4.11636   4.12140
  Beta virt. eigenvalues --    4.12911   4.13141   4.13954   4.15043   4.15465
  Beta virt. eigenvalues --    4.16767   4.17246   4.17432   4.17870   4.17978
  Beta virt. eigenvalues --    4.19117   4.20079   4.20662   4.21055   4.22047
  Beta virt. eigenvalues --    4.22477   4.23257   4.23951   4.24010   4.24817
  Beta virt. eigenvalues --    4.25990   4.26601   4.27337   4.28210   4.28843
  Beta virt. eigenvalues --    4.29133   4.29932   4.30632   4.30833   4.32317
  Beta virt. eigenvalues --    4.32800   4.33093   4.33676   4.34415   4.34607
  Beta virt. eigenvalues --    4.35435   4.35721   4.35770   4.36666   4.37330
  Beta virt. eigenvalues --    4.37684   4.38531   4.40307   4.40866   4.41216
  Beta virt. eigenvalues --    4.42243   4.42512   4.42702   4.43972   4.45311
  Beta virt. eigenvalues --    4.45628   4.46613   4.47316   4.47745   4.51025
  Beta virt. eigenvalues --    4.52365   4.52927   4.53968   4.54463   4.55967
  Beta virt. eigenvalues --    4.56335   4.57637   4.58104   4.58725   4.60221
  Beta virt. eigenvalues --    4.61179   4.62320   4.63091   4.63636   4.65564
  Beta virt. eigenvalues --    4.66009   4.67676   4.68313   4.70039   4.70951
  Beta virt. eigenvalues --    4.71462   4.72234   4.72681   4.73296   4.74016
  Beta virt. eigenvalues --    4.74276   4.74962   4.75654   4.75963   4.77882
  Beta virt. eigenvalues --    4.79325   4.80424   4.81263   4.82665   4.83076
  Beta virt. eigenvalues --    4.84730   4.85632   4.87534   4.88875   4.89792
  Beta virt. eigenvalues --    4.90443   4.90504   4.91228   4.91806   4.93739
  Beta virt. eigenvalues --    4.94142   4.95779   4.96707   4.97428   4.98674
  Beta virt. eigenvalues --    5.02068   5.02538   5.03756   5.05055   5.05970
  Beta virt. eigenvalues --    5.06919   5.08301   5.08842   5.10344   5.11124
  Beta virt. eigenvalues --    5.12091   5.12665   5.13007   5.13777   5.15480
  Beta virt. eigenvalues --    5.16420   5.22298   5.22812   5.23231   5.24793
  Beta virt. eigenvalues --    5.25666   5.26513   5.26654   5.27231   5.27975
  Beta virt. eigenvalues --    5.28040   5.34971   5.35872   5.36682   5.37191
  Beta virt. eigenvalues --    5.38357   5.39462   5.41411   5.42477   5.46071
  Beta virt. eigenvalues --    5.47615   5.49101   5.49599   5.50015   5.51827
  Beta virt. eigenvalues --    5.54008   5.55517   5.56177   5.60041   5.62991
  Beta virt. eigenvalues --    5.63840   5.65284   5.67655   5.72809   5.75073
  Beta virt. eigenvalues --    5.76412   5.79337   5.86741   5.87857   5.88847
  Beta virt. eigenvalues --    5.97061   5.97766   5.98219   5.99882   6.05189
  Beta virt. eigenvalues --    6.11490   6.13637   6.20050   6.21837   6.27698
  Beta virt. eigenvalues --    6.31766   6.39455   6.42802   6.48871   6.85002
  Beta virt. eigenvalues --    7.17708   8.95410   9.12242   9.27766  19.49529
  Beta virt. eigenvalues --   22.21439  22.25573  22.26843  22.36086  22.36941
  Beta virt. eigenvalues --   22.41928  22.42573  22.50465  22.52934  22.72423
  Beta virt. eigenvalues --   22.76562  22.79409  22.81193  22.81730  22.84088
  Beta virt. eigenvalues --   22.84815  22.90865  22.94073  23.02698  23.14422
  Beta virt. eigenvalues --   23.18406  23.18422  23.27736  23.29032  23.37294
[...]
  1243. RY*(   4) C  67                  0.00016     1.25297   
  1244. RY*(   5) C  67                  0.00012     1.40961   
  1245. RY*(   6) C  67                  0.00005     0.94032   
  1246. RY*(   7) C  67                  0.00005     0.78004   
  1247. RY*(   8) C  67                  0.00002     0.92170   
  1248. RY*(   9) C  67                  0.00001     1.26856   
  1249. RY*(  10) C  67                  0.00000    20.79756   
  1250. RY*(  11) C  67                  0.00000     2.86146   
  1251. RY*(  12) C  67                  0.00001     1.64813   
  1252. RY*(  13) C  67                  0.00000     2.70580   
  1253. RY*(  14) C  67                  0.00000     1.47077   
  1254. RY*(  15) C  67                  0.00000     3.06535   
  1255. RY*(  16) C  67                  0.00000     2.16035   
  1256. RY*(  17) C  67                  0.00000     3.10519   
  1257. RY*(  18) C  67                  0.00001     1.33291   
  1258. RY*(  19) C  67                  0.00000     2.80482   
  1259. RY*(  20) C  67                  0.00000     3.33458   
  1260. RY*(  21) C  67                  0.00000     3.12767   
  1261. RY*(  22) C  67                  0.00000     3.37918   
  1262. RY*(  23) C  67                  0.00000     3.06085   
  1263. RY*(  24) C  67                  0.00000     3.33303   
  1264. RY*(  25) C  67                  0.00000     3.11096   
  1265. RY*(  26) C  67                  0.00000     3.29556   
  1266. RY*(   1) H  68                  0.00023     1.25476   
  1267. RY*(   2) H  68                  0.00006     1.15040   
  1268. RY*(   3) H  68                  0.00003     2.06480   
  1269. RY*(   4) H  68                  0.00003     2.04556   
  1270. RY*(   5) H  68                  0.00000     2.79769   
  1271. RY*(   1) H  69                  0.00022     1.57824   
  1272. RY*(   2) H  69                  0.00009     1.69247   
  1273. RY*(   3) H  69                  0.00003     2.12378   
  1274. RY*(   4) H  69                  0.00001     2.73102   
  1275. RY*(   5) H  69                  0.00002     1.49153   
  1276. RY*(   1) H  70                  0.00041     1.42584   
  1277. RY*(   2) H  70                  0.00011     1.90815   
  1278. RY*(   3) H  70                  0.00004     2.20388   
  1279. RY*(   4) H  70                  0.00002     2.17337   
  1280. RY*(   5) H  70                  0.00001     2.43615   
  1281. RY*(   1) S  71                  0.00170     0.54785   
  1282. RY*(   2) S  71                  0.00143     0.65642   
  1283. RY*(   3) S  71                  0.00082     0.67344   
  1284. RY*(   4) S  71                  0.00045     0.96924   
  1285. RY*(   5) S  71                  0.00029     1.29384   
  1286. RY*(   6) S  71                  0.00016     0.86348   
  1287. RY*(   7) S  71                  0.00016     1.11430   
  1288. RY*(   8) S  71                  0.00009     1.55895   
  1289. RY*(   9) S  71                  0.00006     0.95519   
  1290. RY*(  10) S  71                  0.00004     2.05562   
  1291. RY*(  11) S  71                  0.00001     1.41906   
  1292. RY*(  12) S  71                  0.00001     2.81410   
  1293. RY*(  13) S  71                  0.00000     8.55679   
  1294. RY*(  14) S  71                  0.00000     8.49463   
  1295. RY*(  15) S  71                  0.00000     2.18840   
  1296. RY*(  16) S  71                  0.00000     8.34275   
  1297. RY*(  17) S  71                  0.00001     1.55265   
  1298. RY*(  18) S  71                  0.00001     2.30831   
  1299. RY*(  19) S  71                  0.00001     1.62176   
  1300. RY*(  20) S  71                  0.00000    17.91605   
  1301. RY*(  21) S  71                  0.00001     1.57796   
  1302. RY*(  22) S  71                  0.00001     1.98236   
  1303. RY*(  23) S  71                  0.00000     1.93675   
  1304. RY*(  24) S  71                  0.00000     1.92941   
  1305. RY*(  25) S  71                  0.00000     1.96526   
  1306. RY*(  26) S  71                  0.00000     1.73791   
  1307. RY*(  27) S  71                  0.00000     1.93097   
  1308. RY*(  28) S  71                  0.00000     2.12307   
  1309. RY*(   1) H  72                  0.00072     0.97582   
  1310. RY*(   2) H  72                  0.00014     1.63027   
  1311. RY*(   3) H  72                  0.00010     1.99131   
  1312. RY*(   4) H  72                  0.00005     1.80173   
  1313. RY*(   5) H  72                  0.00001     2.49779   
  1314. BD*(   1)Fe   1 - N   2          0.02678     0.25668   
  1315. BD*(   1)Fe   1 - N   3          0.02870     0.24405   
  1316. BD*(   1)Fe   1 - N   4          0.02700     0.24939   
  1317. BD*(   1)Fe   1 - N   5          0.03026     0.25583   
  1318. BD*(   1)Fe   1 - S  71          0.02091     0.13406   
  1319. BD*(   1) N   2 - C   6          0.01483     0.38242   
  1320. BD*(   2) N   2 - C   6          0.26279    -0.10786  1334(v),1339(v),286(g)
                                                    142(v),182(g),143(v)
  1321. BD*(   1) N   2 - C   9          0.01475     0.38072   
  1322. BD*(   1) N   3 - C  10          0.01455     0.38119   
  1323. BD*(   2) N   3 - C  10          0.24133    -0.09347  1339(v),1343(v),144(v)
                                                    390(g),141(v),208(g),731(v)
                                                    143(v)
  1324. BD*(   1) N   3 - C  13          0.01399     0.38946   
  1325. BD*(   1) N   4 - C  14          0.01460     0.38509   
  1326. BD*(   2) N   4 - C  14          0.25693    -0.10054  148(v),1351(v),145(v),494(g)
                                                    142(v),234(g),763(v),143(v)
  1327. BD*(   1) N   4 - C  17          0.01395     0.39081   
  1328. BD*(   1) N   5 - C  18          0.01422     0.39644   
  1329. BD*(   2) N   5 - C  18          0.23104    -0.08540  1359(v),146(v),598(g),141(v)
                                                    260(g),794(v),143(v)
  1330. BD*(   1) N   5 - C  21          0.01448     0.38813   
  1331. BD*(   1) C   6 - C   7          0.01723     0.37367   
  1332. BD*(   1) C   6 - C  22          0.01048     0.46309   
  1333. BD*(   1) C   7 - C   8          0.01169     0.48767   
  1334. BD*(   2) C   7 - C   8          0.07228    -0.03938   
  1335. BD*(   1) C   7 - C  34          0.00817     0.30982   
  1336. BD*(   1) C   8 - C   9          0.01743     0.37318   
  1337. BD*(   1) C   8 - C  30          0.00801     0.30642   
  1338. BD*(   1) C   9 - C  24          0.01041     0.45851   
  1339. BD*(   2) C   9 - C  24          0.14033    -0.06389  1323(v),1334(v),1320(v)
                                                    731(g)
  1340. BD*(   1) C  10 - C  11          0.01709     0.38346   
  1341. BD*(   1) C  10 - C  24          0.01059     0.45367   
  1342. BD*(   1) C  11 - C  12          0.01261     0.48082   
  1343. BD*(   2) C  11 - C  12          0.09179    -0.03800   
  1344. BD*(   1) C  11 - C  38          0.00774     0.31156   
  1345. BD*(   1) C  12 - C  13          0.01699     0.37275   
  1346. BD*(   1) C  12 - C  42          0.01340     0.39271   
  1347. BD*(   1) C  13 - C  26          0.01033     0.47144   
  1348. BD*(   1) C  14 - C  15          0.01678     0.38238   
  1349. BD*(   1) C  14 - C  26          0.01050     0.46764   
  1350. BD*(   1) C  15 - C  16          0.01260     0.48275   
  1351. BD*(   2) C  15 - C  16          0.08638    -0.03695   
  1352. BD*(   1) C  15 - C  47          0.00779     0.31496   
  1353. BD*(   1) C  16 - C  17          0.01700     0.37215   
  1354. BD*(   1) C  16 - C  51          0.01332     0.39011   
  1355. BD*(   1) C  17 - C  28          0.01020     0.46070   
  1356. BD*(   1) C  18 - C  19          0.01729     0.37671   
  1357. BD*(   1) C  18 - C  28          0.01037     0.46479   
  1358. BD*(   1) C  19 - C  20          0.01150     0.49952   
  1359. BD*(   2) C  19 - C  20          0.06860    -0.03194   
  1360. BD*(   1) C  19 - C  56          0.00797     0.31276   
  1361. BD*(   1) C  20 - C  21          0.01725     0.37406   
  1362. BD*(   1) C  20 - C  60          0.00817     0.31383   
  1363. BD*(   1) C  21 - C  22          0.01019     0.46806   
  1364. BD*(   1) C  22 - H  23          0.00660     0.32576   
  1365. BD*(   1) C  24 - H  25          0.00666     0.32015   
  1366. BD*(   1) C  26 - H  27          0.00708     0.32835   
  1367. BD*(   1) C  28 - H  29          0.00645     0.32063   
  1368. BD*(   1) C  30 - H  31          0.00297     0.29430   
  1369. BD*(   1) C  30 - H  32          0.00488     0.28054   
  1370. BD*(   1) C  30 - H  33          0.00407     0.28221   
  1371. BD*(   1) C  34 - H  35          0.00408     0.28644   
  1372. BD*(   1) C  34 - H  36          0.00389     0.28589   
  1373. BD*(   1) C  34 - H  37          0.00287     0.29705   
  1374. BD*(   1) C  38 - H  39          0.00540     0.28283   
  1375. BD*(   1) C  38 - H  40          0.00471     0.28880   
  1376. BD*(   1) C  38 - H  41          0.00383     0.29992   
  1377. BD*(   1) C  42 - H  43          0.01004     0.32856   
  1378. BD*(   1) C  42 - C  44          0.00356     0.53651   
  1379. BD*(   2) C  42 - C  44          0.02226    -0.03247   
  1380. BD*(   1) C  44 - H  45          0.00512     0.34369   
  1381. BD*(   1) C  44 - H  46          0.00387     0.34972   
  1382. BD*(   1) C  47 - H  48          0.00411     0.29531   
  1383. BD*(   1) C  47 - H  49          0.00452     0.28793   
  1384. BD*(   1) C  47 - H  50          0.00359     0.30209   
  1385. BD*(   1) C  51 - H  52          0.01030     0.32525   
  1386. BD*(   1) C  51 - C  53          0.00368     0.53509   
  1387. BD*(   2) C  51 - C  53          0.02606    -0.03684   
  1388. BD*(   1) C  53 - H  54          0.00507     0.34193   
  1389. BD*(   1) C  53 - H  55          0.00384     0.34653   
  1390. BD*(   1) C  56 - H  57          0.00454     0.28731   
  1391. BD*(   1) C  56 - H  58          0.00454     0.28735   
  1392. BD*(   1) C  56 - H  59          0.00300     0.29991   
  1393. BD*(   1) C  60 - H  61          0.00294     0.30150   
  1394. BD*(   1) C  60 - H  62          0.00417     0.28872   
  1395. BD*(   1) C  60 - H  63          0.00389     0.29035   
  1398. BD*(   1) C  67 - H  68          0.00428     0.26430   
  1399. BD*(   1) C  67 - H  69          0.00352     0.25841   
  1400. BD*(   1) C  67 - H  70          0.00570     0.27034   
  1401. BD*(   1) C  67 - S  71          0.00480     0.02595   
  1402. BD*(   1) S  71 - H  72          0.00631     0.07157   
       -------------------------------
              Total Lewis  137.10690  ( 97.1649%)
        Valence non-Lewis    3.74320  (  2.6527%)
        Rydberg non-Lewis    0.25734  (  0.1824%)
       -------------------------------
            Total unit  1  141.10744  (100.0000%)
           Charge unit  1    2.89256
 
 Molecular unit  2  (H2O)
    83. BD (   1) O  64 - H  65          0.99231    -0.93325  143(r),142(r),1236(v),154(r)
                                                    1318(r),141(r),159(r)
                                                    1316(r),1314(r),235(r)
                                                    184(r),1285(r),157(r),234(r)
                                                    236(r)
    84. BD (   1) O  64 - H  66          0.99768    -0.99429  143(r),1232(v),154(r)
                                                    1318(r),1396(g),184(r)
                                                    183(r),142(r),141(r),262(r)
                                                    157(r),181(r),188(r),210(r)
                                                    207(r),259(r),159(r)
   133. CR (   1) O  64                  0.99991   -19.07828  143(r),1236(v),1232(v)
                                                    1318(r),157(r),1316(r)
                                                    141(r),1317(r),1315(r)
   150. LP (   1) O  64                  0.98527    -0.45162  141(r),1235(v),1315(r)
                                                    1317(r),1230(v),210(r)
                                                    262(r),266(r),208(r)
   151. LP (   2) O  64                  0.91029    -0.61021  143(r),1396(g),141(r)
                                                    1318(r),1236(v),1231(v)
                                                    159(r),1397(g),1232(v)
                                                    183(r),209(r),261(r),207(r)
                                                    259(r),181(r),157(r),154(r)
                                                    260(r),1314(r),235(r),156(r)
                                                    233(r),1287(r),1301(r)
                                                    1328(r),1321(r),1322(r)
                                                    1330(r),1324(r),1319(r)
  1204. RY*(   1) O  64                  0.00061     0.87055   
  1205. RY*(   2) O  64                  0.00033     0.85565   
  1206. RY*(   3) O  64                  0.00026     0.89026   
  1207. RY*(   4) O  64                  0.00009     0.98552   
  1208. RY*(   5) O  64                  0.00002     5.35142   
  1209. RY*(   6) O  64                  0.00002     2.08997   
  1210. RY*(   7) O  64                  0.00002     2.15775   
  1211. RY*(   8) O  64                  0.00000     2.95553   
  1212. RY*(   9) O  64                  0.00001     3.06140   
  1213. RY*(  10) O  64                  0.00001     2.62732   
  1214. RY*(  11) O  64                  0.00000     6.27749   
  1215. RY*(  12) O  64                  0.00000    41.59257   
  1216. RY*(  13) O  64                  0.00000     6.36633   
  1217. RY*(  14) O  64                  0.00000     2.97313   
  1218. RY*(  15) O  64                  0.00000     6.36483   
  1219. RY*(  16) O  64                  0.00000     2.00431   
  1220. RY*(  17) O  64                  0.00000     5.99962   
  1221. RY*(  18) O  64                  0.00000     2.48573   
  1222. RY*(  19) O  64                  0.00000     6.34284   
  1223. RY*(  20) O  64                  0.00000     5.21574   
  1224. RY*(  21) O  64                  0.00000     5.44680   
  1225. RY*(  22) O  64                  0.00000     5.48418   
  1226. RY*(  23) O  64                  0.00000     5.12745   
  1227. RY*(  24) O  64                  0.00000     5.48944   
  1228. RY*(  25) O  64                  0.00000     5.35172   
  1229. RY*(  26) O  64                  0.00000     5.37151   
  1230. RY*(   1) H  65                  0.00040     1.87859   
  1231. RY*(   2) H  65                  0.00034     0.99837   
  1232. RY*(   3) H  65                  0.00026     2.10244   
  1233. RY*(   4) H  65                  0.00009     1.94244   
  1234. RY*(   5) H  65                  0.00001     2.80082   
  1235. RY*(   1) H  66                  0.00045     1.90458   
  1236. RY*(   2) H  66                  0.00039     2.09680   
  1237. RY*(   3) H  66                  0.00027     0.66442   
  1238. RY*(   4) H  66                  0.00015     1.89592   
  1239. RY*(   5) H  66                  0.00000     2.89694   
  1396. BD*(   1) O  64 - H  65          0.00206     0.31059   
  1397. BD*(   1) O  64 - H  66          0.00123     0.48993   
       -------------------------------
              Total Lewis    4.88545  ( 99.8564%)
        Valence non-Lewis    0.00329  (  0.0672%)
        Rydberg non-Lewis    0.00374  (  0.0764%)
       -------------------------------
            Total unit  2    4.89248  (100.0000%)
           Charge unit  2    0.10752
 Unable to Open any file for archive entry.
 1\1\GINC-BGN1008\SP\UAPFD\def2TZVP\C31H34Fe1N4O1S1(1+,6)\BECSLEIP\22-A
 ug-2024\0\\# apfd/def2TZVP guess=read scf=maxcycle=999 geom=check pop=
 nbo\\2cpo_III_H\\1,6\Fe,0,9.0402613961,18.9726780177,-2.8737232524\N,0
 ,10.6224482798,19.051718402,-4.1044407499\N,0,8.8428516459,17.00157319
 26,-3.2823841309\N,0,7.3195999651,18.8873449962,-1.8238553904\N,0,9.06
 80708167,20.9502434533,-2.6480858873\C,0,11.2497283903,20.1807323438,-
 4.5290828854\C,0,12.1977218729,19.8755546383,-5.5757113566\C,0,12.2327
 862155,18.5171584044,-5.6697819143\C,0,11.1856285073,18.0261799845,-4.
 8023107627\C,0,9.6483141284,16.2487667048,-4.0868540381\C,0,9.21738797
 3,14.8747172071,-4.1035194179\C,0,8.0489693181,14.8333706489,-3.390910
 8889\C,0,7.8149097473,16.1871749508,-2.927047244\C,0,6.4675744554,17.8
 330927028,-1.7081822256\C,0,5.2730376104,18.2029481614,-0.9916244933\C
 ,0,5.4553346867,19.5022615875,-0.6013200522\C,0,6.7011653237,19.928212
 3356,-1.2092424562\C,0,8.181845179,21.7215018896,-1.9721822267\C,0,8.4
 762870841,23.1268064903,-2.1527579816\C,0,9.5801382487,23.1839599657,-
 2.9423354895\C,0,9.9272587505,21.812513494,-3.2535666968\C,0,10.943171
 2347,21.4676380487,-4.1227088369\H,0,11.524198421,22.2702373407,-4.549
 7765771\C,0,10.7452049284,16.7172310033,-4.7906182393\H,0,11.289253849
 4,16.0075850052,-5.3941954447\C,0,6.6999297227,16.5649949752,-2.207394
 241\H,0,5.9416076472,15.8170910866,-2.0379179225\C,0,7.0942146725,21.2
 509337238,-1.2648459826\H,0,6.4705646672,21.9764693505,-0.7659893013\C
 ,0,13.0558020193,17.6545613656,-6.5636910059\H,0,13.8381837452,18.2354
 535863,-7.0457443599\H,0,12.4393945197,17.1993596497,-7.3403117521\H,0
 ,13.5251238917,16.8541117104,-5.9925085682\C,0,13.0209619649,20.890850
 5372,-6.2903443772\H,0,13.6630925543,21.4287064801,-5.5923486447\H,0,1
 2.3799445476,21.6184701406,-6.7881957958\H,0,13.6489973646,20.41859637
 22,-7.0416574154\C,0,9.8774994694,13.7754666866,-4.8596409768\H,0,10.7
 399868495,13.3905770324,-4.3128259419\H,0,10.2248195118,14.1268083742,
 -5.8302409667\H,0,9.1770481381,12.9580043902,-5.0166298857\C,0,7.18028
 71285,13.7070921122,-3.128770796\H,0,6.119699059,13.9280993548,-3.0997
 28686\C,0,7.5844051815,12.4586810964,-2.9197111652\H,0,8.6264877282,12
 .1913721449,-2.8892948109\H,0,6.8819906486,11.6613126967,-2.7428695535
 \C,0,4.1672887311,17.2746685917,-0.6283616475\H,0,4.5526372135,16.2837
 968037,-0.3928133221\H,0,3.4586772298,17.174546001,-1.4521439799\H,0,3
 .6330473769,17.6545505934,0.2399798319\C,0,4.6027250133,20.3547577156,
 0.1981929574\H,0,5.1237494295,21.0694387306,0.824994131\C,0,3.27459816
 88,20.32172029,0.2203274963\H,0,2.7066522503,19.6650382202,-0.41541169
 6\H,0,2.7057851185,20.9753978488,0.860555211\C,0,7.6842575338,24.23383
 99567,-1.5481599974\H,0,7.6864797735,24.1549546128,-0.460955744\H,0,6.
 6492104141,24.1938342901,-1.887889885\H,0,8.0980867385,25.2008208821,-
 1.8230933834\C,0,10.3194536121,24.3745850391,-3.4480311234\H,0,9.90158
 56243,25.290416525,-3.0377262874\H,0,10.2631029053,24.4298812329,-4.53
 57428828\H,0,11.370622721,24.3198601255,-3.1656044318\O,0,7.919,19.348
 9999998,-4.7990000001\H,0,8.682,19.3729999997,-5.376\H,0,7.0679999993,
 19.3960000001,-5.0509999997\C,0,11.7386477825,17.5715898523,-1.4345972
 393\H,0,12.1899835414,17.1337795146,-0.5496814371\H,0,12.4371174472,18
 .2471656925,-1.916719086\H,0,11.4216395112,16.8089220227,-2.1372674471
 \S,0,10.2980809083,18.5817957987,-0.9374110561\H,0,9.5941241229,17.552
 6299003,-0.4509937842\\Version=ES64L-G16RevC.02\State=6-A\HF=-3156.929
 8535\S2=8.852254\S2-1=0.\S2A=8.753044\RMSD=3.197e-09\Dipole=0.3725071,
 0.0021976,-0.5618457\Quadrupole=4.3418134,11.1183111,-15.4601246,-1.90
 04932,-18.6263043,2.935185\PG=C01 [X(C31H34Fe1N4O1S1)]\\@
 The archive entry for this job was punched.


 AS FAR AS THE LAWS OF MATHEMATICS REFER TO REALITY,
 THEY ARE NOT CERTAIN; AND AS FAR AS THEY ARE CERTAIN,
 THEY DO NOT REFER TO REALITY.

                                         -- ALBERT EINSTEIN
 Job cpu time:       2 days  3 hours 25 minutes 38.7 seconds.
 Elapsed time:       0 days  0 hours 46 minutes 58.7 seconds.
 File lengths (MBytes):  RWF=   1815 Int=      0 D2E=      0 Chk=    164 Scr=      1
 Normal termination of Gaussian 16 at Thu Aug 22 12:08:50 2024.
