 Entering Gaussian System, Link 0=g16
 Input=2cpo01.com
 Output=2cpo01.log
 Initial command:
 /sw/chem/gaussian/g16_C02/a100/g16/l1.exe "/local/becsleip_7984913/Gau-2175558.inp" -scrdir="/local/becsleip_7984913/"
 Entering Link 1 = /sw/chem/gaussian/g16_C02/a100/g16/l1.exe PID=   2175559.
  
 Copyright (c) 1988-2021, Gaussian, Inc.  All Rights Reserved.
  
 This is part of the Gaussian(R) 16 program.  It is based on
 the Gaussian(R) 09 system (copyright 2009, Gaussian, Inc.),
 the Gaussian(R) 03 system (copyright 2003, Gaussian, Inc.),
 the Gaussian(R) 98 system (copyright 1998, Gaussian, Inc.),
 the Gaussian(R) 94 system (copyright 1995, Gaussian, Inc.),
 the Gaussian 92(TM) system (copyright 1992, Gaussian, Inc.),
 the Gaussian 90(TM) system (copyright 1990, Gaussian, Inc.),
 the Gaussian 88(TM) system (copyright 1988, Gaussian, Inc.),
 the Gaussian 86(TM) system (copyright 1986, Carnegie Mellon
 University), and the Gaussian 82(TM) system (copyright 1983,
 Carnegie Mellon University). Gaussian is a federally registered
 trademark of Gaussian, Inc.
  
 This software contains proprietary and confidential information,
 including trade secrets, belonging to Gaussian, Inc.
  
 This software is provided under written license and may be
 used, copied, transmitted, or stored only in accord with that
 written license.
  
 The following legend is applicable only to US Government
 contracts under FAR:
  
                    RESTRICTED RIGHTS LEGEND
  
 Use, reproduction and disclosure by the US Government is
 subject to restrictions as set forth in subparagraphs (a)
 and (c) of the Commercial Computer Software - Restricted
 Rights clause in FAR 52.227-19.
  
 Gaussian, Inc.
 340 Quinnipiac St., Bldg. 40, Wallingford CT 06492
  
  
 ---------------------------------------------------------------
 Warning -- This program may not be used in any manner that
 competes with the business of Gaussian, Inc. or will provide
 assistance to any competitor of Gaussian, Inc.  The licensee
 of this program is prohibited from giving any competitor of
 Gaussian, Inc. access to this program.  By using this program,
 the user acknowledges that Gaussian, Inc. is engaged in the
 business of creating and licensing software in the field of
 computational chemistry and represents and warrants to the
 licensee that it is not a competitor of Gaussian, Inc. and that
 it will not use this program in any manner prohibited above.
 ---------------------------------------------------------------
  

 Cite this work as:
 Gaussian 16, Revision C.02,
 M. J. Frisch, G. W. Trucks, H. B. Schlegel, G. E. Scuseria, 
 M. A. Robb, J. R. Cheeseman, G. Scalmani, V. Barone, 
 G. A. Petersson, H. Nakatsuji, X. Li, M. Caricato, A. V. Marenich, 
 J. Bloino, B. G. Janesko, R. Gomperts, B. Mennucci, H. P. Hratchian, 
 J. V. Ortiz, A. F. Izmaylov, J. L. Sonnenberg, D. Williams-Young, 
 F. Ding, F. Lipparini, F. Egidi, J. Goings, B. Peng, A. Petrone, 
 T. Henderson, D. Ranasinghe, V. G. Zakrzewski, J. Gao, N. Rega, 
 G. Zheng, W. Liang, M. Hada, M. Ehara, K. Toyota, R. Fukuda, 
 J. Hasegawa, M. Ishida, T. Nakajima, Y. Honda, O. Kitao, H. Nakai, 
 T. Vreven, K. Throssell, J. A. Montgomery, Jr., J. E. Peralta, 
 F. Ogliaro, M. J. Bearpark, J. J. Heyd, E. N. Brothers, K. N. Kudin, 
 V. N. Staroverov, T. A. Keith, R. Kobayashi, J. Normand, 
 K. Raghavachari, A. P. Rendell, J. C. Burant, S. S. Iyengar, 
 J. Tomasi, M. Cossi, J. M. Millam, M. Klene, C. Adamo, R. Cammi, 
 J. W. Ochterski, R. L. Martin, K. Morokuma, O. Farkas, 
 J. B. Foresman, and D. J. Fox, Gaussian, Inc., Wallingford CT, 2019.
 
 ******************************************
 Gaussian 16:  ES64L-G16RevC.02  7-Dec-2021
                21-Aug-2024 
 ******************************************
 %mem=16GB
 %CPU=0-71
 SetSPE:  set environment variable "OMP_PROC_BIND" = "true"
 SetSPE:  set environment variable "OMP_PLACES" = "{0},{1},{2},{3},{4},{5},{6},{7},{8},{9},{10},{11},{12},{13},{14},{15},{16},{17},{18},{19},{20},{21},{22},{23},{24},{25},{26},{27},{28},{29},{30},{31},{32},{33},{34},{35},{36},{37},{38},{39},{40},{41},{42},{43},{44},{45},{46},{47},{48},{49},{50},{51},{52},{53},{54},{55},{56},{57},{58},{59},{60},{61},{62},{63},{64},{65},{66},{67},{68},{69},{70},{71}"
 Will use up to   72 processors via shared memory.
 %gpucpu=0,1,2,3=0,1,2,3
 Will use    4 GPUs:
 Thread  CPU   GPU
      0    0     0
      1    1     1
      2    2     2
      3    3     3
      4    4    -1
      5    5    -1
      6    6    -1
      7    7    -1
      8    8    -1
      9    9    -1
     10   10    -1
     11   11    -1
     12   12    -1
     13   13    -1
     14   14    -1
     15   15    -1
     16   16    -1
     17   17    -1
     18   18    -1
     19   19    -1
     20   20    -1
     21   21    -1
     22   22    -1
     23   23    -1
     24   24    -1
     25   25    -1
     26   26    -1
     27   27    -1
     28   28    -1
     29   29    -1
     30   30    -1
     31   31    -1
     32   32    -1
     33   33    -1
     34   34    -1
     35   35    -1
     36   36    -1
     37   37    -1
     38   38    -1
     39   39    -1
     40   40    -1
     41   41    -1
     42   42    -1
     43   43    -1
     44   44    -1
     45   45    -1
     46   46    -1
     47   47    -1
     48   48    -1
     49   49    -1
     50   50    -1
     51   51    -1
     52   52    -1
     53   53    -1
     54   54    -1
     55   55    -1
     56   56    -1
     57   57    -1
     58   58    -1
     59   59    -1
     60   60    -1
     61   61    -1
     62   62    -1
     63   63    -1
     64   64    -1
     65   65    -1
     66   66    -1
     67   67    -1
     68   68    -1
     69   69    -1
     70   70    -1
     71   71    -1
 SetGPE:  set environment variable "OMP_PROC_BIND" = "true"
 SetGPE:  set environment variable "OMP_PLACES" = "{0},{1},{2},{3},{4},{5},{6},{7},{8},{9},{10},{11},{12},{13},{14},{15},{16},{17},{18},{19},{20},{21},{22},{23},{24},{25},{26},{27},{28},{29},{30},{31},{32},{33},{34},{35},{36},{37},{38},{39},{40},{41},{42},{43},{44},{45},{46},{47},{48},{49},{50},{51},{52},{53},{54},{55},{56},{57},{58},{59},{60},{61},{62},{63},{64},{65},{66},{67},{68},{69},{70},{71}"
 %chk=2cpo_II_O.chk
 Properties for Device   0
 Minimum vector length:                              32
 Maximum vector length:                            1024
 Number of SMPs:                                    108
 Maximum number of threads per SMP:                2048
 Number of ASync Engines:                             5
 Memory:                                           9207742464
 Properties for Device   1
 Minimum vector length:                              32
 Maximum vector length:                            1024
 Number of SMPs:                                    108
 Maximum number of threads per SMP:                2048
 Number of ASync Engines:                             5
 Memory:                                           9207742464
 Properties for Device   2
 Minimum vector length:                              32
 Maximum vector length:                            1024
 Number of SMPs:                                    108
 Maximum number of threads per SMP:                2048
 Number of ASync Engines:                             5
 Memory:                                           9207742464
 Properties for Device   3
 Minimum vector length:                              32
 Maximum vector length:                            1024
 Number of SMPs:                                    108
 Maximum number of threads per SMP:                2048
 Number of ASync Engines:                             5
 Memory:                                           9207742464
   8286968217 words of memory will be used on each GPU.
 ------------------------------------------
 # polar def2tzvp apfd int=(grid=ultrafine)
 ------------------------------------------
 1/38=1,172=1/1;
 2/12=2,17=6,18=5,40=1/2;
 3/5=44,7=101,11=2,25=1,30=1,74=-44,75=-5/1,2,3;
 4//1;
 5/5=2,38=5,98=1/2;
 8/6=4,10=90,11=11/1;
 10/6=1,13=10/2;
 6/7=2,8=2,9=2,10=2,28=1/1;
 99/5=1,9=1/99;
 ---------
 2cpo_II_S
 ---------
 Symbolic Z-matrix:
 Charge =  0 Multiplicity = 1
 Fe                    9.04026   18.97268  -2.87372 
 N                     10.62245   19.05172  -4.10444 
 N                     8.84285   17.00157  -3.28238 
 N                     7.3196    18.88734  -1.82386 
 N                     9.06807   20.95024  -2.64809 
 C                     11.24973   20.18073  -4.52908 
 C                     12.19772   19.87555  -5.57571 
 C                     12.23279   18.51716  -5.66978 
 C                     11.18563   18.02618  -4.80231 
 C                     9.64831   16.24877  -4.08685 
 C                     9.21739   14.87472  -4.10352 
 C                     8.04897   14.83337  -3.39091 
 C                     7.81491   16.18717  -2.92705 
 C                     6.46757   17.83309  -1.70818 
 C                     5.27304   18.20295  -0.99162 
 C                     5.45533   19.50226  -0.60132 
 C                     6.70117   19.92821  -1.20924 
 C                     8.18185   21.7215  -1.97218 
 C                     8.47629   23.12681  -2.15276 
 C                     9.58014   23.18396  -2.94234 
 C                     9.92726   21.81251  -3.25357 
 C                     10.94317   21.46764  -4.12271 
 H                     11.5242   22.27024  -4.54978 
 C                     10.7452   16.71723  -4.79062 
 H                     11.28925   16.00759  -5.3942 
 C                     6.69993   16.56499  -2.20739 
 H                     5.94161   15.81709  -2.03792 
 C                     7.09421   21.25093  -1.26485 
 H                     6.47056   21.97647  -0.76599 
 C                     13.0558   17.65456  -6.56369 
 H                     13.83818   18.23545  -7.04574 
 H                     12.43939   17.19936  -7.34031 
 H                     13.52512   16.85411  -5.99251 
 C                     13.02096   20.89085  -6.29034 
 H                     13.66309   21.42871  -5.59235 
 H                     12.37994   21.61847  -6.7882 
 H                     13.649    20.4186  -7.04166 
 C                     9.8775    13.77547  -4.85964 
 H                     10.73999   13.39058  -4.31283 
 H                     10.22482   14.12681  -5.83024 
 H                     9.17705   12.958   -5.01663 
 C                     7.18029   13.70709  -3.12877 
 H                     6.1197    13.9281  -3.09973 
 C                     7.58441   12.45868  -2.91971 
 H                     8.62649   12.19137  -2.88929 
 H                     6.88199   11.66131  -2.74287 
 C                     4.16729   17.27467  -0.62836 
 H                     4.55264   16.2838  -0.39281 
 H                     3.45868   17.17455  -1.45214 
 H                     3.63305   17.65455   0.23998 
 C                     4.60273   20.35476   0.19819 
 H                     5.12375   21.06944   0.82499 
 C                     3.2746    20.32172   0.22033 
 H                     2.70665   19.66504  -0.41541 
 H                     2.70579   20.9754   0.86056 
 C                     7.68426   24.23384  -1.54816 
 H                     7.68648   24.15495  -0.46096 
 H                     6.64921   24.19383  -1.88789 
 H                     8.09809   25.20082  -1.82309 
 C                     10.31945   24.37459  -3.44803 
 H                     9.90159   25.29042  -3.03773 
 H                     10.2631   24.42988  -4.53574 
 H                     11.37062   24.31986  -3.1656 
 O                     7.919     19.349   -4.799 
 H                     8.682     19.373   -5.376 
 H                     7.068     19.396   -5.051 
 C                     11.73865   17.57159  -1.4346 
 H                     12.18998   17.13378  -0.54968 
 H                     12.43712   18.24717  -1.91672 
 H                     11.42164   16.80892  -2.13727 
 S                     10.29808   18.5818  -0.93741 
 H                     9.59412   17.55263  -0.45099 
 
 Stoichiometry    C31H34FeN4OS
 Framework group  C1[X(C31H34FeN4OS)]
 Deg. of freedom   210
 Full point group                 C1      NOp   1
 Largest Abelian subgroup         C1      NOp   1
 Largest concise Abelian subgroup C1      NOp   1
                         Standard orientation:                         
 ---------------------------------------------------------------------
 Center     Atomic      Atomic             Coordinates (Angstroms)
 Number     Number       Type             X           Y           Z
 ---------------------------------------------------------------------
      1         26           0        0.015429   -0.204287    0.139952
      2          7           0       -1.403972   -1.613124   -0.017235
      3          7           0       -1.402914    1.222973   -0.066110
      4          7           0        1.422735    1.239699    0.072328
      5          7           0        1.446793   -1.587079    0.100746
      6          6           0       -1.192890   -2.948508   -0.161000
      7          6           0       -2.428776   -3.630947   -0.467790
      8          6           0       -3.413576   -2.696052   -0.360738
      9          6           0       -2.746331   -1.429405   -0.159506
     10          6           0       -2.747223    1.026820   -0.196554
     11          6           0       -3.443899    2.284480   -0.279740
     12          6           0       -2.477162    3.252891   -0.327936
     13          6           0       -1.208329    2.556653   -0.238175
     14          6           0        1.242286    2.565809   -0.171898
     15          6           0        2.504229    3.253340   -0.281292
     16          6           0        3.467139    2.317040   -0.016846
     17          6           0        2.767101    1.053695    0.113552
     18          6           0        2.788098   -1.393486    0.078294
     19          6           0        3.489236   -2.649440   -0.080358
     20          6           0        2.533046   -3.612817   -0.133189
     21          6           0        1.261008   -2.927245   -0.032513
     22          6           0        0.044135   -3.568912   -0.150447
     23          1           0        0.058886   -4.639733   -0.281864
     24          6           0       -3.380113   -0.204471   -0.232408
     25          1           0       -4.452969   -0.209368   -0.345756
     26          6           0        0.015739    3.190199   -0.302254
     27          1           0        0.015685    4.252598   -0.487842
     28          6           0        3.416048   -0.165305    0.122447
     29          1           0        4.494810   -0.154581    0.103559
     30          6           0       -4.884539   -2.850609   -0.542075
     31          1           0       -5.159314   -3.901749   -0.581251
     32          1           0       -5.214391   -2.375699   -1.467259
     33          1           0       -5.420205   -2.386452    0.285483
     34          6           0       -2.542374   -5.093057   -0.729665
     35          1           0       -2.208236   -5.667698    0.134603
     36          1           0       -1.924757   -5.376035   -1.582110
     37          1           0       -3.571604   -5.366905   -0.947880
     38          6           0       -4.918323    2.444070   -0.407897
     39          1           0       -5.405033    2.356548    0.564977
     40          1           0       -5.335507    1.679707   -1.061995
     41          1           0       -5.152762    3.421943   -0.823018
     42          6           0       -2.627644    4.686041   -0.451489
     43          1           0       -1.867695    5.189817   -1.037340
     44          6           0       -3.601803    5.405298    0.095532
     45          1           0       -4.354545    4.964604    0.725995
     46          1           0       -3.663325    6.471269   -0.047213
     47          6           0        2.669153    4.720088   -0.475693
     48          1           0        1.892621    5.272217    0.051521
     49          1           0        2.609418    4.980115   -1.533799
     50          1           0        3.638500    5.038548   -0.097949
     51          6           0        4.903166    2.468516    0.071440
     52          1           0        5.391494    1.818819    0.788757
     53          6           0        5.638142    3.319718   -0.636209
     54          1           0        5.211267    3.953625   -1.393770
     55          1           0        6.704366    3.391644   -0.499361
     56          6           0        4.971314   -2.779226   -0.150886
     57          1           0        5.431816   -2.392965    0.758499
     58          1           0        5.365272   -2.214013   -0.995676
     59          1           0        5.263574   -3.819730   -0.268493
     60          6           0        2.684464   -5.086732   -0.289874
     61          1           0        3.734493   -5.368060   -0.292034
     62          1           0        2.238175   -5.422599   -1.226554
     63          1           0        2.190092   -5.610619    0.527960
     64          8           0       -0.011375   -0.369625   -2.113375
     65          1           0       -0.697616   -1.033773   -2.173815
     66          1           0        0.379617    0.045449   -2.795103
     67          6           0       -1.769466   -0.417859    2.983182
     68          1           0       -1.900606   -0.110236    4.015959
     69          1           0       -1.932925   -1.485846    2.886291
     70          1           0       -2.440994    0.117541    2.321140
     71         16           0       -0.039198   -0.109402    2.479229
     72          1           0       -0.110225    1.219715    2.619740
 ---------------------------------------------------------------------
 Rotational constants (GHZ):           0.1085653           0.1060863           0.0597490
 Standard basis: def2TZVP (5D, 7F)
 There are  1594 symmetry adapted cartesian basis functions of A   symmetry.
 There are  1402 symmetry adapted basis functions of A   symmetry.
  1402 basis functions,  2279 primitive gaussians,  1594 cartesian basis functions
   149 alpha electrons      149 beta electrons
       nuclear repulsion energy      5403.5103211476 Hartrees.
 NAtoms=   72 NActive=   72 NUniq=   72 SFac= 1.00D+00 NAtFMM=   60 NAOKFM=T Big=T
 Integral buffers will be    131072 words long.
 Raffenetti 2 integral format.
 Two-electron integral symmetry is turned on.
 R6APFD:  NTU= -4 IXU= 1 FactS= 1.050
 Nuclear repulsion after empirical dispersion term =     5403.3594193032 Hartrees.
 One-electron integrals computed using PRISM.
   1 Symmetry operations used in ECPInt.
 ECPInt:  NShTT=  157080 NPrTT=  488567 LenC2=  124655 LenP2D=  258539.
 LDataN:  DoStor=T MaxTD1= 6 Len=  172
 Number of processors reduced to  25 by ecpmxn.
 NBasis=  1402 RedAO= T EigKep=  4.05D-06  NBF=  1402
 NBsUse=  1402 1.00D-06 EigRej= -1.00D+00 NBFU=  1402
 ExpMin= 4.20D-02 ExpMax= 3.01D+05 ExpMxC= 2.91D+03 IAcc=3 IRadAn=         5 AccDes= 0.00D+00
 Harris functional with IExCor= 3731 and IRadAn=       5 diagonalized for initial guess.
 HarFok:  IExCor= 3731 AccDes= 0.00D+00 IRadAn=         5 IDoV= 1 UseB2=F ITyADJ=14
 ICtDFT=  3500011 ScaDFX=  1.000000  1.000000  1.000000  1.000000
 FoFCou: FMM=F IPFlag=           0 FMFlag=      100000 FMFlg1=        2001
         NFxFlg=           0 DoJE=T BraDBF=F KetDBF=T FulRan=T
         wScrn=  0.000000 ICntrl=       500 IOpCl=  0 I1Cent=   200000004 NGrid=           0
         NMat0=    1 NMatS0=      1 NMatT0=    0 NMatD0=    1 NMtDS0=    0 NMtDT0=    0
 Petite list used in FoFCou.
 Requested convergence on RMS density matrix=1.00D-08 within 128 cycles.
 Requested convergence on MAX density matrix=1.00D-06.
 Requested convergence on             energy=1.00D-06.
 No special actions if energy rises.
 EnCoef did     4 forward-backward iterations
 EnCoef did   100 forward-backward iterations
 EnCoef did   100 forward-backward iterations
 EnCoef did   100 forward-backward iterations
 EnCoef did     2 forward-backward iterations
 EnCoef did     2 forward-backward iterations
 EnCoef did     5 forward-backward iterations
 Restarting incremental Fock formation.
 SCF Done:  E(RAPFD) =  -3157.18701368     A.U. after   27 cycles
            NFock= 27  Conv=0.40D-08     -V/T= 2.0031
 DoSCS=F DFT=T ScalE2(SS,OS)=  1.000000  1.000000
 Range of M.O.s used for correlation:     1  1402
 NBasis=  1402 NAE=   149 NBE=   149 NFC=     0 NFV=     0
 NROrb=   1402 NOA=   149 NOB=   149 NVA=  1253 NVB=  1253

 **** Warning!!: The largest alpha MO coefficient is  0.49164963D+02

          Differentiating once with respect to electric field.
                with respect to dipole field.
          Electric field/nuclear overlap derivatives assumed to be zero.
          There are     3 degrees of freedom in the 1st order CPHF.  IDoFFX=0 NUNeed=     3.
      3 vectors produced by pass  0 Test12= 6.22D-12 3.33D-08 XBig12= 1.84D+03 2.29D+01.
 AX will form     3 AO Fock derivatives at one time.
      3 vectors produced by pass  1 Test12= 6.22D-12 3.33D-08 XBig12= 1.17D+03 7.87D+00.
      3 vectors produced by pass  2 Test12= 6.22D-12 3.33D-08 XBig12= 3.16D+02 4.78D+00.
      3 vectors produced by pass  3 Test12= 6.22D-12 3.33D-08 XBig12= 2.24D+02 3.39D+00.
      3 vectors produced by pass  4 Test12= 6.22D-12 3.33D-08 XBig12= 1.39D+02 2.46D+00.
      3 vectors produced by pass  5 Test12= 6.22D-12 3.33D-08 XBig12= 6.75D+01 2.21D+00.
      3 vectors produced by pass  6 Test12= 6.22D-12 3.33D-08 XBig12= 4.14D+01 2.03D+00.
      3 vectors produced by pass  7 Test12= 6.22D-12 3.33D-08 XBig12= 2.81D+01 1.71D+00.
      3 vectors produced by pass  8 Test12= 6.22D-12 3.33D-08 XBig12= 1.32D+01 1.02D+00.
      3 vectors produced by pass  9 Test12= 6.22D-12 3.33D-08 XBig12= 6.98D+00 4.81D-01.
      3 vectors produced by pass 10 Test12= 6.22D-12 3.33D-08 XBig12= 2.67D+00 3.68D-01.
      3 vectors produced by pass 11 Test12= 6.22D-12 3.33D-08 XBig12= 1.05D+00 2.65D-01.
      3 vectors produced by pass 12 Test12= 6.22D-12 3.33D-08 XBig12= 3.86D-01 1.59D-01.
      3 vectors produced by pass 13 Test12= 6.22D-12 3.33D-08 XBig12= 1.21D-01 6.26D-02.
      3 vectors produced by pass 14 Test12= 6.22D-12 3.33D-08 XBig12= 4.90D-02 3.93D-02.
      3 vectors produced by pass 15 Test12= 6.22D-12 3.33D-08 XBig12= 1.13D-02 3.59D-02.
      3 vectors produced by pass 16 Test12= 6.22D-12 3.33D-08 XBig12= 3.84D-03 2.43D-02.
      3 vectors produced by pass 17 Test12= 6.22D-12 3.33D-08 XBig12= 1.13D-03 9.06D-03.
      3 vectors produced by pass 18 Test12= 6.22D-12 3.33D-08 XBig12= 3.88D-04 3.74D-03.
      3 vectors produced by pass 19 Test12= 6.22D-12 3.33D-08 XBig12= 5.75D-05 1.26D-03.
      3 vectors produced by pass 20 Test12= 6.22D-12 3.33D-08 XBig12= 1.30D-05 5.57D-04.
      3 vectors produced by pass 21 Test12= 6.22D-12 3.33D-08 XBig12= 2.87D-06 3.46D-04.
      3 vectors produced by pass 22 Test12= 6.22D-12 3.33D-08 XBig12= 5.72D-07 1.39D-04.
      3 vectors produced by pass 23 Test12= 6.22D-12 3.33D-08 XBig12= 1.14D-07 8.09D-05.
      3 vectors produced by pass 24 Test12= 6.22D-12 3.33D-08 XBig12= 1.40D-08 2.00D-05.
      3 vectors produced by pass 25 Test12= 6.22D-12 3.33D-08 XBig12= 2.77D-09 6.94D-06.
      3 vectors produced by pass 26 Test12= 6.22D-12 3.33D-08 XBig12= 3.68D-10 2.78D-06.
      3 vectors produced by pass 27 Test12= 6.22D-12 3.33D-08 XBig12= 4.34D-11 8.29D-07.
      3 vectors produced by pass 28 Test12= 6.22D-12 3.33D-08 XBig12= 9.06D-12 3.76D-07.
      3 vectors produced by pass 29 Test12= 6.22D-12 3.33D-08 XBig12= 1.29D-12 1.41D-07.
      1 vectors produced by pass 30 Test12= 6.22D-12 3.33D-08 XBig12= 2.01D-13 4.75D-08.
 InvSVY:  IOpt=1 It=  1 EMax= 7.11D-15
 Solved reduced A of dimension    91 with     3 vectors.
 Isotropic polarizability for W=    0.000000      550.13 Bohr**3.
 End of Minotr F.D. properties file   721 does not exist.
 End of Minotr F.D. properties file   722 does not exist.
 End of Minotr F.D. properties file   788 does not exist.

 **********************************************************************

            Population analysis using the SCF Density.

 **********************************************************************

 Orbital symmetries:
       Occupied  (A) (A) (A) (A) (A) (A) (A) (A) (A) (A) (A) (A)
                 (A) (A) (A) (A) (A) (A) (A) (A) (A) (A) (A) (A)
                 (A) (A) (A) (A) (A) (A) (A) (A) (A) (A) (A) (A)
                 (A) (A) (A) (A) (A) (A) (A) (A) (A) (A) (A) (A)
                 (A) (A) (A) (A) (A) (A) (A) (A) (A) (A) (A) (A)
                 (A) (A) (A) (A) (A) (A) (A) (A) (A) (A) (A) (A)
                 (A) (A) (A) (A) (A) (A) (A) (A) (A) (A) (A) (A)
                 (A) (A) (A) (A) (A) (A) (A) (A) (A) (A) (A) (A)
                 (A) (A) (A) (A) (A) (A) (A) (A) (A) (A) (A) (A)
                 (A) (A) (A) (A) (A) (A) (A) (A) (A) (A) (A) (A)
                 (A) (A) (A) (A) (A) (A) (A) (A) (A) (A) (A) (A)
                 (A) (A) (A) (A) (A) (A) (A) (A) (A) (A) (A) (A)
                 (A) (A) (A) (A) (A)
       Virtual   (A) (A) (A) (A) (A) (A) (A) (A) (A) (A) (A) (A)
                 (A) (A) (A) (A) (A) (A) (A) (A) (A) (A) (A) (A)
                 (A) (A) (A) (A) (A) (A) (A) (A) (A) (A) (A) (A)
                 (A) (A) (A) (A) (A) (A) (A) (A) (A) (A) (A) (A)
                 (A) (A) (A) (A) (A) (A) (A) (A) (A) (A) (A) (A)
                 (A) (A) (A) (A) (A) (A) (A) (A) (A) (A) (A) (A)
                 (A) (A) (A) (A) (A) (A) (A) (A) (A) (A) (A) (A)
                 (A) (A) (A) (A) (A) (A) (A) (A) (A) (A) (A) (A)
                 (A) (A) (A) (A) (A) (A) (A) (A) (A) (A) (A) (A)
                 (A) (A) (A) (A) (A) (A) (A) (A) (A) (A) (A) (A)
                 (A) (A) (A) (A) (A) (A) (A) (A) (A) (A) (A) (A)
                 (A) (A) (A) (A) (A) (A) (A) (A) (A) (A) (A) (A)
                 (A) (A) (A) (A) (A) (A) (A) (A) (A) (A) (A) (A)
                 (A) (A) (A) (A) (A) (A) (A) (A) (A) (A) (A) (A)
                 (A) (A) (A) (A) (A) (A) (A) (A) (A) (A) (A) (A)
                 (A) (A) (A) (A) (A) (A) (A) (A) (A) (A) (A) (A)
                 (A) (A) (A) (A) (A) (A) (A) (A) (A) (A) (A) (A)
                 (A) (A) (A) (A) (A) (A) (A) (A) (A) (A) (A) (A)
                 (A) (A) (A) (A) (A) (A) (A) (A) (A) (A) (A) (A)
                 (A) (A) (A) (A) (A) (A) (A) (A) (A) (A) (A) (A)
                 (A) (A) (A) (A) (A) (A) (A) (A) (A) (A) (A) (A)
                 (A) (A) (A) (A) (A) (A) (A) (A) (A) (A) (A) (A)
                 (A) (A) (A) (A) (A) (A) (A) (A) (A) (A) (A) (A)
                 (A) (A) (A) (A) (A) (A) (A) (A) (A) (A) (A) (A)
                 (A) (A) (A) (A) (A) (A) (A) (A) (A) (A) (A) (A)
                 (A) (A) (A) (A) (A) (A) (A) (A) (A) (A) (A) (A)
                 (A) (A) (A) (A) (A) (A) (A) (A) (A) (A) (A) (A)
                 (A) (A) (A) (A) (A) (A) (A) (A) (A) (A) (A) (A)
                 (A) (A) (A) (A) (A) (A) (A) (A) (A) (A) (A) (A)
                 (A) (A) (A) (A) (A) (A) (A) (A) (A) (A) (A) (A)
                 (A) (A) (A) (A) (A) (A) (A) (A) (A) (A) (A) (A)
                 (A) (A) (A) (A) (A) (A) (A) (A) (A) (A) (A) (A)
                 (A) (A) (A) (A) (A) (A) (A) (A) (A) (A) (A) (A)
                 (A) (A) (A) (A) (A) (A) (A) (A) (A) (A) (A) (A)
                 (A) (A) (A) (A) (A) (A) (A) (A) (A) (A) (A) (A)
                 (A) (A) (A) (A) (A) (A) (A) (A) (A) (A) (A) (A)
                 (A) (A) (A) (A) (A) (A) (A) (A) (A) (A) (A) (A)
                 (A) (A) (A) (A) (A) (A) (A) (A) (A) (A) (A) (A)
                 (A) (A) (A) (A) (A) (A) (A) (A) (A) (A) (A) (A)
                 (A) (A) (A) (A) (A) (A) (A) (A) (A) (A) (A) (A)
                 (A) (A) (A) (A) (A) (A) (A) (A) (A) (A) (A) (A)
                 (A) (A) (A) (A) (A) (A) (A) (A) (A) (A) (A) (A)
                 (A) (A) (A) (A) (A) (A) (A) (A) (A) (A) (A) (A)
                 (A) (A) (A) (A) (A) (A) (A) (A) (A) (A) (A) (A)
                 (A) (A) (A) (A) (A) (A) (A) (A) (A) (A) (A) (A)
                 (A) (A) (A) (A) (A) (A) (A) (A) (A) (A) (A) (A)
                 (A) (A) (A) (A) (A) (A) (A) (A) (A) (A) (A) (A)
                 (A) (A) (A) (A) (A) (A) (A) (A) (A) (A) (A) (A)
                 (A) (A) (A) (A) (A) (A) (A) (A) (A) (A) (A) (A)
                 (A) (A) (A) (A) (A) (A) (A) (A) (A) (A) (A) (A)
                 (A) (A) (A) (A) (A) (A) (A) (A) (A) (A) (A) (A)
                 (A) (A) (A) (A) (A) (A) (A) (A) (A) (A) (A) (A)
                 (A) (A) (A) (A) (A) (A) (A) (A) (A) (A) (A) (A)
                 (A) (A) (A) (A) (A) (A) (A) (A) (A) (A) (A) (A)
                 (A) (A) (A) (A) (A) (A) (A) (A) (A) (A) (A) (A)
                 (A) (A) (A) (A) (A) (A) (A) (A) (A) (A) (A) (A)
                 (A) (A) (A) (A) (A) (A) (A) (A) (A) (A) (A) (A)
                 (A) (A) (A) (A) (A) (A) (A) (A) (A) (A) (A) (A)
                 (A) (A) (A) (A) (A) (A) (A) (A) (A) (A) (A) (A)
                 (A) (A) (A) (A) (A) (A) (A) (A) (A) (A) (A) (A)
                 (A) (A) (A) (A) (A) (A) (A) (A) (A) (A) (A) (A)
                 (A) (A) (A) (A) (A) (A) (A) (A) (A) (A) (A) (A)
                 (A) (A) (A) (A) (A) (A) (A) (A) (A) (A) (A) (A)
                 (A) (A) (A) (A) (A) (A) (A) (A) (A) (A) (A) (A)
                 (A) (A) (A) (A) (A) (A) (A) (A) (A) (A) (A) (A)
                 (A) (A) (A) (A) (A) (A) (A) (A) (A) (A) (A) (A)
                 (A) (A) (A) (A) (A) (A) (A) (A) (A) (A) (A) (A)
                 (A) (A) (A) (A) (A) (A) (A) (A) (A) (A) (A) (A)
                 (A) (A) (A) (A) (A) (A) (A) (A) (A) (A) (A) (A)
                 (A) (A) (A) (A) (A) (A) (A) (A) (A) (A) (A) (A)
                 (A) (A) (A) (A) (A) (A) (A) (A) (A) (A) (A) (A)
                 (A) (A) (A) (A) (A) (A) (A) (A) (A) (A) (A) (A)
                 (A) (A) (A) (A) (A) (A) (A) (A) (A) (A) (A) (A)
                 (A) (A) (A) (A) (A) (A) (A) (A) (A) (A) (A) (A)
                 (A) (A) (A) (A) (A) (A) (A) (A) (A) (A) (A) (A)
                 (A) (A) (A) (A) (A) (A) (A) (A) (A) (A) (A) (A)
                 (A) (A) (A) (A) (A) (A) (A) (A) (A) (A) (A) (A)
                 (A) (A) (A) (A) (A) (A) (A) (A) (A) (A) (A) (A)
                 (A) (A) (A) (A) (A) (A) (A) (A) (A) (A) (A) (A)
                 (A) (A) (A) (A) (A) (A) (A) (A) (A) (A) (A) (A)
                 (A) (A) (A) (A) (A) (A) (A) (A) (A) (A) (A) (A)
                 (A) (A) (A) (A) (A) (A) (A) (A) (A) (A) (A) (A)
                 (A) (A) (A) (A) (A) (A) (A) (A) (A) (A) (A) (A)
                 (A) (A) (A) (A) (A) (A) (A) (A) (A) (A) (A) (A)
                 (A) (A) (A) (A) (A) (A) (A) (A) (A) (A) (A) (A)
                 (A) (A) (A) (A) (A) (A) (A) (A) (A) (A) (A) (A)
                 (A) (A) (A) (A) (A) (A) (A) (A) (A) (A) (A) (A)
                 (A) (A) (A) (A) (A) (A) (A) (A) (A) (A) (A) (A)
                 (A) (A) (A) (A) (A) (A) (A) (A) (A) (A) (A) (A)
                 (A) (A) (A) (A) (A) (A) (A) (A) (A) (A) (A) (A)
                 (A) (A) (A) (A) (A) (A) (A) (A) (A) (A) (A) (A)
                 (A) (A) (A) (A) (A) (A) (A) (A) (A) (A) (A) (A)
                 (A) (A) (A) (A) (A) (A) (A) (A) (A) (A) (A) (A)
                 (A) (A) (A) (A) (A) (A) (A) (A) (A) (A) (A) (A)
                 (A) (A) (A) (A) (A) (A) (A) (A) (A) (A) (A) (A)
                 (A) (A) (A) (A) (A) (A) (A) (A) (A) (A) (A) (A)
                 (A) (A) (A) (A) (A) (A) (A) (A) (A) (A) (A) (A)
                 (A) (A) (A) (A) (A) (A) (A) (A) (A) (A) (A) (A)
                 (A) (A) (A) (A) (A) (A) (A) (A) (A) (A) (A) (A)
                 (A) (A) (A) (A) (A) (A) (A) (A) (A) (A) (A) (A)
                 (A) (A) (A) (A) (A) (A) (A) (A) (A) (A) (A) (A)
                 (A) (A) (A) (A) (A) (A) (A) (A) (A) (A) (A) (A)
                 (A) (A) (A) (A) (A) (A) (A) (A) (A) (A) (A) (A)
                 (A) (A) (A) (A) (A) (A) (A) (A) (A) (A) (A) (A)
                 (A) (A) (A) (A) (A)
 The electronic state is 1-A.
 Alpha  occ. eigenvalues -- -256.19020 -88.96457 -30.03924 -25.88107 -25.87722
 Alpha  occ. eigenvalues --  -25.87638 -19.17519 -14.34269 -14.34033 -14.33964
 Alpha  occ. eigenvalues --  -14.33643 -10.21982 -10.21601 -10.21548 -10.21544
 Alpha  occ. eigenvalues --  -10.21520 -10.21435 -10.21401 -10.21216 -10.21076
 Alpha  occ. eigenvalues --  -10.19986 -10.19892 -10.19499 -10.19440 -10.19433
 Alpha  occ. eigenvalues --  -10.19358 -10.19271 -10.19237 -10.19057 -10.19043
 Alpha  occ. eigenvalues --  -10.18945 -10.18890 -10.18875 -10.18847 -10.18840
 Alpha  occ. eigenvalues --  -10.18812 -10.18809 -10.18734 -10.18680 -10.18646
 Alpha  occ. eigenvalues --  -10.18547 -10.18522  -7.99208  -5.93776  -5.93492
 Alpha  occ. eigenvalues --   -5.92999  -3.41562  -2.18295  -2.17424  -2.17265
 Alpha  occ. eigenvalues --   -1.05446  -0.97569  -0.96759  -0.96436  -0.95608
 Alpha  occ. eigenvalues --   -0.82803  -0.82344  -0.82005  -0.81371  -0.80816
 Alpha  occ. eigenvalues --   -0.80350  -0.80114  -0.80071  -0.77183  -0.76129
 Alpha  occ. eigenvalues --   -0.74756  -0.74514  -0.73558  -0.71418  -0.70552
 Alpha  occ. eigenvalues --   -0.68849  -0.68365  -0.68249  -0.66450  -0.64687
 Alpha  occ. eigenvalues --   -0.64590  -0.61209  -0.60981  -0.60441  -0.58359
 Alpha  occ. eigenvalues --   -0.57154  -0.54991  -0.54138  -0.53779  -0.53066
 Alpha  occ. eigenvalues --   -0.51571  -0.51521  -0.51052  -0.49258  -0.48321
 Alpha  occ. eigenvalues --   -0.47797  -0.46663  -0.45805  -0.45354  -0.45105
 Alpha  occ. eigenvalues --   -0.45013  -0.44621  -0.44256  -0.44015  -0.43787
 Alpha  occ. eigenvalues --   -0.43500  -0.43358  -0.43254  -0.42799  -0.42143
 Alpha  occ. eigenvalues --   -0.42017  -0.41688  -0.41548  -0.40785  -0.40658
 Alpha  occ. eigenvalues --   -0.40567  -0.40373  -0.39994  -0.39828  -0.39734
 Alpha  occ. eigenvalues --   -0.39534  -0.39062  -0.38841  -0.38294  -0.37971
 Alpha  occ. eigenvalues --   -0.37715  -0.37438  -0.36820  -0.36529  -0.36385
 Alpha  occ. eigenvalues --   -0.35789  -0.35000  -0.34806  -0.34548  -0.34273
 Alpha  occ. eigenvalues --   -0.34111  -0.32325  -0.31575  -0.30712  -0.30287
 Alpha  occ. eigenvalues --   -0.29860  -0.29642  -0.28442  -0.27221  -0.26991
 Alpha  occ. eigenvalues --   -0.25050  -0.24263  -0.23207  -0.22621  -0.20483
 Alpha  occ. eigenvalues --   -0.19282  -0.19107  -0.18843  -0.18347
 Alpha virt. eigenvalues --   -0.07069  -0.06991  -0.02419  -0.01155   0.00285
 Alpha virt. eigenvalues --    0.01222   0.01790   0.03029   0.04001   0.04103
 Alpha virt. eigenvalues --    0.04787   0.04943   0.05380   0.05772   0.05854
 Alpha virt. eigenvalues --    0.06742   0.07110   0.07620   0.07932   0.08453
 Alpha virt. eigenvalues --    0.08579   0.09387   0.09765   0.10021   0.10152
 Alpha virt. eigenvalues --    0.10302   0.10584   0.11062   0.11376   0.11466
 Alpha virt. eigenvalues --    0.11727   0.11842   0.12162   0.12562   0.12813
 Alpha virt. eigenvalues --    0.13059   0.13174   0.13524   0.13701   0.14042
 Alpha virt. eigenvalues --    0.14186   0.14634   0.14743   0.14852   0.15103
 Alpha virt. eigenvalues --    0.15323   0.15605   0.15643   0.15800   0.16159
 Alpha virt. eigenvalues --    0.16381   0.16599   0.16996   0.17093   0.17305
 Alpha virt. eigenvalues --    0.17746   0.17852   0.18286   0.18663   0.19246
 Alpha virt. eigenvalues --    0.19547   0.19978   0.20049   0.20439   0.20499
 Alpha virt. eigenvalues --    0.20666   0.21118   0.21333   0.21755   0.21861
 Alpha virt. eigenvalues --    0.22084   0.22334   0.22707   0.23263   0.23592
 Alpha virt. eigenvalues --    0.24154   0.24329   0.24700   0.24942   0.25202
 Alpha virt. eigenvalues --    0.25644   0.25804   0.26149   0.26364   0.26646
 Alpha virt. eigenvalues --    0.26798   0.27345   0.27638   0.27799   0.28169
 Alpha virt. eigenvalues --    0.28420   0.28689   0.28937   0.29172   0.29360
 Alpha virt. eigenvalues --    0.29569   0.29938   0.30070   0.30232   0.30581
 Alpha virt. eigenvalues --    0.30819   0.31258   0.31501   0.31890   0.32071
 Alpha virt. eigenvalues --    0.32237   0.32396   0.32821   0.32915   0.33489
 Alpha virt. eigenvalues --    0.33950   0.34261   0.34712   0.34888   0.35283
 Alpha virt. eigenvalues --    0.35814   0.36254   0.36432   0.36631   0.36814
 Alpha virt. eigenvalues --    0.37131   0.37423   0.37685   0.38007   0.38419
 Alpha virt. eigenvalues --    0.38531   0.38709   0.39095   0.39341   0.39601
 Alpha virt. eigenvalues --    0.39741   0.39829   0.40329   0.40371   0.40481
 Alpha virt. eigenvalues --    0.40780   0.40985   0.41064   0.41502   0.41766
 Alpha virt. eigenvalues --    0.42154   0.42426   0.42637   0.42818   0.42974
 Alpha virt. eigenvalues --    0.43284   0.43366   0.43676   0.43781   0.44099
 Alpha virt. eigenvalues --    0.44375   0.44596   0.44972   0.45225   0.45402
 Alpha virt. eigenvalues --    0.45496   0.45707   0.46300   0.46350   0.46724
 Alpha virt. eigenvalues --    0.46863   0.47059   0.47273   0.47742   0.47778
 Alpha virt. eigenvalues --    0.47977   0.48327   0.48452   0.48837   0.49255
 Alpha virt. eigenvalues --    0.49534   0.49567   0.49822   0.50041   0.50165
 Alpha virt. eigenvalues --    0.50504   0.50738   0.51265   0.51337   0.51474
 Alpha virt. eigenvalues --    0.51722   0.51891   0.52238   0.52410   0.52623
 Alpha virt. eigenvalues --    0.52768   0.53057   0.53452   0.53623   0.53694
 Alpha virt. eigenvalues --    0.54212   0.54353   0.54575   0.55388   0.55517
 Alpha virt. eigenvalues --    0.55591   0.55763   0.56234   0.56602   0.56777
 Alpha virt. eigenvalues --    0.57452   0.57667   0.58102   0.58596   0.58718
 Alpha virt. eigenvalues --    0.59135   0.59600   0.59742   0.60510   0.60568
 Alpha virt. eigenvalues --    0.60934   0.61190   0.61420   0.62109   0.62238
 Alpha virt. eigenvalues --    0.62740   0.62837   0.62996   0.63195   0.63317
 Alpha virt. eigenvalues --    0.63845   0.64202   0.64430   0.64939   0.65214
 Alpha virt. eigenvalues --    0.65712   0.65891   0.66067   0.66171   0.66563
 Alpha virt. eigenvalues --    0.66804   0.67248   0.67343   0.67437   0.68183
 Alpha virt. eigenvalues --    0.69111   0.69279   0.69578   0.69992   0.70178
 Alpha virt. eigenvalues --    0.70697   0.71009   0.71212   0.71753   0.71985
 Alpha virt. eigenvalues --    0.72116   0.72607   0.72691   0.73080   0.73139
 Alpha virt. eigenvalues --    0.73359   0.73834   0.74234   0.74583   0.74803
 Alpha virt. eigenvalues --    0.75333   0.75558   0.75941   0.76691   0.77190
 Alpha virt. eigenvalues --    0.77304   0.77534   0.77805   0.78362   0.78555
 Alpha virt. eigenvalues --    0.78794   0.79564   0.79776   0.80257   0.80412
 Alpha virt. eigenvalues --    0.81187   0.81402   0.81665   0.82518   0.83062
 Alpha virt. eigenvalues --    0.83345   0.83768   0.84075   0.84417   0.84717
 Alpha virt. eigenvalues --    0.84891   0.85709   0.86098   0.86664   0.86793
 Alpha virt. eigenvalues --    0.87030   0.87146   0.87437   0.88329   0.88708
 Alpha virt. eigenvalues --    0.89277   0.89860   0.90205   0.90492   0.90744
 Alpha virt. eigenvalues --    0.91018   0.91468   0.91889   0.92245   0.92650
 Alpha virt. eigenvalues --    0.92888   0.93413   0.93673   0.94172   0.94672
 Alpha virt. eigenvalues --    0.95254   0.95624   0.95958   0.96857   0.97041
 Alpha virt. eigenvalues --    0.97415   0.97664   0.98280   0.98542   0.98625
 Alpha virt. eigenvalues --    0.98976   0.99302   1.00056   1.00187   1.00458
 Alpha virt. eigenvalues --    1.01115   1.01335   1.01480   1.01754   1.02094
 Alpha virt. eigenvalues --    1.02425   1.02586   1.02818   1.02965   1.03349
 Alpha virt. eigenvalues --    1.03663   1.04272   1.04668   1.04792   1.05073
 Alpha virt. eigenvalues --    1.05281   1.05897   1.06748   1.07230   1.07400
 Alpha virt. eigenvalues --    1.07738   1.08442   1.08837   1.09050   1.09936
 Alpha virt. eigenvalues --    1.10307   1.10453   1.11162   1.11384   1.11672
 Alpha virt. eigenvalues --    1.12282   1.13085   1.13302   1.13979   1.14215
 Alpha virt. eigenvalues --    1.15490   1.16369   1.16785   1.17118   1.17692
 Alpha virt. eigenvalues --    1.17904   1.18449   1.18831   1.19301   1.19409
 Alpha virt. eigenvalues --    1.19459   1.20375   1.20612   1.21074   1.21511
 Alpha virt. eigenvalues --    1.22429   1.22539   1.23590   1.23671   1.24418
 Alpha virt. eigenvalues --    1.24566   1.24973   1.25408   1.25612   1.26312
 Alpha virt. eigenvalues --    1.26543   1.26656   1.27245   1.27505   1.27871
 Alpha virt. eigenvalues --    1.28234   1.28583   1.28835   1.29169   1.29849
 Alpha virt. eigenvalues --    1.30909   1.31081   1.31297   1.32447   1.32531
 Alpha virt. eigenvalues --    1.33283   1.34248   1.34574   1.35482   1.36304
 Alpha virt. eigenvalues --    1.36794   1.37824   1.38009   1.38232   1.38664
 Alpha virt. eigenvalues --    1.39485   1.40323   1.40708   1.41244   1.41834
 Alpha virt. eigenvalues --    1.42444   1.43318   1.44002   1.44388   1.44469
 Alpha virt. eigenvalues --    1.45026   1.45437   1.46042   1.46706   1.47100
 Alpha virt. eigenvalues --    1.47635   1.48107   1.48174   1.48300   1.48739
 Alpha virt. eigenvalues --    1.49207   1.49625   1.50162   1.50414   1.50536
 Alpha virt. eigenvalues --    1.50893   1.51477   1.52024   1.52118   1.52601
 Alpha virt. eigenvalues --    1.53046   1.53263   1.53504   1.53629   1.54066
 Alpha virt. eigenvalues --    1.54279   1.54446   1.54621   1.54722   1.54948
 Alpha virt. eigenvalues --    1.55489   1.55645   1.55863   1.56165   1.56407
 Alpha virt. eigenvalues --    1.57017   1.57226   1.57251   1.57731   1.58065
 Alpha virt. eigenvalues --    1.58619   1.59040   1.59097   1.59278   1.59493
 Alpha virt. eigenvalues --    1.60306   1.60420   1.60839   1.60943   1.61530
 Alpha virt. eigenvalues --    1.61607   1.61953   1.62036   1.62721   1.62808
 Alpha virt. eigenvalues --    1.63416   1.63475   1.64021   1.64254   1.64427
 Alpha virt. eigenvalues --    1.64620   1.65137   1.65248   1.65836   1.66079
 Alpha virt. eigenvalues --    1.66165   1.66571   1.66874   1.67076   1.67716
 Alpha virt. eigenvalues --    1.68156   1.68248   1.68537   1.69037   1.69309
 Alpha virt. eigenvalues --    1.70217   1.70302   1.70640   1.71079   1.71435
 Alpha virt. eigenvalues --    1.71804   1.72083   1.72475   1.72822   1.73672
 Alpha virt. eigenvalues --    1.73900   1.74115   1.75198   1.75556   1.76157
 Alpha virt. eigenvalues --    1.76682   1.77404   1.77755   1.78211   1.78402
 Alpha virt. eigenvalues --    1.79009   1.79359   1.80103   1.80816   1.81488
 Alpha virt. eigenvalues --    1.81647   1.82114   1.82429   1.83157   1.83603
 Alpha virt. eigenvalues --    1.83741   1.84392   1.85230   1.85936   1.86336
 Alpha virt. eigenvalues --    1.86505   1.86928   1.87069   1.87628   1.87810
 Alpha virt. eigenvalues --    1.88164   1.88651   1.88947   1.89706   1.89957
 Alpha virt. eigenvalues --    1.90361   1.91229   1.92045   1.92230   1.92984
 Alpha virt. eigenvalues --    1.93499   1.94643   1.94885   1.95125   1.95398
 Alpha virt. eigenvalues --    1.95486   1.96557   1.96757   1.97535   1.97961
 Alpha virt. eigenvalues --    1.98262   1.98963   1.99282   1.99575   2.00093
 Alpha virt. eigenvalues --    2.00358   2.01199   2.01527   2.01917   2.02396
 Alpha virt. eigenvalues --    2.03072   2.03191   2.03516   2.04002   2.05091
 Alpha virt. eigenvalues --    2.05874   2.06463   2.06747   2.07178   2.07664
 Alpha virt. eigenvalues --    2.08294   2.08447   2.08940   2.09525   2.09846
 Alpha virt. eigenvalues --    2.10257   2.10712   2.11379   2.11649   2.12320
 Alpha virt. eigenvalues --    2.12785   2.13305   2.13827   2.14892   2.15351
 Alpha virt. eigenvalues --    2.15675   2.16050   2.16345   2.17757   2.17989
 Alpha virt. eigenvalues --    2.18789   2.18868   2.19128   2.20107   2.20344
 Alpha virt. eigenvalues --    2.20956   2.21224   2.21362   2.22140   2.22801
 Alpha virt. eigenvalues --    2.23745   2.24010   2.25071   2.25624   2.25934
 Alpha virt. eigenvalues --    2.26087   2.26335   2.26853   2.27421   2.27674
 Alpha virt. eigenvalues --    2.28474   2.28710   2.29073   2.29436   2.29900
 Alpha virt. eigenvalues --    2.30378   2.31353   2.31462   2.32142   2.32335
 Alpha virt. eigenvalues --    2.32668   2.33889   2.34028   2.34179   2.35355
 Alpha virt. eigenvalues --    2.35566   2.35854   2.36194   2.36623   2.36736
 Alpha virt. eigenvalues --    2.37197   2.37430   2.37549   2.38253   2.38319
 Alpha virt. eigenvalues --    2.39099   2.39709   2.39941   2.40141   2.40714
 Alpha virt. eigenvalues --    2.41639   2.42577   2.42894   2.43125   2.43455
 Alpha virt. eigenvalues --    2.43747   2.44854   2.44916   2.45469   2.45676
 Alpha virt. eigenvalues --    2.46319   2.46879   2.47161   2.47451   2.48326
 Alpha virt. eigenvalues --    2.48676   2.49097   2.49545   2.49779   2.50573
 Alpha virt. eigenvalues --    2.51885   2.52341   2.52947   2.53263   2.53452
 Alpha virt. eigenvalues --    2.54336   2.54680   2.55017   2.55141   2.55409
 Alpha virt. eigenvalues --    2.56240   2.56429   2.56788   2.56858   2.57216
 Alpha virt. eigenvalues --    2.57706   2.57987   2.58572   2.58881   2.59354
 Alpha virt. eigenvalues --    2.59873   2.60174   2.60559   2.60719   2.60995
 Alpha virt. eigenvalues --    2.61406   2.61678   2.62316   2.62525   2.63252
 Alpha virt. eigenvalues --    2.63773   2.64122   2.64388   2.64643   2.65367
 Alpha virt. eigenvalues --    2.65690   2.66575   2.66884   2.67124   2.67622
 Alpha virt. eigenvalues --    2.68029   2.68400   2.68816   2.69239   2.69434
 Alpha virt. eigenvalues --    2.69781   2.70475   2.70645   2.70958   2.71645
 Alpha virt. eigenvalues --    2.72253   2.73018   2.73464   2.74069   2.74161
 Alpha virt. eigenvalues --    2.74575   2.74881   2.75257   2.76183   2.76955
 Alpha virt. eigenvalues --    2.77382   2.77697   2.78094   2.78569   2.78911
 Alpha virt. eigenvalues --    2.79695   2.80419   2.80535   2.81111   2.81554
 Alpha virt. eigenvalues --    2.81808   2.82475   2.82808   2.83181   2.83602
 Alpha virt. eigenvalues --    2.83649   2.84013   2.84533   2.84914   2.85220
 Alpha virt. eigenvalues --    2.85708   2.86153   2.86863   2.87239   2.87608
 Alpha virt. eigenvalues --    2.88182   2.88488   2.89142   2.89399   2.89788
 Alpha virt. eigenvalues --    2.89991   2.90994   2.91177   2.91684   2.92444
 Alpha virt. eigenvalues --    2.92674   2.93091   2.93539   2.93764   2.94217
 Alpha virt. eigenvalues --    2.94562   2.94846   2.95122   2.95431   2.96473
 Alpha virt. eigenvalues --    2.96707   2.97163   2.97585   2.97844   2.98032
 Alpha virt. eigenvalues --    2.98350   2.99173   2.99392   2.99803   3.00097
 Alpha virt. eigenvalues --    3.00685   3.01565   3.01906   3.01959   3.03055
 Alpha virt. eigenvalues --    3.03173   3.03730   3.04603   3.05194   3.05891
 Alpha virt. eigenvalues --    3.06102   3.06185   3.06417   3.07241   3.07485
 Alpha virt. eigenvalues --    3.07899   3.08321   3.08782   3.09319   3.09701
 Alpha virt. eigenvalues --    3.09799   3.10220   3.10420   3.10597   3.11067
 Alpha virt. eigenvalues --    3.11325   3.11640   3.12306   3.12812   3.13101
 Alpha virt. eigenvalues --    3.13270   3.13458   3.14063   3.14380   3.14985
 Alpha virt. eigenvalues --    3.15362   3.15808   3.16344   3.16541   3.17184
 Alpha virt. eigenvalues --    3.17218   3.17535   3.17864   3.18103   3.18497
 Alpha virt. eigenvalues --    3.19069   3.19405   3.19542   3.20323   3.20478
 Alpha virt. eigenvalues --    3.21144   3.21364   3.21584   3.21821   3.22335
 Alpha virt. eigenvalues --    3.22750   3.23256   3.23427   3.23764   3.24279
 Alpha virt. eigenvalues --    3.24548   3.24861   3.24972   3.25596   3.25822
 Alpha virt. eigenvalues --    3.25908   3.26113   3.26693   3.26992   3.27229
 Alpha virt. eigenvalues --    3.27539   3.27873   3.28079   3.28667   3.28976
 Alpha virt. eigenvalues --    3.29171   3.29681   3.30005   3.30442   3.30592
 Alpha virt. eigenvalues --    3.30832   3.31228   3.31468   3.31671   3.32211
 Alpha virt. eigenvalues --    3.32384   3.32526   3.32853   3.33356   3.33497
 Alpha virt. eigenvalues --    3.33698   3.34033   3.34349   3.34753   3.35091
 Alpha virt. eigenvalues --    3.35375   3.35779   3.36010   3.36198   3.36939
 Alpha virt. eigenvalues --    3.36975   3.37128   3.37463   3.38036   3.38219
 Alpha virt. eigenvalues --    3.38308   3.39092   3.39388   3.39505   3.39772
 Alpha virt. eigenvalues --    3.40250   3.40462   3.40929   3.41064   3.41279
 Alpha virt. eigenvalues --    3.42009   3.42308   3.42632   3.43255   3.43419
 Alpha virt. eigenvalues --    3.43634   3.44451   3.44945   3.45312   3.45456
 Alpha virt. eigenvalues --    3.45707   3.46337   3.46978   3.47279   3.47768
 Alpha virt. eigenvalues --    3.48820   3.49260   3.49825   3.49974   3.50583
 Alpha virt. eigenvalues --    3.50825   3.51419   3.52137   3.52451   3.52865
 Alpha virt. eigenvalues --    3.53320   3.54194   3.54530   3.54949   3.55611
 Alpha virt. eigenvalues --    3.56302   3.56735   3.57071   3.57592   3.58164
 Alpha virt. eigenvalues --    3.59109   3.59261   3.59823   3.60131   3.60949
 Alpha virt. eigenvalues --    3.61143   3.61792   3.62030   3.62375   3.63607
 Alpha virt. eigenvalues --    3.64171   3.64999   3.65311   3.66292   3.66590
 Alpha virt. eigenvalues --    3.67013   3.67248   3.68121   3.68412   3.68779
 Alpha virt. eigenvalues --    3.69187   3.70082   3.70297   3.70798   3.70996
 Alpha virt. eigenvalues --    3.71611   3.71904   3.72807   3.72932   3.73552
 Alpha virt. eigenvalues --    3.73614   3.74024   3.74417   3.74709   3.75430
 Alpha virt. eigenvalues --    3.75675   3.76556   3.76713   3.77026   3.77747
 Alpha virt. eigenvalues --    3.78433   3.79805   3.80193   3.80455   3.81624
 Alpha virt. eigenvalues --    3.81794   3.82296   3.83022   3.83512   3.84572
 Alpha virt. eigenvalues --    3.85385   3.86129   3.86562   3.87050   3.87267
 Alpha virt. eigenvalues --    3.87976   3.88506   3.89298   3.90042   3.90881
 Alpha virt. eigenvalues --    3.91402   3.91956   3.92676   3.93525   3.94077
 Alpha virt. eigenvalues --    3.95633   3.96400   3.96976   3.97409   3.98382
 Alpha virt. eigenvalues --    3.98605   3.98917   3.99854   4.00032   4.00849
 Alpha virt. eigenvalues --    4.01047   4.01813   4.03108   4.03748   4.04019
 Alpha virt. eigenvalues --    4.04279   4.05027   4.05824   4.06226   4.06501
 Alpha virt. eigenvalues --    4.07704   4.08234   4.09618   4.10269   4.11130
 Alpha virt. eigenvalues --    4.11400   4.12070   4.13323   4.14003   4.14407
 Alpha virt. eigenvalues --    4.15165   4.15461   4.16001   4.16622   4.17397
 Alpha virt. eigenvalues --    4.17876   4.18393   4.18469   4.18860   4.19446
 Alpha virt. eigenvalues --    4.20586   4.20940   4.21372   4.22015   4.22510
 Alpha virt. eigenvalues --    4.23402   4.23575   4.24233   4.25248   4.26049
 Alpha virt. eigenvalues --    4.26699   4.26899   4.28123   4.28699   4.29273
 Alpha virt. eigenvalues --    4.29431   4.29956   4.30762   4.31780   4.32086
 Alpha virt. eigenvalues --    4.32528   4.33144   4.33699   4.34751   4.34915
 Alpha virt. eigenvalues --    4.35643   4.36428   4.36849   4.38176   4.38925
 Alpha virt. eigenvalues --    4.39492   4.39876   4.40524   4.41081   4.41351
 Alpha virt. eigenvalues --    4.42685   4.43149   4.43623   4.44199   4.45248
 Alpha virt. eigenvalues --    4.45448   4.45972   4.46482   4.47029   4.47737
 Alpha virt. eigenvalues --    4.48140   4.48726   4.48805   4.50476   4.51040
 Alpha virt. eigenvalues --    4.51724   4.52299   4.53369   4.53713   4.53745
 Alpha virt. eigenvalues --    4.55117   4.56157   4.56756   4.57585   4.58107
 Alpha virt. eigenvalues --    4.58876   4.61720   4.63683   4.64701   4.65495
 Alpha virt. eigenvalues --    4.66007   4.67412   4.67858   4.68904   4.69373
 Alpha virt. eigenvalues --    4.69888   4.71778   4.72420   4.73364   4.73808
 Alpha virt. eigenvalues --    4.74456   4.76305   4.77278   4.79665   4.80473
 Alpha virt. eigenvalues --    4.81291   4.82513   4.82762   4.83638   4.84200
 Alpha virt. eigenvalues --    4.84895   4.85506   4.85859   4.86828   4.87300
 Alpha virt. eigenvalues --    4.87484   4.89420   4.90579   4.92649   4.93244
 Alpha virt. eigenvalues --    4.94777   4.95377   4.96895   4.97543   4.99437
 Alpha virt. eigenvalues --    5.00389   5.02117   5.02362   5.02443   5.03284
 Alpha virt. eigenvalues --    5.04023   5.05866   5.05965   5.07373   5.08216
 Alpha virt. eigenvalues --    5.08972   5.10284   5.13304   5.13963   5.15820
 Alpha virt. eigenvalues --    5.16854   5.17625   5.18993   5.20635   5.21036
 Alpha virt. eigenvalues --    5.21978   5.22946   5.24334   5.24743   5.25234
 Alpha virt. eigenvalues --    5.26334   5.27863   5.28654   5.33930   5.34511
 Alpha virt. eigenvalues --    5.35929   5.36906   5.37824   5.38736   5.39034
 Alpha virt. eigenvalues --    5.39493   5.40022   5.40561   5.47288   5.48244
 Alpha virt. eigenvalues --    5.49172   5.49673   5.50972   5.51692   5.53187
 Alpha virt. eigenvalues --    5.55214   5.57813   5.59862   5.60979   5.61957
 Alpha virt. eigenvalues --    5.62241   5.63730   5.66241   5.67483   5.68285
 Alpha virt. eigenvalues --    5.72319   5.75427   5.76148   5.77672   5.79713
 Alpha virt. eigenvalues --    5.85544   5.87859   5.89281   5.92481   5.99457
 Alpha virt. eigenvalues --    6.00487   6.01573   6.10416   6.11036   6.11589
 Alpha virt. eigenvalues --    6.13286   6.17750   6.23205   6.26916   6.32708
 Alpha virt. eigenvalues --    6.34516   6.40175   6.43395   6.51150   6.54421
 Alpha virt. eigenvalues --    6.60566   6.96618   7.29295   9.07107   9.23966
 Alpha virt. eigenvalues --    9.39500  19.61169  22.32707  22.35389  22.36558
 Alpha virt. eigenvalues --   22.45804  22.46659  22.51590  22.52337  22.60168
 Alpha virt. eigenvalues --   22.62647  22.83415  22.86656  22.90631  22.93020
 Alpha virt. eigenvalues --   22.93597  22.95529  22.96549  23.02162  23.04218
 Alpha virt. eigenvalues --   23.13223  23.26254  23.30148  23.30486  23.39911
 Alpha virt. eigenvalues --   23.41273  23.49144  23.51375  23.54608  23.71372
 Alpha virt. eigenvalues --   23.76143  23.79711  23.87819  32.89592  32.90915
 Alpha virt. eigenvalues --   32.92076  33.03599  43.90961
          Condensed to atoms (all electrons):
 Mulliken charges:
               1
     1  Fe  -0.220638
     2  N   -0.118275
     3  N    0.006757
     4  N   -0.050617
     5  N    0.021430
     6  C    0.203287
     7  C   -0.070468
     8  C   -0.027056
     9  C    0.167012
    10  C    0.172670
    11  C   -0.046900
    12  C    0.039338
    13  C    0.210054
    14  C    0.230067
    15  C   -0.072112
    16  C    0.081259
    17  C    0.188631
    18  C    0.227108
    19  C   -0.043919
    20  C   -0.042403
    21  C    0.204149
    22  C   -0.408467
    23  H    0.141009
    24  C   -0.402369
    25  H    0.127494
    26  C   -0.409543
    27  H    0.105766
    28  C   -0.392477
    29  H    0.126532
    30  C   -0.403209
    31  H    0.124171
    32  H    0.137039
    33  H    0.135477
    34  C   -0.393255
    35  H    0.135274
    36  H    0.138072
    37  H    0.122419
    38  C   -0.439046
    39  H    0.141343
    40  H    0.126809
    41  H    0.156232
    42  C   -0.201686
    43  H    0.110677
    44  C   -0.288766
    45  H    0.138656
    46  H    0.123651
    47  C   -0.443280
    48  H    0.129750
    49  H    0.143047
    50  H    0.155506
    51  C   -0.205586
    52  H    0.120015
    53  C   -0.287434
    54  H    0.140517
    55  H    0.123788
    56  C   -0.413050
    57  H    0.135580
    58  H    0.139987
    59  H    0.119349
    60  C   -0.413463
    61  H    0.121266
    62  H    0.134510
    63  H    0.135568
    64  O   -0.576615
    65  H    0.359914
    66  H    0.321216
    67  C   -0.335961
    68  H    0.154978
    69  H    0.143498
    70  H    0.161536
    71  S   -0.042588
    72  H    0.166774
 Sum of Mulliken charges =  -0.00000
 Mulliken charges with hydrogens summed into heavy atoms:
               1
     1  Fe  -0.220638
     2  N   -0.118275
     3  N    0.006757
     4  N   -0.050617
     5  N    0.021430
     6  C    0.203287
     7  C   -0.070468
     8  C   -0.027056
     9  C    0.167012
    10  C    0.172670
    11  C   -0.046900
    12  C    0.039338
    13  C    0.210054
    14  C    0.230067
    15  C   -0.072112
    16  C    0.081259
    17  C    0.188631
    18  C    0.227108
    19  C   -0.043919
    20  C   -0.042403
    21  C    0.204149
    22  C   -0.267458
    24  C   -0.274874
    26  C   -0.303777
    28  C   -0.265944
    30  C   -0.006522
    34  C    0.002510
    38  C   -0.014662
    42  C   -0.091009
    44  C   -0.026458
    47  C   -0.014977
    51  C   -0.085571
    53  C   -0.023128
    56  C   -0.018134
    60  C   -0.022118
    64  O    0.104514
    67  C    0.124052
    71  S    0.124187
 Electronic spatial extent (au):  <R**2>=          18375.5521
 Charge=             -0.0000 electrons
 Dipole moment (field-independent basis, Debye):
    X=             -1.4476    Y=             -1.2607    Z=             -0.8435  Tot=              2.0968
 Quadrupole moment (field-independent basis, Debye-Ang):
   XX=           -223.3897   YY=           -224.1635   ZZ=           -229.9815
   XY=              2.4589   XZ=             -4.3846   YZ=              0.9184
 Traceless Quadrupole moment (field-independent basis, Debye-Ang):
   XX=              2.4552   YY=              1.6814   ZZ=             -4.1366
   XY=              2.4589   XZ=             -4.3846   YZ=              0.9184
 Octapole moment (field-independent basis, Debye-Ang**2):
  XXX=             -3.6202  YYY=            -42.9518  ZZZ=             -7.0372  XYY=              2.9877
  XXY=            -27.6063  XXZ=              8.6935  XZZ=            -16.0454  YZZ=             -5.1789
  YYZ=            -23.6153  XYZ=            -14.5475
 Hexadecapole moment (field-independent basis, Debye-Ang**3):
 XXXX=         -11709.6576 YYYY=         -11433.6073 ZZZZ=          -1384.1631 XXXY=              8.6790
 XXXZ=              9.8734 YYYX=             -3.6921 YYYZ=            -56.2787 ZZZX=            -74.1550
 ZZZY=             19.4504 XXYY=          -3897.0945 XXZZ=          -2333.7492 YYZZ=          -2281.0393
 XXYZ=             25.3233 YYXZ=            -56.3783 ZZXY=             32.2795
 N-N= 5.403359419303D+03 E-N=-1.824220674018D+04  KE= 3.147451531977D+03
  Exact polarizability:     698.069       1.059     686.169      -4.965      -1.893     266.161
 Approx polarizability:    1287.074       7.954    1269.933       8.100     -12.027     448.426

 ----------------------------------------------------------------------

 Electric dipole moment (input orientation):
 (Debye = 10**-18 statcoulomb cm , SI units = C m)
                  (au)            (Debye)         (10**-30 SI)
   Tot        0.824927D+00      0.209676D+01      0.699403D+01
   x          0.444307D+00      0.112932D+01      0.376699D+01
   y          0.142391D-01      0.361922D-01      0.120724D+00
   z         -0.694905D+00     -0.176627D+01     -0.589165D+01

 Dipole polarizability, Alpha (input orientation).
 (esu units = cm**3 , SI units = C**2 m**2 J**-1)
 Alpha(0;0):
               (au)            (10**-24 esu)      (10**-40 SI)
   iso        0.550133D+03      0.815213D+02      0.907047D+02
   aniso      0.426186D+03      0.631542D+02      0.702686D+02
   xx         0.568145D+03      0.841904D+02      0.936745D+02
   yx         0.220064D+02      0.326101D+01      0.362836D+01
   yy         0.684841D+03      0.101483D+03      0.112915D+03
   zx        -0.192787D+03     -0.285680D+02     -0.317862D+02
   zy         0.446854D+02      0.662169D+01      0.736763D+01
   zz         0.397413D+03      0.588905D+02      0.655245D+02

 First dipole hyperpolarizability, Beta (input orientation).
 ||, _|_  parallel and perpendicular components, (z) with respect to z axis,
 vector components x,y,z.  Values do not include the 1/n! factor of 1/2.
 (esu units = statvolt**-1 cm**4 , SI units = C**3 m**3 J**-2)
 Beta(0;0,0):
               (au)            (10**-30 esu)      (10**-50 SI)
   || (z)     0.235589D+03      0.203531D+01      0.755385D+00
   _|_(z)     0.785298D+02      0.678437D+00      0.251795D+00
   x         -0.373543D+04     -0.322712D+02     -0.119771D+02
   y         -0.344144D+04     -0.297313D+02     -0.110345D+02
   z          0.117795D+04      0.101765D+02      0.377693D+01
   ||         0.104277D+04      0.900876D+01      0.334351D+01
   xxx       -0.891155D+03     -0.769888D+01     -0.285736D+01
   xxy        0.268948D+03      0.232350D+01      0.862345D+00
   yxy       -0.129872D+03     -0.112199D+01     -0.416415D+00
   yyy       -0.150354D+04     -0.129894D+02     -0.482089D+01
   xxz        0.459251D+03      0.396757D+01      0.147253D+01
   yxz       -0.212240D+03     -0.183359D+01     -0.680518D+00
   yyz       -0.126775D+03     -0.109523D+01     -0.406486D+00
   zxz       -0.224116D+03     -0.193619D+01     -0.718596D+00
   zyz        0.874452D+02      0.755459D+00      0.280381D+00
   zzz        0.601725D+02      0.519843D+00      0.192935D+00

 ----------------------------------------------------------------------

 Dipole orientation:
    26         11.28790132        -35.66742509         14.39473565
     7         12.55363751        -35.76153404         17.96682684
     7         10.57644630        -31.93173166         14.78005215
     7          9.61767820        -35.55684808         10.96938835
     7         11.54297736        -39.41097260         14.12835945
     6         13.10940945        -37.87488336         19.31808250
     6         13.55642702        -37.25509498         21.93910615
     6         13.52946310        -34.68511044         22.08023449
     6         12.74980207        -33.79572683         19.61750696
     6         11.04726870        -30.47544229         16.85591931
     6         10.35729706        -27.88285055         16.39902804
     6          9.22265852        -27.83911552         14.07406813
     6          9.30920905        -30.41438366         13.14158656
     6          8.38888659        -33.57681993          9.88366302
     6          7.21276162        -34.31039630          7.53924597
     6          7.88787719        -36.77633861          7.14585588
     6          9.24865263        -37.54942923          9.39550456
     6         10.81253354        -40.89870195         12.17555395
     6         11.08414569        -43.54521547         12.80853281
     6         12.03749065        -43.61692149         15.19081584
     6         12.28647250        -41.01222041         15.99482480
     6         13.02265522        -40.32256801         18.40114625
     1         13.50542797        -41.81954472         19.69853930
     6         12.07295100        -31.32715290         19.10793039
     1         12.33161496        -29.96145745         20.59934015
     6          8.26282731        -31.16235078         10.87347573
     1          7.23506855        -29.76200505          9.80746747
     6          9.80525102        -40.04304446          9.92721321
     1          9.31311071        -41.43610532          8.52200491
     6         13.93824840        -33.01829577         24.31276232
     1         14.68776304        -34.09266098         25.89539441
     1         12.17070517        -32.13877390         24.90681132
     1         15.27448124        -31.52006562         23.85508250
     6         14.13013132        -39.14225537         23.94773153
     1         15.85781686        -40.17513591         23.50772095
     1         12.59585979        -40.50690812         24.11154855
     1         14.36988619        -38.21947311         25.76754383
     6         10.64920755        -25.77494579         18.23869051
     1         12.58266659        -25.05733929         18.23352324
     1         10.21096706        -26.40380642         20.14872979
     1          9.38197320        -24.23197429         17.74900640
     6          8.11710877        -25.72793588         12.73588312
     1          6.45591358        -26.15657228         11.61738372
     6          8.98522487        -23.37212816         12.77368035
     1         10.67791488        -22.85812428         13.77718395
     1          8.05444913        -21.87803029         11.75123726
     6          5.83079471        -32.57887906          5.80525589
     1          6.69353091        -30.71071425          5.79018316
     1          3.86505865        -32.36959186          6.39211626
     1          5.86037037        -33.33005437          3.89160046
     6          7.33599219        -38.42127154          5.03314435
     1          8.79670623        -39.78708156          4.58897130
     6          5.24421902        -38.37223658          3.64505075
     1          3.69914724        -37.11616684          4.05758668
     1          4.98396305        -39.63361575          2.06826720
     6         10.42790152        -45.66414093         11.07606321
     1         11.53875913        -45.55053524          9.34505931
     1          8.43452130        -45.58734180         10.56208445
     1         10.79774134        -47.47826044         11.96646362
     6         12.68855832        -45.84296796         16.78713873
     1         12.43211647        -47.59072701         15.73854799
     1         11.49122684        -45.91250342         18.46308859
     1         14.65018722        -45.73875830         17.40565612
     8          7.53949730        -36.32634774         16.33057859
     1          8.16682548        -36.34559715         18.02646185
     1          5.92761589        -36.41504551         15.86710784
     6         17.06233505        -33.04139160         14.80457048
     1         18.68579364        -32.23874468         13.84098890
     1         17.67727400        -34.29545191         16.30499352
     1         15.84968877        -31.58049412         15.57560187
    16         15.26510128        -34.98004980         12.57984093
     1         14.64916950        -33.05810161         11.05546164

 Electric dipole moment (dipole orientation):
 (Debye = 10**-18 statcoulomb cm , SI units = C m)
                  (au)            (Debye)         (10**-30 SI)
   Tot        0.824927D+00      0.209676D+01      0.699403D+01
   x          0.000000D+00      0.000000D+00      0.000000D+00
   y          0.000000D+00      0.000000D+00      0.000000D+00
   z          0.824927D+00      0.209676D+01      0.699403D+01

 Dipole polarizability, Alpha (dipole orientation).
 (esu units = cm**3 , SI units = C**2 m**2 J**-1)
 Alpha(0;0):
               (au)            (10**-24 esu)      (10**-40 SI)
   iso        0.550133D+03      0.815213D+02      0.907047D+02
   aniso      0.426186D+03      0.631542D+02      0.702686D+02
   xx         0.343218D+03      0.508597D+02      0.565891D+02
   yx        -0.381430D+02     -0.565221D+01     -0.628893D+01
   yy         0.686106D+03      0.101670D+03      0.113124D+03
   zx         0.159222D+03      0.235943D+02      0.262522D+02
   zy         0.238893D+02      0.354003D+01      0.393882D+01
   zz         0.621074D+03      0.920337D+02      0.102401D+03

 First dipole hyperpolarizability, Beta (dipole orientation).
 ||, _|_  parallel and perpendicular components, (z) with respect to z axis,
 vector components x,y,z.  Values do not include the 1/n! factor of 1/2.
 (esu units = statvolt**-1 cm**4 , SI units = C**3 m**3 J**-2)
 Beta(0;0,0):
               (au)            (10**-30 esu)      (10**-50 SI)
   || (z)    -0.612719D+03     -0.529341D+01     -0.196460D+01
   _|_(z)    -0.204240D+03     -0.176447D+01     -0.654866D+00
   x         -0.249546D+04     -0.215588D+02     -0.800133D+01
   y          0.340170D+04      0.293880D+02      0.109071D+02
   z         -0.306359D+04     -0.264671D+02     -0.982299D+01
   ||         0.104277D+04      0.900876D+01      0.334351D+01
   xxx       -0.161533D+03     -0.139552D+01     -0.517933D+00
   xxy       -0.292755D+02     -0.252918D+00     -0.938679D-01
   yxy       -0.175832D+03     -0.151905D+01     -0.563782D+00
   yyy        0.150719D+04      0.130210D+02      0.483261D+01
   xxz       -0.270526D+03     -0.233714D+01     -0.867405D+00
   yxz       -0.175516D+03     -0.151632D+01     -0.562768D+00
   yyz        0.932943D+00      0.805990D-02      0.299135D-02
   zxz       -0.494453D+03     -0.427169D+01     -0.158540D+01
   zyz       -0.344020D+03     -0.297207D+01     -0.110305D+01
   zzz       -0.751604D+03     -0.649328D+01     -0.240992D+01

 ----------------------------------------------------------------------
 Unable to Open any file for archive entry.
 1\1\GINC-BGN1033\SP\RAPFD\def2TZVP\C31H34Fe1N4O1S1\BECSLEIP\21-Aug-202
 4\0\\# polar def2tzvp apfd int=(grid=ultrafine)\\2cpo_II_S\\0,1\Fe,0,9
 .0402613961,18.9726780177,-2.8737232524\N,0,10.6224482798,19.051718402
 ,-4.1044407499\N,0,8.8428516459,17.0015731926,-3.2823841309\N,0,7.3195
 999651,18.8873449962,-1.8238553904\N,0,9.0680708167,20.9502434533,-2.6
 480858873\C,0,11.2497283903,20.1807323438,-4.5290828854\C,0,12.1977218
 729,19.8755546383,-5.5757113566\C,0,12.2327862155,18.5171584044,-5.669
 7819143\C,0,11.1856285073,18.0261799845,-4.8023107627\C,0,9.6483141284
 ,16.2487667048,-4.0868540381\C,0,9.217387973,14.8747172071,-4.10351941
 79\C,0,8.0489693181,14.8333706489,-3.3909108889\C,0,7.8149097473,16.18
 71749508,-2.927047244\C,0,6.4675744554,17.8330927028,-1.7081822256\C,0
 ,5.2730376104,18.2029481614,-0.9916244933\C,0,5.4553346867,19.50226158
 75,-0.6013200522\C,0,6.7011653237,19.9282123356,-1.2092424562\C,0,8.18
 1845179,21.7215018896,-1.9721822267\C,0,8.4762870841,23.1268064903,-2.
 1527579816\C,0,9.5801382487,23.1839599657,-2.9423354895\C,0,9.92725875
 05,21.812513494,-3.2535666968\C,0,10.9431712347,21.4676380487,-4.12270
 88369\H,0,11.524198421,22.2702373407,-4.5497765771\C,0,10.7452049284,1
 6.7172310033,-4.7906182393\H,0,11.2892538494,16.0075850052,-5.39419544
 47\C,0,6.6999297227,16.5649949752,-2.207394241\H,0,5.9416076472,15.817
 0910866,-2.0379179225\C,0,7.0942146725,21.2509337238,-1.2648459826\H,0
 ,6.4705646672,21.9764693505,-0.7659893013\C,0,13.0558020193,17.6545613
 656,-6.5636910059\H,0,13.8381837452,18.2354535863,-7.0457443599\H,0,12
 .4393945197,17.1993596497,-7.3403117521\H,0,13.5251238917,16.854111710
 4,-5.9925085682\C,0,13.0209619649,20.8908505372,-6.2903443772\H,0,13.6
 630925543,21.4287064801,-5.5923486447\H,0,12.3799445476,21.6184701406,
 -6.7881957958\H,0,13.6489973646,20.4185963722,-7.0416574154\C,0,9.8774
 994694,13.7754666866,-4.8596409768\H,0,10.7399868495,13.3905770324,-4.
 3128259419\H,0,10.2248195118,14.1268083742,-5.8302409667\H,0,9.1770481
 381,12.9580043902,-5.0166298857\C,0,7.1802871285,13.7070921122,-3.1287
 70796\H,0,6.119699059,13.9280993548,-3.099728686\C,0,7.5844051815,12.4
 586810964,-2.9197111652\H,0,8.6264877282,12.1913721449,-2.8892948109\H
 ,0,6.8819906486,11.6613126967,-2.7428695535\C,0,4.1672887311,17.274668
 5917,-0.6283616475\H,0,4.5526372135,16.2837968037,-0.3928133221\H,0,3.
 4586772298,17.174546001,-1.4521439799\H,0,3.6330473769,17.6545505934,0
 .2399798319\C,0,4.6027250133,20.3547577156,0.1981929574\H,0,5.12374942
 95,21.0694387306,0.824994131\C,0,3.2745981688,20.32172029,0.2203274963
 \H,0,2.7066522503,19.6650382202,-0.415411696\H,0,2.7057851185,20.97539
 78488,0.860555211\C,0,7.6842575338,24.2338399567,-1.5481599974\H,0,7.6
 864797735,24.1549546128,-0.460955744\H,0,6.6492104141,24.1938342901,-1
 .887889885\H,0,8.0980867385,25.2008208821,-1.8230933834\C,0,10.3194536
 121,24.3745850391,-3.4480311234\H,0,9.9015856243,25.290416525,-3.03772
 62874\H,0,10.2631029053,24.4298812329,-4.5357428828\H,0,11.370622721,2
 4.3198601255,-3.1656044318\O,0,7.919,19.3489999998,-4.7990000001\H,0,8
 .682,19.3729999997,-5.376\H,0,7.0679999993,19.3960000001,-5.0509999997
 \C,0,11.7386477825,17.5715898523,-1.4345972393\H,0,12.1899835414,17.13
 37795146,-0.5496814371\H,0,12.4371174472,18.2471656925,-1.916719086\H,
 0,11.4216395112,16.8089220227,-2.1372674471\S,0,10.2980809083,18.58179
 57987,-0.9374110561\H,0,9.5941241229,17.5526299003,-0.4509937842\\Vers
 ion=ES64L-G16RevC.02\State=1-A\HF=-3157.1870137\RMSD=3.971e-09\Dipole=
 0.4443073,0.0142391,-0.6949053\Polar=568.145229,22.0063686,684.8410301
 ,-192.7865874,44.6853965,397.412951\HyperPolar=-891.1545402,268.948007
 7,-129.8716154,-1503.5382518,459.2513654,-212.2399586,-126.7747228,-22
 4.1158152,87.4452201,60.1724864\Quadrupole=2.9469903,0.3122276,-3.2592
 179,-1.6075619,-2.5343698,-1.7034068\PG=C01 [X(C31H34Fe1N4O1S1)]\\@
 The archive entry for this job was punched.


 You can't act like a skunk without someone's getting wind of it.
 -- Lorene Workman
 Job cpu time:       1 days 18 hours 27 minutes 36.5 seconds.
 Elapsed time:       0 days  0 hours 37 minutes  0.8 seconds.
 File lengths (MBytes):  RWF=   1013 Int=      0 D2E=      0 Chk=    130 Scr=      1
 Normal termination of Gaussian 16 at Wed Aug 21 02:34:01 2024.
 Initial command:
 /sw/chem/gaussian/g16_C02/a100/g16/l1.exe "/local/becsleip_7984913/Gau-2175558.inp" -scrdir="/local/becsleip_7984913/"
 Entering Link 1 = /sw/chem/gaussian/g16_C02/a100/g16/l1.exe PID=   2177166.
  
 Copyright (c) 1988-2021, Gaussian, Inc.  All Rights Reserved.
  
 This is part of the Gaussian(R) 16 program.  It is based on
 the Gaussian(R) 09 system (copyright 2009, Gaussian, Inc.),
 the Gaussian(R) 03 system (copyright 2003, Gaussian, Inc.),
 the Gaussian(R) 98 system (copyright 1998, Gaussian, Inc.),
 the Gaussian(R) 94 system (copyright 1995, Gaussian, Inc.),
 the Gaussian 92(TM) system (copyright 1992, Gaussian, Inc.),
 the Gaussian 90(TM) system (copyright 1990, Gaussian, Inc.),
 the Gaussian 88(TM) system (copyright 1988, Gaussian, Inc.),
 the Gaussian 86(TM) system (copyright 1986, Carnegie Mellon
 University), and the Gaussian 82(TM) system (copyright 1983,
 Carnegie Mellon University). Gaussian is a federally registered
 trademark of Gaussian, Inc.
  
 This software contains proprietary and confidential information,
 including trade secrets, belonging to Gaussian, Inc.
  
 This software is provided under written license and may be
 used, copied, transmitted, or stored only in accord with that
 written license.
  
 The following legend is applicable only to US Government
 contracts under FAR:
  
                    RESTRICTED RIGHTS LEGEND
  
 Use, reproduction and disclosure by the US Government is
 subject to restrictions as set forth in subparagraphs (a)
 and (c) of the Commercial Computer Software - Restricted
 Rights clause in FAR 52.227-19.
  
 Gaussian, Inc.
 340 Quinnipiac St., Bldg. 40, Wallingford CT 06492
  
  
 ---------------------------------------------------------------
 Warning -- This program may not be used in any manner that
 competes with the business of Gaussian, Inc. or will provide
 assistance to any competitor of Gaussian, Inc.  The licensee
 of this program is prohibited from giving any competitor of
 Gaussian, Inc. access to this program.  By using this program,
 the user acknowledges that Gaussian, Inc. is engaged in the
 business of creating and licensing software in the field of
 computational chemistry and represents and warrants to the
 licensee that it is not a competitor of Gaussian, Inc. and that
 it will not use this program in any manner prohibited above.
 ---------------------------------------------------------------
  

 Cite this work as:
 Gaussian 16, Revision C.02,
 M. J. Frisch, G. W. Trucks, H. B. Schlegel, G. E. Scuseria, 
 M. A. Robb, J. R. Cheeseman, G. Scalmani, V. Barone, 
 G. A. Petersson, H. Nakatsuji, X. Li, M. Caricato, A. V. Marenich, 
 J. Bloino, B. G. Janesko, R. Gomperts, B. Mennucci, H. P. Hratchian, 
 J. V. Ortiz, A. F. Izmaylov, J. L. Sonnenberg, D. Williams-Young, 
 F. Ding, F. Lipparini, F. Egidi, J. Goings, B. Peng, A. Petrone, 
 T. Henderson, D. Ranasinghe, V. G. Zakrzewski, J. Gao, N. Rega, 
 G. Zheng, W. Liang, M. Hada, M. Ehara, K. Toyota, R. Fukuda, 
 J. Hasegawa, M. Ishida, T. Nakajima, Y. Honda, O. Kitao, H. Nakai, 
 T. Vreven, K. Throssell, J. A. Montgomery, Jr., J. E. Peralta, 
 F. Ogliaro, M. J. Bearpark, J. J. Heyd, E. N. Brothers, K. N. Kudin, 
 V. N. Staroverov, T. A. Keith, R. Kobayashi, J. Normand, 
 K. Raghavachari, A. P. Rendell, J. C. Burant, S. S. Iyengar, 
 J. Tomasi, M. Cossi, J. M. Millam, M. Klene, C. Adamo, R. Cammi, 
 J. W. Ochterski, R. L. Martin, K. Morokuma, O. Farkas, 
 J. B. Foresman, and D. J. Fox, Gaussian, Inc., Wallingford CT, 2019.
 
 ******************************************
 Gaussian 16:  ES64L-G16RevC.02  7-Dec-2021
                21-Aug-2024 
 ******************************************
 %mem=16GB
 %CPU=0-71
 SetSPE:  set environment variable "OMP_PROC_BIND" = "true"
 SetSPE:  set environment variable "OMP_PLACES" = "{0},{1},{2},{3},{4},{5},{6},{7},{8},{9},{10},{11},{12},{13},{14},{15},{16},{17},{18},{19},{20},{21},{22},{23},{24},{25},{26},{27},{28},{29},{30},{31},{32},{33},{34},{35},{36},{37},{38},{39},{40},{41},{42},{43},{44},{45},{46},{47},{48},{49},{50},{51},{52},{53},{54},{55},{56},{57},{58},{59},{60},{61},{62},{63},{64},{65},{66},{67},{68},{69},{70},{71}"
 Will use up to   72 processors via shared memory.
 %gpucpu=0,1,2,3=0,1,2,3
 Will use    4 GPUs:
 Thread  CPU   GPU
      0    0     0
      1    1     1
      2    2     2
      3    3     3
      4    4    -1
      5    5    -1
      6    6    -1
      7    7    -1
      8    8    -1
      9    9    -1
     10   10    -1
     11   11    -1
     12   12    -1
     13   13    -1
     14   14    -1
     15   15    -1
     16   16    -1
     17   17    -1
     18   18    -1
     19   19    -1
     20   20    -1
     21   21    -1
     22   22    -1
     23   23    -1
     24   24    -1
     25   25    -1
     26   26    -1
     27   27    -1
     28   28    -1
     29   29    -1
     30   30    -1
     31   31    -1
     32   32    -1
     33   33    -1
     34   34    -1
     35   35    -1
     36   36    -1
     37   37    -1
     38   38    -1
     39   39    -1
     40   40    -1
     41   41    -1
     42   42    -1
     43   43    -1
     44   44    -1
     45   45    -1
     46   46    -1
     47   47    -1
     48   48    -1
     49   49    -1
     50   50    -1
     51   51    -1
     52   52    -1
     53   53    -1
     54   54    -1
     55   55    -1
     56   56    -1
     57   57    -1
     58   58    -1
     59   59    -1
     60   60    -1
     61   61    -1
     62   62    -1
     63   63    -1
     64   64    -1
     65   65    -1
     66   66    -1
     67   67    -1
     68   68    -1
     69   69    -1
     70   70    -1
     71   71    -1
 SetGPE:  set environment variable "OMP_PROC_BIND" = "true"
 SetGPE:  set environment variable "OMP_PLACES" = "{0},{1},{2},{3},{4},{5},{6},{7},{8},{9},{10},{11},{12},{13},{14},{15},{16},{17},{18},{19},{20},{21},{22},{23},{24},{25},{26},{27},{28},{29},{30},{31},{32},{33},{34},{35},{36},{37},{38},{39},{40},{41},{42},{43},{44},{45},{46},{47},{48},{49},{50},{51},{52},{53},{54},{55},{56},{57},{58},{59},{60},{61},{62},{63},{64},{65},{66},{67},{68},{69},{70},{71}"
 %oldchk=2cpo_II_O.chk
 %chk=2cpo_II_Sn.chk
 Properties for Device   0
 Minimum vector length:                              32
 Maximum vector length:                            1024
 Number of SMPs:                                    108
 Maximum number of threads per SMP:                2048
 Number of ASync Engines:                             5
 Memory:                                           9207742464
 Properties for Device   1
 Minimum vector length:                              32
 Maximum vector length:                            1024
 Number of SMPs:                                    108
 Maximum number of threads per SMP:                2048
 Number of ASync Engines:                             5
 Memory:                                           9207742464
 Properties for Device   2
 Minimum vector length:                              32
 Maximum vector length:                            1024
 Number of SMPs:                                    108
 Maximum number of threads per SMP:                2048
 Number of ASync Engines:                             5
 Memory:                                           9207742464
 Properties for Device   3
[...]
  1138. RY*(  15) C  56                  0.00000     2.38861   
  1139. RY*(  16) C  56                  0.00001     2.11201   
  1140. RY*(  17) C  56                  0.00000     2.91635   
  1141. RY*(  18) C  56                  0.00000     3.40248   
  1142. RY*(  19) C  56                  0.00000     2.93845   
  1143. RY*(  20) C  56                  0.00000     3.24154   
  1144. RY*(  21) C  56                  0.00000     3.82454   
  1145. RY*(  22) C  56                  0.00000     3.58757   
  1146. RY*(  23) C  56                  0.00000     3.32018   
  1147. RY*(  24) C  56                  0.00000     3.45598   
  1148. RY*(  25) C  56                  0.00000     3.71425   
  1149. RY*(  26) C  56                  0.00000     3.93745   
  1150. RY*(   1) H  57                  0.00090     0.91579   
  1151. RY*(   2) H  57                  0.00018     1.83484   
  1152. RY*(   3) H  57                  0.00006     2.09906   
  1153. RY*(   4) H  57                  0.00006     2.03643   
  1154. RY*(   5) H  57                  0.00001     2.97345   
  1155. RY*(   1) H  58                  0.00088     0.91882   
  1156. RY*(   2) H  58                  0.00018     1.84054   
  1157. RY*(   3) H  58                  0.00006     2.11448   
  1158. RY*(   4) H  58                  0.00005     2.01857   
  1159. RY*(   5) H  58                  0.00001     2.97122   
  1160. RY*(   1) H  59                  0.00073     0.86274   
  1161. RY*(   2) H  59                  0.00013     1.70492   
  1162. RY*(   3) H  59                  0.00011     2.15595   
  1163. RY*(   4) H  59                  0.00007     2.08285   
  1164. RY*(   5) H  59                  0.00001     2.99852   
  1165. RY*(   1) C  60                  0.00144     1.31693   
  1166. RY*(   2) C  60                  0.00141     1.23541   
  1167. RY*(   3) C  60                  0.00074     1.38206   
  1168. RY*(   4) C  60                  0.00015     1.09664   
  1169. RY*(   5) C  60                  0.00005     1.90004   
  1170. RY*(   6) C  60                  0.00005     1.48167   
  1171. RY*(   7) C  60                  0.00001     1.27854   
  1172. RY*(   8) C  60                  0.00002     2.14212   
  1173. RY*(   9) C  60                  0.00002     2.84575   
  1174. RY*(  10) C  60                  0.00002     2.62088   
  1175. RY*(  11) C  60                  0.00001     1.87899   
  1176. RY*(  12) C  60                  0.00000     2.79287   
  1177. RY*(  13) C  60                  0.00000     2.27389   
  1178. RY*(  14) C  60                  0.00000     2.28221   
  1179. RY*(  15) C  60                  0.00000     2.45813   
  1180. RY*(  16) C  60                  0.00000    21.06824   
  1181. RY*(  17) C  60                  0.00000     2.87848   
  1182. RY*(  18) C  60                  0.00000     3.66936   
  1183. RY*(  19) C  60                  0.00000     3.07312   
  1184. RY*(  20) C  60                  0.00000     3.25468   
  1185. RY*(  21) C  60                  0.00000     3.60763   
  1186. RY*(  22) C  60                  0.00000     3.78816   
  1187. RY*(  23) C  60                  0.00000     3.29241   
  1188. RY*(  24) C  60                  0.00000     3.45954   
  1189. RY*(  25) C  60                  0.00000     3.86589   
  1190. RY*(  26) C  60                  0.00000     3.73967   
  1191. RY*(   1) H  61                  0.00073     0.86316   
  1192. RY*(   2) H  61                  0.00013     1.69717   
  1193. RY*(   3) H  61                  0.00011     2.16190   
  1194. RY*(   4) H  61                  0.00007     2.08446   
  1195. RY*(   5) H  61                  0.00001     2.99767   
  1196. RY*(   1) H  62                  0.00095     0.89689   
  1197. RY*(   2) H  62                  0.00018     1.82788   
  1198. RY*(   3) H  62                  0.00006     2.06288   
  1199. RY*(   4) H  62                  0.00006     2.08738   
  1200. RY*(   5) H  62                  0.00001     2.96855   
  1201. RY*(   1) H  63                  0.00087     0.89874   
  1202. RY*(   2) H  63                  0.00019     1.85165   
  1203. RY*(   3) H  63                  0.00006     2.05436   
  1204. RY*(   4) H  63                  0.00006     2.08286   
  1205. RY*(   5) H  63                  0.00001     2.97197   
  1317. BD*(   1) N   2 - C   6          0.02670     0.50347   
  1318. BD*(   2) N   2 - C   6          0.63874     0.00324  1363(v),1331(v),1336(v)
                                                    288(g),182(g),702(v),145(r)
                                                    290(g),1316(r),142(r)
  1319. BD*(   1) N   2 - C   9          0.02713     0.49943   
  1320. BD*(   1) N   3 - C  10          0.02678     0.49895   
  1321. BD*(   1) N   3 - C  13          0.02575     0.50839   
  1322. BD*(   2) N   3 - C  13          0.60928     0.01106  1347(v),1340(v),151(v)
                                                    470(g),208(g),145(r),764(v)
                                                    472(g),1316(r),142(r)
  1323. BD*(   1) N   4 - C  14          0.02671     0.51055   
  1324. BD*(   1) N   4 - C  17          0.02577     0.51487   
  1325. BD*(   1) N   5 - C  18          0.02603     0.52156   
  1326. BD*(   2) N   5 - C  18          0.60933     0.01752  1354(v),1363(v),1358(v)
                                                    600(g),260(g),145(r),795(v)
                                                    602(g),1316(r),142(r)
  1327. BD*(   1) N   5 - C  21          0.02637     0.51466   
  1328. BD*(   1) C   6 - C   7          0.03496     0.48991   
  1329. BD*(   1) C   6 - C  22          0.02142     0.57527   
  1330. BD*(   1) C   7 - C   8          0.02280     0.60051   
  1331. BD*(   2) C   7 - C   8          0.25600     0.06479  1336(v),1318(v),1369(v)
                                                    1371(v),1372(v),1370(v)
  1332. BD*(   1) C   7 - C  34          0.01723     0.41255   
  1333. BD*(   1) C   8 - C   9          0.03535     0.48909   
  1334. BD*(   1) C   8 - C  30          0.01724     0.41168   
  1335. BD*(   1) C   9 - C  24          0.02130     0.57545   
  1336. BD*(   2) C   9 - C  24          0.41952     0.04375  1331(v),1318(v),151(v)
                                                    733(g),366(g),1363(r),368(g)
  1337. BD*(   1) C  10 - C  11          0.03481     0.49835   
  1338. BD*(   1) C  10 - C  24          0.02163     0.57060   
  1339. BD*(   1) C  11 - C  12          0.02458     0.59113   
  1340. BD*(   2) C  11 - C  12          0.28665     0.06527  1379(v),1322(v),151(v)
                                                    1374(v),1349(r),1375(v)
                                                    1377(v)
  1341. BD*(   1) C  11 - C  38          0.01659     0.41636   
  1342. BD*(   1) C  12 - C  13          0.03471     0.48708   
  1343. BD*(   1) C  12 - C  42          0.02668     0.49666   
  1344. BD*(   1) C  13 - C  26          0.02105     0.58158   
  1345. BD*(   1) C  14 - C  15          0.03436     0.49683   
  1346. BD*(   1) C  14 - C  26          0.02150     0.57799   
  1347. BD*(   2) C  14 - C  26          0.42136     0.04674  1322(v),1349(v),149(v)
                                                    1354(r),764(g),498(g)
                                                    1379(r),496(g)
  1348. BD*(   1) C  15 - C  16          0.02496     0.59307   
  1349. BD*(   2) C  15 - C  16          0.28400     0.06534  1387(v),1354(v),1347(v)
                                                    1383(v),1340(r),1382(v)
  1350. BD*(   1) C  15 - C  47          0.01646     0.41731   
  1351. BD*(   1) C  16 - C  17          0.03474     0.48700   
  1352. BD*(   1) C  16 - C  51          0.02679     0.49701   
  1353. BD*(   1) C  17 - C  28          0.02085     0.57948   
  1354. BD*(   2) C  17 - C  28          0.41149     0.05020  1326(v),1349(v),149(v)
                                                    1363(r),1347(r),795(g)
                                                    1387(r),574(g)
  1355. BD*(   1) C  18 - C  19          0.03503     0.49304   
  1356. BD*(   1) C  18 - C  28          0.02123     0.58379   
  1357. BD*(   1) C  19 - C  20          0.02245     0.61250   
  1358. BD*(   2) C  19 - C  20          0.24143     0.07287  1363(v),1326(v),1394(v)
                                                    1390(v),1391(v),1395(v)
  1359. BD*(   1) C  19 - C  56          0.01714     0.41822   
  1360. BD*(   1) C  20 - C  21          0.03511     0.49067   
  1361. BD*(   1) C  20 - C  60          0.01725     0.41686   
  1362. BD*(   1) C  21 - C  22          0.02082     0.58057   
  1363. BD*(   2) C  21 - C  22          0.40965     0.04951  1318(v),1358(v),1326(v)
                                                    1354(r),702(g),680(g)
                                                    1336(r)
  1364. BD*(   1) C  22 - H  23          0.01254     0.43388   
  1365. BD*(   1) C  24 - H  25          0.01320     0.43462   
  1366. BD*(   1) C  26 - H  27          0.01349     0.43498   
  1367. BD*(   1) C  28 - H  29          0.01275     0.43585   
  1368. BD*(   1) C  30 - H  31          0.00662     0.38728   
  1369. BD*(   1) C  30 - H  32          0.01195     0.37560   
  1370. BD*(   1) C  30 - H  33          0.00954     0.37778   
  1371. BD*(   1) C  34 - H  35          0.01119     0.37731   
  1372. BD*(   1) C  34 - H  36          0.01034     0.37716   
  1373. BD*(   1) C  34 - H  37          0.00660     0.38771   
  1374. BD*(   1) C  38 - H  39          0.01243     0.37677   
  1375. BD*(   1) C  38 - H  40          0.01036     0.38438   
  1376. BD*(   1) C  38 - H  41          0.00838     0.39382   
  1377. BD*(   1) C  42 - H  43          0.02151     0.42304   
  1378. BD*(   1) C  42 - C  44          0.00787     0.62924   
  1379. BD*(   2) C  42 - C  44          0.07704     0.06119   
  1380. BD*(   1) C  44 - H  45          0.01099     0.43456   
  1381. BD*(   1) C  44 - H  46          0.00859     0.43564   
  1382. BD*(   1) C  47 - H  48          0.01013     0.38722   
  1383. BD*(   1) C  47 - H  49          0.01231     0.37815   
  1384. BD*(   1) C  47 - H  50          0.00824     0.39427   
  1385. BD*(   1) C  51 - H  52          0.02113     0.42383   
  1386. BD*(   1) C  51 - C  53          0.00792     0.63265   
  1387. BD*(   2) C  51 - C  53          0.07453     0.05933   
  1388. BD*(   1) C  53 - H  54          0.01104     0.43517   
  1389. BD*(   1) C  53 - H  55          0.00868     0.43559   
  1390. BD*(   1) C  56 - H  57          0.01082     0.38233   
  1391. BD*(   1) C  56 - H  58          0.01075     0.38273   
  1392. BD*(   1) C  56 - H  59          0.00670     0.39273   
  1393. BD*(   1) C  60 - H  61          0.00674     0.39236   
  1394. BD*(   1) C  60 - H  62          0.01143     0.37991   
  1395. BD*(   1) C  60 - H  63          0.01046     0.38175   
       -------------------------------
              Total Lewis  230.21344  ( 97.2625%)
        Valence non-Lewis    5.97402  (  2.5240%)
        Rydberg non-Lewis    0.50537  (  0.2135%)
       -------------------------------
            Total unit  2  236.69283  (100.0000%)
           Charge unit  2   -0.69283
 
 Molecular unit  3  (H2O)
    81. BD (   1) O  64 - H  65          1.98947    -0.81496  145(r),156(r),1238(v)
                                                    1239(v),144(r),159(r)
                                                    1316(r),186(r),160(r),237(r)
                                                    162(r),142(r),1287(r),191(r)
                                                    234(r),164(r),238(r),236(r)
    82. BD (   1) O  64 - H  66          1.99576    -0.87530  145(r),156(r),1234(v)
                                                    1316(r),159(r),186(r),158(r)
                                                    161(r),185(r),142(r),157(r)
                                                    191(r),144(r)
   131. CR (   1) O  64                  1.99980   -18.96920  145(r),1238(v),1239(v)
                                                    142(r),1316(r)
   152. LP (   1) O  64                  1.99221    -0.33627  143(r),1237(v),1233(v)
                                                    163(r),1326(r),1322(r)
                                                    268(r),1288(r),212(r),218(r)
                                                    145(r),264(r)
   153. LP (   2) O  64                  1.84284    -0.50028  145(r),1238(v),1396(g)
                                                    1234(v),1397(g),1316(r)
                                                    162(r),160(r),164(r),144(r)
                                                    159(r),185(r),211(r),208(r)
                                                    263(r),260(r),1290(r),262(r)
                                                    184(r),210(r),156(r),142(r)
                                                    234(r),182(r),149(r),237(r)
  1206. RY*(   1) O  64                  0.00248     0.63804   
  1207. RY*(   2) O  64                  0.00205     1.05396   
  1208. RY*(   3) O  64                  0.00036     1.55298   
  1209. RY*(   4) O  64                  0.00029     0.82519   
  1210. RY*(   5) O  64                  0.00008     3.13799   
  1211. RY*(   6) O  64                  0.00003     3.83091   
  1212. RY*(   7) O  64                  0.00004     2.21029   
  1213. RY*(   8) O  64                  0.00000     3.05730   
  1214. RY*(   9) O  64                  0.00001     3.67975   
  1215. RY*(  10) O  64                  0.00001     3.03502   
  1216. RY*(  11) O  64                  0.00000     6.49902   
  1217. RY*(  12) O  64                  0.00000    41.82926   
  1218. RY*(  13) O  64                  0.00000     6.47103   
  1219. RY*(  14) O  64                  0.00000     3.07322   
  1220. RY*(  15) O  64                  0.00000     6.45948   
  1221. RY*(  16) O  64                  0.00001     2.03396   
  1222. RY*(  17) O  64                  0.00000     6.16763   
  1223. RY*(  18) O  64                  0.00001     2.61454   
  1224. RY*(  19) O  64                  0.00000     6.59070   
  1225. RY*(  20) O  64                  0.00000     5.35084   
  1226. RY*(  21) O  64                  0.00000     5.49383   
  1227. RY*(  22) O  64                  0.00000     5.53891   
  1228. RY*(  23) O  64                  0.00000     5.24823   
  1229. RY*(  24) O  64                  0.00000     5.60794   
  1230. RY*(  25) O  64                  0.00000     5.47534   
  1231. RY*(  26) O  64                  0.00000     5.47176   
  1232. RY*(   1) H  65                  0.00115     0.90849   
  1233. RY*(   2) H  65                  0.00080     2.10902   
  1234. RY*(   3) H  65                  0.00074     2.34697   
  1235. RY*(   4) H  65                  0.00024     2.05427   
  1236. RY*(   5) H  65                  0.00002     2.88689   
  1237. RY*(   1) H  66                  0.00099     2.01140   
  1238. RY*(   2) H  66                  0.00082     1.86880   
  1239. RY*(   3) H  66                  0.00045     1.92008   
  1240. RY*(   4) H  66                  0.00026     1.56354   
  1241. RY*(   5) H  66                  0.00001     3.00946   
  1396. BD*(   1) O  64 - H  65          0.00548     0.42840   
  1397. BD*(   1) O  64 - H  66          0.00249     0.60641   
       -------------------------------
              Total Lewis    9.82007  ( 99.8087%)
        Valence non-Lewis    0.00797  (  0.0810%)
        Rydberg non-Lewis    0.01085  (  0.1103%)
       -------------------------------
            Total unit  3    9.83889  (100.0000%)
           Charge unit  3    0.16111
 Unable to Open any file for archive entry.
 1\1\GINC-BGN1033\SP\RAPFD\def2TZVP\C31H34Fe1N4O1S1\BECSLEIP\21-Aug-202
 4\0\\# apfd/def2TZVP int=(grid=ultrafine) geom=check guess=read pop=nb
 o scf=qc\\2cpo_II_S_nbo\\0,1\Fe,0,9.0402613961,18.9726780177,-2.873723
 2524\N,0,10.6224482798,19.051718402,-4.1044407499\N,0,8.8428516459,17.
 0015731926,-3.2823841309\N,0,7.3195999651,18.8873449962,-1.8238553904\
 N,0,9.0680708167,20.9502434533,-2.6480858873\C,0,11.2497283903,20.1807
 323438,-4.5290828854\C,0,12.1977218729,19.8755546383,-5.5757113566\C,0
 ,12.2327862155,18.5171584044,-5.6697819143\C,0,11.1856285073,18.026179
 9845,-4.8023107627\C,0,9.6483141284,16.2487667048,-4.0868540381\C,0,9.
 217387973,14.8747172071,-4.1035194179\C,0,8.0489693181,14.8333706489,-
 3.3909108889\C,0,7.8149097473,16.1871749508,-2.927047244\C,0,6.4675744
 554,17.8330927028,-1.7081822256\C,0,5.2730376104,18.2029481614,-0.9916
 244933\C,0,5.4553346867,19.5022615875,-0.6013200522\C,0,6.7011653237,1
 9.9282123356,-1.2092424562\C,0,8.181845179,21.7215018896,-1.9721822267
 \C,0,8.4762870841,23.1268064903,-2.1527579816\C,0,9.5801382487,23.1839
 599657,-2.9423354895\C,0,9.9272587505,21.812513494,-3.2535666968\C,0,1
 0.9431712347,21.4676380487,-4.1227088369\H,0,11.524198421,22.270237340
 7,-4.5497765771\C,0,10.7452049284,16.7172310033,-4.7906182393\H,0,11.2
 892538494,16.0075850052,-5.3941954447\C,0,6.6999297227,16.5649949752,-
 2.207394241\H,0,5.9416076472,15.8170910866,-2.0379179225\C,0,7.0942146
 725,21.2509337238,-1.2648459826\H,0,6.4705646672,21.9764693505,-0.7659
 893013\C,0,13.0558020193,17.6545613656,-6.5636910059\H,0,13.8381837452
 ,18.2354535863,-7.0457443599\H,0,12.4393945197,17.1993596497,-7.340311
 7521\H,0,13.5251238917,16.8541117104,-5.9925085682\C,0,13.0209619649,2
 0.8908505372,-6.2903443772\H,0,13.6630925543,21.4287064801,-5.59234864
 47\H,0,12.3799445476,21.6184701406,-6.7881957958\H,0,13.6489973646,20.
 4185963722,-7.0416574154\C,0,9.8774994694,13.7754666866,-4.8596409768\
 H,0,10.7399868495,13.3905770324,-4.3128259419\H,0,10.2248195118,14.126
 8083742,-5.8302409667\H,0,9.1770481381,12.9580043902,-5.0166298857\C,0
 ,7.1802871285,13.7070921122,-3.128770796\H,0,6.119699059,13.9280993548
 ,-3.099728686\C,0,7.5844051815,12.4586810964,-2.9197111652\H,0,8.62648
 77282,12.1913721449,-2.8892948109\H,0,6.8819906486,11.6613126967,-2.74
 28695535\C,0,4.1672887311,17.2746685917,-0.6283616475\H,0,4.5526372135
 ,16.2837968037,-0.3928133221\H,0,3.4586772298,17.174546001,-1.45214397
 99\H,0,3.6330473769,17.6545505934,0.2399798319\C,0,4.6027250133,20.354
 7577156,0.1981929574\H,0,5.1237494295,21.0694387306,0.824994131\C,0,3.
 2745981688,20.32172029,0.2203274963\H,0,2.7066522503,19.6650382202,-0.
 415411696\H,0,2.7057851185,20.9753978488,0.860555211\C,0,7.6842575338,
 24.2338399567,-1.5481599974\H,0,7.6864797735,24.1549546128,-0.46095574
 4\H,0,6.6492104141,24.1938342901,-1.887889885\H,0,8.0980867385,25.2008
 208821,-1.8230933834\C,0,10.3194536121,24.3745850391,-3.4480311234\H,0
 ,9.9015856243,25.290416525,-3.0377262874\H,0,10.2631029053,24.42988123
 29,-4.5357428828\H,0,11.370622721,24.3198601255,-3.1656044318\O,0,7.91
 9,19.3489999998,-4.7990000001\H,0,8.682,19.3729999997,-5.376\H,0,7.067
 9999993,19.3960000001,-5.0509999997\C,0,11.7386477825,17.5715898523,-1
 .4345972393\H,0,12.1899835414,17.1337795146,-0.5496814371\H,0,12.43711
 74472,18.2471656925,-1.916719086\H,0,11.4216395112,16.8089220227,-2.13
 72674471\S,0,10.2980809083,18.5817957987,-0.9374110561\H,0,9.594124122
 9,17.5526299003,-0.4509937842\\Version=ES64L-G16RevC.02\State=1-A\HF=-
 3157.1870137\RMSD=1.789e-09\Dipole=0.4443073,0.0142391,-0.6949053\Quad
 rupole=2.9469903,0.3122276,-3.2592179,-1.6075619,-2.5343698,-1.7034068
 \PG=C01 [X(C31H34Fe1N4O1S1)]\\@
 The archive entry for this job was punched.


 THE FIRST AND LAST THING REQUIRED OF GENIUS IS THE LOVE OF TRUTH.

                          -- GOETHE
 Job cpu time:       0 days  0 hours 39 minutes  3.5 seconds.
 Elapsed time:       0 days  0 hours  0 minutes 49.5 seconds.
 File lengths (MBytes):  RWF=    664 Int=      0 D2E=      0 Chk=    156 Scr=      1
 Normal termination of Gaussian 16 at Wed Aug 21 02:34:52 2024.
