 Entering Gaussian System, Link 0=g16
 Input=2d0e05re.com
 Output=2d0e05re.log
 Initial command:
 /sw/chem/gaussian/g16_C02/a100/g16/l1.exe "/local/becsleip_7988402/Gau-3882862.inp" -scrdir="/local/becsleip_7988402/"
 Entering Link 1 = /sw/chem/gaussian/g16_C02/a100/g16/l1.exe PID=   3882863.
  
 Copyright (c) 1988-2021, Gaussian, Inc.  All Rights Reserved.
  
 This is part of the Gaussian(R) 16 program.  It is based on
 the Gaussian(R) 09 system (copyright 2009, Gaussian, Inc.),
 the Gaussian(R) 03 system (copyright 2003, Gaussian, Inc.),
 the Gaussian(R) 98 system (copyright 1998, Gaussian, Inc.),
 the Gaussian(R) 94 system (copyright 1995, Gaussian, Inc.),
 the Gaussian 92(TM) system (copyright 1992, Gaussian, Inc.),
 the Gaussian 90(TM) system (copyright 1990, Gaussian, Inc.),
 the Gaussian 88(TM) system (copyright 1988, Gaussian, Inc.),
 the Gaussian 86(TM) system (copyright 1986, Carnegie Mellon
 University), and the Gaussian 82(TM) system (copyright 1983,
 Carnegie Mellon University). Gaussian is a federally registered
 trademark of Gaussian, Inc.
  
 This software contains proprietary and confidential information,
 including trade secrets, belonging to Gaussian, Inc.
  
 This software is provided under written license and may be
 used, copied, transmitted, or stored only in accord with that
 written license.
  
 The following legend is applicable only to US Government
 contracts under FAR:
  
                    RESTRICTED RIGHTS LEGEND
  
 Use, reproduction and disclosure by the US Government is
 subject to restrictions as set forth in subparagraphs (a)
 and (c) of the Commercial Computer Software - Restricted
 Rights clause in FAR 52.227-19.
  
 Gaussian, Inc.
 340 Quinnipiac St., Bldg. 40, Wallingford CT 06492
  
  
 ---------------------------------------------------------------
 Warning -- This program may not be used in any manner that
 competes with the business of Gaussian, Inc. or will provide
 assistance to any competitor of Gaussian, Inc.  The licensee
 of this program is prohibited from giving any competitor of
 Gaussian, Inc. access to this program.  By using this program,
 the user acknowledges that Gaussian, Inc. is engaged in the
 business of creating and licensing software in the field of
 computational chemistry and represents and warrants to the
 licensee that it is not a competitor of Gaussian, Inc. and that
 it will not use this program in any manner prohibited above.
 ---------------------------------------------------------------
  

 Cite this work as:
 Gaussian 16, Revision C.02,
 M. J. Frisch, G. W. Trucks, H. B. Schlegel, G. E. Scuseria, 
 M. A. Robb, J. R. Cheeseman, G. Scalmani, V. Barone, 
 G. A. Petersson, H. Nakatsuji, X. Li, M. Caricato, A. V. Marenich, 
 J. Bloino, B. G. Janesko, R. Gomperts, B. Mennucci, H. P. Hratchian, 
 J. V. Ortiz, A. F. Izmaylov, J. L. Sonnenberg, D. Williams-Young, 
 F. Ding, F. Lipparini, F. Egidi, J. Goings, B. Peng, A. Petrone, 
 T. Henderson, D. Ranasinghe, V. G. Zakrzewski, J. Gao, N. Rega, 
 G. Zheng, W. Liang, M. Hada, M. Ehara, K. Toyota, R. Fukuda, 
 J. Hasegawa, M. Ishida, T. Nakajima, Y. Honda, O. Kitao, H. Nakai, 
 T. Vreven, K. Throssell, J. A. Montgomery, Jr., J. E. Peralta, 
 F. Ogliaro, M. J. Bearpark, J. J. Heyd, E. N. Brothers, K. N. Kudin, 
 V. N. Staroverov, T. A. Keith, R. Kobayashi, J. Normand, 
 K. Raghavachari, A. P. Rendell, J. C. Burant, S. S. Iyengar, 
 J. Tomasi, M. Cossi, J. M. Millam, M. Klene, C. Adamo, R. Cammi, 
 J. W. Ochterski, R. L. Martin, K. Morokuma, O. Farkas, 
 J. B. Foresman, and D. J. Fox, Gaussian, Inc., Wallingford CT, 2019.
 
 ******************************************
 Gaussian 16:  ES64L-G16RevC.02  7-Dec-2021
                22-Aug-2024 
 ******************************************
 %mem=16GB
 %CPU=0-71
 SetSPE:  set environment variable "OMP_PROC_BIND" = "true"
 SetSPE:  set environment variable "OMP_PLACES" = "{0},{1},{2},{3},{4},{5},{6},{7},{8},{9},{10},{11},{12},{13},{14},{15},{16},{17},{18},{19},{20},{21},{22},{23},{24},{25},{26},{27},{28},{29},{30},{31},{32},{33},{34},{35},{36},{37},{38},{39},{40},{41},{42},{43},{44},{45},{46},{47},{48},{49},{50},{51},{52},{53},{54},{55},{56},{57},{58},{59},{60},{61},{62},{63},{64},{65},{66},{67},{68},{69},{70},{71}"
 Will use up to   72 processors via shared memory.
 %gpucpu=0,1,2,3=0,1,2,3
 Will use    4 GPUs:
 Thread  CPU   GPU
      0    0     0
      1    1     1
      2    2     2
      3    3     3
      4    4    -1
      5    5    -1
      6    6    -1
      7    7    -1
      8    8    -1
      9    9    -1
     10   10    -1
     11   11    -1
     12   12    -1
     13   13    -1
     14   14    -1
     15   15    -1
     16   16    -1
     17   17    -1
     18   18    -1
     19   19    -1
     20   20    -1
     21   21    -1
     22   22    -1
     23   23    -1
     24   24    -1
     25   25    -1
     26   26    -1
     27   27    -1
     28   28    -1
     29   29    -1
     30   30    -1
     31   31    -1
     32   32    -1
     33   33    -1
     34   34    -1
     35   35    -1
     36   36    -1
     37   37    -1
     38   38    -1
     39   39    -1
     40   40    -1
     41   41    -1
     42   42    -1
     43   43    -1
     44   44    -1
     45   45    -1
     46   46    -1
     47   47    -1
     48   48    -1
     49   49    -1
     50   50    -1
     51   51    -1
     52   52    -1
     53   53    -1
     54   54    -1
     55   55    -1
     56   56    -1
     57   57    -1
     58   58    -1
     59   59    -1
     60   60    -1
     61   61    -1
     62   62    -1
     63   63    -1
     64   64    -1
     65   65    -1
     66   66    -1
     67   67    -1
     68   68    -1
     69   69    -1
     70   70    -1
     71   71    -1
 SetGPE:  set environment variable "OMP_PROC_BIND" = "true"
 SetGPE:  set environment variable "OMP_PLACES" = "{0},{1},{2},{3},{4},{5},{6},{7},{8},{9},{10},{11},{12},{13},{14},{15},{16},{17},{18},{19},{20},{21},{22},{23},{24},{25},{26},{27},{28},{29},{30},{31},{32},{33},{34},{35},{36},{37},{38},{39},{40},{41},{42},{43},{44},{45},{46},{47},{48},{49},{50},{51},{52},{53},{54},{55},{56},{57},{58},{59},{60},{61},{62},{63},{64},{65},{66},{67},{68},{69},{70},{71}"
 %oldchk=2d0e_II_S.chk
 %chk=2d0e_II_Sre.chk
 Properties for Device   0
 Minimum vector length:                              32
 Maximum vector length:                            1024
 Number of SMPs:                                    108
 Maximum number of threads per SMP:                2048
 Number of ASync Engines:                             5
 Memory:                                           9207742464
 Properties for Device   1
 Minimum vector length:                              32
 Maximum vector length:                            1024
 Number of SMPs:                                    108
 Maximum number of threads per SMP:                2048
 Number of ASync Engines:                             5
 Memory:                                           9207742464
 Properties for Device   2
 Minimum vector length:                              32
 Maximum vector length:                            1024
 Number of SMPs:                                    108
 Maximum number of threads per SMP:                2048
 Number of ASync Engines:                             5
 Memory:                                           9207742464
 Properties for Device   3
 Minimum vector length:                              32
 Maximum vector length:                            1024
 Number of SMPs:                                    108
 Maximum number of threads per SMP:                2048
 Number of ASync Engines:                             5
 Memory:                                           9207742464
   8286968217 words of memory will be used on each GPU.
 Copying data from "2d0e_II_S.chk" to current chk file "2d0e_II_Sre.chk"
 IOpt=  2 FromEx=T IUOpen= 4 IOptOp= 5 NList=   0 IFRang= 0 IUIn= 4 IUOut= 2.
 --------------------------------------
 # apfd/gen scf=maxcycle=999 geom=check
 --------------------------------------
 1/29=2,38=1,172=1/1;
 2/12=2,40=1/2;
 3/5=7,11=2,14=-4,25=1,30=1,74=-44/1,2,3;
 4//1;
 5/5=2,7=999,38=5/2;
 6/7=2,8=2,9=2,10=2,28=1/1;
 99/5=1,9=1/99;
 ---------
 2d0e_II_Q
 ---------
 Structure from the checkpoint file:  "2d0e_II_Sre.chk"
 Charge =  0 Multiplicity = 5
 Z-Matrix found in chk file.
 Fe,0,-26.722891648,-30.7849559799,110.7041418162
 N,0,-26.5685574588,-30.8038090578,112.6792348065
 N,0,-28.6589840089,-31.2329999369,110.8148490699
 N,0,-26.842083876,-30.8520190683,108.6927911871
 N,0,-24.7577531727,-30.4485768358,110.5461810018
 C,0,-25.4477712648,-30.6031663351,113.4247196911
 C,0,-25.7458454364,-30.696905143,114.8353630325
 C,0,-27.0771749607,-30.9585303905,114.9276216258
 C,0,-27.5729955148,-31.0273012054,113.5714774845
 C,0,-29.3802508685,-31.4084193769,111.9582989805
 C,0,-30.7510294594,-31.7360506988,111.6579778217
 C,0,-30.8517303706,-31.7500758363,110.2938410623
 C,0,-29.5302296197,-31.4303869676,109.791567525
 C,0,-27.9590935237,-31.0861833814,107.94653318
 C,0,-27.6625376867,-31.026622713,106.5389699697
 C,0,-26.3234043524,-30.7608200467,106.4394284337
 C,0,-25.8341767102,-30.6625436366,107.7991042387
 C,0,-24.0205291758,-30.3276033696,109.4074577261
 C,0,-22.6293705565,-30.0905416387,109.7167590458
 C,0,-22.5382737639,-30.0641968139,111.0733645817
 C,0,-23.8738173705,-30.2932108643,111.573863593
 C,0,-24.1875531658,-30.3512597092,112.9178448585
 H,0,-23.3841506131,-30.2109326427,113.6238833568
 C,0,-28.8841314811,-31.3038635436,113.2444725285
 H,0,-29.5754874969,-31.4572548184,114.0582407904
 C,0,-29.2184706079,-31.3456535658,108.451376843
 H,0,-30.0171676849,-31.4968495993,107.742571316
 C,0,-24.51472082,-30.415866592,108.122135056
 H,0,-23.8151667926,-30.285629843,107.3117524345
 C,0,-27.9193163797,-31.1577946641,116.1398001922
 H,0,-27.3326681998,-31.0200480391,117.0444894326
 H,0,-28.338317303,-32.1641235684,116.1527577521
 H,0,-28.7455460403,-30.447003554,116.153973542
 C,0,-24.7368447002,-30.5277342392,115.9179812127
 H,0,-24.2831488279,-29.5374102703,115.868872684
 H,0,-23.9435245203,-31.2687168155,115.8201897669
 H,0,-25.1962791417,-30.646079871,116.895906479
 C,0,-31.7924080321,-32.0664096897,112.6682959202
 H,0,-32.1990017626,-31.1591757435,113.1175139018
 H,0,-31.3748348554,-32.6802559111,113.4649277978
 H,0,-32.6069574101,-32.6129277077,112.1981846885
 C,0,-32.000639592,-32.043362166,109.4639011996
 H,0,-31.790159183,-32.5708554984,108.5410164232
 C,0,-33.2552800025,-31.7133172312,109.7494582188
 H,0,-33.5119286814,-31.1484785417,110.6286622025
 H,0,-34.0697045149,-31.9745713553,109.0945920885
 C,0,-28.6363975888,-31.2966897737,105.4471564964
 H,0,-29.2500966742,-30.4167588596,105.2483821982
 H,0,-29.2999976305,-32.1167898754,105.7168900362
 H,0,-28.1080929389,-31.5626737628,104.5340187486
 C,0,-25.5035500044,-30.6238963274,105.2550577746
 H,0,-24.4867752726,-30.9879357489,105.3434161492
 C,0,-25.9012245915,-30.0945533696,104.1032065466
 H,0,-26.8838433257,-29.6756733643,103.973950756
 H,0,-25.2423077751,-30.0380828465,103.2528283718
 C,0,-21.5603130838,-29.9200806772,108.6939927868
 H,0,-21.7804211483,-29.0717756538,108.0454205155
 H,0,-21.4826034135,-30.8111472636,108.071053601
 H,0,-20.5969032691,-29.7489966487,109.1674827006
 C,0,-21.3421809686,-29.8584643519,111.937009891
 H,0,-20.4546872076,-29.6899129971,111.3325602791
 H,0,-21.168800423,-30.7329773339,112.5642641458
 H,0,-21.4819093892,-28.9962024377,112.589557484
 C,0,-26.3837151026,-27.650344131,112.0107732641
 H,0,-25.3839831936,-28.0472258804,112.151477862
 H,0,-26.9892377152,-27.8582925933,112.8867601966
 H,0,-26.3628046148,-26.5829317911,111.8150384181
 S,0,-27.1914370635,-28.499128161,110.6054142639
 H,0,-26.2718089974,-28.1299716741,109.703940954
 Recover connectivity data from disk.
 Stoichiometry    C31H32FeN4S(5)
 Framework group  C1[X(C31H32FeN4S)]
 Deg. of freedom   201
 Full point group                 C1      NOp   1
 Largest Abelian subgroup         C1      NOp   1
 Largest concise Abelian subgroup C1      NOp   1
                         Standard orientation:                         
 ---------------------------------------------------------------------
 Center     Atomic      Atomic             Coordinates (Angstroms)
 Number     Number       Type             X           Y           Z
 ---------------------------------------------------------------------
      1         26           0       -0.166905    0.002066   -0.179434
      2          7           0       -1.919689    0.924222   -0.229868
      3          7           0        0.792384    1.745537   -0.218541
      4          7           0        1.607796   -0.953445   -0.220314
      5          7           0       -1.088974   -1.771028   -0.255577
      6          6           0       -3.155073    0.354332   -0.264757
      7          6           0       -4.186393    1.365770   -0.295115
      8          6           0       -3.545513    2.565072   -0.276540
      9          6           0       -2.130877    2.269661   -0.241464
     10          6           0        0.216057    2.980767   -0.241521
     11          6           0        1.217509    4.016252   -0.279366
     12          6           0        2.428006    3.379186   -0.272213
     13          6           0        2.133549    1.960555   -0.231913
     14          6           0        2.845545   -0.381237   -0.219005
     15          6           0        3.878779   -1.383807   -0.221778
     16          6           0        3.239570   -2.594175   -0.237873
     17          6           0        1.822131   -2.296580   -0.242719
     18          6           0       -0.518975   -3.007474   -0.289165
     19          6           0       -1.528706   -4.039273   -0.344146
     20          6           0       -2.729183   -3.400384   -0.337263
     21          6           0       -2.435856   -1.986896   -0.285942
     22          6           0       -3.406430   -1.004038   -0.278142
     23          1           0       -4.437157   -1.320945   -0.306586
     24          6           0       -1.143317    3.232585   -0.241637
     25          1           0       -1.458010    4.264395   -0.249205
     26          6           0        3.099015    0.976681   -0.213194
     27          1           0        4.130837    1.290118   -0.196355
     28          6           0        0.836895   -3.263289   -0.273504
     29          1           0        1.146998   -4.296058   -0.290284
     30          6           0       -4.114820    3.941197   -0.297927
     31          1           0       -5.201293    3.909886   -0.284208
     32          1           0       -3.798412    4.471680   -1.196204
     33          1           0       -3.776067    4.509983    0.567988
     34          6           0       -5.646234    1.072837   -0.337769
     35          1           0       -5.948231    0.497201    0.537694
     36          1           0       -5.893711    0.492313   -1.226432
     37          1           0       -6.224245    1.993098   -0.358891
     38          6           0        0.937047    5.473615   -0.387921
     39          1           0        0.667767    5.890465    0.583630
     40          1           0        0.112108    5.656730   -1.074756
     41          1           0        1.817931    5.995848   -0.754654
     42          6           0        3.759726    3.943843   -0.322170
     43          1           0        4.490832    3.372247   -0.881660
     44          6           0        4.132200    5.078521    0.259522
     45          1           0        3.457993    5.658741    0.865080
     46          1           0        5.138479    5.452842    0.171909
     47          6           0        5.339228   -1.107264   -0.285097
     48          1           0        5.729821   -0.857270    0.702505
     49          1           0        5.544389   -0.270282   -0.950721
     50          1           0        5.868623   -1.983128   -0.654251
     51          6           0        3.803675   -3.926167   -0.272892
     52          1           0        3.241223   -4.659337   -0.838818
     53          6           0        4.928749   -4.299305    0.327180
     54          1           0        5.502167   -3.625742    0.939726
     55          1           0        5.301912   -5.306658    0.246604
     56          6           0       -1.234552   -5.498242   -0.397759
     57          1           0       -0.663224   -5.807716    0.477756
     58          1           0       -0.649156   -5.737114   -1.285646
     59          1           0       -2.154440   -6.076556   -0.429090
     60          6           0       -4.104377   -3.971017   -0.382712
     61          1           0       -4.070563   -5.057269   -0.400779
     62          1           0       -4.630526   -3.629488   -1.274232
     63          1           0       -4.679563   -3.659955    0.489778
     64          6           0       -1.793680   -0.134850    2.817727
     65          1           0       -2.388088   -0.820390    2.223176
     66          1           0       -2.199682    0.868259    2.739067
     67          1           0       -1.755313   -0.442586    3.857893
     68         16           0       -0.090220   -0.061168    2.153892
     69          1           0        0.156848   -1.366599    2.325513
 ---------------------------------------------------------------------
 Rotational constants (GHZ):           0.1108628           0.1101364           0.0595016
 General basis read from cards:  (5D, 7F)
 There are   644 symmetry adapted cartesian basis functions of A   symmetry.
 There are   605 symmetry adapted basis functions of A   symmetry.
   605 basis functions,  1246 primitive gaussians,   644 cartesian basis functions
   146 alpha electrons      142 beta electrons
       nuclear repulsion energy      5040.5369373841 Hartrees.
 NAtoms=   69 NActive=   69 NUniq=   69 SFac= 1.00D+00 NAtFMM=   60 NAOKFM=T Big=T
 Integral buffers will be    131072 words long.
 Raffenetti 2 integral format.
 Two-electron integral symmetry is turned on.
 R6APFD:  NTU= -4 IXU= 1 FactS= 1.050
 Nuclear repulsion after empirical dispersion term =     5040.4041379683 Hartrees.
 One-electron integrals computed using PRISM.
 NBasis=   605 RedAO= T EigKep=  2.49D-04  NBF=   605
 NBsUse=   605 1.00D-06 EigRej= -1.00D+00 NBFU=   605
 ExpMin= 4.20D-02 ExpMax= 3.01D+05 ExpMxC= 3.30D+03 IAcc=3 IRadAn=         5 AccDes= 0.00D+00
 Harris functional with IExCor= 3731 and IRadAn=       5 diagonalized for initial guess.
 HarFok:  IExCor= 3731 AccDes= 0.00D+00 IRadAn=         5 IDoV= 1 UseB2=F ITyADJ=14
 ICtDFT=  3500011 ScaDFX=  1.000000  1.000000  1.000000  1.000000
 FoFCou: FMM=F IPFlag=           0 FMFlag=      100000 FMFlg1=        2001
         NFxFlg=           0 DoJE=T BraDBF=F KetDBF=T FulRan=T
         wScrn=  0.000000 ICntrl=       500 IOpCl=  0 I1Cent=   200000004 NGrid=           0
         NMat0=    1 NMatS0=      1 NMatT0=    0 NMatD0=    1 NMtDS0=    0 NMtDT0=    0
 Petite list used in FoFCou.
 Initial guess <Sx>= 0.0000 <Sy>= 0.0000 <Sz>= 2.0000 <S**2>= 6.0000 S= 2.0000
 Requested convergence on RMS density matrix=1.00D-08 within 999 cycles.
 Requested convergence on MAX density matrix=1.00D-06.
 Requested convergence on             energy=1.00D-06.
 No special actions if energy rises.
 EnCoef did   100 forward-backward iterations
 EnCoef did   100 forward-backward iterations
 EnCoef did   100 forward-backward iterations
 EnCoef did     4 forward-backward iterations
 EnCoef did     5 forward-backward iterations
 EnCoef did     2 forward-backward iterations
 EnCoef did     3 forward-backward iterations
 EnCoef did   100 forward-backward iterations
 Restarting incremental Fock formation.
 Restarting incremental Fock formation.
 Restarting incremental Fock formation.
 SCF Done:  E(UAPFD) =  -3080.24157625     A.U. after   62 cycles
            NFock= 62  Conv=0.26D-08     -V/T= 2.0030
 <Sx>= 0.0000 <Sy>= 0.0000 <Sz>= 2.0000 <S**2>= 6.0608 S= 2.0121
 <L.S>=  0.00000000000    
 Annihilation of the first spin contaminant:
 S**2 before annihilation     6.0608,   after     6.0003

 **********************************************************************

            Population analysis using the SCF Density.

 **********************************************************************

 Orbital symmetries:
 Alpha Orbitals:
       Occupied  (A) (A) (A) (A) (A) (A) (A) (A) (A) (A) (A) (A)
                 (A) (A) (A) (A) (A) (A) (A) (A) (A) (A) (A) (A)
                 (A) (A) (A) (A) (A) (A) (A) (A) (A) (A) (A) (A)
                 (A) (A) (A) (A) (A) (A) (A) (A) (A) (A) (A) (A)
                 (A) (A) (A) (A) (A) (A) (A) (A) (A) (A) (A) (A)
                 (A) (A) (A) (A) (A) (A) (A) (A) (A) (A) (A) (A)
                 (A) (A) (A) (A) (A) (A) (A) (A) (A) (A) (A) (A)
                 (A) (A) (A) (A) (A) (A) (A) (A) (A) (A) (A) (A)
                 (A) (A) (A) (A) (A) (A) (A) (A) (A) (A) (A) (A)
                 (A) (A) (A) (A) (A) (A) (A) (A) (A) (A) (A) (A)
                 (A) (A) (A) (A) (A) (A) (A) (A) (A) (A) (A) (A)
                 (A) (A) (A) (A) (A) (A) (A) (A) (A) (A) (A) (A)
                 (A) (A)
       Virtual   (A) (A) (A) (A) (A) (A) (A) (A) (A) (A) (A) (A)
                 (A) (A) (A) (A) (A) (A) (A) (A) (A) (A) (A) (A)
                 (A) (A) (A) (A) (A) (A) (A) (A) (A) (A) (A) (A)
                 (A) (A) (A) (A) (A) (A) (A) (A) (A) (A) (A) (A)
                 (A) (A) (A) (A) (A) (A) (A) (A) (A) (A) (A) (A)
                 (A) (A) (A) (A) (A) (A) (A) (A) (A) (A) (A) (A)
                 (A) (A) (A) (A) (A) (A) (A) (A) (A) (A) (A) (A)
                 (A) (A) (A) (A) (A) (A) (A) (A) (A) (A) (A) (A)
                 (A) (A) (A) (A) (A) (A) (A) (A) (A) (A) (A) (A)
                 (A) (A) (A) (A) (A) (A) (A) (A) (A) (A) (A) (A)
                 (A) (A) (A) (A) (A) (A) (A) (A) (A) (A) (A) (A)
                 (A) (A) (A) (A) (A) (A) (A) (A) (A) (A) (A) (A)
                 (A) (A) (A) (A) (A) (A) (A) (A) (A) (A) (A) (A)
                 (A) (A) (A) (A) (A) (A) (A) (A) (A) (A) (A) (A)
                 (A) (A) (A) (A) (A) (A) (A) (A) (A) (A) (A) (A)
                 (A) (A) (A) (A) (A) (A) (A) (A) (A) (A) (A) (A)
                 (A) (A) (A) (A) (A) (A) (A) (A) (A) (A) (A) (A)
                 (A) (A) (A) (A) (A) (A) (A) (A) (A) (A) (A) (A)
                 (A) (A) (A) (A) (A) (A) (A) (A) (A) (A) (A) (A)
                 (A) (A) (A) (A) (A) (A) (A) (A) (A) (A) (A) (A)
                 (A) (A) (A) (A) (A) (A) (A) (A) (A) (A) (A) (A)
                 (A) (A) (A) (A) (A) (A) (A) (A) (A) (A) (A) (A)
                 (A) (A) (A) (A) (A) (A) (A) (A) (A) (A) (A) (A)
                 (A) (A) (A) (A) (A) (A) (A) (A) (A) (A) (A) (A)
                 (A) (A) (A) (A) (A) (A) (A) (A) (A) (A) (A) (A)
                 (A) (A) (A) (A) (A) (A) (A) (A) (A) (A) (A) (A)
                 (A) (A) (A) (A) (A) (A) (A) (A) (A) (A) (A) (A)
                 (A) (A) (A) (A) (A) (A) (A) (A) (A) (A) (A) (A)
                 (A) (A) (A) (A) (A) (A) (A) (A) (A) (A) (A) (A)
                 (A) (A) (A) (A) (A) (A) (A) (A) (A) (A) (A) (A)
                 (A) (A) (A) (A) (A) (A) (A) (A) (A) (A) (A) (A)
                 (A) (A) (A) (A) (A) (A) (A) (A) (A) (A) (A) (A)
                 (A) (A) (A) (A) (A) (A) (A) (A) (A) (A) (A) (A)
                 (A) (A) (A) (A) (A) (A) (A) (A) (A) (A) (A) (A)
                 (A) (A) (A) (A) (A) (A) (A) (A) (A) (A) (A) (A)
                 (A) (A) (A) (A) (A) (A) (A) (A) (A) (A) (A) (A)
                 (A) (A) (A) (A) (A) (A) (A) (A) (A) (A) (A) (A)
                 (A) (A) (A) (A) (A) (A) (A) (A) (A) (A) (A) (A)
                 (A) (A) (A)
 Beta  Orbitals:
       Occupied  (A) (A) (A) (A) (A) (A) (A) (A) (A) (A) (A) (A)
                 (A) (A) (A) (A) (A) (A) (A) (A) (A) (A) (A) (A)
                 (A) (A) (A) (A) (A) (A) (A) (A) (A) (A) (A) (A)
                 (A) (A) (A) (A) (A) (A) (A) (A) (A) (A) (A) (A)
                 (A) (A) (A) (A) (A) (A) (A) (A) (A) (A) (A) (A)
                 (A) (A) (A) (A) (A) (A) (A) (A) (A) (A) (A) (A)
                 (A) (A) (A) (A) (A) (A) (A) (A) (A) (A) (A) (A)
                 (A) (A) (A) (A) (A) (A) (A) (A) (A) (A) (A) (A)
                 (A) (A) (A) (A) (A) (A) (A) (A) (A) (A) (A) (A)
                 (A) (A) (A) (A) (A) (A) (A) (A) (A) (A) (A) (A)
                 (A) (A) (A) (A) (A) (A) (A) (A) (A) (A) (A) (A)
                 (A) (A) (A) (A) (A) (A) (A) (A) (A) (A)
       Virtual   (A) (A) (A) (A) (A) (A) (A) (A) (A) (A) (A) (A)
                 (A) (A) (A) (A) (A) (A) (A) (A) (A) (A) (A) (A)
                 (A) (A) (A) (A) (A) (A) (A) (A) (A) (A) (A) (A)
                 (A) (A) (A) (A) (A) (A) (A) (A) (A) (A) (A) (A)
                 (A) (A) (A) (A) (A) (A) (A) (A) (A) (A) (A) (A)
                 (A) (A) (A) (A) (A) (A) (A) (A) (A) (A) (A) (A)
                 (A) (A) (A) (A) (A) (A) (A) (A) (A) (A) (A) (A)
                 (A) (A) (A) (A) (A) (A) (A) (A) (A) (A) (A) (A)
                 (A) (A) (A) (A) (A) (A) (A) (A) (A) (A) (A) (A)
                 (A) (A) (A) (A) (A) (A) (A) (A) (A) (A) (A) (A)
                 (A) (A) (A) (A) (A) (A) (A) (A) (A) (A) (A) (A)
                 (A) (A) (A) (A) (A) (A) (A) (A) (A) (A) (A) (A)
                 (A) (A) (A) (A) (A) (A) (A) (A) (A) (A) (A) (A)
                 (A) (A) (A) (A) (A) (A) (A) (A) (A) (A) (A) (A)
                 (A) (A) (A) (A) (A) (A) (A) (A) (A) (A) (A) (A)
                 (A) (A) (A) (A) (A) (A) (A) (A) (A) (A) (A) (A)
                 (A) (A) (A) (A) (A) (A) (A) (A) (A) (A) (A) (A)
                 (A) (A) (A) (A) (A) (A) (A) (A) (A) (A) (A) (A)
                 (A) (A) (A) (A) (A) (A) (A) (A) (A) (A) (A) (A)
                 (A) (A) (A) (A) (A) (A) (A) (A) (A) (A) (A) (A)
                 (A) (A) (A) (A) (A) (A) (A) (A) (A) (A) (A) (A)
                 (A) (A) (A) (A) (A) (A) (A) (A) (A) (A) (A) (A)
                 (A) (A) (A) (A) (A) (A) (A) (A) (A) (A) (A) (A)
                 (A) (A) (A) (A) (A) (A) (A) (A) (A) (A) (A) (A)
                 (A) (A) (A) (A) (A) (A) (A) (A) (A) (A) (A) (A)
                 (A) (A) (A) (A) (A) (A) (A) (A) (A) (A) (A) (A)
                 (A) (A) (A) (A) (A) (A) (A) (A) (A) (A) (A) (A)
                 (A) (A) (A) (A) (A) (A) (A) (A) (A) (A) (A) (A)
                 (A) (A) (A) (A) (A) (A) (A) (A) (A) (A) (A) (A)
                 (A) (A) (A) (A) (A) (A) (A) (A) (A) (A) (A) (A)
                 (A) (A) (A) (A) (A) (A) (A) (A) (A) (A) (A) (A)
                 (A) (A) (A) (A) (A) (A) (A) (A) (A) (A) (A) (A)
                 (A) (A) (A) (A) (A) (A) (A) (A) (A) (A) (A) (A)
                 (A) (A) (A) (A) (A) (A) (A) (A) (A) (A) (A) (A)
                 (A) (A) (A) (A) (A) (A) (A) (A) (A) (A) (A) (A)
                 (A) (A) (A) (A) (A) (A) (A) (A) (A) (A) (A) (A)
                 (A) (A) (A) (A) (A) (A) (A) (A) (A) (A) (A) (A)
                 (A) (A) (A) (A) (A) (A) (A) (A) (A) (A) (A) (A)
                 (A) (A) (A) (A) (A) (A) (A)
 The electronic state is 5-A.
 Alpha  occ. eigenvalues -- -256.19343 -88.94989 -30.08491 -25.93194 -25.91149
 Alpha  occ. eigenvalues --  -25.90633 -14.34850 -14.34778 -14.34740 -14.34720
 Alpha  occ. eigenvalues --  -10.22464 -10.22419 -10.22393 -10.22376 -10.22362
 Alpha  occ. eigenvalues --  -10.22241 -10.22240 -10.22150 -10.22058 -10.20517
 Alpha  occ. eigenvalues --  -10.20428 -10.20129 -10.20067 -10.20022 -10.19974
 Alpha  occ. eigenvalues --  -10.19847 -10.19779 -10.19766 -10.19680 -10.19668
 Alpha  occ. eigenvalues --  -10.19632 -10.19630 -10.19571 -10.19553 -10.19545
 Alpha  occ. eigenvalues --  -10.19486 -10.19477 -10.19210 -10.19111 -10.19041
 Alpha  occ. eigenvalues --  -10.18974  -7.98300  -5.92899  -5.92601  -5.92023
 Alpha  occ. eigenvalues --   -3.54149  -2.34253  -2.29621  -2.28892  -0.97713
 Alpha  occ. eigenvalues --   -0.96756  -0.96667  -0.95736  -0.82851  -0.82276
 Alpha  occ. eigenvalues --   -0.81938  -0.81426  -0.81024  -0.80316  -0.80198
 Alpha  occ. eigenvalues --   -0.80100  -0.77126  -0.76005  -0.74822  -0.74533
 Alpha  occ. eigenvalues --   -0.73709  -0.71437  -0.70539  -0.68926  -0.68573
 Alpha  occ. eigenvalues --   -0.68346  -0.66493  -0.64673  -0.64592  -0.61010
 Alpha  occ. eigenvalues --   -0.60395  -0.58299  -0.57350  -0.55030  -0.54185
 Alpha  occ. eigenvalues --   -0.53728  -0.53248  -0.51625  -0.51498  -0.50993
 Alpha  occ. eigenvalues --   -0.49511  -0.48310  -0.48118  -0.46679  -0.45822
 Alpha  occ. eigenvalues --   -0.45610  -0.45155  -0.44954  -0.44299  -0.44054
 Alpha  occ. eigenvalues --   -0.43963  -0.43779  -0.43695  -0.43364  -0.43067
 Alpha  occ. eigenvalues --   -0.42645  -0.42117  -0.41915  -0.41778  -0.41228
 Alpha  occ. eigenvalues --   -0.41162  -0.40660  -0.40434  -0.40264  -0.39920
 Alpha  occ. eigenvalues --   -0.39796  -0.39368  -0.39271  -0.39071  -0.38948
 Alpha  occ. eigenvalues --   -0.38651  -0.38132  -0.37711  -0.37435  -0.37395
 Alpha  occ. eigenvalues --   -0.37085  -0.36590  -0.36156  -0.35072  -0.34762
 Alpha  occ. eigenvalues --   -0.34062  -0.34007  -0.33621  -0.32254  -0.31800
 Alpha  occ. eigenvalues --   -0.31404  -0.31041  -0.30374  -0.29658  -0.29155
 Alpha  occ. eigenvalues --   -0.28766  -0.26729  -0.26471  -0.24509  -0.22726
 Alpha  occ. eigenvalues --   -0.22048  -0.21625  -0.21323  -0.18132  -0.17964
 Alpha  occ. eigenvalues --   -0.16613
 Alpha virt. eigenvalues --   -0.06735  -0.06609  -0.01631   0.01395   0.02803
 Alpha virt. eigenvalues --    0.03390   0.06013   0.06248   0.08357   0.08976
 Alpha virt. eigenvalues --    0.09442   0.09764   0.10403   0.10837   0.11399
 Alpha virt. eigenvalues --    0.11892   0.12554   0.13069   0.13719   0.13972
 Alpha virt. eigenvalues --    0.14745   0.14905   0.15117   0.15342   0.15648
 Alpha virt. eigenvalues --    0.15909   0.16177   0.16411   0.16978   0.17136
 Alpha virt. eigenvalues --    0.17294   0.17527   0.17645   0.17949   0.18562
 Alpha virt. eigenvalues --    0.18783   0.18849   0.19006   0.19332   0.20101
 Alpha virt. eigenvalues --    0.20689   0.20900   0.21184   0.21545   0.22210
 Alpha virt. eigenvalues --    0.22554   0.23095   0.24027   0.24523   0.25065
 Alpha virt. eigenvalues --    0.25165   0.25412   0.25953   0.26489   0.26501
 Alpha virt. eigenvalues --    0.27031   0.27177   0.27259   0.29393   0.29818
 Alpha virt. eigenvalues --    0.30636   0.31402   0.32511   0.32875   0.33013
 Alpha virt. eigenvalues --    0.34504   0.34777   0.35272   0.35527   0.35864
 Alpha virt. eigenvalues --    0.36526   0.36776   0.38201   0.38369   0.38865
 Alpha virt. eigenvalues --    0.39695   0.43103   0.43361   0.43728   0.43868
 Alpha virt. eigenvalues --    0.44145   0.46076   0.46730   0.46999   0.47967
 Alpha virt. eigenvalues --    0.48526   0.48618   0.49515   0.50148   0.50512
 Alpha virt. eigenvalues --    0.51017   0.51659   0.51735   0.52088   0.52749
 Alpha virt. eigenvalues --    0.52954   0.53096   0.53502   0.54284   0.54773
 Alpha virt. eigenvalues --    0.55339   0.55537   0.55785   0.56138   0.57140
 Alpha virt. eigenvalues --    0.58134   0.58358   0.58627   0.59581   0.59991
 Alpha virt. eigenvalues --    0.60430   0.60578   0.60791   0.61435   0.61935
 Alpha virt. eigenvalues --    0.62057   0.62776   0.63461   0.63615   0.64214
 Alpha virt. eigenvalues --    0.64872   0.64930   0.65159   0.65533   0.65929
 Alpha virt. eigenvalues --    0.66412   0.66937   0.67122   0.67357   0.67667
 Alpha virt. eigenvalues --    0.68353   0.68560   0.69566   0.69999   0.70758
 Alpha virt. eigenvalues --    0.71099   0.71609   0.71803   0.72558   0.73092
 Alpha virt. eigenvalues --    0.73599   0.74690   0.74734   0.75275   0.75901
 Alpha virt. eigenvalues --    0.76048   0.76474   0.77539   0.77687   0.77724
 Alpha virt. eigenvalues --    0.78130   0.78441   0.78737   0.79000   0.79571
 Alpha virt. eigenvalues --    0.79836   0.80073   0.80671   0.81509   0.81975
 Alpha virt. eigenvalues --    0.82369   0.83217   0.83700   0.84419   0.84759
 Alpha virt. eigenvalues --    0.86423   0.86566   0.86772   0.87090   0.87414
 Alpha virt. eigenvalues --    0.87566   0.88010   0.88603   0.88937   0.89044
 Alpha virt. eigenvalues --    0.89331   0.89966   0.90777   0.91320   0.91561
 Alpha virt. eigenvalues --    0.91704   0.92349   0.92564   0.92807   0.93314
 Alpha virt. eigenvalues --    0.93639   0.93899   0.94126   0.94665   0.95442
 Alpha virt. eigenvalues --    0.96140   0.96383   0.96621   0.97828   0.98367
 Alpha virt. eigenvalues --    0.98706   0.98967   0.99140   0.99703   0.99956
 Alpha virt. eigenvalues --    1.00002   1.00245   1.00469   1.01281   1.01512
 Alpha virt. eigenvalues --    1.02498   1.02807   1.03940   1.04425   1.05063
 Alpha virt. eigenvalues --    1.05619   1.06012   1.06277   1.07007   1.07960
 Alpha virt. eigenvalues --    1.08197   1.09283   1.10620   1.10983   1.12732
 Alpha virt. eigenvalues --    1.14196   1.14965   1.15759   1.16588   1.17109
 Alpha virt. eigenvalues --    1.17613   1.18194   1.18844   1.19473   1.19815
 Alpha virt. eigenvalues --    1.20040   1.21196   1.21296   1.22067   1.22523
 Alpha virt. eigenvalues --    1.23656   1.25231   1.25557   1.26109   1.26175
 Alpha virt. eigenvalues --    1.26667   1.27747   1.28097   1.28671   1.30347
 Alpha virt. eigenvalues --    1.30810   1.31299   1.32201   1.33021   1.33436
 Alpha virt. eigenvalues --    1.34772   1.35550   1.36153   1.37748   1.38044
 Alpha virt. eigenvalues --    1.38432   1.38574   1.39035   1.39256   1.40501
 Alpha virt. eigenvalues --    1.41792   1.44222   1.44401   1.45041   1.45258
 Alpha virt. eigenvalues --    1.46326   1.47086   1.47434   1.49449   1.50940
 Alpha virt. eigenvalues --    1.52231   1.52631   1.54365   1.54509   1.54645
 Alpha virt. eigenvalues --    1.54780   1.54941   1.56147   1.57111   1.59308
 Alpha virt. eigenvalues --    1.59753   1.61053   1.61375   1.62283   1.62908
 Alpha virt. eigenvalues --    1.64046   1.65122   1.66285   1.69085   1.69885
 Alpha virt. eigenvalues --    1.70105   1.71218   1.71644   1.71758   1.72991
 Alpha virt. eigenvalues --    1.75302   1.77134   1.77480   1.79082   1.79307
 Alpha virt. eigenvalues --    1.80029   1.81027   1.81514   1.81982   1.82392
 Alpha virt. eigenvalues --    1.82784   1.83134   1.83489   1.84175   1.84579
 Alpha virt. eigenvalues --    1.84766   1.86790   1.87537   1.87657   1.88047
 Alpha virt. eigenvalues --    1.88312   1.90440   1.91820   1.92116   1.92398
 Alpha virt. eigenvalues --    1.92609   1.92928   1.94650   1.95398   1.95737
 Alpha virt. eigenvalues --    1.96750   1.96895   1.99385   1.99762   2.00152
 Alpha virt. eigenvalues --    2.00574   2.00848   2.01397   2.01538   2.01922
 Alpha virt. eigenvalues --    2.03624   2.04542   2.05392   2.05644   2.06076
 Alpha virt. eigenvalues --    2.06705   2.08109   2.08825   2.10093   2.12080
 Alpha virt. eigenvalues --    2.12598   2.13395   2.13881   2.15623   2.15847
 Alpha virt. eigenvalues --    2.16296   2.16894   2.17495   2.18594   2.19396
 Alpha virt. eigenvalues --    2.20838   2.21599   2.22602   2.22955   2.23613
 Alpha virt. eigenvalues --    2.24022   2.24498   2.24977   2.25799   2.26536
 Alpha virt. eigenvalues --    2.26786   2.27355   2.27566   2.28074   2.28545
 Alpha virt. eigenvalues --    2.29428   2.29604   2.30485   2.30730   2.31016
 Alpha virt. eigenvalues --    2.32084   2.32562   2.33404   2.34352   2.35537
 Alpha virt. eigenvalues --    2.35851   2.35954   2.36944   2.37318   2.37979
 Alpha virt. eigenvalues --    2.38851   2.40229   2.40880   2.41269   2.42338
 Alpha virt. eigenvalues --    2.43046   2.43395   2.44364   2.45081   2.45091
 Alpha virt. eigenvalues --    2.45438   2.48239   2.49560   2.50607   2.52846
 Alpha virt. eigenvalues --    2.52898   2.53051   2.53363   2.53974   2.55926
 Alpha virt. eigenvalues --    2.56546   2.56974   2.57384   2.59128   2.60649
 Alpha virt. eigenvalues --    2.60994   2.63224   2.65973   2.66805   2.68030
 Alpha virt. eigenvalues --    2.69096   2.69245   2.69594   2.71589   2.72190
 Alpha virt. eigenvalues --    2.76114   2.77913   2.79871   2.80204   2.80591
 Alpha virt. eigenvalues --    2.81372   2.88146   2.88728   2.89771   2.91770
 Alpha virt. eigenvalues --    2.92096   2.93259   2.95919   2.97237   2.97828
 Alpha virt. eigenvalues --    2.98356   3.00003   3.00317   3.01756   3.05788
 Alpha virt. eigenvalues --    3.06228   3.13569   3.14619   3.20927   3.23581
 Alpha virt. eigenvalues --    3.26309   3.30285   3.30495   3.37522   3.40473
 Alpha virt. eigenvalues --    3.41374   3.44610   3.47434   3.47600   3.49793
 Alpha virt. eigenvalues --    3.53007   3.86546   4.02348   4.22865
  Beta  occ. eigenvalues -- -256.19207 -88.94927 -30.00507 -25.85533 -25.85017
  Beta  occ. eigenvalues --  -25.84423 -14.34656 -14.34585 -14.34584 -14.34561
  Beta  occ. eigenvalues --  -10.22458 -10.22400 -10.22378 -10.22376 -10.22371
  Beta  occ. eigenvalues --  -10.22254 -10.22234 -10.22171 -10.22076 -10.20521
  Beta  occ. eigenvalues --  -10.20421 -10.20128 -10.20047 -10.20004 -10.19970
  Beta  occ. eigenvalues --  -10.19840 -10.19771 -10.19753 -10.19671 -10.19668
  Beta  occ. eigenvalues --  -10.19640 -10.19636 -10.19569 -10.19552 -10.19542
  Beta  occ. eigenvalues --  -10.19500 -10.19474 -10.19201 -10.19109 -10.19050
  Beta  occ. eigenvalues --  -10.18973  -7.98228  -5.92849  -5.92530  -5.91881
  Beta  occ. eigenvalues --   -3.34991  -2.11071  -2.10513  -2.09842  -0.97512
  Beta  occ. eigenvalues --   -0.96568  -0.96465  -0.95529  -0.82841  -0.82203
  Beta  occ. eigenvalues --   -0.81880  -0.81343  -0.80942  -0.80170  -0.80151
  Beta  occ. eigenvalues --   -0.80035  -0.77105  -0.75973  -0.74798  -0.74517
  Beta  occ. eigenvalues --   -0.73699  -0.71389  -0.70472  -0.68831  -0.68469
  Beta  occ. eigenvalues --   -0.68308  -0.66327  -0.64629  -0.64588  -0.60946
  Beta  occ. eigenvalues --   -0.60335  -0.58256  -0.57147  -0.54978  -0.54111
  Beta  occ. eigenvalues --   -0.53662  -0.52992  -0.51506  -0.51400  -0.50897
  Beta  occ. eigenvalues --   -0.49068  -0.48245  -0.47783  -0.46499  -0.45611
  Beta  occ. eigenvalues --   -0.45326  -0.45027  -0.44696  -0.44248  -0.43921
  Beta  occ. eigenvalues --   -0.43888  -0.43673  -0.43583  -0.43322  -0.42974
  Beta  occ. eigenvalues --   -0.42605  -0.42065  -0.41913  -0.41779  -0.41006
  Beta  occ. eigenvalues --   -0.40613  -0.40569  -0.40175  -0.39953  -0.39817
  Beta  occ. eigenvalues --   -0.39419  -0.39142  -0.38966  -0.38828  -0.38276
  Beta  occ. eigenvalues --   -0.38035  -0.37369  -0.37252  -0.37048  -0.36333
  Beta  occ. eigenvalues --   -0.36193  -0.35797  -0.34886  -0.34668  -0.34336
  Beta  occ. eigenvalues --   -0.33964  -0.32170  -0.31277  -0.30921  -0.30447
  Beta  occ. eigenvalues --   -0.29402  -0.29134  -0.27542  -0.26927  -0.26800
  Beta  occ. eigenvalues --   -0.24043  -0.23372  -0.22607  -0.22095  -0.18681
  Beta  occ. eigenvalues --   -0.18097  -0.16162
  Beta virt. eigenvalues --   -0.07494  -0.06139  -0.01700  -0.01030  -0.00835
  Beta virt. eigenvalues --    0.00935   0.01742   0.02998   0.03600   0.06084
  Beta virt. eigenvalues --    0.07322   0.08311   0.08679   0.09435   0.09670
  Beta virt. eigenvalues --    0.10447   0.10738   0.11336   0.11841   0.11991
  Beta virt. eigenvalues --    0.12578   0.13391   0.13745   0.14025   0.14787
  Beta virt. eigenvalues --    0.15059   0.15150   0.15379   0.15737   0.15944
  Beta virt. eigenvalues --    0.16249   0.16497   0.17043   0.17235   0.17342
  Beta virt. eigenvalues --    0.17591   0.17670   0.18045   0.18650   0.18810
  Beta virt. eigenvalues --    0.18916   0.19105   0.19367   0.20116   0.20708
  Beta virt. eigenvalues --    0.20930   0.21205   0.21556   0.22327   0.22711
  Beta virt. eigenvalues --    0.23367   0.24193   0.24713   0.25311   0.25626
  Beta virt. eigenvalues --    0.26054   0.26483   0.26682   0.26976   0.27177
  Beta virt. eigenvalues --    0.27264   0.29440   0.29526   0.30452   0.30847
  Beta virt. eigenvalues --    0.31990   0.32798   0.33108   0.33431   0.34848
  Beta virt. eigenvalues --    0.34976   0.35594   0.35869   0.36093   0.36739
  Beta virt. eigenvalues --    0.37090   0.38358   0.38739   0.39214   0.39821
  Beta virt. eigenvalues --    0.43333   0.43509   0.43798   0.43959   0.44227
  Beta virt. eigenvalues --    0.46697   0.47085   0.47297   0.48379   0.48673
  Beta virt. eigenvalues --    0.48794   0.49895   0.50247   0.50668   0.51219
  Beta virt. eigenvalues --    0.51883   0.52148   0.52316   0.52860   0.53081
  Beta virt. eigenvalues --    0.53197   0.53606   0.54438   0.54850   0.55619
  Beta virt. eigenvalues --    0.55693   0.55857   0.56569   0.57247   0.58185
  Beta virt. eigenvalues --    0.58441   0.58655   0.59608   0.60105   0.60461
  Beta virt. eigenvalues --    0.60619   0.60851   0.61462   0.62028   0.62252
  Beta virt. eigenvalues --    0.62868   0.63520   0.63756   0.64254   0.64998
  Beta virt. eigenvalues --    0.65099   0.65178   0.65744   0.66045   0.66751
  Beta virt. eigenvalues --    0.67018   0.67194   0.67489   0.67819   0.68444
  Beta virt. eigenvalues --    0.68721   0.69718   0.70301   0.70830   0.71223
  Beta virt. eigenvalues --    0.71910   0.71985   0.72844   0.73556   0.73685
  Beta virt. eigenvalues --    0.74802   0.75121   0.75496   0.76053   0.76310
  Beta virt. eigenvalues --    0.76821   0.77669   0.77783   0.77854   0.78295
  Beta virt. eigenvalues --    0.78631   0.78844   0.79368   0.79655   0.79987
  Beta virt. eigenvalues --    0.80520   0.80971   0.81668   0.82459   0.82494
  Beta virt. eigenvalues --    0.83270   0.83819   0.84546   0.85839   0.86564
  Beta virt. eigenvalues --    0.86751   0.86811   0.87193   0.87512   0.87811
  Beta virt. eigenvalues --    0.88215   0.88773   0.89150   0.89654   0.89828
  Beta virt. eigenvalues --    0.90716   0.91140   0.91525   0.91753   0.91851
  Beta virt. eigenvalues --    0.92483   0.92619   0.93042   0.93406   0.93774
  Beta virt. eigenvalues --    0.94033   0.94252   0.94771   0.95532   0.96302
  Beta virt. eigenvalues --    0.96470   0.96706   0.97993   0.98485   0.98927
  Beta virt. eigenvalues --    0.99115   0.99228   0.99798   1.00048   1.00145
  Beta virt. eigenvalues --    1.00365   1.00568   1.01459   1.01709   1.02647
  Beta virt. eigenvalues --    1.02992   1.04056   1.04515   1.05151   1.06180
  Beta virt. eigenvalues --    1.06252   1.06626   1.07242   1.08134   1.08455
  Beta virt. eigenvalues --    1.09776   1.10718   1.11136   1.13484   1.14620
  Beta virt. eigenvalues --    1.15638   1.15870   1.16735   1.17249   1.17915
  Beta virt. eigenvalues --    1.18340   1.19017   1.19551   1.19996   1.20245
  Beta virt. eigenvalues --    1.21307   1.21372   1.22235   1.22671   1.23778
  Beta virt. eigenvalues --    1.25525   1.25802   1.26622   1.26849   1.27931
  Beta virt. eigenvalues --    1.28204   1.28557   1.30073   1.30898   1.31532
  Beta virt. eigenvalues --    1.31835   1.32465   1.33212   1.33998   1.34818
  Beta virt. eigenvalues --    1.35676   1.36441   1.37783   1.38099   1.38484
  Beta virt. eigenvalues --    1.38609   1.39108   1.39285   1.40572   1.41971
  Beta virt. eigenvalues --    1.44327   1.44509   1.45133   1.45384   1.46511
  Beta virt. eigenvalues --    1.47169   1.47496   1.49545   1.51646   1.52962
  Beta virt. eigenvalues --    1.53248   1.54505   1.54619   1.54834   1.55077
  Beta virt. eigenvalues --    1.55342   1.56731   1.57455   1.59456   1.59872
  Beta virt. eigenvalues --    1.61423   1.61757   1.62831   1.63139   1.64319
  Beta virt. eigenvalues --    1.65250   1.66389   1.69264   1.69937   1.70298
  Beta virt. eigenvalues --    1.71304   1.71746   1.71868   1.73093   1.75490
  Beta virt. eigenvalues --    1.77316   1.77703   1.79212   1.79371   1.80046
  Beta virt. eigenvalues --    1.81109   1.81597   1.82214   1.82456   1.82887
  Beta virt. eigenvalues --    1.83383   1.83726   1.84244   1.84776   1.84951
  Beta virt. eigenvalues --    1.86975   1.87597   1.87721   1.88170   1.88352
  Beta virt. eigenvalues --    1.90501   1.92013   1.92241   1.92509   1.92702
  Beta virt. eigenvalues --    1.93689   1.94735   1.95541   1.95839   1.96901
  Beta virt. eigenvalues --    1.97418   1.99687   2.00149   2.00664   2.00887
  Beta virt. eigenvalues --    2.00936   2.01525   2.02018   2.03749   2.04027
  Beta virt. eigenvalues --    2.05292   2.05744   2.05785   2.06248   2.06890
  Beta virt. eigenvalues --    2.08277   2.08952   2.10206   2.12656   2.13032
  Beta virt. eigenvalues --    2.13955   2.15447   2.15638   2.15910   2.16383
  Beta virt. eigenvalues --    2.16979   2.17583   2.18691   2.19496   2.20888
  Beta virt. eigenvalues --    2.21852   2.22767   2.23488   2.23859   2.24180
  Beta virt. eigenvalues --    2.25715   2.26035   2.26076   2.26758   2.27089
  Beta virt. eigenvalues --    2.27923   2.28148   2.29079   2.29382   2.30087
  Beta virt. eigenvalues --    2.30325   2.30675   2.31469   2.31825   2.32253
  Beta virt. eigenvalues --    2.32980   2.33505   2.34495   2.35595   2.35973
  Beta virt. eigenvalues --    2.36108   2.36954   2.37408   2.38160   2.38975
  Beta virt. eigenvalues --    2.40313   2.41058   2.41318   2.42565   2.43133
  Beta virt. eigenvalues --    2.43459   2.44434   2.45125   2.45403   2.45891
  Beta virt. eigenvalues --    2.48641   2.50312   2.50977   2.52935   2.53066
  Beta virt. eigenvalues --    2.53127   2.53608   2.54073   2.56119   2.56657
  Beta virt. eigenvalues --    2.57076   2.57470   2.59842   2.60683   2.61032
  Beta virt. eigenvalues --    2.63254   2.66070   2.66847   2.68541   2.69236
  Beta virt. eigenvalues --    2.69352   2.69629   2.71685   2.72318   2.76211
  Beta virt. eigenvalues --    2.77999   2.79921   2.80576   2.80722   2.81444
  Beta virt. eigenvalues --    2.88321   2.88822   2.89922   2.91873   2.92218
  Beta virt. eigenvalues --    2.93441   2.96057   2.97684   2.97916   2.98733
  Beta virt. eigenvalues --    3.00078   3.00382   3.01767   3.05909   3.06338
  Beta virt. eigenvalues --    3.13725   3.14800   3.21002   3.23728   3.26882
  Beta virt. eigenvalues --    3.30319   3.30527   3.38657   3.40518   3.42131
  Beta virt. eigenvalues --    3.47564   3.47705   3.52849   3.59898   3.62651
  Beta virt. eigenvalues --    3.97886   4.13377   4.33155
          Condensed to atoms (all electrons):
          Atomic-Atomic Spin Densities.
 Mulliken charges and spin densities:
               1          2
     1  Fe   0.806932   3.787051
     2  N   -0.704825   0.051974
     3  N   -0.740836   0.030130
     4  N   -0.698727   0.050696
     5  N   -0.722565   0.031687
     6  C    0.320924  -0.019964
     7  C    0.033665   0.009525
     8  C    0.030001  -0.010116
     9  C    0.318768  -0.000281
    10  C    0.331418   0.005838
    11  C    0.036874  -0.002674
    12  C   -0.005266   0.016230
    13  C    0.336429  -0.008173
    14  C    0.320445  -0.016277
    15  C    0.039011   0.011776
    16  C   -0.008368  -0.011401
    17  C    0.315680  -0.001355
    18  C    0.319956   0.004210
    19  C    0.031588  -0.002473
    20  C    0.034104   0.014634
    21  C    0.317060  -0.013126
    22  C   -0.324836   0.007363
    23  H    0.165665  -0.000016
    24  C   -0.311875  -0.004575
    25  H    0.167208   0.000452
    26  C   -0.301719   0.003321
    27  H    0.169948   0.000155
    28  C   -0.310202  -0.003306
    29  H    0.168087   0.000406
    30  C   -0.609321   0.001613
    31  H    0.184741   0.000272
    32  H    0.192532  -0.000852
    33  H    0.188638  -0.000790
    34  C   -0.608992   0.000064
    35  H    0.187006  -0.000038
    36  H    0.192264  -0.000061
    37  H    0.185456   0.000331
    38  C   -0.612223   0.000655
    39  H    0.189691  -0.000212
    40  H    0.186460   0.000026
    41  H    0.196553   0.000202
    42  C   -0.147332  -0.004046
    43  H    0.168571   0.000387
    44  C   -0.399173   0.006360
    45  H    0.176415  -0.000319
    46  H    0.168863  -0.000168
    47  C   -0.612259  -0.000161
    48  H    0.191381   0.000321
    49  H    0.185089  -0.000067
    50  H    0.196341   0.000281
    51  C   -0.146645   0.004867
    52  H    0.166508  -0.000503
    53  C   -0.402446  -0.006818
    54  H    0.175721   0.000341
    55  H    0.167117   0.000388
    56  C   -0.610046   0.000694
    57  H    0.191181  -0.000137
    58  H    0.193529  -0.000155
    59  H    0.185113   0.000313
    60  C   -0.609094  -0.000671
    61  H    0.185968   0.000341
    62  H    0.193851   0.000526
    63  H    0.187929   0.000508
    64  C   -0.679527  -0.005029
    65  H    0.233496   0.001504
    66  H    0.228698   0.000166
    67  H    0.209352   0.001341
    68  S    0.042063   0.073747
    69  H    0.151992  -0.006934
 Sum of Mulliken charges =  -0.00000   4.00000
 Mulliken charges and spin densities with hydrogens summed into heavy atoms:
               1          2
     1  Fe   0.806932   3.787051
     2  N   -0.704825   0.051974
     3  N   -0.740836   0.030130
     4  N   -0.698727   0.050696
     5  N   -0.722565   0.031687
     6  C    0.320924  -0.019964
     7  C    0.033665   0.009525
     8  C    0.030001  -0.010116
     9  C    0.318768  -0.000281
    10  C    0.331418   0.005838
    11  C    0.036874  -0.002674
    12  C   -0.005266   0.016230
    13  C    0.336429  -0.008173
    14  C    0.320445  -0.016277
    15  C    0.039011   0.011776
    16  C   -0.008368  -0.011401
    17  C    0.315680  -0.001355
    18  C    0.319956   0.004210
    19  C    0.031588  -0.002473
    20  C    0.034104   0.014634
    21  C    0.317060  -0.013126
    22  C   -0.159171   0.007347
    24  C   -0.144668  -0.004122
    26  C   -0.131771   0.003476
    28  C   -0.142116  -0.002900
    30  C   -0.043410   0.000243
    34  C   -0.044267   0.000297
    38  C   -0.039520   0.000672
    42  C    0.021238  -0.003659
    44  C   -0.053895   0.005874
    47  C   -0.039447   0.000373
    51  C    0.019862   0.004364
    53  C   -0.059608  -0.006089
    56  C   -0.040224   0.000715
    60  C   -0.041346   0.000704
    64  C   -0.007980  -0.002018
    68  S    0.194055   0.066813
 Electronic spatial extent (au):  <R**2>=          18114.0027
 Charge=             -0.0000 electrons
 Dipole moment (field-independent basis, Debye):
    X=             -2.0382    Y=             -0.5379    Z=              1.4162  Tot=              2.5395
 Quadrupole moment (field-independent basis, Debye-Ang):
   XX=           -207.1420   YY=           -206.8827   ZZ=           -231.8961
   XY=              0.8499   XZ=             -3.0082   YZ=             -0.6569
 Traceless Quadrupole moment (field-independent basis, Debye-Ang):
   XX=              8.1650   YY=              8.4242   ZZ=            -16.5892
   XY=              0.8499   XZ=             -3.0082   YZ=             -0.6569
 Octapole moment (field-independent basis, Debye-Ang**2):
  XXX=            -19.9098  YYY=             -7.2909  ZZZ=             18.8855  XYY=            -14.9513
  XXY=              6.0036  XXZ=              2.0989  XZZ=            -21.3742  YZZ=             -7.0733
  YYZ=             -0.6725  XYZ=             -2.5175
 Hexadecapole moment (field-independent basis, Debye-Ang**3):
 XXXX=         -11254.0461 YYYY=         -11133.8451 ZZZZ=          -1095.8531 XXXY=             47.7209
 XXXZ=             48.6444 YYYX=              1.8675 YYYZ=            111.2989 ZZZX=            -40.7998
 ZZZY=            -21.4043 XXYY=          -3714.7093 XXZZ=          -2226.7778 YYZZ=          -2217.7796
 XXYZ=            -32.6460 YYXZ=             29.6200 ZZXY=             -2.3149
 N-N= 5.040404137968D+03 E-N=-1.733337172087D+04  KE= 3.071065304685D+03
                          Isotropic Fermi Contact Couplings
        Atom                 a.u.       MegaHertz       Gauss      10(-4) cm-1
     1  Fe(57)             0.52335      18.97673       6.77137       6.32996
     2  N(14)              0.09128       7.37329       2.63097       2.45946
     3  N(14)              0.08718       7.04169       2.51265       2.34885
     4  N(14)              0.09586       7.74329       2.76300       2.58288
     5  N(14)              0.08994       7.26481       2.59227       2.42328
     6  C(13)              0.00277       0.77937       0.27810       0.25997
     7  C(13)              0.00477       1.34144       0.47866       0.44746
     8  C(13)              0.00167       0.46965       0.16758       0.15666
     9  C(13)              0.00531       1.49174       0.53229       0.49759
    10  C(13)              0.00620       1.74349       0.62212       0.58156
    11  C(13)              0.00261       0.73494       0.26224       0.24515
    12  C(13)              0.00541       1.51909       0.54205       0.50671
    13  C(13)              0.00479       1.34520       0.48000       0.44871
    14  C(13)              0.00262       0.73545       0.26243       0.24532
    15  C(13)              0.00498       1.40054       0.49975       0.46717
    16  C(13)              0.00140       0.39375       0.14050       0.13134
    17  C(13)              0.00535       1.50387       0.53662       0.50164
    18  C(13)              0.00638       1.79246       0.63959       0.59790
    19  C(13)              0.00263       0.73837       0.26347       0.24629
    20  C(13)              0.00523       1.46997       0.52452       0.49033
    21  C(13)              0.00349       0.98070       0.34994       0.32713
    22  C(13)              0.00127       0.35715       0.12744       0.11913
    23  H(1)              -0.00001      -0.01104      -0.00394      -0.00368
    24  C(13)             -0.00096      -0.27003      -0.09635      -0.09007
    25  H(1)               0.00014       0.15291       0.05456       0.05101
    26  C(13)              0.00047       0.13082       0.04668       0.04364
    27  H(1)               0.00004       0.04525       0.01615       0.01509
    28  C(13)             -0.00076      -0.21355      -0.07620      -0.07123
    29  H(1)               0.00012       0.13683       0.04882       0.04564
    30  C(13)              0.00102       0.28736       0.10254       0.09585
    31  H(1)               0.00008       0.08829       0.03150       0.02945
    32  H(1)              -0.00027      -0.30126      -0.10750      -0.10049
    33  H(1)              -0.00025      -0.27816      -0.09925      -0.09278
    34  C(13)              0.00049       0.13721       0.04896       0.04577
    35  H(1)               0.00009       0.10405       0.03713       0.03471
    36  H(1)               0.00010       0.10889       0.03886       0.03632
    37  H(1)               0.00010       0.11308       0.04035       0.03772
    38  C(13)              0.00060       0.17003       0.06067       0.05672
    39  H(1)              -0.00012      -0.13616      -0.04858      -0.04542
    40  H(1)              -0.00000      -0.00402      -0.00144      -0.00134
    41  H(1)               0.00003       0.03412       0.01218       0.01138
    42  C(13)             -0.00036      -0.10059      -0.03589      -0.03355
    43  H(1)               0.00013       0.15037       0.05366       0.05016
    44  C(13)              0.00121       0.34090       0.12164       0.11371
    45  H(1)              -0.00009      -0.10462      -0.03733      -0.03490
    46  H(1)              -0.00005      -0.05714      -0.02039      -0.01906
    47  C(13)              0.00030       0.08413       0.03002       0.02806
    48  H(1)               0.00020       0.22735       0.08112       0.07584
    49  H(1)               0.00009       0.10036       0.03581       0.03348
    50  H(1)               0.00010       0.11015       0.03930       0.03674
    51  C(13)              0.00134       0.37579       0.13409       0.12535
    52  H(1)              -0.00013      -0.14860      -0.05302      -0.04957
    53  C(13)             -0.00087      -0.24337      -0.08684      -0.08118
    54  H(1)               0.00010       0.11713       0.04180       0.03907
    55  H(1)               0.00012       0.13961       0.04981       0.04657
    56  C(13)              0.00065       0.18283       0.06524       0.06099
    57  H(1)              -0.00010      -0.10696      -0.03817      -0.03568
    58  H(1)              -0.00009      -0.10589      -0.03778      -0.03532
    59  H(1)               0.00009       0.10174       0.03630       0.03394
    60  C(13)              0.00014       0.04029       0.01438       0.01344
    61  H(1)               0.00010       0.11570       0.04129       0.03859
    62  H(1)               0.00022       0.24219       0.08642       0.08079
    63  H(1)               0.00020       0.22531       0.08040       0.07516
    64  C(13)             -0.00553      -1.55330      -0.55425      -0.51812
    65  H(1)               0.00064       0.71921       0.25663       0.23990
    66  H(1)               0.00012       0.13633       0.04865       0.04548
    67  H(1)               0.00142       1.58163       0.56436       0.52757
    68  S(33)              0.13865      11.90565       4.24823       3.97130
    69  H(1)              -0.00251      -2.80449      -1.00071      -0.93548
 --------------------------------------------------------
       Center         ----  Spin Dipole Couplings  ----
                      3XX-RR        3YY-RR        3ZZ-RR
 --------------------------------------------------------
     1   Atom        0.283899      1.134919     -1.418817
     2   Atom        0.111345     -0.058714     -0.052631
     3   Atom       -0.041520      0.134096     -0.092576
     4   Atom        0.109155     -0.055785     -0.053370
     5   Atom       -0.044176      0.135376     -0.091200
     6   Atom        0.059944     -0.010178     -0.049766
     7   Atom        0.012342     -0.006394     -0.005948
     8   Atom        0.016963      0.006711     -0.023674
     9   Atom        0.003377      0.027822     -0.031198
    10   Atom       -0.023665      0.046534     -0.022869
    11   Atom       -0.002320      0.015994     -0.013674
    12   Atom       -0.006452      0.003715      0.002737
    13   Atom        0.030653      0.005226     -0.035879
    14   Atom        0.055943     -0.011179     -0.044765
    15   Atom        0.010720     -0.007906     -0.002814
    16   Atom        0.016726      0.007172     -0.023898
    17   Atom        0.003440      0.026565     -0.030005
    18   Atom       -0.022059      0.046940     -0.024881
    19   Atom       -0.001971      0.015701     -0.013730
    20   Atom       -0.005881      0.004245      0.001636
    21   Atom        0.031963      0.009047     -0.041010
    22   Atom        0.023937     -0.011461     -0.012477
    23   Atom        0.011606     -0.005052     -0.006554
    24   Atom       -0.006118      0.028688     -0.022570
    25   Atom       -0.004472      0.011175     -0.006703
    26   Atom        0.025654     -0.009803     -0.015852
    27   Atom        0.011463     -0.004912     -0.006551
    28   Atom       -0.006373      0.027014     -0.020641
    29   Atom       -0.004387      0.010885     -0.006498
    30   Atom        0.001412      0.002194     -0.003605
    31   Atom        0.002007      0.000289     -0.002296
    32   Atom        0.000487      0.002138     -0.002625
    33   Atom        0.000481      0.002292     -0.002773
    34   Atom        0.006981     -0.003546     -0.003435
    35   Atom        0.005667     -0.002882     -0.002785
    36   Atom        0.005530     -0.002888     -0.002642
    37   Atom        0.003825     -0.001512     -0.002313
    38   Atom       -0.003264      0.007292     -0.004028
    39   Atom       -0.002595      0.005229     -0.002634
    40   Atom       -0.003090      0.006031     -0.002941
    41   Atom       -0.001693      0.004081     -0.002387
    42   Atom        0.003926      0.001749     -0.005675
    43   Atom        0.003086     -0.000044     -0.003042
    44   Atom       -0.001959      0.001056      0.000903
    45   Atom       -0.000304      0.002064     -0.001760
    46   Atom        0.000999      0.000482     -0.001482
    47   Atom        0.006879     -0.003479     -0.003400
    48   Atom        0.005099     -0.002643     -0.002456
    49   Atom        0.005933     -0.002997     -0.002936
    50   Atom        0.003887     -0.001617     -0.002270
    51   Atom        0.000767      0.001193     -0.001959
    52   Atom        0.000066      0.002789     -0.002855
    53   Atom        0.001317      0.003221     -0.004539
    54   Atom        0.001936     -0.000276     -0.001660
    55   Atom        0.000929      0.000230     -0.001159
    56   Atom       -0.003270      0.007194     -0.003924
    57   Atom       -0.002854      0.005687     -0.002833
    58   Atom       -0.002856      0.005492     -0.002635
    59   Atom       -0.001666      0.004043     -0.002377
    60   Atom        0.002519      0.001288     -0.003807
    61   Atom        0.000383      0.002022     -0.002405
    62   Atom        0.002380      0.000294     -0.002674
    63   Atom        0.002519      0.000366     -0.002885
    64   Atom       -0.007191     -0.013168      0.020359
    65   Atom        0.004783     -0.012458      0.007674
    66   Atom       -0.000199     -0.010194      0.010393
    67   Atom       -0.003111     -0.007330      0.010441
    68   Atom       -0.178541     -0.184245      0.362786
    69   Atom       -0.025200     -0.004663      0.029863
 --------------------------------------------------------
                        XY            XZ            YZ
 --------------------------------------------------------
     1   Atom        1.625411     -0.013161     -0.164857
     2   Atom       -0.127197      0.014670     -0.008422
     3   Atom        0.132436     -0.012589     -0.023664
     4   Atom       -0.125253     -0.013389      0.006932
     5   Atom        0.129589      0.013487      0.026329
     6   Atom       -0.000834      0.003524     -0.000194
     7   Atom       -0.009327      0.000372     -0.000301
     8   Atom       -0.012035      0.000774     -0.000282
     9   Atom       -0.033095      0.000543      0.001092
    10   Atom        0.001598     -0.000004     -0.001377
    11   Atom        0.009096      0.000684     -0.000413
    12   Atom        0.012023      0.000410      0.000451
    13   Atom        0.032432     -0.000977     -0.001026
    14   Atom       -0.001907      0.001323      0.001056
    15   Atom       -0.008942      0.000593      0.000093
    16   Atom       -0.011757     -0.000115      0.000753
    17   Atom       -0.031390     -0.001310      0.001147
    18   Atom        0.000732      0.000131      0.001174
    19   Atom        0.008898      0.000556      0.001159
    20   Atom        0.011724      0.000219      0.000174
    21   Atom        0.032724      0.000710      0.001736
    22   Atom        0.011866      0.001773      0.000285
    23   Atom        0.005370      0.000592      0.000172
    24   Atom       -0.011958      0.000379     -0.001280
    25   Atom       -0.005562      0.000102     -0.000298
    26   Atom        0.011137     -0.001211      0.000003
    27   Atom        0.005027     -0.000068     -0.000012
    28   Atom       -0.011738     -0.000776      0.001993
    29   Atom       -0.005468     -0.000132      0.000435
    30   Atom       -0.005459      0.000141     -0.000131
    31   Atom       -0.003162      0.000090     -0.000067
    32   Atom       -0.004152      0.000918     -0.001200
    33   Atom       -0.004253     -0.000670      0.000908
    34   Atom       -0.001672      0.000259     -0.000048
    35   Atom       -0.000698     -0.001123      0.000004
    36   Atom       -0.000681      0.001620     -0.000042
    37   Atom       -0.002097      0.000181     -0.000064
    38   Atom        0.001551      0.000033     -0.000378
    39   Atom        0.000996      0.000086      0.001075
    40   Atom        0.000301      0.000000     -0.001512
    41   Atom        0.001965     -0.000184     -0.000669
    42   Atom        0.006088     -0.000673      0.001893
    43   Atom        0.004341     -0.000912     -0.000599
    44   Atom        0.002154      0.001838     -0.003436
    45   Atom        0.002243      0.000341      0.000861
    46   Atom        0.002240      0.000133     -0.000047
    47   Atom       -0.001756     -0.000255     -0.000038
    48   Atom       -0.001111      0.001230     -0.000109
    49   Atom       -0.000337     -0.001283     -0.000011
    50   Atom       -0.002130     -0.000500      0.000238
    51   Atom       -0.004629     -0.001836     -0.000831
    52   Atom       -0.004031     -0.000615      0.000901
    53   Atom       -0.004001      0.005060      0.001019
    54   Atom       -0.002838      0.000689     -0.000655
    55   Atom       -0.001784      0.000372     -0.000148
    56   Atom        0.001408      0.000060      0.000398
    57   Atom        0.000621     -0.000034     -0.001023
    58   Atom        0.000591      0.000074      0.001687
    59   Atom        0.001923      0.000080      0.000264
    60   Atom        0.005438      0.000273      0.000243
    61   Atom        0.003460      0.000154      0.000196
    62   Atom        0.004127      0.001406      0.001006
    63   Atom        0.004239     -0.000906     -0.000618
    64   Atom        0.001610     -0.016736     -0.001915
    65   Atom        0.007093     -0.020739     -0.007600
    66   Atom       -0.004905     -0.015212      0.006441
    67   Atom        0.000917     -0.007235     -0.002101
    68   Atom       -0.002410      0.090038     -0.037466
    69   Atom       -0.005293      0.007784     -0.028993
 --------------------------------------------------------


 ---------------------------------------------------------------------------------
              Anisotropic Spin Dipole Couplings in Principal Axis System
 ---------------------------------------------------------------------------------

       Atom             a.u.   MegaHertz   Gauss  10(-4) cm-1        Axes

              Baa    -1.4412   -24.951    -8.903    -8.323 -0.1275  0.1432  0.9814
     1 Fe(57) Bbb    -0.9535   -16.507    -5.890    -5.506  0.7822 -0.5939  0.1883
              Bcc     2.3946    41.458    14.793    13.829  0.6099  0.7917 -0.0363
 
              Baa    -0.1267    -4.886    -1.743    -1.630  0.4709  0.8821  0.0070
     2 N(14)  Bbb    -0.0539    -2.077    -0.741    -0.693 -0.0671  0.0279  0.9974
              Bcc     0.1805     6.963     2.485     2.323  0.8796 -0.4702  0.0723
 
              Baa    -0.1126    -4.343    -1.550    -1.449  0.8808 -0.4734 -0.0057
     3 N(14)  Bbb    -0.0950    -3.663    -1.307    -1.222  0.0471  0.0757  0.9960
              Bcc     0.2076     8.006     2.857     2.671  0.4711  0.8776 -0.0889
 
              Baa    -0.1233    -4.755    -1.697    -1.586  0.4745  0.8802  0.0036
     4 N(14)  Bbb    -0.0544    -2.096    -0.748    -0.699  0.0556 -0.0341  0.9979
              Bcc     0.1776     6.851     2.445     2.285  0.8785 -0.4733 -0.0651
 
              Baa    -0.1121    -4.322    -1.542    -1.442  0.8851 -0.4651  0.0148
     5 N(14)  Bbb    -0.0941    -3.631    -1.296    -1.211 -0.0591 -0.0808  0.9950
              Bcc     0.2062     7.952     2.838     2.653  0.4616  0.8815  0.0990
 
              Baa    -0.0499    -6.693    -2.388    -2.233 -0.0320  0.0042  0.9995
     6 C(13)  Bbb    -0.0102    -1.367    -0.488    -0.456  0.0121  0.9999 -0.0038
              Bcc     0.0601     8.060     2.876     2.689  0.9994 -0.0120  0.0321
 
              Baa    -0.0102    -1.375    -0.491    -0.459  0.3810  0.9240  0.0317
     7 C(13)  Bbb    -0.0060    -0.799    -0.285    -0.266 -0.0312 -0.0214  0.9993
              Bcc     0.0162     2.174     0.776     0.725  0.9241 -0.3817  0.0207
 
              Baa    -0.0237    -3.179    -1.134    -1.060 -0.0184  0.0020  0.9998
     8 C(13)  Bbb    -0.0012    -0.167    -0.060    -0.056  0.5512  0.8343  0.0085
              Bcc     0.0249     3.346     1.194     1.116  0.8342 -0.5512  0.0165
 
              Baa    -0.0313    -4.200    -1.499    -1.401 -0.0712 -0.0582  0.9958
     9 C(13)  Bbb    -0.0196    -2.628    -0.938    -0.877  0.8175  0.5686  0.0917
              Bcc     0.0509     6.828     2.436     2.278 -0.5715  0.8205  0.0071
 
              Baa    -0.0237    -3.181    -1.135    -1.061  0.9991 -0.0234 -0.0344
    10 C(13)  Bbb    -0.0229    -3.072    -1.096    -1.025  0.0348  0.0190  0.9992
              Bcc     0.0466     6.253     2.231     2.086  0.0227  0.9995 -0.0198
 
              Baa    -0.0138    -1.846    -0.659    -0.616 -0.0931  0.0423  0.9948
    11 C(13)  Bbb    -0.0060    -0.804    -0.287    -0.268  0.9199 -0.3787  0.1022
              Bcc     0.0197     2.650     0.945     0.884  0.3810  0.9246 -0.0036
 
              Baa    -0.0144    -1.935    -0.691    -0.646  0.8335 -0.5524 -0.0054
    12 C(13)  Bbb     0.0027     0.362     0.129     0.121 -0.0324 -0.0587  0.9977
              Bcc     0.0117     1.573     0.561     0.525  0.5515  0.8315  0.0668
 
              Baa    -0.0359    -4.818    -1.719    -1.607  0.0041  0.0217  0.9998
    13 C(13)  Bbb    -0.0169    -2.267    -0.809    -0.756 -0.5637  0.8258 -0.0156
              Bcc     0.0528     7.085     2.528     2.363  0.8260  0.5635 -0.0156
 
              Baa    -0.0448    -6.014    -2.146    -2.006 -0.0137 -0.0322  0.9994
    14 C(13)  Bbb    -0.0112    -1.503    -0.536    -0.501  0.0277  0.9991  0.0325
              Bcc     0.0560     7.517     2.682     2.507  0.9995 -0.0282  0.0128
 
              Baa    -0.0115    -1.545    -0.551    -0.515  0.3737  0.9269 -0.0354
    15 C(13)  Bbb    -0.0028    -0.378    -0.135    -0.126 -0.0147  0.0440  0.9989
              Bcc     0.0143     1.923     0.686     0.642  0.9274 -0.3728  0.0301
 
              Baa    -0.0239    -3.209    -1.145    -1.071 -0.0047 -0.0260  0.9997
    16 C(13)  Bbb    -0.0007    -0.098    -0.035    -0.033  0.5586  0.8291  0.0242
              Bcc     0.0246     3.307     1.180     1.103  0.8294 -0.5585 -0.0106
 
              Baa    -0.0301    -4.033    -1.439    -1.345  0.0419  0.0030  0.9991
    17 C(13)  Bbb    -0.0184    -2.474    -0.883    -0.825  0.8192  0.5724 -0.0360
              Bcc     0.0485     6.507     2.322     2.170 -0.5720  0.8200  0.0215
 
              Baa    -0.0249    -3.342    -1.193    -1.115 -0.0420 -0.0159  0.9990
    18 C(13)  Bbb    -0.0221    -2.960    -1.056    -0.988  0.9991 -0.0113  0.0419
              Bcc     0.0470     6.303     2.249     2.102  0.0106  0.9998  0.0164
 
              Baa    -0.0138    -1.849    -0.660    -0.617 -0.0225 -0.0325  0.9992
    19 C(13)  Bbb    -0.0057    -0.761    -0.272    -0.254  0.9230 -0.3847  0.0083
              Bcc     0.0195     2.611     0.932     0.871  0.3841  0.9225  0.0386
 
              Baa    -0.0136    -1.823    -0.651    -0.608  0.8356 -0.5493 -0.0058
    20 C(13)  Bbb     0.0016     0.219     0.078     0.073 -0.0093 -0.0247  0.9997
              Bcc     0.0120     1.605     0.573     0.535  0.5492  0.8353  0.0257
 
              Baa    -0.0411    -5.512    -1.967    -1.839  0.0082 -0.0400  0.9992
    21 C(13)  Bbb    -0.0141    -1.896    -0.677    -0.632 -0.5789  0.8146  0.0373
              Bcc     0.0552     7.408     2.643     2.471  0.8154  0.5787  0.0165
 
              Baa    -0.0151    -2.025    -0.723    -0.676 -0.2935  0.9512  0.0951
    22 C(13)  Bbb    -0.0125    -1.682    -0.600    -0.561 -0.0145 -0.1040  0.9945
              Bcc     0.0276     3.707     1.323     1.237  0.9558  0.2905  0.0443
 
              Baa    -0.0066    -3.539    -1.263    -1.180 -0.2833  0.9584  0.0344
    23 H(1)   Bbb    -0.0066    -3.507    -1.251    -1.170 -0.0202 -0.0418  0.9989
              Bcc     0.0132     7.046     2.514     2.350  0.9588  0.2823  0.0312
 
              Baa    -0.0226    -3.033    -1.082    -1.012 -0.0059  0.0236  0.9997
    24 C(13)  Bbb    -0.0098    -1.319    -0.471    -0.440  0.9550  0.2965 -0.0014
              Bcc     0.0324     4.352     1.553     1.452 -0.2964  0.9548 -0.0243
 
              Baa    -0.0067    -3.579    -1.277    -1.194 -0.0177  0.0112  0.9998
    25 H(1)   Bbb    -0.0062    -3.334    -1.189    -1.112  0.9525  0.3043  0.0135
              Bcc     0.0130     6.913     2.467     2.306 -0.3041  0.9525 -0.0160
 
              Baa    -0.0159    -2.136    -0.762    -0.713  0.0567 -0.1037  0.9930
    26 C(13)  Bbb    -0.0130    -1.741    -0.621    -0.581 -0.2719  0.9554  0.1153
              Bcc     0.0289     3.877     1.383     1.293  0.9607  0.2765 -0.0260
 
              Baa    -0.0066    -3.496    -1.247    -1.166  0.0117 -0.0285  0.9995
    27 H(1)   Bbb    -0.0063    -3.378    -1.206    -1.127 -0.2716  0.9619  0.0306
              Bcc     0.0129     6.874     2.453     2.293  0.9623  0.2719 -0.0035
 
              Baa    -0.0207    -2.782    -0.993    -0.928  0.0249 -0.0356  0.9991
    28 C(13)  Bbb    -0.0101    -1.353    -0.483    -0.451  0.9531  0.3023 -0.0130
              Bcc     0.0308     4.135     1.476     1.379 -0.3015  0.9526  0.0414
 
              Baa    -0.0065    -3.473    -1.239    -1.158 -0.0113 -0.0286  0.9995
    29 H(1)   Bbb    -0.0061    -3.277    -1.169    -1.093  0.9521  0.3053  0.0195
              Bcc     0.0127     6.750     2.409     2.252 -0.3057  0.9518  0.0237
 
              Baa    -0.0037    -0.493    -0.176    -0.164  0.7177  0.6630 -0.2127
    30 C(13)  Bbb    -0.0036    -0.484    -0.173    -0.161  0.1440  0.1576  0.9770
              Bcc     0.0073     0.977     0.349     0.326 -0.6813  0.7318 -0.0176
 
              Baa    -0.0023    -1.226    -0.437    -0.409 -0.0171  0.0051  0.9998
    31 H(1)   Bbb    -0.0021    -1.136    -0.405    -0.379  0.6073  0.7944  0.0063
              Bcc     0.0044     2.362     0.843     0.788  0.7943 -0.6074  0.0167
 
              Baa    -0.0030    -1.580    -0.564    -0.527  0.5411  0.5832  0.6059
    32 H(1)   Bbb    -0.0029    -1.523    -0.544    -0.508 -0.5641 -0.2827  0.7758
              Bcc     0.0058     3.103     1.107     1.035 -0.6237  0.7616 -0.1761
 
              Baa    -0.0030    -1.598    -0.570    -0.533  0.6019  0.5787 -0.5502
    33 H(1)   Bbb    -0.0029    -1.540    -0.550    -0.514  0.4991  0.2652  0.8250
              Bcc     0.0059     3.138     1.120     1.047 -0.6233  0.7712  0.1292
 
              Baa    -0.0038    -0.511    -0.182    -0.170  0.1526  0.9880  0.0215
    34 C(13)  Bbb    -0.0034    -0.462    -0.165    -0.154 -0.0277 -0.0175  0.9995
              Bcc     0.0072     0.972     0.347     0.324  0.9879 -0.1532  0.0247
 
              Baa    -0.0030    -1.612    -0.575    -0.538  0.1458  0.7162  0.6825
    35 H(1)   Bbb    -0.0028    -1.519    -0.542    -0.507  0.0380 -0.6935  0.7195
              Bcc     0.0059     3.131     1.117     1.044  0.9886 -0.0790 -0.1284
 
              Baa    -0.0030    -1.618    -0.577    -0.540 -0.1881 -0.6804  0.7083
    36 H(1)   Bbb    -0.0029    -1.525    -0.544    -0.509 -0.0723  0.7288  0.6809
              Bcc     0.0059     3.143     1.122     1.049  0.9795 -0.0769  0.1863
 
              Baa    -0.0023    -1.237    -0.441    -0.413 -0.0223  0.0210  0.9995
    37 H(1)   Bbb    -0.0022    -1.194    -0.426    -0.398  0.3273  0.9448 -0.0125
              Bcc     0.0046     2.431     0.867     0.811  0.9447 -0.3268  0.0279
 
              Baa    -0.0041    -0.544    -0.194    -0.181 -0.1449  0.0527  0.9880
    38 C(13)  Bbb    -0.0035    -0.466    -0.166    -0.155  0.9792 -0.1358  0.1508
              Bcc     0.0075     1.010     0.360     0.337  0.1421  0.9893 -0.0320
 
              Baa    -0.0028    -1.496    -0.534    -0.499  0.4746 -0.1743  0.8628
    39 H(1)   Bbb    -0.0027    -1.437    -0.513    -0.479  0.8716 -0.0434 -0.4883
              Bcc     0.0055     2.933     1.046     0.978  0.1225  0.9837  0.1314
 
              Baa    -0.0032    -1.713    -0.611    -0.571 -0.4046  0.1605  0.9003
    40 H(1)   Bbb    -0.0031    -1.642    -0.586    -0.548  0.9139  0.0369  0.4042
              Bcc     0.0063     3.355     1.197     1.119  0.0317  0.9863 -0.1616
 
              Baa    -0.0025    -1.311    -0.468    -0.437 -0.0990  0.1307  0.9865
    41 H(1)   Bbb    -0.0023    -1.225    -0.437    -0.409  0.9511 -0.2792  0.1325
              Bcc     0.0048     2.536     0.905     0.846  0.2927  0.9513 -0.0966
 
              Baa    -0.0067    -0.906    -0.323    -0.302  0.2810 -0.3960  0.8742
    42 C(13)  Bbb    -0.0023    -0.310    -0.110    -0.103 -0.5845  0.6518  0.4832
              Bcc     0.0091     1.215     0.434     0.405  0.7612  0.6467  0.0483
 
              Baa    -0.0032    -1.698    -0.606    -0.567  0.2935 -0.2288  0.9282
    43 H(1)   Bbb    -0.0031    -1.643    -0.586    -0.548 -0.5029  0.7887  0.3535
              Bcc     0.0063     3.342     1.192     1.115  0.8130  0.5706 -0.1164
 
              Baa    -0.0050    -0.677    -0.241    -0.226  0.6756 -0.5283 -0.5142
    44 C(13)  Bbb     0.0006     0.082     0.029     0.027  0.7356  0.4370  0.5175
              Bcc     0.0044     0.594     0.212     0.198  0.0487  0.7279 -0.6839
 
              Baa    -0.0020    -1.059    -0.378    -0.353  0.2773 -0.3443  0.8970
    45 H(1)   Bbb    -0.0016    -0.847    -0.302    -0.283  0.8176 -0.4058 -0.4085
              Bcc     0.0036     1.906     0.680     0.636  0.5046  0.8466  0.1690
 
              Baa    -0.0016    -0.866    -0.309    -0.289 -0.5066  0.5538  0.6608
    46 H(1)   Bbb    -0.0014    -0.733    -0.262    -0.245  0.4310 -0.5011  0.7504
              Bcc     0.0030     1.599     0.571     0.533  0.7467  0.6649  0.0151
 
              Baa    -0.0038    -0.508    -0.181    -0.169  0.1638  0.9650  0.2046
    47 C(13)  Bbb    -0.0034    -0.455    -0.162    -0.152 -0.0109 -0.2056  0.9786
              Bcc     0.0072     0.963     0.344     0.321  0.9864 -0.1625 -0.0232
 
              Baa    -0.0028    -1.506    -0.537    -0.502  0.1820  0.9234 -0.3380
    48 H(1)   Bbb    -0.0026    -1.401    -0.500    -0.467 -0.0963  0.3588  0.9284
              Bcc     0.0054     2.907     1.037     0.970  0.9786 -0.1364  0.1542
 
              Baa    -0.0031    -1.677    -0.598    -0.559  0.1428  0.3982  0.9061
    49 H(1)   Bbb    -0.0030    -1.592    -0.568    -0.531 -0.0227  0.9166 -0.3992
              Bcc     0.0061     3.269     1.166     1.090  0.9895 -0.0364 -0.1400
 
              Baa    -0.0024    -1.277    -0.456    -0.426  0.2091  0.7607 -0.6145
    50 H(1)   Bbb    -0.0023    -1.208    -0.431    -0.403  0.2587  0.5630  0.7850
              Bcc     0.0047     2.486     0.887     0.829  0.9431 -0.3231 -0.0791
 
              Baa    -0.0049    -0.658    -0.235    -0.219  0.6284  0.5520  0.5481
    51 C(13)  Bbb    -0.0008    -0.104    -0.037    -0.035 -0.3369 -0.4420  0.8314
              Bcc     0.0057     0.761     0.272     0.254 -0.7012  0.7071  0.0917
 
              Baa    -0.0030    -1.599    -0.570    -0.533 -0.0487 -0.1867  0.9812
    52 H(1)   Bbb    -0.0028    -1.506    -0.538    -0.502  0.8144  0.5613  0.1473
              Bcc     0.0058     3.105     1.108     1.036 -0.5782  0.8063  0.1247
 
              Baa    -0.0082    -1.104    -0.394    -0.368 -0.5347 -0.2584  0.8045
    53 C(13)  Bbb     0.0012     0.167     0.060     0.056  0.4789  0.6918  0.5405
              Bcc     0.0070     0.937     0.334     0.312  0.6962 -0.6743  0.2462
 
              Baa    -0.0023    -1.209    -0.431    -0.403  0.4959  0.8102  0.3125
    54 H(1)   Bbb    -0.0018    -0.942    -0.336    -0.314 -0.3069 -0.1732  0.9359
              Bcc     0.0040     2.151     0.767     0.717  0.8123 -0.5600  0.1628
 
              Baa    -0.0013    -0.716    -0.256    -0.239 -0.5352 -0.5471  0.6436
    55 H(1)   Bbb    -0.0011    -0.585    -0.209    -0.195  0.3473  0.5520  0.7581
              Bcc     0.0024     1.301     0.464     0.434  0.7700 -0.6293  0.1054
 
              Baa    -0.0039    -0.529    -0.189    -0.176 -0.0194 -0.0332  0.9993
    56 C(13)  Bbb    -0.0035    -0.464    -0.165    -0.155  0.9912 -0.1316  0.0149
              Bcc     0.0074     0.992     0.354     0.331  0.1310  0.9907  0.0355
 
              Baa    -0.0030    -1.587    -0.566    -0.529 -0.4607  0.1366  0.8770
    57 H(1)   Bbb    -0.0029    -1.536    -0.548    -0.512  0.8847 -0.0085  0.4661
              Bcc     0.0059     3.123     1.114     1.042  0.0711  0.9906 -0.1169
 
              Baa    -0.0030    -1.596    -0.569    -0.532  0.4139 -0.2052  0.8869
    58 H(1)   Bbb    -0.0029    -1.535    -0.548    -0.512  0.9078  0.0203 -0.4189
              Bcc     0.0059     3.131     1.117     1.044  0.0680  0.9785  0.1947
 
              Baa    -0.0024    -1.274    -0.455    -0.425 -0.0085 -0.0385  0.9992
    59 H(1)   Bbb    -0.0023    -1.202    -0.429    -0.401  0.9564 -0.2920 -0.0031
              Bcc     0.0046     2.476     0.883     0.826  0.2918  0.9557  0.0393
 
              Baa    -0.0038    -0.512    -0.183    -0.171 -0.0257 -0.0202  0.9995
    60 C(13)  Bbb    -0.0036    -0.479    -0.171    -0.160 -0.6661  0.7459 -0.0021
              Bcc     0.0074     0.991     0.354     0.331  0.7454  0.6658  0.0326
 
              Baa    -0.0024    -1.288    -0.460    -0.430 -0.0184 -0.0298  0.9994
    61 H(1)   Bbb    -0.0024    -1.256    -0.448    -0.419  0.7844 -0.6202 -0.0041
              Bcc     0.0048     2.544     0.908     0.848  0.6200  0.7839  0.0347
 
              Baa    -0.0031    -1.630    -0.582    -0.544 -0.4154  0.2491  0.8748
    62 H(1)   Bbb    -0.0029    -1.539    -0.549    -0.513 -0.4770  0.7593 -0.4427
              Bcc     0.0059     3.169     1.131     1.057  0.7745  0.6012  0.1966
 
              Baa    -0.0031    -1.631    -0.582    -0.544  0.3766 -0.3087  0.8734
    63 H(1)   Bbb    -0.0029    -1.544    -0.551    -0.515 -0.4936  0.7310  0.4712
              Bcc     0.0060     3.176     1.133     1.059  0.7839  0.6086 -0.1229
 
              Baa    -0.0153    -2.053    -0.732    -0.685  0.8683 -0.3050  0.3912
    64 C(13)  Bbb    -0.0131    -1.758    -0.627    -0.587  0.2525  0.9506  0.1807
              Bcc     0.0284     3.811     1.360     1.271 -0.4270 -0.0581  0.9024
 
              Baa    -0.0150    -8.018    -2.861    -2.675 -0.1685  0.9707  0.1710
    65 H(1)   Bbb    -0.0146    -7.769    -2.772    -2.591  0.7302  0.0064  0.6832
              Bcc     0.0296    15.787     5.633     5.266 -0.6622 -0.2400  0.7099
 
              Baa    -0.0122    -6.516    -2.325    -2.173  0.3047  0.9502 -0.0657
    66 H(1)   Bbb    -0.0110    -5.845    -2.086    -1.950  0.7671 -0.2040  0.6082
              Bcc     0.0232    12.361     4.411     4.123 -0.5645  0.2357  0.7911
 
              Baa    -0.0076    -4.043    -1.443    -1.349 -0.0471  0.9942  0.0970
    67 H(1)   Bbb    -0.0062    -3.333    -1.189    -1.112  0.9173  0.0046  0.3983
              Bcc     0.0138     7.377     2.632     2.461 -0.3955 -0.1077  0.9121
 
              Baa    -0.1947    -7.984    -2.849    -2.663  0.8962 -0.4089 -0.1722
    68 S(33)  Bbb    -0.1851    -7.589    -2.708    -2.531  0.4142  0.9102 -0.0058
              Bcc     0.3798    15.573     5.557     5.195  0.1591 -0.0661  0.9850
 
              Baa    -0.0265   -14.147    -5.048    -4.719  0.9823  0.1826 -0.0417
    69 H(1)   Bbb    -0.0210   -11.225    -4.006    -3.744 -0.1368  0.8516  0.5060
              Bcc     0.0476    25.373     9.054     8.463  0.1279 -0.4913  0.8615
 

 ---------------------------------------------------------------------------------

 Unable to Open any file for archive entry.
 1\1\GINC-BGN1029\SP\UAPFD\Gen\C31H32Fe1N4S1(5)\BECSLEIP\22-Aug-2024\0\
 \# apfd/gen scf=maxcycle=999 geom=check\\2d0e_II_Q\\0,5\Fe,0,-26.72289
 1648,-30.7849559799,110.7041418162\N,0,-26.5685574588,-30.8038090578,1
 12.6792348065\N,0,-28.6589840089,-31.2329999369,110.8148490699\N,0,-26
 .842083876,-30.8520190683,108.6927911871\N,0,-24.7577531727,-30.448576
 8358,110.5461810018\C,0,-25.4477712648,-30.6031663351,113.4247196911\C
 ,0,-25.7458454364,-30.696905143,114.8353630325\C,0,-27.0771749607,-30.
 9585303905,114.9276216258\C,0,-27.5729955148,-31.0273012054,113.571477
 4845\C,0,-29.3802508685,-31.4084193769,111.9582989805\C,0,-30.75102945
 94,-31.7360506988,111.6579778217\C,0,-30.8517303706,-31.7500758363,110
 .2938410623\C,0,-29.5302296197,-31.4303869676,109.791567525\C,0,-27.95
 90935237,-31.0861833814,107.94653318\C,0,-27.6625376867,-31.026622713,
 106.5389699697\C,0,-26.3234043524,-30.7608200467,106.4394284337\C,0,-2
 5.8341767102,-30.6625436366,107.7991042387\C,0,-24.0205291758,-30.3276
 033696,109.4074577261\C,0,-22.6293705565,-30.0905416387,109.7167590458
 \C,0,-22.5382737639,-30.0641968139,111.0733645817\C,0,-23.8738173705,-
 30.2932108643,111.573863593\C,0,-24.1875531658,-30.3512597092,112.9178
 448585\H,0,-23.3841506131,-30.2109326427,113.6238833568\C,0,-28.884131
 4811,-31.3038635436,113.2444725285\H,0,-29.5754874969,-31.4572548184,1
 14.0582407904\C,0,-29.2184706079,-31.3456535658,108.451376843\H,0,-30.
 0171676849,-31.4968495993,107.742571316\C,0,-24.51472082,-30.415866592
 ,108.122135056\H,0,-23.8151667926,-30.285629843,107.3117524345\C,0,-27
 .9193163797,-31.1577946641,116.1398001922\H,0,-27.3326681998,-31.02004
 80391,117.0444894326\H,0,-28.338317303,-32.1641235684,116.1527577521\H
 ,0,-28.7455460403,-30.447003554,116.153973542\C,0,-24.7368447002,-30.5
 277342392,115.9179812127\H,0,-24.2831488279,-29.5374102703,115.8688726
 84\H,0,-23.9435245203,-31.2687168155,115.8201897669\H,0,-25.1962791417
 ,-30.646079871,116.895906479\C,0,-31.7924080321,-32.0664096897,112.668
 2959202\H,0,-32.1990017626,-31.1591757435,113.1175139018\H,0,-31.37483
 48554,-32.6802559111,113.4649277978\H,0,-32.6069574101,-32.6129277077,
 112.1981846885\C,0,-32.000639592,-32.043362166,109.4639011996\H,0,-31.
 790159183,-32.5708554984,108.5410164232\C,0,-33.2552800025,-31.7133172
 312,109.7494582188\H,0,-33.5119286814,-31.1484785417,110.6286622025\H,
 0,-34.0697045149,-31.9745713553,109.0945920885\C,0,-28.6363975888,-31.
 2966897737,105.4471564964\H,0,-29.2500966742,-30.4167588596,105.248382
 1982\H,0,-29.2999976305,-32.1167898754,105.7168900362\H,0,-28.10809293
 89,-31.5626737628,104.5340187486\C,0,-25.5035500044,-30.6238963274,105
 .2550577746\H,0,-24.4867752726,-30.9879357489,105.3434161492\C,0,-25.9
 012245915,-30.0945533696,104.1032065466\H,0,-26.8838433257,-29.6756733
 643,103.973950756\H,0,-25.2423077751,-30.0380828465,103.2528283718\C,0
 ,-21.5603130838,-29.9200806772,108.6939927868\H,0,-21.7804211483,-29.0
 717756538,108.0454205155\H,0,-21.4826034135,-30.8111472636,108.0710536
 01\H,0,-20.5969032691,-29.7489966487,109.1674827006\C,0,-21.3421809686
 ,-29.8584643519,111.937009891\H,0,-20.4546872076,-29.6899129971,111.33
 25602791\H,0,-21.168800423,-30.7329773339,112.5642641458\H,0,-21.48190
 93892,-28.9962024377,112.589557484\C,0,-26.3837151026,-27.650344131,11
 2.0107732641\H,0,-25.3839831936,-28.0472258804,112.151477862\H,0,-26.9
 892377152,-27.8582925933,112.8867601966\H,0,-26.3628046148,-26.5829317
 911,111.8150384181\S,0,-27.1914370635,-28.499128161,110.6054142639\H,0
 ,-26.2718089974,-28.1299716741,109.703940954\\Version=ES64L-G16RevC.02
 \State=5-A\HF=-3080.2415763\S2=6.060787\S2-1=0.\S2A=6.000298\RMSD=2.60
 5e-09\Dipole=0.4765903,0.6699036,0.5677336\Quadrupole=5.3184874,-10.87
 48233,5.5563358,5.3202522,-0.1520657,1.6429589\PG=C01 [X(C31H32Fe1N4S1
 )]\\@
 The archive entry for this job was punched.


 THE BEST WAY TO CONVINCE A FOOL THAT HE IS WRONG 
 IS TO LET HIM HAVE HIS OWN WAY.

                                         JOSH BILLINGS
 Job cpu time:       0 days  2 hours 54 minutes 17.9 seconds.
 Elapsed time:       0 days  0 hours  3 minutes  2.6 seconds.
 File lengths (MBytes):  RWF=    343 Int=      0 D2E=      0 Chk=    150 Scr=      1
 Normal termination of Gaussian 16 at Thu Aug 22 19:30:02 2024.
