 Entering Gaussian System, Link 0=g16
 Input=2gdm16re.com
 Output=2gdm16re.log
 Initial command:
 /sw/chem/gaussian/g16_C02/a100/g16/l1.exe "/local/becsleip_7994889/Gau-2329890.inp" -scrdir="/local/becsleip_7994889/"
 Entering Link 1 = /sw/chem/gaussian/g16_C02/a100/g16/l1.exe PID=   2329891.
  
 Copyright (c) 1988-2021, Gaussian, Inc.  All Rights Reserved.
  
 This is part of the Gaussian(R) 16 program.  It is based on
 the Gaussian(R) 09 system (copyright 2009, Gaussian, Inc.),
 the Gaussian(R) 03 system (copyright 2003, Gaussian, Inc.),
 the Gaussian(R) 98 system (copyright 1998, Gaussian, Inc.),
 the Gaussian(R) 94 system (copyright 1995, Gaussian, Inc.),
 the Gaussian 92(TM) system (copyright 1992, Gaussian, Inc.),
 the Gaussian 90(TM) system (copyright 1990, Gaussian, Inc.),
 the Gaussian 88(TM) system (copyright 1988, Gaussian, Inc.),
 the Gaussian 86(TM) system (copyright 1986, Carnegie Mellon
 University), and the Gaussian 82(TM) system (copyright 1983,
 Carnegie Mellon University). Gaussian is a federally registered
 trademark of Gaussian, Inc.
  
 This software contains proprietary and confidential information,
 including trade secrets, belonging to Gaussian, Inc.
  
 This software is provided under written license and may be
 used, copied, transmitted, or stored only in accord with that
 written license.
  
 The following legend is applicable only to US Government
 contracts under FAR:
  
                    RESTRICTED RIGHTS LEGEND
  
 Use, reproduction and disclosure by the US Government is
 subject to restrictions as set forth in subparagraphs (a)
 and (c) of the Commercial Computer Software - Restricted
 Rights clause in FAR 52.227-19.
  
 Gaussian, Inc.
 340 Quinnipiac St., Bldg. 40, Wallingford CT 06492
  
  
 ---------------------------------------------------------------
 Warning -- This program may not be used in any manner that
 competes with the business of Gaussian, Inc. or will provide
 assistance to any competitor of Gaussian, Inc.  The licensee
 of this program is prohibited from giving any competitor of
 Gaussian, Inc. access to this program.  By using this program,
 the user acknowledges that Gaussian, Inc. is engaged in the
 business of creating and licensing software in the field of
 computational chemistry and represents and warrants to the
 licensee that it is not a competitor of Gaussian, Inc. and that
 it will not use this program in any manner prohibited above.
 ---------------------------------------------------------------
  

 Cite this work as:
 Gaussian 16, Revision C.02,
 M. J. Frisch, G. W. Trucks, H. B. Schlegel, G. E. Scuseria, 
 M. A. Robb, J. R. Cheeseman, G. Scalmani, V. Barone, 
 G. A. Petersson, H. Nakatsuji, X. Li, M. Caricato, A. V. Marenich, 
 J. Bloino, B. G. Janesko, R. Gomperts, B. Mennucci, H. P. Hratchian, 
 J. V. Ortiz, A. F. Izmaylov, J. L. Sonnenberg, D. Williams-Young, 
 F. Ding, F. Lipparini, F. Egidi, J. Goings, B. Peng, A. Petrone, 
 T. Henderson, D. Ranasinghe, V. G. Zakrzewski, J. Gao, N. Rega, 
 G. Zheng, W. Liang, M. Hada, M. Ehara, K. Toyota, R. Fukuda, 
 J. Hasegawa, M. Ishida, T. Nakajima, Y. Honda, O. Kitao, H. Nakai, 
 T. Vreven, K. Throssell, J. A. Montgomery, Jr., J. E. Peralta, 
 F. Ogliaro, M. J. Bearpark, J. J. Heyd, E. N. Brothers, K. N. Kudin, 
 V. N. Staroverov, T. A. Keith, R. Kobayashi, J. Normand, 
 K. Raghavachari, A. P. Rendell, J. C. Burant, S. S. Iyengar, 
 J. Tomasi, M. Cossi, J. M. Millam, M. Klene, C. Adamo, R. Cammi, 
 J. W. Ochterski, R. L. Martin, K. Morokuma, O. Farkas, 
 J. B. Foresman, and D. J. Fox, Gaussian, Inc., Wallingford CT, 2019.
 
 ******************************************
 Gaussian 16:  ES64L-G16RevC.02  7-Dec-2021
                27-Aug-2024 
 ******************************************
 %mem=16GB
 %CPU=0-71
 SetSPE:  set environment variable "OMP_PROC_BIND" = "true"
 SetSPE:  set environment variable "OMP_PLACES" = "{0},{1},{2},{3},{4},{5},{6},{7},{8},{9},{10},{11},{12},{13},{14},{15},{16},{17},{18},{19},{20},{21},{22},{23},{24},{25},{26},{27},{28},{29},{30},{31},{32},{33},{34},{35},{36},{37},{38},{39},{40},{41},{42},{43},{44},{45},{46},{47},{48},{49},{50},{51},{52},{53},{54},{55},{56},{57},{58},{59},{60},{61},{62},{63},{64},{65},{66},{67},{68},{69},{70},{71}"
 Will use up to   72 processors via shared memory.
 %gpucpu=0,1,2,3=0,1,2,3
 Will use    4 GPUs:
 Thread  CPU   GPU
      0    0     0
      1    1     1
      2    2     2
      3    3     3
      4    4    -1
      5    5    -1
      6    6    -1
      7    7    -1
      8    8    -1
      9    9    -1
     10   10    -1
     11   11    -1
     12   12    -1
     13   13    -1
     14   14    -1
     15   15    -1
     16   16    -1
     17   17    -1
     18   18    -1
     19   19    -1
     20   20    -1
     21   21    -1
     22   22    -1
     23   23    -1
     24   24    -1
     25   25    -1
     26   26    -1
     27   27    -1
     28   28    -1
     29   29    -1
     30   30    -1
     31   31    -1
     32   32    -1
     33   33    -1
     34   34    -1
     35   35    -1
     36   36    -1
     37   37    -1
     38   38    -1
     39   39    -1
     40   40    -1
     41   41    -1
     42   42    -1
     43   43    -1
     44   44    -1
     45   45    -1
     46   46    -1
     47   47    -1
     48   48    -1
     49   49    -1
     50   50    -1
     51   51    -1
     52   52    -1
     53   53    -1
     54   54    -1
     55   55    -1
     56   56    -1
     57   57    -1
     58   58    -1
     59   59    -1
     60   60    -1
     61   61    -1
     62   62    -1
     63   63    -1
     64   64    -1
     65   65    -1
     66   66    -1
     67   67    -1
     68   68    -1
     69   69    -1
     70   70    -1
     71   71    -1
 SetGPE:  set environment variable "OMP_PROC_BIND" = "true"
 SetGPE:  set environment variable "OMP_PLACES" = "{0},{1},{2},{3},{4},{5},{6},{7},{8},{9},{10},{11},{12},{13},{14},{15},{16},{17},{18},{19},{20},{21},{22},{23},{24},{25},{26},{27},{28},{29},{30},{31},{32},{33},{34},{35},{36},{37},{38},{39},{40},{41},{42},{43},{44},{45},{46},{47},{48},{49},{50},{51},{52},{53},{54},{55},{56},{57},{58},{59},{60},{61},{62},{63},{64},{65},{66},{67},{68},{69},{70},{71}"
 %oldchk=2gdm_III_D.chk
 %chk=2gdm_III_Dre.chk
 Properties for Device   0
 Minimum vector length:                              32
 Maximum vector length:                            1024
 Number of SMPs:                                    108
 Maximum number of threads per SMP:                2048
 Number of ASync Engines:                             5
 Memory:                                           9207742464
 Properties for Device   1
 Minimum vector length:                              32
 Maximum vector length:                            1024
 Number of SMPs:                                    108
 Maximum number of threads per SMP:                2048
 Number of ASync Engines:                             5
 Memory:                                           9207742464
 Properties for Device   2
 Minimum vector length:                              32
 Maximum vector length:                            1024
 Number of SMPs:                                    108
 Maximum number of threads per SMP:                2048
 Number of ASync Engines:                             5
 Memory:                                           9207742464
 Properties for Device   3
 Minimum vector length:                              32
 Maximum vector length:                            1024
 Number of SMPs:                                    108
 Maximum number of threads per SMP:                2048
 Number of ASync Engines:                             5
 Memory:                                           9207742464
   8286968217 words of memory will be used on each GPU.
 Copying data from "2gdm_III_D.chk" to current chk file "2gdm_III_Dre.chk"
 IOpt=  2 FromEx=T IUOpen= 4 IOptOp= 5 NList=   0 IFRang= 0 IUIn= 4 IUOut= 2.
 --------------------------------------
 # apfd/gen scf=maxcycle=999 geom=check
 --------------------------------------
 1/29=2,38=1,172=1/1;
 2/12=2,40=1/2;
 3/5=7,11=2,14=-4,25=1,30=1,74=-44/1,2,3;
 4//1;
 5/5=2,7=999,38=5/2;
 6/7=2,8=2,9=2,10=2,28=1/1;
 99/5=1,9=1/99;
 ----------
 2gdm_III_H
 ----------
 Structure from the checkpoint file:  "2gdm_III_Dre.chk"
 Charge =  1 Multiplicity = 6
 Z-Matrix found in chk file.
 Fe,0,37.8199467913,-29.5565627832,27.9091663681
 N,0,37.7764991027,-27.5948477081,27.5212283829
 N,0,38.9809816242,-29.2410281057,29.5359999475
 N,0,37.7684083938,-31.5137059829,28.3914174152
 N,0,36.6807499184,-29.8961285209,26.2995413168
 C,0,37.0839426664,-26.9723182844,26.5337254537
 C,0,37.4038976726,-25.5616916602,26.5139467964
 C,0,38.2958588454,-25.3545965164,27.5211915791
 C,0,38.4915509958,-26.6355877616,28.1650391369
 C,0,39.5149310368,-28.0461484701,29.8979512567
 C,0,40.225913944,-28.1703503258,31.1453960988
 C,0,39.9876656738,-29.4429825279,31.5977908678
 C,0,39.2201972685,-30.1014975935,30.5575462222
 C,0,38.1966535728,-32.0926213416,29.5446472027
 C,0,37.9766502987,-33.5159831181,29.5029569412
 C,0,37.3804458214,-33.7802949383,28.2972530419
 C,0,37.2276960325,-32.4991838033,27.6354307829
 C,0,36.3034334211,-31.1116725485,25.8311440077
 C,0,35.5265948561,-30.961843183,24.6178730951
 C,0,35.4006463253,-29.6242119784,24.406619392
 C,0,36.1160444867,-28.9711655508,25.4843274043
 C,0,36.2791041831,-27.6017921835,25.5978554012
 H,0,35.7901702377,-26.979067939,24.8639281231
 C,0,39.3861958007,-26.8559749796,29.1951511956
 H,0,39.921460224,-25.9986185087,29.5747024525
 C,0,38.843339497,-31.4321735917,30.5775467697
 H,0,39.1084760203,-32.0134459659,31.4477070697
 C,0,36.6186792514,-32.3298377196,26.4032111362
 H,0,36.2877103867,-33.2174032829,25.8863507534
 C,0,38.9681085947,-24.0929295911,27.9413725183
 H,0,38.6272652721,-23.2541992765,27.3399439793
 H,0,40.0480023865,-24.1814090093,27.8244262492
 H,0,38.7577226666,-23.8742143972,28.9884093146
 C,0,36.8448786406,-24.5888075799,25.5340134541
 H,0,35.755349091,-24.6033941565,25.5575674087
 H,0,37.1650740481,-24.8421199423,24.5234948389
 H,0,37.1807382917,-23.579075303,25.7557533009
 C,0,41.0412176736,-27.0971536491,31.7770636342
 H,0,40.411503329,-26.3925960241,32.3234487126
 H,0,41.5910920505,-26.5418438476,31.0193319121
 H,0,41.7525862426,-27.5337451618,32.4747196402
 C,0,40.4399233675,-30.0788539156,32.8162288828
 H,0,40.6465701614,-31.139524312,32.7421487306
 C,0,40.6025690627,-29.4710295603,33.9867346286
 H,0,40.3706393551,-28.4301159302,34.1305119713
 H,0,40.9545458591,-30.0049990497,34.853474441
 C,0,38.2931329422,-34.4630258905,30.6064124088
 H,0,38.088930813,-34.0097542223,31.5753950092
 H,0,39.346226721,-34.7459227545,30.5809993332
 H,0,37.6929393235,-35.365248279,30.5078850608
 C,0,36.9394277052,-35.047610585,27.7555942205
 H,0,36.0522414864,-35.0091515428,27.1345495858
 C,0,37.53836341,-36.2171219081,27.9526624264
 H,0,38.4505520448,-36.3053753487,28.5158348886
 H,0,37.151175837,-37.1265062809,27.524254948
 C,0,35.000582833,-32.100203063,23.8145327518
 H,0,34.3187090138,-32.7092508383,24.4087942315
 H,0,35.8202151129,-32.7356201661,23.4809285735
 H,0,34.4655398128,-31.7415084083,22.9389590762
 C,0,34.6944666359,-28.9018711586,23.312081805
 H,0,33.9475087237,-28.2212001536,23.7207824951
 H,0,34.195344013,-29.6009405584,22.6460609903
 H,0,35.4025745312,-28.3158904818,22.726440568
 O,0,39.2470534517,-29.7148168523,27.0390515138
 O,0,39.340168216,-30.6239442076,26.1449670249
 C,0,32.6583804928,-30.0332971336,30.6267891628
 H,0,32.311203617,-30.8266256276,29.9722753744
 H,0,31.9517278004,-29.2049321636,30.5775466826
 H,0,32.6741992333,-30.4070493296,31.6504652961
 N,0,34.6980832853,-28.5968241634,30.8479650851
 H,0,34.3673202038,-28.0782714913,31.6456877095
 C,0,34.0123788835,-29.5961749453,30.2051479433
 C,0,35.883812268,-28.446393522,30.2215541706
 H,0,36.631082488,-27.7343633982,30.506679304
 N,0,35.9928045316,-29.2842203549,29.2246938863
 C,0,34.8395119639,-30.0076956566,29.1985907051
 H,0,34.686712162,-30.7694419358,28.4621285391
 Recover connectivity data from disk.
 Stoichiometry    C34H34FeN6O2(1+,6)
 Framework group  C1[X(C34H34FeN6O2)]
 Deg. of freedom   225
 Full point group                 C1      NOp   1
 Largest Abelian subgroup         C1      NOp   1
 Largest concise Abelian subgroup C1      NOp   1
                         Standard orientation:                         
 ---------------------------------------------------------------------
 Center     Atomic      Atomic             Coordinates (Angstroms)
 Number     Number       Type             X           Y           Z
 ---------------------------------------------------------------------
      1         26           0        0.038819    0.242963   -0.470802
      2          7           0        1.235312    1.840793   -0.344110
      3          7           0        1.641331   -0.987360   -0.582208
      4          7           0       -1.146464   -1.388212   -0.468262
      5          7           0       -1.562341    1.439051   -0.372687
      6          6           0        0.857618    3.132520   -0.167678
      7          6           0        2.010376    4.003238   -0.242718
      8          6           0        3.087598    3.199022   -0.456854
      9          6           0        2.586869    1.841685   -0.482907
     10          6           0        2.934374   -0.583566   -0.676227
     11          6           0        3.818686   -1.721486   -0.663131
     12          6           0        3.030874   -2.816872   -0.417168
     13          6           0        1.664256   -2.330603   -0.391520
     14          6           0       -0.766362   -2.686217   -0.329761
     15          6           0       -1.916672   -3.552845   -0.372654
     16          6           0       -3.009569   -2.738433   -0.518771
     17          6           0       -2.499277   -1.381300   -0.538277
     18          6           0       -2.857415    1.048062   -0.468731
     19          6           0       -3.734201    2.199198   -0.404818
     20          6           0       -2.932756    3.280552   -0.209612
     21          6           0       -1.573301    2.780303   -0.172827
     22          6           0       -0.449268    3.578331   -0.052983
     23          1           0       -0.602646    4.638691    0.079695
     24          6           0        3.367736    0.733146   -0.750262
     25          1           0        4.426192    0.897201   -0.885850
     26          6           0        0.544370   -3.131048   -0.256385
     27          1           0        0.700899   -4.190897   -0.123822
     28          6           0       -3.297754   -0.252978   -0.623533
     29          1           0       -4.360408   -0.403564   -0.735542
     30          6           0        4.520967    3.568016   -0.628818
     31          1           0        4.659619    4.640811   -0.522774
     32          1           0        4.872453    3.273605   -1.617482
     33          1           0        5.140288    3.065369    0.114265
     34          6           0        1.949499    5.487011   -0.124451
     35          1           0        1.469692    5.778225    0.809799
     36          1           0        1.372987    5.909589   -0.947191
     37          1           0        2.946678    5.918948   -0.148820
     38          6           0        5.290670   -1.664755   -0.876485
     39          1           0        5.811649   -1.377975    0.038838
     40          1           0        5.535146   -0.935926   -1.647153
     41          1           0        5.658024   -2.639799   -1.189090
     42          6           0        3.414834   -4.204531   -0.274210
     43          1           0        2.698729   -4.928951   -0.642476
     44          6           0        4.546243   -4.637438    0.272136
     45          1           0        5.273732   -3.966315    0.694413
     46          1           0        4.773619   -5.688363    0.336204
     47          6           0       -1.878961   -5.032538   -0.218532
     48          1           0       -1.128302   -5.325935    0.513937
     49          1           0       -1.631723   -5.512311   -1.166358
     50          1           0       -2.849951   -5.398819    0.108518
     51          6           0       -4.409063   -3.096001   -0.605609
     52          1           0       -5.102000   -2.390071   -0.163143
     53          6           0       -4.887121   -4.192086   -1.184725
     54          1           0       -4.249814   -4.899529   -1.685129
     55          1           0       -5.943642   -4.401097   -1.207238
     56          6           0       -5.216303    2.130996   -0.533771
     57          1           0       -5.644544    1.515413    0.257877
     58          1           0       -5.490667    1.690998   -1.491878
     59          1           0       -5.656247    3.123104   -0.472667
     60          6           0       -3.300800    4.716195   -0.061454
     61          1           0       -2.921798    5.114524    0.879815
     62          1           0       -4.380176    4.842857   -0.079071
     63          1           0       -2.873109    5.302748   -0.874351
     64          8           0        0.094825    0.312113   -2.147363
     65          8           0       -0.995515    0.279834   -2.814211
     66          6           0       -1.150821   -0.422274    5.221011
     67          1           0       -2.225206   -0.411149    5.066532
     68          1           0       -0.889285    0.374900    5.916773
     69          1           0       -0.872992   -1.374040    5.673567
     70          7           0        0.908464   -0.198243    3.813206
     71          1           0        1.559851   -0.294498    4.575500
     72          6           0       -0.458631   -0.235360    3.921740
     73          6           0        1.210270   -0.016424    2.510583
     74          1           0        2.207239    0.052170    2.125818
     75          7           0        0.124223    0.064527    1.788424
     76          6           0       -0.923516   -0.069576    2.647749
     77          1           0       -1.932440   -0.038070    2.291292
 ---------------------------------------------------------------------
 Rotational constants (GHZ):           0.0906741           0.0886648           0.0593484
 General basis read from cards:  (5D, 7F)
 There are   734 symmetry adapted cartesian basis functions of A   symmetry.
 There are   689 symmetry adapted basis functions of A   symmetry.
   689 basis functions,  1398 primitive gaussians,   734 cartesian basis functions
   163 alpha electrons      158 beta electrons
       nuclear repulsion energy      6201.6511443509 Hartrees.
 NAtoms=   77 NActive=   77 NUniq=   77 SFac= 1.00D+00 NAtFMM=   60 NAOKFM=T Big=T
 Integral buffers will be    131072 words long.
 Raffenetti 2 integral format.
 Two-electron integral symmetry is turned on.
 R6APFD:  NTU= -4 IXU= 1 FactS= 1.050
 Nuclear repulsion after empirical dispersion term =     6201.4974754167 Hartrees.
 One-electron integrals computed using PRISM.
 NBasis=   689 RedAO= T EigKep=  2.66D-04  NBF=   689
 NBsUse=   689 1.00D-06 EigRej= -1.00D+00 NBFU=   689
 ExpMin= 4.20D-02 ExpMax= 3.01D+05 ExpMxC= 2.91D+03 IAcc=3 IRadAn=         5 AccDes= 0.00D+00
 Harris functional with IExCor= 3731 and IRadAn=       5 diagonalized for initial guess.
 HarFok:  IExCor= 3731 AccDes= 0.00D+00 IRadAn=         5 IDoV= 1 UseB2=F ITyADJ=14
 ICtDFT=  3500011 ScaDFX=  1.000000  1.000000  1.000000  1.000000
 FoFCou: FMM=F IPFlag=           0 FMFlag=      100000 FMFlg1=        2001
         NFxFlg=           0 DoJE=T BraDBF=F KetDBF=T FulRan=T
         wScrn=  0.000000 ICntrl=       500 IOpCl=  0 I1Cent=   200000004 NGrid=           0
         NMat0=    1 NMatS0=      1 NMatT0=    0 NMatD0=    1 NMtDS0=    0 NMtDT0=    0
 Petite list used in FoFCou.
 Initial guess <Sx>= 0.0000 <Sy>= 0.0000 <Sz>= 2.5000 <S**2>= 8.7500 S= 2.5000
 Requested convergence on RMS density matrix=1.00D-08 within 999 cycles.
 Requested convergence on MAX density matrix=1.00D-06.
 Requested convergence on             energy=1.00D-06.
 No special actions if energy rises.
 EnCoef did   100 forward-backward iterations
 EnCoef did   100 forward-backward iterations
 EnCoef did   100 forward-backward iterations
 EnCoef did   100 forward-backward iterations
 EnCoef did     2 forward-backward iterations
 EnCoef did     2 forward-backward iterations
 EnCoef did     5 forward-backward iterations
 EnCoef did     3 forward-backward iterations
 EnCoef did     7 forward-backward iterations
 Restarting incremental Fock formation.
 Rare condition: small coef for last iteration:  0.000D+00
 Rare condition: small coef for last iteration:  0.000D+00
 Rare condition: small coef for last iteration:  0.000D+00
 Rare condition: small coef for last iteration:  0.000D+00
 Rare condition: small coef for last iteration:  0.000D+00
 Restarting incremental Fock formation.
 Rare condition: small coef for last iteration:  0.000D+00
 Rare condition: small coef for last iteration:  0.000D+00
 Rare condition: small coef for last iteration:  0.000D+00
 Rare condition: small coef for last iteration:  0.000D+00
 Rare condition: small coef for last iteration:  0.000D+00
 Rare condition: small coef for last iteration:  0.000D+00
 Rare condition: small coef for last iteration:  0.000D+00
 Rare condition: small coef for last iteration:  0.000D+00
 Rare condition: small coef for last iteration:  0.000D+00
 Rare condition: small coef for last iteration:  0.000D+00
 Rare condition: small coef for last iteration:  0.000D+00
 Restarting incremental Fock formation.
 Rare condition: small coef for last iteration:  0.000D+00
 Rare condition: small coef for last iteration:  0.000D+00
 Rare condition: small coef for last iteration:  0.000D+00
 Rare condition: small coef for last iteration:  0.000D+00
 Rare condition: small coef for last iteration:  0.000D+00
 Rare condition: small coef for last iteration:  0.000D+00
 Rare condition: small coef for last iteration:  0.000D+00
 Rare condition: small coef for last iteration:  0.000D+00
 Rare condition: small coef for last iteration:  0.000D+00
 Rare condition: small coef for last iteration:  0.000D+00
 Rare condition: small coef for last iteration:  0.000D+00
 Restarting incremental Fock formation.
 Rare condition: small coef for last iteration:  0.000D+00
 Rare condition: small coef for last iteration:  0.000D+00
 Rare condition: small coef for last iteration:  0.000D+00
 Rare condition: small coef for last iteration:  0.000D+00
 Rare condition: small coef for last iteration:  0.000D+00
 Rare condition: small coef for last iteration:  0.000D+00
 Rare condition: small coef for last iteration:  0.000D+00
 Restarting incremental Fock formation.
 Rare condition: small coef for last iteration:  0.000D+00
 Rare condition: small coef for last iteration:  0.000D+00
 Rare condition: small coef for last iteration:  0.000D+00
 Rare condition: small coef for last iteration:  0.000D+00
 Rare condition: small coef for last iteration:  0.000D+00
 Rare condition: small coef for last iteration:  0.000D+00
 Rare condition: small coef for last iteration:  0.000D+00
 Rare condition: small coef for last iteration:  0.000D+00
 Rare condition: small coef for last iteration:  0.000D+00
 Rare condition: small coef for last iteration:  0.000D+00
 Rare condition: small coef for last iteration:  0.000D+00
 Rare condition: small coef for last iteration:  0.000D+00
 Rare condition: small coef for last iteration:  0.000D+00
 Rare condition: small coef for last iteration:  0.000D+00
 Restarting incremental Fock formation.
 Rare condition: small coef for last iteration:  0.000D+00
 Rare condition: small coef for last iteration:  0.000D+00
 Rare condition: small coef for last iteration:  0.000D+00
 Rare condition: small coef for last iteration:  0.000D+00
 Rare condition: small coef for last iteration:  0.000D+00
 Rare condition: small coef for last iteration:  0.000D+00
 Rare condition: small coef for last iteration:  0.000D+00
 Rare condition: small coef for last iteration:  0.000D+00
 Rare condition: small coef for last iteration:  0.000D+00
 Restarting incremental Fock formation.
 Rare condition: small coef for last iteration:  0.000D+00
 Rare condition: small coef for last iteration:  0.000D+00
 Rare condition: small coef for last iteration:  0.000D+00
 Rare condition: small coef for last iteration:  0.000D+00
 Rare condition: small coef for last iteration:  0.000D+00
 Rare condition: small coef for last iteration:  0.000D+00
 Rare condition: small coef for last iteration:  0.000D+00
 Rare condition: small coef for last iteration:  0.000D+00
 Restarting incremental Fock formation.
 Rare condition: small coef for last iteration:  0.000D+00
 Rare condition: small coef for last iteration:  0.000D+00
 Rare condition: small coef for last iteration:  0.000D+00
 Rare condition: small coef for last iteration:  0.000D+00
 Rare condition: small coef for last iteration:  0.000D+00
 Rare condition: small coef for last iteration:  0.000D+00
 Rare condition: small coef for last iteration:  0.000D+00
 Rare condition: small coef for last iteration:  0.000D+00
 Rare condition: small coef for last iteration:  0.000D+00
 Restarting incremental Fock formation.
 Rare condition: small coef for last iteration:  0.000D+00
 Rare condition: small coef for last iteration:  0.000D+00
 Rare condition: small coef for last iteration:  0.000D+00
 Rare condition: small coef for last iteration:  0.000D+00
 Rare condition: small coef for last iteration:  0.000D+00
 Rare condition: small coef for last iteration:  0.000D+00
 Rare condition: small coef for last iteration:  0.000D+00
 Rare condition: small coef for last iteration:  0.000D+00
 Rare condition: small coef for last iteration:  0.000D+00
 Restarting incremental Fock formation.
 Rare condition: small coef for last iteration:  0.000D+00
 Rare condition: small coef for last iteration:  0.000D+00
 Rare condition: small coef for last iteration:  0.000D+00
 Rare condition: small coef for last iteration:  0.000D+00
 Rare condition: small coef for last iteration:  0.000D+00
 Rare condition: small coef for last iteration:  0.000D+00
 Restarting incremental Fock formation.
 SCF Done:  E(UAPFD) =  -3056.94227990     A.U. after  238 cycles
            NFock=238  Conv=0.44D-08     -V/T= 2.0037
 <Sx>= 0.0000 <Sy>= 0.0000 <Sz>= 2.5000 <S**2>= 8.8879 S= 2.5229
 <L.S>=  0.00000000000    
 Annihilation of the first spin contaminant:
 S**2 before annihilation     8.8879,   after     8.7534

 **********************************************************************

            Population analysis using the SCF Density.

 **********************************************************************

 Orbital symmetries:
 Alpha Orbitals:
       Occupied  (A) (A) (A) (A) (A) (A) (A) (A) (A) (A) (A) (A)
                 (A) (A) (A) (A) (A) (A) (A) (A) (A) (A) (A) (A)
                 (A) (A) (A) (A) (A) (A) (A) (A) (A) (A) (A) (A)
                 (A) (A) (A) (A) (A) (A) (A) (A) (A) (A) (A) (A)
                 (A) (A) (A) (A) (A) (A) (A) (A) (A) (A) (A) (A)
                 (A) (A) (A) (A) (A) (A) (A) (A) (A) (A) (A) (A)
                 (A) (A) (A) (A) (A) (A) (A) (A) (A) (A) (A) (A)
                 (A) (A) (A) (A) (A) (A) (A) (A) (A) (A) (A) (A)
                 (A) (A) (A) (A) (A) (A) (A) (A) (A) (A) (A) (A)
                 (A) (A) (A) (A) (A) (A) (A) (A) (A) (A) (A) (A)
                 (A) (A) (A) (A) (A) (A) (A) (A) (A) (A) (A) (A)
                 (A) (A) (A) (A) (A) (A) (A) (A) (A) (A) (A) (A)
                 (A) (A) (A) (A) (A) (A) (A) (A) (A) (A) (A) (A)
                 (A) (A) (A) (A) (A) (A) (A)
       Virtual   (A) (A) (A) (A) (A) (A) (A) (A) (A) (A) (A) (A)
                 (A) (A) (A) (A) (A) (A) (A) (A) (A) (A) (A) (A)
                 (A) (A) (A) (A) (A) (A) (A) (A) (A) (A) (A) (A)
                 (A) (A) (A) (A) (A) (A) (A) (A) (A) (A) (A) (A)
                 (A) (A) (A) (A) (A) (A) (A) (A) (A) (A) (A) (A)
                 (A) (A) (A) (A) (A) (A) (A) (A) (A) (A) (A) (A)
                 (A) (A) (A) (A) (A) (A) (A) (A) (A) (A) (A) (A)
                 (A) (A) (A) (A) (A) (A) (A) (A) (A) (A) (A) (A)
                 (A) (A) (A) (A) (A) (A) (A) (A) (A) (A) (A) (A)
                 (A) (A) (A) (A) (A) (A) (A) (A) (A) (A) (A) (A)
                 (A) (A) (A) (A) (A) (A) (A) (A) (A) (A) (A) (A)
                 (A) (A) (A) (A) (A) (A) (A) (A) (A) (A) (A) (A)
                 (A) (A) (A) (A) (A) (A) (A) (A) (A) (A) (A) (A)
                 (A) (A) (A) (A) (A) (A) (A) (A) (A) (A) (A) (A)
                 (A) (A) (A) (A) (A) (A) (A) (A) (A) (A) (A) (A)
                 (A) (A) (A) (A) (A) (A) (A) (A) (A) (A) (A) (A)
                 (A) (A) (A) (A) (A) (A) (A) (A) (A) (A) (A) (A)
                 (A) (A) (A) (A) (A) (A) (A) (A) (A) (A) (A) (A)
                 (A) (A) (A) (A) (A) (A) (A) (A) (A) (A) (A) (A)
                 (A) (A) (A) (A) (A) (A) (A) (A) (A) (A) (A) (A)
                 (A) (A) (A) (A) (A) (A) (A) (A) (A) (A) (A) (A)
                 (A) (A) (A) (A) (A) (A) (A) (A) (A) (A) (A) (A)
                 (A) (A) (A) (A) (A) (A) (A) (A) (A) (A) (A) (A)
                 (A) (A) (A) (A) (A) (A) (A) (A) (A) (A) (A) (A)
                 (A) (A) (A) (A) (A) (A) (A) (A) (A) (A) (A) (A)
                 (A) (A) (A) (A) (A) (A) (A) (A) (A) (A) (A) (A)
                 (A) (A) (A) (A) (A) (A) (A) (A) (A) (A) (A) (A)
                 (A) (A) (A) (A) (A) (A) (A) (A) (A) (A) (A) (A)
                 (A) (A) (A) (A) (A) (A) (A) (A) (A) (A) (A) (A)
                 (A) (A) (A) (A) (A) (A) (A) (A) (A) (A) (A) (A)
                 (A) (A) (A) (A) (A) (A) (A) (A) (A) (A) (A) (A)
                 (A) (A) (A) (A) (A) (A) (A) (A) (A) (A) (A) (A)
                 (A) (A) (A) (A) (A) (A) (A) (A) (A) (A) (A) (A)
                 (A) (A) (A) (A) (A) (A) (A) (A) (A) (A) (A) (A)
                 (A) (A) (A) (A) (A) (A) (A) (A) (A) (A) (A) (A)
                 (A) (A) (A) (A) (A) (A) (A) (A) (A) (A) (A) (A)
                 (A) (A) (A) (A) (A) (A) (A) (A) (A) (A) (A) (A)
                 (A) (A) (A) (A) (A) (A) (A) (A) (A) (A) (A) (A)
                 (A) (A) (A) (A) (A) (A) (A) (A) (A) (A) (A) (A)
                 (A) (A) (A) (A) (A) (A) (A) (A) (A) (A) (A) (A)
                 (A) (A) (A) (A) (A) (A) (A) (A) (A) (A) (A) (A)
                 (A) (A) (A) (A) (A) (A) (A) (A) (A) (A) (A) (A)
                 (A) (A) (A) (A) (A) (A) (A) (A) (A) (A) (A) (A)
                 (A) (A) (A) (A) (A) (A) (A) (A) (A) (A)
 Beta  Orbitals:
       Occupied  (A) (A) (A) (A) (A) (A) (A) (A) (A) (A) (A) (A)
                 (A) (A) (A) (A) (A) (A) (A) (A) (A) (A) (A) (A)
                 (A) (A) (A) (A) (A) (A) (A) (A) (A) (A) (A) (A)
                 (A) (A) (A) (A) (A) (A) (A) (A) (A) (A) (A) (A)
                 (A) (A) (A) (A) (A) (A) (A) (A) (A) (A) (A) (A)
                 (A) (A) (A) (A) (A) (A) (A) (A) (A) (A) (A) (A)
                 (A) (A) (A) (A) (A) (A) (A) (A) (A) (A) (A) (A)
                 (A) (A) (A) (A) (A) (A) (A) (A) (A) (A) (A) (A)
                 (A) (A) (A) (A) (A) (A) (A) (A) (A) (A) (A) (A)
                 (A) (A) (A) (A) (A) (A) (A) (A) (A) (A) (A) (A)
                 (A) (A) (A) (A) (A) (A) (A) (A) (A) (A) (A) (A)
                 (A) (A) (A) (A) (A) (A) (A) (A) (A) (A) (A) (A)
                 (A) (A) (A) (A) (A) (A) (A) (A) (A) (A) (A) (A)
                 (A) (A)
       Virtual   (A) (A) (A) (A) (A) (A) (A) (A) (A) (A) (A) (A)
                 (A) (A) (A) (A) (A) (A) (A) (A) (A) (A) (A) (A)
                 (A) (A) (A) (A) (A) (A) (A) (A) (A) (A) (A) (A)
                 (A) (A) (A) (A) (A) (A) (A) (A) (A) (A) (A) (A)
                 (A) (A) (A) (A) (A) (A) (A) (A) (A) (A) (A) (A)
                 (A) (A) (A) (A) (A) (A) (A) (A) (A) (A) (A) (A)
                 (A) (A) (A) (A) (A) (A) (A) (A) (A) (A) (A) (A)
                 (A) (A) (A) (A) (A) (A) (A) (A) (A) (A) (A) (A)
                 (A) (A) (A) (A) (A) (A) (A) (A) (A) (A) (A) (A)
                 (A) (A) (A) (A) (A) (A) (A) (A) (A) (A) (A) (A)
                 (A) (A) (A) (A) (A) (A) (A) (A) (A) (A) (A) (A)
                 (A) (A) (A) (A) (A) (A) (A) (A) (A) (A) (A) (A)
                 (A) (A) (A) (A) (A) (A) (A) (A) (A) (A) (A) (A)
                 (A) (A) (A) (A) (A) (A) (A) (A) (A) (A) (A) (A)
                 (A) (A) (A) (A) (A) (A) (A) (A) (A) (A) (A) (A)
                 (A) (A) (A) (A) (A) (A) (A) (A) (A) (A) (A) (A)
                 (A) (A) (A) (A) (A) (A) (A) (A) (A) (A) (A) (A)
                 (A) (A) (A) (A) (A) (A) (A) (A) (A) (A) (A) (A)
                 (A) (A) (A) (A) (A) (A) (A) (A) (A) (A) (A) (A)
                 (A) (A) (A) (A) (A) (A) (A) (A) (A) (A) (A) (A)
                 (A) (A) (A) (A) (A) (A) (A) (A) (A) (A) (A) (A)
                 (A) (A) (A) (A) (A) (A) (A) (A) (A) (A) (A) (A)
                 (A) (A) (A) (A) (A) (A) (A) (A) (A) (A) (A) (A)
                 (A) (A) (A) (A) (A) (A) (A) (A) (A) (A) (A) (A)
                 (A) (A) (A) (A) (A) (A) (A) (A) (A) (A) (A) (A)
                 (A) (A) (A) (A) (A) (A) (A) (A) (A) (A) (A) (A)
                 (A) (A) (A) (A) (A) (A) (A) (A) (A) (A) (A) (A)
                 (A) (A) (A) (A) (A) (A) (A) (A) (A) (A) (A) (A)
                 (A) (A) (A) (A) (A) (A) (A) (A) (A) (A) (A) (A)
                 (A) (A) (A) (A) (A) (A) (A) (A) (A) (A) (A) (A)
                 (A) (A) (A) (A) (A) (A) (A) (A) (A) (A) (A) (A)
                 (A) (A) (A) (A) (A) (A) (A) (A) (A) (A) (A) (A)
                 (A) (A) (A) (A) (A) (A) (A) (A) (A) (A) (A) (A)
                 (A) (A) (A) (A) (A) (A) (A) (A) (A) (A) (A) (A)
                 (A) (A) (A) (A) (A) (A) (A) (A) (A) (A) (A) (A)
                 (A) (A) (A) (A) (A) (A) (A) (A) (A) (A) (A) (A)
                 (A) (A) (A) (A) (A) (A) (A) (A) (A) (A) (A) (A)
                 (A) (A) (A) (A) (A) (A) (A) (A) (A) (A) (A) (A)
                 (A) (A) (A) (A) (A) (A) (A) (A) (A) (A) (A) (A)
                 (A) (A) (A) (A) (A) (A) (A) (A) (A) (A) (A) (A)
                 (A) (A) (A) (A) (A) (A) (A) (A) (A) (A) (A) (A)
                 (A) (A) (A) (A) (A) (A) (A) (A) (A) (A) (A) (A)
                 (A) (A) (A) (A) (A) (A) (A) (A) (A) (A) (A) (A)
                 (A) (A) (A) (A) (A) (A) (A) (A) (A) (A) (A) (A)
                 (A) (A) (A)
 The electronic state is 6-A.
 Alpha  occ. eigenvalues -- -256.33664 -30.20110 -26.04487 -26.04003 -26.02903
 Alpha  occ. eigenvalues --  -19.37455 -19.36134 -14.52846 -14.48063 -14.47994
 Alpha  occ. eigenvalues --  -14.47957 -14.47956 -14.47819 -10.36605 -10.35542
 Alpha  occ. eigenvalues --  -10.35487 -10.35373 -10.35102 -10.34899 -10.34714
 Alpha  occ. eigenvalues --  -10.34355 -10.34347 -10.34276 -10.33556 -10.33352
 Alpha  occ. eigenvalues --  -10.31672 -10.31566 -10.31498 -10.31234 -10.31083
 Alpha  occ. eigenvalues --  -10.30911 -10.30884 -10.30749 -10.30720 -10.30468
 Alpha  occ. eigenvalues --  -10.30405 -10.30321 -10.29915 -10.29869 -10.29039
 Alpha  occ. eigenvalues --  -10.28776 -10.28671 -10.28619 -10.28599 -10.28579
 Alpha  occ. eigenvalues --  -10.28570 -10.28485  -3.58866  -2.36927  -2.35264
 Alpha  occ. eigenvalues --   -2.32974  -1.31223  -1.15438  -1.10267  -1.09310
 Alpha  occ. eigenvalues --   -1.09274  -1.08301  -1.00826  -0.95412  -0.93264
 Alpha  occ. eigenvalues --   -0.92868  -0.92579  -0.92511  -0.92399  -0.91779
 Alpha  occ. eigenvalues --   -0.91499  -0.89661  -0.87692  -0.87312  -0.86304
 Alpha  occ. eigenvalues --   -0.85201  -0.83581  -0.82141  -0.81155  -0.80994
 Alpha  occ. eigenvalues --   -0.79488  -0.78881  -0.78607  -0.76689  -0.76608
 Alpha  occ. eigenvalues --   -0.74230  -0.71531  -0.71126  -0.70807  -0.70227
 Alpha  occ. eigenvalues --   -0.69838  -0.66133  -0.65700  -0.65369  -0.64639
 Alpha  occ. eigenvalues --   -0.64080  -0.62936  -0.62851  -0.62409  -0.62250
 Alpha  occ. eigenvalues --   -0.60206  -0.60040  -0.59639  -0.59024  -0.58659
 Alpha  occ. eigenvalues --   -0.57726  -0.56803  -0.56756  -0.56107  -0.55735
 Alpha  occ. eigenvalues --   -0.55254  -0.55137  -0.54500  -0.54254  -0.54053
 Alpha  occ. eigenvalues --   -0.53905  -0.53469  -0.53162  -0.52835  -0.52662
 Alpha  occ. eigenvalues --   -0.52175  -0.51420  -0.51303  -0.51181  -0.51134
 Alpha  occ. eigenvalues --   -0.51088  -0.50984  -0.50882  -0.50601  -0.50385
 Alpha  occ. eigenvalues --   -0.50164  -0.49895  -0.49802  -0.49169  -0.48965
 Alpha  occ. eigenvalues --   -0.48599  -0.48326  -0.47799  -0.47719  -0.47167
 Alpha  occ. eigenvalues --   -0.46762  -0.46272  -0.45556  -0.45224  -0.44797
 Alpha  occ. eigenvalues --   -0.44324  -0.43963  -0.43284  -0.42621  -0.42183
 Alpha  occ. eigenvalues --   -0.41755  -0.41154  -0.40673  -0.39927  -0.39622
 Alpha  occ. eigenvalues --   -0.39039  -0.38813  -0.37175  -0.36184  -0.34362
 Alpha  occ. eigenvalues --   -0.33845  -0.33515  -0.33090  -0.32583  -0.32440
 Alpha  occ. eigenvalues --   -0.31842  -0.31099  -0.23038
 Alpha virt. eigenvalues --   -0.18983  -0.13824  -0.11427  -0.11287  -0.08989
 Alpha virt. eigenvalues --   -0.08237  -0.07394  -0.06555  -0.03405  -0.03007
 Alpha virt. eigenvalues --   -0.02269  -0.01156  -0.00272   0.00074   0.01312
 Alpha virt. eigenvalues --    0.01443   0.01656   0.02501   0.02532   0.03049
 Alpha virt. eigenvalues --    0.03170   0.03700   0.03754   0.04228   0.04863
 Alpha virt. eigenvalues --    0.04924   0.05657   0.05876   0.06467   0.06667
 Alpha virt. eigenvalues --    0.07111   0.07239   0.07370   0.07725   0.08023
 Alpha virt. eigenvalues --    0.08190   0.08518   0.08757   0.08943   0.09275
 Alpha virt. eigenvalues --    0.09661   0.09844   0.09963   0.10140   0.10733
 Alpha virt. eigenvalues --    0.11176   0.11581   0.11936   0.12219   0.12669
 Alpha virt. eigenvalues --    0.12715   0.12832   0.13574   0.13631   0.14085
 Alpha virt. eigenvalues --    0.14643   0.15046   0.15607   0.15927   0.16443
 Alpha virt. eigenvalues --    0.16667   0.17204   0.17350   0.17492   0.18704
 Alpha virt. eigenvalues --    0.19638   0.19797   0.20032   0.21050   0.22140
 Alpha virt. eigenvalues --    0.22399   0.22599   0.24199   0.24765   0.24925
 Alpha virt. eigenvalues --    0.25057   0.25570   0.26371   0.26464   0.27819
 Alpha virt. eigenvalues --    0.29390   0.29886   0.30447   0.31927   0.32313
 Alpha virt. eigenvalues --    0.32672   0.33135   0.33310   0.34749   0.35785
 Alpha virt. eigenvalues --    0.37468   0.37610   0.37884   0.38298   0.38675
 Alpha virt. eigenvalues --    0.39062   0.39451   0.40166   0.40277   0.41045
 Alpha virt. eigenvalues --    0.41338   0.41855   0.41977   0.42402   0.42866
 Alpha virt. eigenvalues --    0.42955   0.43619   0.43913   0.43971   0.44361
 Alpha virt. eigenvalues --    0.44650   0.45032   0.45624   0.46100   0.46691
 Alpha virt. eigenvalues --    0.46930   0.47132   0.47188   0.48253   0.48642
 Alpha virt. eigenvalues --    0.48849   0.49023   0.49570   0.50070   0.50360
 Alpha virt. eigenvalues --    0.50760   0.50997   0.51151   0.51677   0.52363
 Alpha virt. eigenvalues --    0.52941   0.53237   0.54157   0.54326   0.54885
 Alpha virt. eigenvalues --    0.55249   0.55566   0.55950   0.56212   0.56427
 Alpha virt. eigenvalues --    0.56975   0.57381   0.57499   0.57578   0.58402
 Alpha virt. eigenvalues --    0.58759   0.59989   0.60203   0.60330   0.60873
 Alpha virt. eigenvalues --    0.61209   0.61311   0.61938   0.62403   0.62712
 Alpha virt. eigenvalues --    0.62866   0.63706   0.64181   0.64683   0.64776
 Alpha virt. eigenvalues --    0.65433   0.66214   0.66861   0.66944   0.67413
 Alpha virt. eigenvalues --    0.67682   0.68351   0.68700   0.68961   0.69189
 Alpha virt. eigenvalues --    0.69545   0.69780   0.70327   0.70534   0.70835
 Alpha virt. eigenvalues --    0.71205   0.72097   0.72479   0.73735   0.74159
 Alpha virt. eigenvalues --    0.74553   0.75310   0.75753   0.76387   0.76669
 Alpha virt. eigenvalues --    0.77060   0.77507   0.77833   0.78437   0.78564
 Alpha virt. eigenvalues --    0.79169   0.79638   0.80031   0.80347   0.80594
 Alpha virt. eigenvalues --    0.80949   0.81436   0.81738   0.82203   0.82322
 Alpha virt. eigenvalues --    0.82643   0.82950   0.83167   0.83586   0.83880
 Alpha virt. eigenvalues --    0.84058   0.84336   0.84881   0.85392   0.85594
 Alpha virt. eigenvalues --    0.86130   0.86276   0.87079   0.87575   0.87787
 Alpha virt. eigenvalues --    0.88171   0.88596   0.88988   0.89528   0.90054
 Alpha virt. eigenvalues --    0.90215   0.90725   0.90814   0.91371   0.91477
 Alpha virt. eigenvalues --    0.92005   0.92648   0.92832   0.93746   0.93945
 Alpha virt. eigenvalues --    0.94222   0.94829   0.95402   0.96200   0.96566
 Alpha virt. eigenvalues --    0.97065   0.97724   0.98230   0.98475   0.99598
 Alpha virt. eigenvalues --    1.00379   1.00739   1.01873   1.03348   1.03964
 Alpha virt. eigenvalues --    1.04218   1.05459   1.06195   1.06545   1.06654
 Alpha virt. eigenvalues --    1.06857   1.07551   1.08239   1.09066   1.09272
 Alpha virt. eigenvalues --    1.09784   1.10228   1.10825   1.11184   1.11708
 Alpha virt. eigenvalues --    1.12280   1.12747   1.13179   1.14171   1.14475
 Alpha virt. eigenvalues --    1.15286   1.15858   1.16459   1.18500   1.18940
 Alpha virt. eigenvalues --    1.19646   1.19842   1.20326   1.21712   1.22139
 Alpha virt. eigenvalues --    1.22175   1.24044   1.24691   1.24905   1.25431
 Alpha virt. eigenvalues --    1.25627   1.25736   1.25931   1.26733   1.26895
 Alpha virt. eigenvalues --    1.27496   1.27750   1.28412   1.29574   1.30466
 Alpha virt. eigenvalues --    1.30772   1.31855   1.32231   1.32649   1.33547
 Alpha virt. eigenvalues --    1.34492   1.35184   1.36111   1.37008   1.37190
 Alpha virt. eigenvalues --    1.37647   1.38360   1.40398   1.41753   1.42016
 Alpha virt. eigenvalues --    1.42395   1.42935   1.43332   1.43851   1.44131
 Alpha virt. eigenvalues --    1.44258   1.45570   1.45905   1.46843   1.48198
 Alpha virt. eigenvalues --    1.49144   1.50373   1.50873   1.51688   1.52643
 Alpha virt. eigenvalues --    1.53127   1.53969   1.54817   1.55276   1.55619
 Alpha virt. eigenvalues --    1.57545   1.58687   1.59141   1.59835   1.60413
 Alpha virt. eigenvalues --    1.61745   1.61803   1.63377   1.65040   1.66785
 Alpha virt. eigenvalues --    1.67514   1.68398   1.68933   1.69506   1.69616
 Alpha virt. eigenvalues --    1.70144   1.70736   1.71675   1.71966   1.72411
 Alpha virt. eigenvalues --    1.73209   1.73679   1.74346   1.74783   1.75175
 Alpha virt. eigenvalues --    1.75379   1.76424   1.76962   1.77515   1.78325
 Alpha virt. eigenvalues --    1.78584   1.78763   1.79725   1.80251   1.80667
 Alpha virt. eigenvalues --    1.81274   1.82316   1.82909   1.82932   1.83697
 Alpha virt. eigenvalues --    1.83792   1.84034   1.84471   1.84725   1.85893
 Alpha virt. eigenvalues --    1.86638   1.88409   1.89748   1.89998   1.90045
 Alpha virt. eigenvalues --    1.90944   1.91591   1.92271   1.93631   1.94219
 Alpha virt. eigenvalues --    1.94617   1.94867   1.95582   1.95973   1.96812
 Alpha virt. eigenvalues --    1.97670   1.98252   1.99271   2.00662   2.01416
 Alpha virt. eigenvalues --    2.01824   2.02280   2.02992   2.03771   2.04240
 Alpha virt. eigenvalues --    2.05179   2.05515   2.06060   2.06903   2.07449
 Alpha virt. eigenvalues --    2.08156   2.08787   2.09750   2.10773   2.11777
 Alpha virt. eigenvalues --    2.12544   2.13074   2.13463   2.13961   2.14215
 Alpha virt. eigenvalues --    2.15358   2.15568   2.15781   2.16426   2.16487
 Alpha virt. eigenvalues --    2.17284   2.18270   2.18381   2.18796   2.19262
 Alpha virt. eigenvalues --    2.19835   2.20333   2.20771   2.21378   2.21589
 Alpha virt. eigenvalues --    2.21918   2.22890   2.23505   2.24141   2.24953
 Alpha virt. eigenvalues --    2.25531   2.25713   2.26088   2.26697   2.26887
 Alpha virt. eigenvalues --    2.27652   2.29154   2.29733   2.30386   2.31114
 Alpha virt. eigenvalues --    2.31269   2.31758   2.32269   2.32319   2.32888
 Alpha virt. eigenvalues --    2.33525   2.33861   2.35138   2.36470   2.37653
 Alpha virt. eigenvalues --    2.39026   2.39452   2.40230   2.40487   2.41345
 Alpha virt. eigenvalues --    2.42148   2.42766   2.43312   2.43428   2.44020
 Alpha virt. eigenvalues --    2.44661   2.45802   2.45936   2.46985   2.47668
 Alpha virt. eigenvalues --    2.49371   2.49781   2.50682   2.51050   2.51514
 Alpha virt. eigenvalues --    2.52152   2.53105   2.54518   2.55392   2.57423
 Alpha virt. eigenvalues --    2.58732   2.58945   2.59630   2.62095   2.63757
 Alpha virt. eigenvalues --    2.64767   2.65207   2.67020   2.68104   2.69356
 Alpha virt. eigenvalues --    2.70084   2.70191   2.75524   2.76665   2.76916
 Alpha virt. eigenvalues --    2.78539   2.79676   2.81023   2.83431   2.83794
 Alpha virt. eigenvalues --    2.84999   2.85473   2.86574   2.87408   2.87700
 Alpha virt. eigenvalues --    2.87965   2.88983   2.90857   2.94549   2.94777
 Alpha virt. eigenvalues --    2.98626   2.99698   3.01701   3.02945   3.05934
 Alpha virt. eigenvalues --    3.10157   3.12166   3.14522   3.19041   3.19146
 Alpha virt. eigenvalues --    3.26535   3.27096   3.29299   3.34765   3.34958
 Alpha virt. eigenvalues --    3.51405   3.59475   3.78588   3.81498   4.10767
 Alpha virt. eigenvalues --    4.20799
  Beta  occ. eigenvalues -- -256.33629 -30.18557 -26.02731 -26.02536 -26.02224
  Beta  occ. eigenvalues --  -19.35713 -19.33595 -14.52844 -14.47778 -14.47771
  Beta  occ. eigenvalues --  -14.47765 -14.47724 -14.47688 -10.36598 -10.35432
  Beta  occ. eigenvalues --  -10.35422 -10.35270 -10.35026 -10.34564 -10.34371
  Beta  occ. eigenvalues --  -10.34275 -10.33999 -10.33993 -10.33409 -10.33189
  Beta  occ. eigenvalues --  -10.31570 -10.31243 -10.31191 -10.31019 -10.30928
  Beta  occ. eigenvalues --  -10.30846 -10.30814 -10.30748 -10.30500 -10.30330
  Beta  occ. eigenvalues --  -10.30281 -10.30251 -10.29937 -10.29915 -10.29003
  Beta  occ. eigenvalues --  -10.28772 -10.28667 -10.28612 -10.28610 -10.28590
  Beta  occ. eigenvalues --  -10.28498 -10.28435  -3.55236  -2.31801  -2.30941
  Beta  occ. eigenvalues --   -2.30868  -1.26859  -1.15416  -1.09545  -1.08613
  Beta  occ. eigenvalues --   -1.08541  -1.07605  -1.00787  -0.94364  -0.92742
  Beta  occ. eigenvalues --   -0.92408  -0.91883  -0.91506  -0.91468  -0.91113
  Beta  occ. eigenvalues --   -0.89657  -0.87358  -0.86673  -0.86186  -0.86044
  Beta  occ. eigenvalues --   -0.84798  -0.83428  -0.81735  -0.81132  -0.80748
  Beta  occ. eigenvalues --   -0.79113  -0.78672  -0.78371  -0.76180  -0.75771
  Beta  occ. eigenvalues --   -0.74196  -0.71326  -0.71113  -0.70589  -0.69659
  Beta  occ. eigenvalues --   -0.69150  -0.65807  -0.65658  -0.65043  -0.64369
  Beta  occ. eigenvalues --   -0.63676  -0.62472  -0.62425  -0.62100  -0.59799
  Beta  occ. eigenvalues --   -0.59240  -0.58773  -0.58592  -0.57478  -0.56758
  Beta  occ. eigenvalues --   -0.56326  -0.55478  -0.55168  -0.54950  -0.54767
  Beta  occ. eigenvalues --   -0.54050  -0.54004  -0.53873  -0.53682  -0.53466
  Beta  occ. eigenvalues --   -0.53084  -0.52879  -0.52721  -0.52514  -0.52282
  Beta  occ. eigenvalues --   -0.52111  -0.51248  -0.51054  -0.50929  -0.50894
  Beta  occ. eigenvalues --   -0.50800  -0.50781  -0.50506  -0.50109  -0.50021
  Beta  occ. eigenvalues --   -0.49582  -0.49122  -0.48902  -0.48864  -0.48432
  Beta  occ. eigenvalues --   -0.48163  -0.47825  -0.47549  -0.47408  -0.46953
  Beta  occ. eigenvalues --   -0.46528  -0.46084  -0.45338  -0.44646  -0.44175
  Beta  occ. eigenvalues --   -0.43228  -0.42757  -0.42217  -0.41795  -0.41536
  Beta  occ. eigenvalues --   -0.40429  -0.39561  -0.39172  -0.36872  -0.36154
  Beta  occ. eigenvalues --   -0.35031  -0.34406  -0.34055  -0.33406  -0.32595
  Beta  occ. eigenvalues --   -0.32395  -0.30911  -0.29840
  Beta virt. eigenvalues --   -0.25439  -0.25363  -0.20476  -0.17362  -0.15619
  Beta virt. eigenvalues --   -0.15392  -0.11279  -0.09487  -0.08348  -0.08139
  Beta virt. eigenvalues --   -0.07336  -0.06684  -0.04257  -0.03203  -0.01558
  Beta virt. eigenvalues --   -0.01052  -0.00817   0.00248   0.00690   0.01543
  Beta virt. eigenvalues --    0.01622   0.02313   0.02985   0.03457   0.03963
  Beta virt. eigenvalues --    0.04300   0.04418   0.04641   0.05108   0.05242
  Beta virt. eigenvalues --    0.05724   0.06153   0.06354   0.06621   0.06766
  Beta virt. eigenvalues --    0.07266   0.07380   0.07534   0.07966   0.08151
  Beta virt. eigenvalues --    0.08302   0.08732   0.08960   0.09552   0.09586
  Beta virt. eigenvalues --    0.09931   0.09966   0.10370   0.10858   0.11382
  Beta virt. eigenvalues --    0.11686   0.11891   0.12219   0.12517   0.12807
  Beta virt. eigenvalues --    0.12994   0.13144   0.13830   0.14103   0.14202
  Beta virt. eigenvalues --    0.14796   0.15246   0.15890   0.16205   0.16905
  Beta virt. eigenvalues --    0.16956   0.17413   0.17544   0.17654   0.19192
  Beta virt. eigenvalues --    0.20086   0.20203   0.20538   0.21506   0.22421
  Beta virt. eigenvalues --    0.22840   0.23048   0.24632   0.25289   0.25332
  Beta virt. eigenvalues --    0.25399   0.25908   0.26689   0.26754   0.28067
  Beta virt. eigenvalues --    0.30057   0.30245   0.30904   0.32447   0.32597
  Beta virt. eigenvalues --    0.33195   0.33464   0.33671   0.35208   0.36365
  Beta virt. eigenvalues --    0.37784   0.37880   0.38148   0.38696   0.39185
  Beta virt. eigenvalues --    0.39380   0.40074   0.40538   0.40635   0.41444
  Beta virt. eigenvalues --    0.41818   0.42348   0.42403   0.43001   0.43142
  Beta virt. eigenvalues --    0.43358   0.43934   0.44209   0.44358   0.44673
  Beta virt. eigenvalues --    0.44998   0.45410   0.45933   0.46880   0.47306
  Beta virt. eigenvalues --    0.47450   0.47566   0.47999   0.48744   0.49081
  Beta virt. eigenvalues --    0.49279   0.49501   0.49931   0.50703   0.51098
  Beta virt. eigenvalues --    0.51437   0.51513   0.51965   0.52411   0.52904
  Beta virt. eigenvalues --    0.53633   0.53657   0.54707   0.54782   0.55547
  Beta virt. eigenvalues --    0.55723   0.56084   0.56487   0.56816   0.57061
  Beta virt. eigenvalues --    0.57468   0.57648   0.57851   0.58347   0.58797
  Beta virt. eigenvalues --    0.59152   0.60280   0.60647   0.60815   0.61267
  Beta virt. eigenvalues --    0.61683   0.61776   0.62212   0.62927   0.63138
  Beta virt. eigenvalues --    0.63418   0.64241   0.64625   0.64993   0.65354
  Beta virt. eigenvalues --    0.66105   0.66721   0.67480   0.67606   0.67729
  Beta virt. eigenvalues --    0.68199   0.68644   0.68937   0.69176   0.69629
  Beta virt. eigenvalues --    0.69891   0.70552   0.70654   0.70911   0.71159
  Beta virt. eigenvalues --    0.71584   0.72997   0.73098   0.74184   0.74520
  Beta virt. eigenvalues --    0.75184   0.75739   0.76089   0.76762   0.76970
  Beta virt. eigenvalues --    0.77438   0.77738   0.78084   0.78635   0.78953
  Beta virt. eigenvalues --    0.79414   0.79830   0.80342   0.80634   0.81141
  Beta virt. eigenvalues --    0.81508   0.81680   0.81956   0.82510   0.82687
  Beta virt. eigenvalues --    0.82843   0.83206   0.83422   0.83944   0.84141
  Beta virt. eigenvalues --    0.84518   0.84667   0.85189   0.85641   0.86087
  Beta virt. eigenvalues --    0.86513   0.86883   0.87697   0.87860   0.87963
  Beta virt. eigenvalues --    0.88692   0.89003   0.89416   0.89905   0.90342
  Beta virt. eigenvalues --    0.90752   0.90960   0.91071   0.91563   0.91743
  Beta virt. eigenvalues --    0.92335   0.93129   0.93448   0.94109   0.94322
  Beta virt. eigenvalues --    0.95064   0.95212   0.95804   0.96799   0.97280
  Beta virt. eigenvalues --    0.97925   0.98319   0.98989   0.99104   0.99974
  Beta virt. eigenvalues --    1.00943   1.02606   1.03074   1.04194   1.04547
  Beta virt. eigenvalues --    1.04647   1.06063   1.06551   1.06900   1.07010
  Beta virt. eigenvalues --    1.07385   1.08183   1.08781   1.09604   1.09735
  Beta virt. eigenvalues --    1.10144   1.10835   1.11467   1.11732   1.12068
  Beta virt. eigenvalues --    1.12798   1.13344   1.13673   1.14720   1.15153
  Beta virt. eigenvalues --    1.16123   1.16690   1.17299   1.19127   1.19448
  Beta virt. eigenvalues --    1.20187   1.20369   1.20955   1.22114   1.22484
  Beta virt. eigenvalues --    1.22627   1.24559   1.25030   1.25355   1.25747
  Beta virt. eigenvalues --    1.25992   1.26454   1.26580   1.27266   1.27433
  Beta virt. eigenvalues --    1.28127   1.28318   1.28915   1.30227   1.31137
  Beta virt. eigenvalues --    1.31192   1.32913   1.33235   1.33512   1.34299
  Beta virt. eigenvalues --    1.34990   1.36205   1.37103   1.37487   1.37670
  Beta virt. eigenvalues --    1.38404   1.39046   1.41107   1.42303   1.42503
  Beta virt. eigenvalues --    1.42852   1.43479   1.43741   1.44379   1.44822
  Beta virt. eigenvalues --    1.45456   1.46543   1.46672   1.47522   1.48765
  Beta virt. eigenvalues --    1.49954   1.50764   1.51366   1.52194   1.53153
  Beta virt. eigenvalues --    1.53816   1.54568   1.55418   1.56076   1.56227
  Beta virt. eigenvalues --    1.58094   1.59300   1.59636   1.60679   1.61071
  Beta virt. eigenvalues --    1.62481   1.64011   1.64465   1.65832   1.67371
  Beta virt. eigenvalues --    1.67888   1.68795   1.69493   1.70024   1.70090
  Beta virt. eigenvalues --    1.70562   1.71214   1.72149   1.72470   1.72728
  Beta virt. eigenvalues --    1.73739   1.74201   1.74893   1.75418   1.75571
  Beta virt. eigenvalues --    1.75976   1.76841   1.77263   1.78186   1.79014
  Beta virt. eigenvalues --    1.79484   1.80038   1.80603   1.81066   1.81479
  Beta virt. eigenvalues --    1.81594   1.83018   1.83724   1.83900   1.84275
  Beta virt. eigenvalues --    1.84587   1.85020   1.85184   1.85554   1.86895
  Beta virt. eigenvalues --    1.87231   1.89024   1.90062   1.90371   1.90459
  Beta virt. eigenvalues --    1.91243   1.92118   1.92695   1.94127   1.94690
  Beta virt. eigenvalues --    1.95189   1.95648   1.96117   1.96780   1.97297
  Beta virt. eigenvalues --    1.98236   1.98586   1.99784   2.01158   2.01661
  Beta virt. eigenvalues --    2.02379   2.02752   2.03220   2.04232   2.04924
  Beta virt. eigenvalues --    2.05585   2.05817   2.06322   2.07387   2.07997
  Beta virt. eigenvalues --    2.08573   2.09440   2.10292   2.11373   2.12269
  Beta virt. eigenvalues --    2.12914   2.13417   2.13832   2.14615   2.14892
  Beta virt. eigenvalues --    2.15738   2.16146   2.16343   2.16906   2.17150
  Beta virt. eigenvalues --    2.18064   2.18312   2.19106   2.19250   2.19677
  Beta virt. eigenvalues --    2.20383   2.20976   2.21219   2.21568   2.22178
  Beta virt. eigenvalues --    2.22562   2.23570   2.24319   2.24889   2.25429
  Beta virt. eigenvalues --    2.26165   2.26520   2.26700   2.27213   2.27659
  Beta virt. eigenvalues --    2.28263   2.29565   2.30067   2.31374   2.31559
  Beta virt. eigenvalues --    2.31821   2.32451   2.32566   2.32837   2.33229
  Beta virt. eigenvalues --    2.33984   2.34261   2.35741   2.36879   2.38056
  Beta virt. eigenvalues --    2.39165   2.40337   2.40979   2.41310   2.41984
  Beta virt. eigenvalues --    2.42655   2.43282   2.44048   2.44420   2.44960
  Beta virt. eigenvalues --    2.45616   2.46395   2.46620   2.47644   2.48703
  Beta virt. eigenvalues --    2.50037   2.50551   2.50729   2.51851   2.52083
  Beta virt. eigenvalues --    2.53064   2.53723   2.55497   2.56284   2.58532
  Beta virt. eigenvalues --    2.59779   2.60091   2.60472   2.63048   2.64032
  Beta virt. eigenvalues --    2.64877   2.65608   2.67283   2.68814   2.69626
  Beta virt. eigenvalues --    2.70259   2.70585   2.76089   2.77195   2.77346
  Beta virt. eigenvalues --    2.78904   2.80289   2.81670   2.83851   2.84591
  Beta virt. eigenvalues --    2.85306   2.85893   2.87049   2.87799   2.88004
  Beta virt. eigenvalues --    2.88835   2.89265   2.92264   2.94815   2.95054
  Beta virt. eigenvalues --    2.98783   3.00532   3.02058   3.03237   3.05961
  Beta virt. eigenvalues --    3.10319   3.12344   3.14875   3.19220   3.19309
  Beta virt. eigenvalues --    3.26841   3.27329   3.29585   3.35034   3.35238
  Beta virt. eigenvalues --    3.56316   3.61073   3.80469   3.82675   4.11577
  Beta virt. eigenvalues --    4.21966
          Condensed to atoms (all electrons):
          Atomic-Atomic Spin Densities.
 Mulliken charges and spin densities:
               1          2
     1  Fe   0.893539   0.650813
     2  N   -0.634020   0.126936
     3  N   -0.626037   0.077745
     4  N   -0.644948   0.114969
     5  N   -0.642995   0.114462
     6  C    0.329227   0.224228
     7  C    0.047098  -0.035709
     8  C    0.030112   0.101219
     9  C    0.330424   0.053283
    10  C    0.322751   0.063172
    11  C    0.033476   0.105048
    12  C    0.009970  -0.014291
    13  C    0.324307   0.217249
    14  C    0.331434   0.222213
    15  C    0.045022  -0.083157
    16  C    0.002527   0.151577
    17  C    0.346471   0.019671
    18  C    0.337129   0.029142
    19  C    0.036293   0.125958
    20  C    0.044355  -0.052643
    21  C    0.330782   0.232689
    22  C   -0.249808   0.112035
    23  H    0.209222  -0.006746
    24  C   -0.282408   0.463798
    25  H    0.198196  -0.023191
    26  C   -0.246237   0.101043
    27  H    0.207941  -0.005994
    28  C   -0.279981   0.464962
    29  H    0.201283  -0.022935
    30  C   -0.610814  -0.008723
    31  H    0.205750  -0.000038
    32  H    0.208331   0.005719
    33  H    0.197017   0.005021
    34  C   -0.614014   0.002913
    35  H    0.202115  -0.000374
    36  H    0.210274  -0.000198
    37  H    0.208020  -0.000456
    38  C   -0.613691  -0.008656
    39  H    0.199611   0.007078
    40  H    0.201748   0.002730
    41  H    0.215975   0.000400
    42  C   -0.153210  -0.005812
    43  H    0.183690   0.000554
    44  C   -0.386843   0.026433
    45  H    0.190023  -0.001176
    46  H    0.198891  -0.001417
    47  C   -0.617453   0.006066
    48  H    0.194405  -0.001482
    49  H    0.212279  -0.002063
    50  H    0.214831  -0.001007
    51  C   -0.151533  -0.052756
    52  H    0.177632   0.005532
    53  C   -0.385355   0.096722
    54  H    0.193163  -0.004660
    55  H    0.197063  -0.004841
    56  C   -0.611786  -0.010532
    57  H    0.198774   0.006778
    58  H    0.210894   0.006143
    59  H    0.206209  -0.000064
    60  C   -0.613811   0.003729
    61  H    0.202255  -0.000884
    62  H    0.208019  -0.000521
    63  H    0.209083  -0.000858
    64  O   -0.230354   0.521743
    65  O   -0.070900   0.870521
    66  C   -0.602397  -0.000015
    67  H    0.216955   0.000012
    68  H    0.210252   0.000041
    69  H    0.209883   0.000034
    70  N   -0.625447   0.000683
    71  H    0.380258   0.000172
    72  C    0.278462   0.000524
    73  C    0.236694   0.001991
    74  H    0.213104  -0.001212
    75  N   -0.441524   0.010679
    76  C   -0.058719  -0.001105
    77  H    0.191068  -0.000910
 Sum of Mulliken charges =   1.00000   5.00000
 Mulliken charges and spin densities with hydrogens summed into heavy atoms:
               1          2
     1  Fe   0.893539   0.650813
     2  N   -0.634020   0.126936
     3  N   -0.626037   0.077745
     4  N   -0.644948   0.114969
     5  N   -0.642995   0.114462
     6  C    0.329227   0.224228
     7  C    0.047098  -0.035709
     8  C    0.030112   0.101219
     9  C    0.330424   0.053283
    10  C    0.322751   0.063172
    11  C    0.033476   0.105048
    12  C    0.009970  -0.014291
    13  C    0.324307   0.217249
    14  C    0.331434   0.222213
    15  C    0.045022  -0.083157
    16  C    0.002527   0.151577
    17  C    0.346471   0.019671
    18  C    0.337129   0.029142
    19  C    0.036293   0.125958
    20  C    0.044355  -0.052643
    21  C    0.330782   0.232689
    22  C   -0.040587   0.105289
    24  C   -0.084212   0.440606
    26  C   -0.038296   0.095049
    28  C   -0.078699   0.442027
    30  C    0.000285   0.001979
    34  C    0.006395   0.001885
    38  C    0.003643   0.001551
    42  C    0.030479  -0.005258
    44  C    0.002071   0.023841
    47  C    0.004061   0.001514
    51  C    0.026099  -0.047224
    53  C    0.004871   0.087220
    56  C    0.004091   0.002324
    60  C    0.005546   0.001466
    64  O   -0.230354   0.521743
    65  O   -0.070900   0.870521
    66  C    0.034693   0.000071
    70  N   -0.245189   0.000855
    72  C    0.278462   0.000524
    73  C    0.449798   0.000778
    75  N   -0.441524   0.010679
    76  C    0.132349  -0.002015
 Electronic spatial extent (au):  <R**2>=          20149.3165
 Charge=              1.0000 electrons
 Dipole moment (field-independent basis, Debye):
    X=              1.4185    Y=              0.1232    Z=              6.6783  Tot=              6.8284
 Quadrupole moment (field-independent basis, Debye-Ang):
   XX=           -173.6102   YY=           -176.8866   ZZ=           -223.8110
   XY=             -0.8259   XZ=              4.8927   YZ=             -0.4057
 Traceless Quadrupole moment (field-independent basis, Debye-Ang):
   XX=             17.8257   YY=             14.5493   ZZ=            -32.3751
   XY=             -0.8259   XZ=              4.8927   YZ=             -0.4057
 Octapole moment (field-independent basis, Debye-Ang**2):
  XXX=             -3.7081  YYY=             23.6556  ZZZ=            180.6199  XYY=              2.7074
  XXY=            -13.4755  XXZ=            -16.4751  XZZ=             25.3649  YZZ=             -8.2785
  YYZ=            -37.3691  XYZ=            -22.1566
 Hexadecapole moment (field-independent basis, Debye-Ang**3):
 XXXX=         -10100.9920 YYYY=          -9675.5004 ZZZZ=          -2842.4157 XXXY=            -28.9432
 XXXZ=            104.4753 YYYX=             -9.1848 YYYZ=             69.1067 ZZZX=             83.3782
 ZZZY=            -84.0652 XXYY=          -3100.0284 XXZZ=          -2525.0097 YYZZ=          -2580.8165
 XXYZ=            -13.0734 YYXZ=             90.9532 ZZXY=             19.0012
 N-N= 6.201497475417D+03 E-N=-1.955206717370D+04  KE= 3.045752878329D+03
                          Isotropic Fermi Contact Couplings
        Atom                 a.u.       MegaHertz       Gauss      10(-4) cm-1
     1  Fe(57)             0.19248       5.58357       1.99236       1.86248
     2  N(14)              0.02338       1.51071       0.53906       0.50392
     3  N(14)              0.00807       0.52128       0.18600       0.17388
     4  N(14)              0.01222       0.78990       0.28186       0.26348
     5  N(14)              0.01213       0.78392       0.27972       0.26149
     6  C(13)              0.02541       5.71349       2.03872       1.90582
     7  C(13)             -0.00967      -2.17446      -0.77590      -0.72532
     8  C(13)              0.01303       2.92919       1.04521       0.97707
     9  C(13)             -0.00261      -0.58613      -0.20914      -0.19551
    10  C(13)             -0.00125      -0.28027      -0.10001      -0.09349
    11  C(13)              0.01326       2.98150       1.06387       0.99452
    12  C(13)             -0.00657      -1.47675      -0.52694      -0.49259
    13  C(13)              0.02456       5.52188       1.97034       1.84190
    14  C(13)              0.02618       5.88566       2.10015       1.96324
    15  C(13)             -0.01677      -3.77021      -1.34530      -1.25761
    16  C(13)              0.02035       4.57519       1.63254       1.52612
    17  C(13)             -0.00872      -1.96140      -0.69988      -0.65425
    18  C(13)             -0.00604      -1.35833      -0.48469      -0.45309
    19  C(13)              0.01639       3.68516       1.31496       1.22924
    20  C(13)             -0.01237      -2.78030      -0.99208      -0.92741
    21  C(13)              0.02688       6.04378       2.15657       2.01599
    22  C(13)              0.00604       1.35867       0.48481       0.45320
    23  H(1)              -0.00243      -2.17373      -0.77564      -0.72508
    24  C(13)              0.05700      12.81652       4.57325       4.27513
    25  H(1)              -0.00771      -6.89524      -2.46039      -2.30000
    26  C(13)              0.00483       1.08621       0.38759       0.36232
    27  H(1)              -0.00220      -1.96618      -0.70158      -0.65585
    28  C(13)              0.05750      12.92833       4.61315       4.31243
    29  H(1)              -0.00770      -6.88765      -2.45768      -2.29747
    30  C(13)             -0.00382      -0.85878      -0.30644      -0.28646
    31  H(1)              -0.00002      -0.01350      -0.00482      -0.00450
    32  H(1)               0.00253       2.26433       0.80797       0.75530
    33  H(1)               0.00211       1.88705       0.67335       0.62945
    34  C(13)              0.00022       0.04841       0.01728       0.01615
    35  H(1)               0.00018       0.15989       0.05705       0.05333
    36  H(1)               0.00027       0.23759       0.08478       0.07925
    37  H(1)              -0.00018      -0.16176      -0.05772      -0.05396
    38  C(13)             -0.00372      -0.83624      -0.29839      -0.27894
    39  H(1)               0.00310       2.77247       0.98929       0.92480
    40  H(1)               0.00104       0.92569       0.33031       0.30878
    41  H(1)               0.00053       0.47214       0.16847       0.15749
    42  C(13)             -0.00197      -0.44211      -0.15776      -0.14747
    43  H(1)               0.00029       0.26245       0.09365       0.08754
    44  C(13)              0.00309       0.69442       0.24779       0.23163
    45  H(1)              -0.00034      -0.30227      -0.10786      -0.10083
    46  H(1)              -0.00043      -0.38219      -0.13638      -0.12749
    47  C(13)              0.00167       0.37461       0.13367       0.12496
    48  H(1)              -0.00067      -0.60263      -0.21503      -0.20102
    49  H(1)              -0.00101      -0.89860      -0.32064      -0.29974
    50  H(1)              -0.00023      -0.20492      -0.07312      -0.06835
    51  C(13)             -0.01084      -2.43787      -0.86989      -0.81319
    52  H(1)               0.00171       1.52595       0.54450       0.50900
    53  C(13)              0.01346       3.02725       1.08020       1.00978
    54  H(1)              -0.00146      -1.30640      -0.46616      -0.43577
    55  H(1)              -0.00150      -1.34190      -0.47882      -0.44761
    56  C(13)             -0.00453      -1.01782      -0.36318      -0.33951
    57  H(1)               0.00291       2.60047       0.92791       0.86742
    58  H(1)               0.00286       2.55861       0.91297       0.85346
    59  H(1)              -0.00003      -0.02438      -0.00870      -0.00813
    60  C(13)              0.00058       0.12988       0.04634       0.04332
    61  H(1)              -0.00015      -0.13651      -0.04871      -0.04554
    62  H(1)              -0.00021      -0.18967      -0.06768      -0.06327
    63  H(1)              -0.00017      -0.14822      -0.05289      -0.04944
    64  O(17)              0.21245     -25.75727      -9.19083      -8.59170
    65  O(17)              0.16236     -19.68391      -7.02371      -6.56585
    66  C(13)             -0.00008      -0.01879      -0.00670      -0.00627
    67  H(1)               0.00000       0.00315       0.00112       0.00105
    68  H(1)               0.00002       0.02201       0.00785       0.00734
    69  H(1)               0.00002       0.01914       0.00683       0.00639
    70  N(14)              0.00104       0.06707       0.02393       0.02237
    71  H(1)               0.00009       0.08476       0.03025       0.02827
    72  C(13)              0.00015       0.03469       0.01238       0.01157
    73  C(13)              0.00290       0.65256       0.23285       0.21767
    74  H(1)              -0.00002      -0.01344      -0.00480      -0.00448
    75  N(14)              0.01930       1.24734       0.44508       0.41607
    76  C(13)             -0.00123      -0.27578      -0.09841      -0.09199
    77  H(1)               0.00005       0.04662       0.01664       0.01555
 --------------------------------------------------------
       Center         ----  Spin Dipole Couplings  ----
                      3XX-RR        3YY-RR        3ZZ-RR
 --------------------------------------------------------
     1   Atom       -1.484073      0.368218      1.115856
     2   Atom       -0.159082     -0.151704      0.310786
     3   Atom       -0.104666     -0.110165      0.214831
     4   Atom       -0.158323     -0.153680      0.312003
     5   Atom       -0.158197     -0.157666      0.315864
     6   Atom       -0.127589     -0.120630      0.248219
     7   Atom        0.006282      0.012736     -0.019017
     8   Atom       -0.050922     -0.052178      0.103100
     9   Atom       -0.038867     -0.051776      0.090643
    10   Atom       -0.053401     -0.053493      0.106894
    11   Atom       -0.052373     -0.052155      0.104528
    12   Atom       -0.003077     -0.000671      0.003748
    13   Atom       -0.122371     -0.113584      0.235956
    14   Atom       -0.127283     -0.115818      0.243101
    15   Atom        0.025999      0.035376     -0.061375
    16   Atom       -0.076852     -0.071050      0.147902
    17   Atom       -0.031645     -0.038276      0.069921
    18   Atom       -0.039084     -0.042252      0.081336
    19   Atom       -0.061146     -0.065144      0.126290
    20   Atom        0.014879      0.017005     -0.031884
    21   Atom       -0.135443     -0.117543      0.252986
    22   Atom       -0.066694     -0.065384      0.132077
    23   Atom       -0.011157      0.019035     -0.007879
    24   Atom       -0.207216     -0.234942      0.442158
    25   Atom        0.038383     -0.030219     -0.008164
    26   Atom       -0.060519     -0.059555      0.120074
    27   Atom       -0.010013      0.017850     -0.007838
    28   Atom       -0.219777     -0.238943      0.458721
    29   Atom        0.039547     -0.031312     -0.008235
    30   Atom        0.001911      0.000988     -0.002900
    31   Atom        0.001400      0.002258     -0.003658
    32   Atom        0.004133      0.000263     -0.004396
    33   Atom        0.005282     -0.000248     -0.005034
    34   Atom       -0.003054      0.005053     -0.001999
    35   Atom       -0.002546      0.005778     -0.003232
    36   Atom       -0.002635      0.006985     -0.004349
    37   Atom       -0.000691      0.003936     -0.003245
    38   Atom        0.005376     -0.001970     -0.003406
    39   Atom        0.006880     -0.002437     -0.004444
    40   Atom        0.007908     -0.002881     -0.005027
    41   Atom        0.004213     -0.000279     -0.003934
    42   Atom        0.001629      0.005348     -0.006977
    43   Atom       -0.000421      0.005377     -0.004956
    44   Atom        0.000488     -0.011039      0.010552
    45   Atom        0.001641      0.000496     -0.002137
    46   Atom       -0.000800      0.003050     -0.002251
    47   Atom       -0.001304      0.005383     -0.004078
    48   Atom       -0.002595      0.006296     -0.003701
    49   Atom       -0.001697      0.005616     -0.003919
    50   Atom       -0.000182      0.003486     -0.003304
    51   Atom        0.018524      0.007930     -0.026454
    52   Atom        0.005599      0.000736     -0.006335
    53   Atom       -0.044285      0.001370      0.042914
    54   Atom       -0.001473      0.004095     -0.002622
    55   Atom        0.007380     -0.003280     -0.004101
    56   Atom        0.005533     -0.003272     -0.002261
    57   Atom        0.007814     -0.002994     -0.004821
    58   Atom        0.008110     -0.003160     -0.004950
    59   Atom        0.004442     -0.000664     -0.003777
    60   Atom       -0.000030      0.002788     -0.002758
    61   Atom       -0.000582      0.003656     -0.003074
    62   Atom        0.001041      0.002207     -0.003248
    63   Atom       -0.000698      0.005131     -0.004432
    64   Atom       -0.606940      0.999465     -0.392525
    65   Atom       -0.333338     -0.445974      0.779311
    66   Atom       -0.001852     -0.001936      0.003788
    67   Atom       -0.001517     -0.001941      0.003458
    68   Atom       -0.001504     -0.001602      0.003106
    69   Atom       -0.001539     -0.001454      0.002992
    70   Atom       -0.003964     -0.003778      0.007743
    71   Atom       -0.001972     -0.002474      0.004446
    72   Atom       -0.003756     -0.002751      0.006507
    73   Atom       -0.003254     -0.005753      0.009007
    74   Atom       -0.001934     -0.005894      0.007828
    75   Atom       -0.025681     -0.020747      0.046428
    76   Atom       -0.005330     -0.006026      0.011356
    77   Atom       -0.003366     -0.006159      0.009525
 --------------------------------------------------------
                        XY            XZ            YZ
 --------------------------------------------------------
     1   Atom       -0.124947     -0.760669      0.016128
     2   Atom        0.012687      0.031023     -0.044477
     3   Atom       -0.009307      0.007925      0.029980
     4   Atom        0.004780     -0.016974      0.013905
     5   Atom       -0.002579     -0.025908     -0.038860
     6   Atom       -0.003374      0.040566     -0.021272
     7   Atom        0.005831      0.000571      0.006958
     8   Atom        0.006675      0.025738     -0.007058
     9   Atom       -0.009110      0.030215     -0.021861
    10   Atom        0.005391      0.013437      0.010650
    11   Atom       -0.002291      0.022986      0.036013
    12   Atom       -0.005120      0.002962      0.003030
    13   Atom        0.000829      0.027599      0.046201
    14   Atom       -0.004289     -0.028816      0.018382
    15   Atom        0.005218      0.008994     -0.010651
    16   Atom        0.007785     -0.021654      0.015475
    17   Atom       -0.003285     -0.013143      0.003942
    18   Atom        0.006170     -0.015302     -0.012197
    19   Atom       -0.005988     -0.016534     -0.026077
    20   Atom       -0.006447      0.001253      0.007528
    21   Atom        0.002752     -0.029748     -0.051212
    22   Atom        0.000850      0.003254     -0.022938
    23   Atom       -0.004034     -0.000634      0.005756
    24   Atom       -0.010011      0.129657     -0.057483
    25   Atom        0.010371     -0.004263     -0.003256
    26   Atom       -0.000427      0.003994      0.022934
    27   Atom       -0.004572      0.000897     -0.004789
    28   Atom        0.006168     -0.084731     -0.031800
    29   Atom        0.010517      0.000435     -0.000895
    30   Atom        0.006830      0.000936      0.000227
    31   Atom        0.005047      0.000279      0.000240
    32   Atom        0.005918     -0.002907     -0.001507
    33   Atom        0.005415      0.002492      0.001463
    34   Atom        0.004452      0.000852      0.001389
    35   Atom        0.002737      0.000592      0.003492
    36   Atom        0.002647      0.000026     -0.001114
    37   Atom        0.003184      0.000279      0.000858
    38   Atom       -0.005103     -0.000072      0.001403
    39   Atom       -0.003274      0.002522     -0.000709
    40   Atom       -0.003387     -0.003475      0.000688
    41   Atom       -0.004566     -0.001018      0.000281
    42   Atom       -0.006637      0.004968      0.000024
    43   Atom       -0.004937      0.000313     -0.000359
    44   Atom       -0.002558     -0.017454     -0.002005
    45   Atom       -0.001749      0.001738     -0.000478
    46   Atom       -0.003013     -0.000123     -0.000925
    47   Atom        0.003781     -0.000738     -0.001729
    48   Atom        0.002394     -0.000465     -0.003001
    49   Atom        0.002361      0.000379      0.000720
    50   Atom        0.002280      0.000095     -0.001722
    51   Atom        0.012313     -0.003319      0.024411
    52   Atom        0.008118     -0.000994     -0.000592
    53   Atom        0.000831      0.004688     -0.065840
    54   Atom       -0.001590     -0.002241      0.001967
    55   Atom        0.004888      0.000652     -0.002403
    56   Atom       -0.005811     -0.001398      0.000210
    57   Atom       -0.003020     -0.003637      0.000764
    58   Atom       -0.004118      0.002571     -0.000182
    59   Atom       -0.004925     -0.000651      0.000402
    60   Atom       -0.005777     -0.001015      0.001343
    61   Atom       -0.004419     -0.001689      0.003436
    62   Atom       -0.003997     -0.000708      0.001048
    63   Atom       -0.004844      0.000274     -0.000501
    64   Atom        0.003464     -0.788741     -0.050243
    65   Atom        0.250626     -1.954008     -0.376179
    66   Atom        0.000072     -0.000691     -0.000546
    67   Atom        0.000151     -0.001400     -0.000512
    68   Atom        0.000012     -0.000432      0.000031
    69   Atom        0.000089     -0.000424     -0.000964
    70   Atom       -0.000074      0.000982     -0.001210
    71   Atom       -0.000128      0.001576     -0.000621
    72   Atom        0.000092     -0.000724     -0.000687
    73   Atom       -0.000395      0.006236     -0.001094
    74   Atom       -0.000143      0.005035     -0.001181
    75   Atom       -0.000731      0.006748     -0.006866
    76   Atom        0.000303     -0.001996     -0.001481
    77   Atom        0.000645     -0.004554     -0.001104
 --------------------------------------------------------


 ---------------------------------------------------------------------------------
              Anisotropic Spin Dipole Couplings in Principal Axis System
 ---------------------------------------------------------------------------------

       Atom             a.u.   MegaHertz   Gauss  10(-4) cm-1        Axes

              Baa    -1.6968   -29.377   -10.482    -9.799  0.9639  0.0563  0.2603
     1 Fe(57) Bbb     0.3723     6.446     2.300     2.150 -0.0410  0.9971 -0.0636
              Bcc     1.3245    22.931     8.182     7.649 -0.2632  0.0506  0.9634
 
              Baa    -0.1742    -6.718    -2.397    -2.241  0.7597 -0.6414 -0.1074
     2 N(14)  Bbb    -0.1427    -5.504    -1.964    -1.836  0.6473  0.7616  0.0304
              Bcc     0.3169    12.221     4.361     4.077  0.0623 -0.0926  0.9937
 
              Baa    -0.1196    -4.614    -1.646    -1.539  0.5588  0.8247 -0.0872
     3 N(14)  Bbb    -0.0981    -3.783    -1.350    -1.262  0.8290 -0.5583  0.0325
              Bcc     0.2177     8.397     2.996     2.801  0.0219  0.0904  0.9957
 
              Baa    -0.1623    -6.260    -2.234    -2.088  0.8409 -0.5393  0.0459
     4 N(14)  Bbb    -0.1507    -5.812    -2.074    -1.939  0.5401  0.8416 -0.0055
              Bcc     0.3130    12.072     4.308     4.027 -0.0357  0.0294  0.9989
 
              Baa    -0.1649    -6.360    -2.270    -2.122  0.6570  0.7478  0.0958
     5 N(14)  Bbb    -0.1555    -5.997    -2.140    -2.000  0.7520 -0.6590 -0.0130
              Bcc     0.3204    12.357     4.409     4.122 -0.0534 -0.0806  0.9953
 
              Baa    -0.1320   -17.718    -6.322    -5.910  0.9893  0.1070 -0.0996
     6 C(13)  Bbb    -0.1217   -16.337    -5.830    -5.450 -0.1005  0.9926  0.0681
              Bcc     0.2538    34.055    12.152    11.360  0.1061 -0.0574  0.9927
 
              Baa    -0.0205    -2.750    -0.981    -0.917  0.0247 -0.2091  0.9776
     7 C(13)  Bbb     0.0032     0.431     0.154     0.144  0.8832 -0.4535 -0.1193
              Bcc     0.0173     2.319     0.827     0.773  0.4683  0.8664  0.1734
 
              Baa    -0.0616    -8.264    -2.949    -2.757  0.7523 -0.6426 -0.1451
     8 C(13)  Bbb    -0.0459    -6.162    -2.199    -2.055  0.6394  0.7653 -0.0742
              Bcc     0.1075    14.426     5.148     4.812  0.1587 -0.0370  0.9866
 
              Baa    -0.0568    -7.627    -2.721    -2.544  0.3651  0.9288  0.0629
     9 C(13)  Bbb    -0.0441    -5.914    -2.110    -1.973  0.9050 -0.3383 -0.2579
[...]
 
              Baa    -0.0396    -5.320    -1.898    -1.775  0.4008  0.9160  0.0151
    17 C(13)  Bbb    -0.0321    -4.310    -1.538    -1.438  0.9073 -0.3992  0.1323
              Bcc     0.0718     9.630     3.436     3.212 -0.1272  0.0393  0.9911
 
              Baa    -0.0470    -6.312    -2.252    -2.106 -0.6098  0.7926  0.0026
    18 C(13)  Bbb    -0.0375    -5.035    -1.797    -1.679  0.7823  0.6013  0.1624
              Bcc     0.0846    11.347     4.049     3.785 -0.1272 -0.1011  0.9867
 
              Baa    -0.0742    -9.957    -3.553    -3.321  0.5647  0.8112  0.1521
    19 C(13)  Bbb    -0.0568    -7.628    -2.722    -2.544  0.8213 -0.5704 -0.0071
              Bcc     0.1310    17.585     6.275     5.866 -0.0810 -0.1289  0.9883
 
              Baa    -0.0331    -4.444    -1.586    -1.482 -0.0465 -0.1542  0.9869
    20 C(13)  Bbb     0.0102     1.366     0.487     0.456  0.7888  0.6005  0.1310
              Bcc     0.0229     3.078     1.098     1.027 -0.6129  0.7846  0.0937
 
              Baa    -0.1378   -18.492    -6.598    -6.168  0.9927  0.0840  0.0866
    21 C(13)  Bbb    -0.1244   -16.689    -5.955    -5.567 -0.0946  0.9874  0.1266
              Bcc     0.2622    35.181    12.554    11.735 -0.0749 -0.1338  0.9882
 
              Baa    -0.0687    -9.225    -3.292    -3.077 -0.5179  0.8490  0.1054
    22 C(13)  Bbb    -0.0660    -8.858    -3.161    -2.955  0.8553  0.5161  0.0457
              Bcc     0.1348    18.083     6.452     6.032  0.0156 -0.1138  0.9934
 
              Baa    -0.0117    -6.238    -2.226    -2.081  0.9894  0.1381 -0.0439
    23 H(1)   Bbb    -0.0090    -4.826    -1.722    -1.610  0.0701 -0.1906  0.9792
              Bcc     0.0207    11.064     3.948     3.691 -0.1269  0.9719  0.1983
 
              Baa    -0.2399   -32.191   -11.487   -10.738 -0.1129  0.9881  0.1047
    24 C(13)  Bbb    -0.2320   -31.134   -11.109   -10.385  0.9757  0.1302 -0.1765
              Bcc     0.4719    63.325    22.596    21.123  0.1881 -0.0823  0.9787
 
              Baa    -0.0320   -17.095    -6.100    -5.702 -0.1383  0.9843  0.1096
    25 H(1)   Bbb    -0.0083    -4.446    -1.586    -1.483  0.1113 -0.0945  0.9893
              Bcc     0.0404    21.541     7.686     7.185  0.9841  0.1490 -0.0964
 
              Baa    -0.0628    -8.430    -3.008    -2.812  0.3837  0.9152 -0.1231
    26 C(13)  Bbb    -0.0602    -8.081    -2.883    -2.695  0.9232 -0.3833  0.0283
              Bcc     0.1230    16.511     5.891     5.507  0.0213  0.1245  0.9920
 
              Baa    -0.0108    -5.736    -2.047    -1.913  0.9872  0.1475 -0.0613
    27 H(1)   Bbb    -0.0087    -4.642    -1.656    -1.548  0.0336  0.1830  0.9825
              Bcc     0.0195    10.378     3.703     3.462 -0.1562  0.9720 -0.1757
 
              Baa    -0.2409   -32.324   -11.534   -10.782 -0.2089  0.9778  0.0191
    28 C(13)  Bbb    -0.2297   -30.828   -11.000   -10.283  0.9703  0.2048  0.1289
              Bcc     0.4706    63.152    22.534    21.065 -0.1221 -0.0455  0.9915
 
              Baa    -0.0329   -17.541    -6.259    -5.851 -0.1438  0.9889  0.0384
    29 H(1)   Bbb    -0.0082    -4.375    -1.561    -1.459 -0.0005 -0.0389  0.9992
              Bcc     0.0411    21.917     7.820     7.311  0.9896  0.1437  0.0061
 
              Baa    -0.0055    -0.736    -0.263    -0.245 -0.6794  0.7105  0.1836
    30 C(13)  Bbb    -0.0029    -0.386    -0.138    -0.129  0.0718 -0.1846  0.9802
              Bcc     0.0084     1.122     0.400     0.374  0.7303  0.6791  0.0744
 
              Baa    -0.0037    -1.961    -0.700    -0.654 -0.0958  0.0413  0.9946
    31 H(1)   Bbb    -0.0032    -1.724    -0.615    -0.575  0.7305 -0.6758  0.0984
              Bcc     0.0069     3.685     1.315     1.229  0.6762  0.7359  0.0346
 
              Baa    -0.0053    -2.848    -1.016    -0.950  0.3740 -0.1489  0.9154
    32 H(1)   Bbb    -0.0039    -2.058    -0.735    -0.687 -0.4818  0.8122  0.3289
              Bcc     0.0092     4.907     1.751     1.637  0.7925  0.5641 -0.2320
 
              Baa    -0.0056    -3.000    -1.070    -1.001 -0.1830 -0.0824  0.9797
    33 H(1)   Bbb    -0.0036    -1.901    -0.678    -0.634 -0.5170  0.8556 -0.0246
              Bcc     0.0092     4.900     1.749     1.635  0.8362  0.5110  0.1991
 
              Baa    -0.0050    -0.676    -0.241    -0.225  0.9161 -0.3936 -0.0769
    34 C(13)  Bbb    -0.0023    -0.304    -0.108    -0.101  0.0019 -0.1876  0.9822
              Bcc     0.0073     0.980     0.350     0.327  0.4010  0.8999  0.1711
 
              Baa    -0.0045    -2.406    -0.859    -0.803  0.2447 -0.3694  0.8965
    35 H(1)   Bbb    -0.0032    -1.716    -0.612    -0.573  0.9337 -0.1597 -0.3206
              Bcc     0.0077     4.123     1.471     1.375  0.2616  0.9155  0.3058
 
              Baa    -0.0045    -2.411    -0.860    -0.804 -0.2138  0.1427  0.9664
    36 H(1)   Bbb    -0.0032    -1.729    -0.617    -0.577  0.9455 -0.2185  0.2414
              Bcc     0.0078     4.140     1.477     1.381  0.2456  0.9653 -0.0882
 
              Baa    -0.0034    -1.789    -0.638    -0.597  0.0743 -0.1485  0.9861
    37 H(1)   Bbb    -0.0023    -1.224    -0.437    -0.408  0.8899 -0.4364 -0.1328
              Bcc     0.0056     3.013     1.075     1.005  0.4501  0.8874  0.0998
 
              Baa    -0.0054    -0.719    -0.257    -0.240  0.3596  0.7638 -0.5360
    38 C(13)  Bbb    -0.0027    -0.359    -0.128    -0.120  0.2941  0.4523  0.8420
              Bcc     0.0080     1.078     0.385     0.360  0.8855 -0.4604 -0.0620
 
              Baa    -0.0050    -2.657    -0.948    -0.886 -0.2060  0.0074  0.9785
    39 H(1)   Bbb    -0.0035    -1.850    -0.660    -0.617  0.2893  0.9557  0.0537
              Bcc     0.0084     4.507     1.608     1.503  0.9348 -0.2942  0.1990
 
              Baa    -0.0059    -3.155    -1.126    -1.052  0.2597  0.0716  0.9630
    40 H(1)   Bbb    -0.0038    -2.036    -0.726    -0.679  0.2377  0.9618 -0.1356
              Bcc     0.0097     5.190     1.852     1.731  0.9360 -0.2641 -0.2327
 
              Baa    -0.0041    -2.196    -0.784    -0.733  0.2252  0.1981  0.9540
    41 H(1)   Bbb    -0.0030    -1.618    -0.577    -0.540  0.4819  0.8283 -0.2858
              Bcc     0.0071     3.814     1.361     1.272  0.8468 -0.5240 -0.0911
 
              Baa    -0.0099    -1.323    -0.472    -0.441 -0.4895 -0.2150  0.8451
    42 C(13)  Bbb    -0.0010    -0.141    -0.050    -0.047  0.5999  0.6204  0.5053
              Bcc     0.0109     1.464     0.522     0.488 -0.6329  0.7543 -0.1747
 
              Baa    -0.0050    -2.656    -0.948    -0.886 -0.0643  0.0040  0.9979
    43 H(1)   Bbb    -0.0032    -1.730    -0.617    -0.577  0.8655  0.4980  0.0538
              Bcc     0.0082     4.386     1.565     1.463 -0.4968  0.8672 -0.0354
 
              Baa    -0.0152    -2.038    -0.727    -0.680  0.6285  0.6165  0.4742
    44 C(13)  Bbb    -0.0085    -1.140    -0.407    -0.380 -0.4936  0.7874 -0.3694
              Bcc     0.0237     3.178     1.134     1.060 -0.6011 -0.0019  0.7992
 
              Baa    -0.0028    -1.509    -0.538    -0.503 -0.3854 -0.0706  0.9201
    45 H(1)   Bbb    -0.0006    -0.320    -0.114    -0.107  0.4616  0.8486  0.2585
              Bcc     0.0034     1.829     0.653     0.610  0.7990 -0.5243  0.2945
 
              Baa    -0.0029    -1.570    -0.560    -0.524  0.6214  0.4149  0.6646
    46 H(1)   Bbb    -0.0018    -0.981    -0.350    -0.327 -0.6265 -0.2462  0.7395
              Bcc     0.0048     2.551     0.910     0.851 -0.4705  0.8759 -0.1069
 
              Baa    -0.0044    -0.589    -0.210    -0.196  0.0417  0.1584  0.9865
    47 C(13)  Bbb    -0.0030    -0.404    -0.144    -0.135  0.9134 -0.4062  0.0266
              Bcc     0.0074     0.992     0.354     0.331  0.4049  0.9000 -0.1616
 
              Baa    -0.0046    -2.432    -0.868    -0.811 -0.1303  0.2908  0.9478
    48 H(1)   Bbb    -0.0031    -1.677    -0.599    -0.560  0.9645 -0.1844  0.1892
              Bcc     0.0077     4.109     1.466     1.371  0.2299  0.9388 -0.2565
 
              Baa    -0.0040    -2.132    -0.761    -0.711 -0.1169 -0.0456  0.9921
    49 H(1)   Bbb    -0.0024    -1.268    -0.453    -0.423  0.9519 -0.2901  0.0988
              Bcc     0.0064     3.401     1.213     1.134  0.2833  0.9559  0.0773
 
              Baa    -0.0038    -2.050    -0.732    -0.684 -0.2003  0.2827  0.9381
    50 H(1)   Bbb    -0.0010    -0.544    -0.194    -0.181  0.8935 -0.3401  0.2933
              Bcc     0.0049     2.594     0.926     0.865  0.4020  0.8969 -0.1844
 
              Baa    -0.0404    -5.423    -1.935    -1.809  0.1482 -0.4756  0.8671
    51 C(13)  Bbb     0.0109     1.462     0.522     0.488  0.7126 -0.5566 -0.4271
              Bcc     0.0295     3.961     1.413     1.321  0.6857  0.6812  0.2564
 
              Baa    -0.0064    -3.426    -1.223    -1.143  0.1138 -0.0470  0.9924
    52 H(1)   Bbb    -0.0053    -2.824    -1.008    -0.942 -0.5880  0.8020  0.1054
              Bcc     0.0117     6.251     2.230     2.085  0.8008  0.5955 -0.0636
 
              Baa    -0.0493    -6.615    -2.360    -2.207 -0.5720  0.6535  0.4957
    53 C(13)  Bbb    -0.0420    -5.631    -2.009    -1.878  0.8199  0.4734  0.3219
              Bcc     0.0913    12.246     4.370     4.085  0.0243 -0.5906  0.8066
 
              Baa    -0.0044    -2.352    -0.839    -0.784  0.5772 -0.0801  0.8127
    54 H(1)   Bbb    -0.0009    -0.491    -0.175    -0.164  0.7546  0.4327 -0.4933
              Bcc     0.0053     2.842     1.014     0.948 -0.3121  0.8980  0.3102
 
              Baa    -0.0072    -3.829    -1.366    -1.277 -0.2730  0.7292  0.6275
    55 H(1)   Bbb    -0.0021    -1.126    -0.402    -0.376  0.2444 -0.5783  0.7784
              Bcc     0.0093     4.955     1.768     1.653  0.9305  0.3658 -0.0203
 
              Baa    -0.0062    -0.833    -0.297    -0.278  0.4515  0.8852  0.1126
    56 C(13)  Bbb    -0.0024    -0.319    -0.114    -0.106  0.0597 -0.1559  0.9860
              Bcc     0.0086     1.152     0.411     0.384  0.8903 -0.4384 -0.1232
 
              Baa    -0.0058    -3.091    -1.103    -1.031  0.2622  0.0195  0.9648
    57 H(1)   Bbb    -0.0038    -2.009    -0.717    -0.670  0.2275  0.9704 -0.0814
              Bcc     0.0096     5.101     1.820     1.701  0.9378 -0.2409 -0.2500
 
              Baa    -0.0057    -3.037    -1.084    -1.013 -0.2804 -0.3932  0.8757
    58 H(1)   Bbb    -0.0042    -2.233    -0.797    -0.745  0.1964  0.8695  0.4533
              Bcc     0.0099     5.270     1.880     1.758  0.9396 -0.2991  0.1666
 
              Baa    -0.0038    -2.043    -0.729    -0.682  0.0430 -0.0596  0.9973
    59 H(1)   Bbb    -0.0037    -1.952    -0.697    -0.651  0.5210  0.8531  0.0285
              Bcc     0.0075     3.995     1.426     1.333  0.8525 -0.5184 -0.0677
 
              Baa    -0.0046    -0.613    -0.219    -0.204  0.7845  0.6198 -0.0202
    60 C(13)  Bbb    -0.0030    -0.407    -0.145    -0.136  0.1151 -0.1135  0.9868
              Bcc     0.0076     1.020     0.364     0.340 -0.6094  0.7765  0.1604
 
              Baa    -0.0045    -2.419    -0.863    -0.807 -0.0948 -0.4282  0.8987
    61 H(1)   Bbb    -0.0032    -1.730    -0.617    -0.577  0.8652  0.4111  0.2872
              Bcc     0.0078     4.149     1.480     1.384 -0.4925  0.8047  0.3315
 
              Baa    -0.0034    -1.837    -0.655    -0.613 -0.0200 -0.1960  0.9804
    62 H(1)   Bbb    -0.0024    -1.277    -0.456    -0.426  0.7631  0.6306  0.1416
              Bcc     0.0058     3.114     1.111     1.039 -0.6460  0.7509  0.1370
 
              Baa    -0.0045    -2.379    -0.849    -0.794 -0.0162  0.0440  0.9989
    63 H(1)   Bbb    -0.0034    -1.834    -0.654    -0.612  0.8707  0.4918 -0.0075
              Bcc     0.0079     4.213     1.503     1.405 -0.4916  0.8696 -0.0463
 
              Baa    -1.2961    93.787    33.466    31.284  0.7529  0.0133  0.6580
    64 O(17)  Bbb     0.2940   -21.272    -7.590    -7.096 -0.6575  0.0567  0.7513
              Bcc     1.0021   -72.515   -25.875   -24.188  0.0274  0.9983 -0.0514
 
              Baa    -1.8092   130.914    46.713    43.668  0.7965  0.0203  0.6042
    65 O(17)  Bbb    -0.5188    37.543    13.396    12.523 -0.1130  0.9868  0.1158
              Bcc     2.3281  -168.456   -60.109   -56.191 -0.5939 -0.1606  0.7883
 
              Baa    -0.0020    -0.267    -0.095    -0.089 -0.1239  0.9892  0.0786
    66 C(13)  Bbb    -0.0019    -0.260    -0.093    -0.087  0.9851  0.1131  0.1298
              Bcc     0.0039     0.526     0.188     0.176 -0.1195 -0.0935  0.9884
 
              Baa    -0.0020    -1.063    -0.379    -0.355 -0.1659  0.9849  0.0499
    67 H(1)   Bbb    -0.0019    -1.004    -0.358    -0.335  0.9532  0.1472  0.2641
              Bcc     0.0039     2.067     0.737     0.689 -0.2528 -0.0914  0.9632
 
              Baa    -0.0016    -0.857    -0.306    -0.286 -0.2247  0.9740 -0.0270
    68 H(1)   Bbb    -0.0015    -0.822    -0.293    -0.274  0.9700  0.2263  0.0887
              Bcc     0.0031     1.679     0.599     0.560 -0.0925  0.0062  0.9957
 
              Baa    -0.0017    -0.882    -0.315    -0.294 -0.0192  0.9793  0.2014
    69 H(1)   Bbb    -0.0016    -0.842    -0.300    -0.281  0.9957  0.0005  0.0925
              Bcc     0.0032     1.724     0.615     0.575 -0.0905 -0.2023  0.9751
 
              Baa    -0.0041    -0.156    -0.056    -0.052  0.9790 -0.1777 -0.0998
    70 N(14)  Bbb    -0.0039    -0.150    -0.054    -0.050  0.1864  0.9787  0.0860
              Bcc     0.0079     0.307     0.109     0.102  0.0824 -0.1028  0.9913
 
              Baa    -0.0025    -1.350    -0.482    -0.450 -0.0619  0.9928  0.1023
    71 H(1)   Bbb    -0.0023    -1.247    -0.445    -0.416  0.9723  0.0831 -0.2183
              Bcc     0.0049     2.597     0.927     0.866  0.2252 -0.0860  0.9705
 
              Baa    -0.0038    -0.511    -0.182    -0.170  0.9968 -0.0428  0.0671
    72 C(13)  Bbb    -0.0028    -0.376    -0.134    -0.125  0.0376  0.9964  0.0765
              Bcc     0.0066     0.887     0.316     0.296 -0.0702 -0.0737  0.9948
 
              Baa    -0.0059    -0.793    -0.283    -0.265  0.7311 -0.5864 -0.3486
    73 C(13)  Bbb    -0.0058    -0.777    -0.277    -0.259  0.5629  0.8073 -0.1775
              Bcc     0.0117     1.570     0.560     0.524  0.3855 -0.0664  0.9203
 
              Baa    -0.0060    -3.218    -1.148    -1.073 -0.1243  0.9838  0.1290
    74 H(1)   Bbb    -0.0040    -2.140    -0.764    -0.714  0.9135  0.1642 -0.3721
              Bcc     0.0100     5.358     1.912     1.787  0.3873 -0.0716  0.9192
 
              Baa    -0.0263    -1.015    -0.362    -0.338  0.9957  0.0190 -0.0906
    75 N(14)  Bbb    -0.0214    -0.827    -0.295    -0.276 -0.0098  0.9948  0.1016
              Bcc     0.0477     1.842     0.657     0.614  0.0920 -0.1003  0.9907
 
              Baa    -0.0062    -0.829    -0.296    -0.277 -0.2113  0.9757  0.0583
    76 C(13)  Bbb    -0.0055    -0.743    -0.265    -0.248  0.9703  0.2023  0.1323
              Bcc     0.0117     1.573     0.561     0.525 -0.1173 -0.0846  0.9895
 
              Baa    -0.0063    -3.362    -1.200    -1.121 -0.1972  0.9803  0.0117
    77 H(1)   Bbb    -0.0048    -2.540    -0.906    -0.847  0.9323  0.1838  0.3114
              Bcc     0.0111     5.902     2.106     1.969 -0.3032 -0.0723  0.9502
 

 ---------------------------------------------------------------------------------

 Unable to Open any file for archive entry.
 1\1\GINC-BGN1022\SP\UAPFD\Gen\C34H34Fe1N6O2(1+,6)\BECSLEIP\27-Aug-2024
 \0\\# apfd/gen scf=maxcycle=999 geom=check\\2gdm_III_H\\1,6\Fe,0,37.81
 99467913,-29.5565627832,27.9091663681\N,0,37.7764991027,-27.5948477081
 ,27.5212283829\N,0,38.9809816242,-29.2410281057,29.5359999475\N,0,37.7
 684083938,-31.5137059829,28.3914174152\N,0,36.6807499184,-29.896128520
 9,26.2995413168\C,0,37.0839426664,-26.9723182844,26.5337254537\C,0,37.
 4038976726,-25.5616916602,26.5139467964\C,0,38.2958588454,-25.35459651
 64,27.5211915791\C,0,38.4915509958,-26.6355877616,28.1650391369\C,0,39
 .5149310368,-28.0461484701,29.8979512567\C,0,40.225913944,-28.17035032
 58,31.1453960988\C,0,39.9876656738,-29.4429825279,31.5977908678\C,0,39
 .2201972685,-30.1014975935,30.5575462222\C,0,38.1966535728,-32.0926213
 416,29.5446472027\C,0,37.9766502987,-33.5159831181,29.5029569412\C,0,3
 7.3804458214,-33.7802949383,28.2972530419\C,0,37.2276960325,-32.499183
 8033,27.6354307829\C,0,36.3034334211,-31.1116725485,25.8311440077\C,0,
 35.5265948561,-30.961843183,24.6178730951\C,0,35.4006463253,-29.624211
 9784,24.406619392\C,0,36.1160444867,-28.9711655508,25.4843274043\C,0,3
 6.2791041831,-27.6017921835,25.5978554012\H,0,35.7901702377,-26.979067
 939,24.8639281231\C,0,39.3861958007,-26.8559749796,29.1951511956\H,0,3
 9.921460224,-25.9986185087,29.5747024525\C,0,38.843339497,-31.43217359
 17,30.5775467697\H,0,39.1084760203,-32.0134459659,31.4477070697\C,0,36
 .6186792514,-32.3298377196,26.4032111362\H,0,36.2877103867,-33.2174032
 829,25.8863507534\C,0,38.9681085947,-24.0929295911,27.9413725183\H,0,3
 8.6272652721,-23.2541992765,27.3399439793\H,0,40.0480023865,-24.181409
 0093,27.8244262492\H,0,38.7577226666,-23.8742143972,28.9884093146\C,0,
 36.8448786406,-24.5888075799,25.5340134541\H,0,35.755349091,-24.603394
 1565,25.5575674087\H,0,37.1650740481,-24.8421199423,24.5234948389\H,0,
 37.1807382917,-23.579075303,25.7557533009\C,0,41.0412176736,-27.097153
 6491,31.7770636342\H,0,40.411503329,-26.3925960241,32.3234487126\H,0,4
 1.5910920505,-26.5418438476,31.0193319121\H,0,41.7525862426,-27.533745
 1618,32.4747196402\C,0,40.4399233675,-30.0788539156,32.8162288828\H,0,
 40.6465701614,-31.139524312,32.7421487306\C,0,40.6025690627,-29.471029
 5603,33.9867346286\H,0,40.3706393551,-28.4301159302,34.1305119713\H,0,
 40.9545458591,-30.0049990497,34.853474441\C,0,38.2931329422,-34.463025
 8905,30.6064124088\H,0,38.088930813,-34.0097542223,31.5753950092\H,0,3
 9.346226721,-34.7459227545,30.5809993332\H,0,37.6929393235,-35.3652482
 79,30.5078850608\C,0,36.9394277052,-35.047610585,27.7555942205\H,0,36.
 0522414864,-35.0091515428,27.1345495858\C,0,37.53836341,-36.2171219081
 ,27.9526624264\H,0,38.4505520448,-36.3053753487,28.5158348886\H,0,37.1
 51175837,-37.1265062809,27.524254948\C,0,35.000582833,-32.100203063,23
 .8145327518\H,0,34.3187090138,-32.7092508383,24.4087942315\H,0,35.8202
 151129,-32.7356201661,23.4809285735\H,0,34.4655398128,-31.7415084083,2
 2.9389590762\C,0,34.6944666359,-28.9018711586,23.312081805\H,0,33.9475
 087237,-28.2212001536,23.7207824951\H,0,34.195344013,-29.6009405584,22
 .6460609903\H,0,35.4025745312,-28.3158904818,22.726440568\O,0,39.24705
 34517,-29.7148168523,27.0390515138\O,0,39.340168216,-30.6239442076,26.
 1449670249\C,0,32.6583804928,-30.0332971336,30.6267891628\H,0,32.31120
 3617,-30.8266256276,29.9722753744\H,0,31.9517278004,-29.2049321636,30.
 5775466826\H,0,32.6741992333,-30.4070493296,31.6504652961\N,0,34.69808
 32853,-28.5968241634,30.8479650851\H,0,34.3673202038,-28.0782714913,31
 .6456877095\C,0,34.0123788835,-29.5961749453,30.2051479433\C,0,35.8838
 12268,-28.446393522,30.2215541706\H,0,36.631082488,-27.7343633982,30.5
 06679304\N,0,35.9928045316,-29.2842203549,29.2246938863\C,0,34.8395119
 639,-30.0076956566,29.1985907051\H,0,34.686712162,-30.7694419358,28.46
 21285391\\Version=ES64L-G16RevC.02\State=6-A\HF=-3056.9422799\S2=8.887
 855\S2-1=0.\S2A=8.753372\RMSD=4.444e-09\Dipole=-1.9965855,0.8214848,1.
 5987526\Quadrupole=-16.5404315,11.4601668,5.0802647,3.2444957,14.96049
 52,-0.0323001\PG=C01 [X(C34H34Fe1N6O2)]\\@
 The archive entry for this job was punched.


 TIME IS NATURE'S WAY OF MAKING SURE EVERYTHING
 DOESN'T HAPPEN AT ONCE.
                     - WOODY ALLEN
 Job cpu time:       0 days 13 hours 36 minutes 57.9 seconds.
 Elapsed time:       0 days  0 hours 13 minutes 46.3 seconds.
 File lengths (MBytes):  RWF=    442 Int=      0 D2E=      0 Chk=    158 Scr=      1
 Normal termination of Gaussian 16 at Tue Aug 27 15:52:48 2024.
