 Entering Gaussian System, Link 0=g16
 Input=2ggn01.com
 Output=2ggn01.log
 Initial command:
 /sw/chem/gaussian/g16_C02/a100/g16/l1.exe "/local/becsleip_7993335/Gau-3991497.inp" -scrdir="/local/becsleip_7993335/"
 Entering Link 1 = /sw/chem/gaussian/g16_C02/a100/g16/l1.exe PID=   3991498.
  
 Copyright (c) 1988-2021, Gaussian, Inc.  All Rights Reserved.
  
 This is part of the Gaussian(R) 16 program.  It is based on
 the Gaussian(R) 09 system (copyright 2009, Gaussian, Inc.),
 the Gaussian(R) 03 system (copyright 2003, Gaussian, Inc.),
 the Gaussian(R) 98 system (copyright 1998, Gaussian, Inc.),
 the Gaussian(R) 94 system (copyright 1995, Gaussian, Inc.),
 the Gaussian 92(TM) system (copyright 1992, Gaussian, Inc.),
 the Gaussian 90(TM) system (copyright 1990, Gaussian, Inc.),
 the Gaussian 88(TM) system (copyright 1988, Gaussian, Inc.),
 the Gaussian 86(TM) system (copyright 1986, Carnegie Mellon
 University), and the Gaussian 82(TM) system (copyright 1983,
 Carnegie Mellon University). Gaussian is a federally registered
 trademark of Gaussian, Inc.
  
 This software contains proprietary and confidential information,
 including trade secrets, belonging to Gaussian, Inc.
  
 This software is provided under written license and may be
 used, copied, transmitted, or stored only in accord with that
 written license.
  
 The following legend is applicable only to US Government
 contracts under FAR:
  
                    RESTRICTED RIGHTS LEGEND
  
 Use, reproduction and disclosure by the US Government is
 subject to restrictions as set forth in subparagraphs (a)
 and (c) of the Commercial Computer Software - Restricted
 Rights clause in FAR 52.227-19.
  
 Gaussian, Inc.
 340 Quinnipiac St., Bldg. 40, Wallingford CT 06492
  
  
 ---------------------------------------------------------------
 Warning -- This program may not be used in any manner that
 competes with the business of Gaussian, Inc. or will provide
 assistance to any competitor of Gaussian, Inc.  The licensee
 of this program is prohibited from giving any competitor of
 Gaussian, Inc. access to this program.  By using this program,
 the user acknowledges that Gaussian, Inc. is engaged in the
 business of creating and licensing software in the field of
 computational chemistry and represents and warrants to the
 licensee that it is not a competitor of Gaussian, Inc. and that
 it will not use this program in any manner prohibited above.
 ---------------------------------------------------------------
  

 Cite this work as:
 Gaussian 16, Revision C.02,
 M. J. Frisch, G. W. Trucks, H. B. Schlegel, G. E. Scuseria, 
 M. A. Robb, J. R. Cheeseman, G. Scalmani, V. Barone, 
 G. A. Petersson, H. Nakatsuji, X. Li, M. Caricato, A. V. Marenich, 
 J. Bloino, B. G. Janesko, R. Gomperts, B. Mennucci, H. P. Hratchian, 
 J. V. Ortiz, A. F. Izmaylov, J. L. Sonnenberg, D. Williams-Young, 
 F. Ding, F. Lipparini, F. Egidi, J. Goings, B. Peng, A. Petrone, 
 T. Henderson, D. Ranasinghe, V. G. Zakrzewski, J. Gao, N. Rega, 
 G. Zheng, W. Liang, M. Hada, M. Ehara, K. Toyota, R. Fukuda, 
 J. Hasegawa, M. Ishida, T. Nakajima, Y. Honda, O. Kitao, H. Nakai, 
 T. Vreven, K. Throssell, J. A. Montgomery, Jr., J. E. Peralta, 
 F. Ogliaro, M. J. Bearpark, J. J. Heyd, E. N. Brothers, K. N. Kudin, 
 V. N. Staroverov, T. A. Keith, R. Kobayashi, J. Normand, 
 K. Raghavachari, A. P. Rendell, J. C. Burant, S. S. Iyengar, 
 J. Tomasi, M. Cossi, J. M. Millam, M. Klene, C. Adamo, R. Cammi, 
 J. W. Ochterski, R. L. Martin, K. Morokuma, O. Farkas, 
 J. B. Foresman, and D. J. Fox, Gaussian, Inc., Wallingford CT, 2019.
 
 ******************************************
 Gaussian 16:  ES64L-G16RevC.02  7-Dec-2021
                26-Aug-2024 
 ******************************************
 %mem=16GB
 %CPU=0-71
 SetSPE:  set environment variable "OMP_PROC_BIND" = "true"
 SetSPE:  set environment variable "OMP_PLACES" = "{0},{1},{2},{3},{4},{5},{6},{7},{8},{9},{10},{11},{12},{13},{14},{15},{16},{17},{18},{19},{20},{21},{22},{23},{24},{25},{26},{27},{28},{29},{30},{31},{32},{33},{34},{35},{36},{37},{38},{39},{40},{41},{42},{43},{44},{45},{46},{47},{48},{49},{50},{51},{52},{53},{54},{55},{56},{57},{58},{59},{60},{61},{62},{63},{64},{65},{66},{67},{68},{69},{70},{71}"
 Will use up to   72 processors via shared memory.
 %gpucpu=0,1,2,3=0,1,2,3
 Will use    4 GPUs:
 Thread  CPU   GPU
      0    0     0
      1    1     1
      2    2     2
      3    3     3
      4    4    -1
      5    5    -1
      6    6    -1
      7    7    -1
      8    8    -1
      9    9    -1
     10   10    -1
     11   11    -1
     12   12    -1
     13   13    -1
     14   14    -1
     15   15    -1
     16   16    -1
     17   17    -1
     18   18    -1
     19   19    -1
     20   20    -1
     21   21    -1
     22   22    -1
     23   23    -1
     24   24    -1
     25   25    -1
     26   26    -1
     27   27    -1
     28   28    -1
     29   29    -1
     30   30    -1
     31   31    -1
     32   32    -1
     33   33    -1
     34   34    -1
     35   35    -1
     36   36    -1
     37   37    -1
     38   38    -1
     39   39    -1
     40   40    -1
     41   41    -1
     42   42    -1
     43   43    -1
     44   44    -1
     45   45    -1
     46   46    -1
     47   47    -1
     48   48    -1
     49   49    -1
     50   50    -1
     51   51    -1
     52   52    -1
     53   53    -1
     54   54    -1
     55   55    -1
     56   56    -1
     57   57    -1
     58   58    -1
     59   59    -1
     60   60    -1
     61   61    -1
     62   62    -1
     63   63    -1
     64   64    -1
     65   65    -1
     66   66    -1
     67   67    -1
     68   68    -1
     69   69    -1
     70   70    -1
     71   71    -1
 SetGPE:  set environment variable "OMP_PROC_BIND" = "true"
 SetGPE:  set environment variable "OMP_PLACES" = "{0},{1},{2},{3},{4},{5},{6},{7},{8},{9},{10},{11},{12},{13},{14},{15},{16},{17},{18},{19},{20},{21},{22},{23},{24},{25},{26},{27},{28},{29},{30},{31},{32},{33},{34},{35},{36},{37},{38},{39},{40},{41},{42},{43},{44},{45},{46},{47},{48},{49},{50},{51},{52},{53},{54},{55},{56},{57},{58},{59},{60},{61},{62},{63},{64},{65},{66},{67},{68},{69},{70},{71}"
 %chk=2ggn_II_O.chk
 Properties for Device   0
 Minimum vector length:                              32
 Maximum vector length:                            1024
 Number of SMPs:                                    108
 Maximum number of threads per SMP:                2048
 Number of ASync Engines:                             5
 Memory:                                           9207742464
 Properties for Device   1
 Minimum vector length:                              32
 Maximum vector length:                            1024
 Number of SMPs:                                    108
 Maximum number of threads per SMP:                2048
 Number of ASync Engines:                             5
 Memory:                                           9207742464
 Properties for Device   2
 Minimum vector length:                              32
 Maximum vector length:                            1024
 Number of SMPs:                                    108
 Maximum number of threads per SMP:                2048
 Number of ASync Engines:                             5
 Memory:                                           9207742464
 Properties for Device   3
 Minimum vector length:                              32
 Maximum vector length:                            1024
 Number of SMPs:                                    108
 Maximum number of threads per SMP:                2048
 Number of ASync Engines:                             5
 Memory:                                           9207742464
   8286968217 words of memory will be used on each GPU.
 ------------------------------------------
 # polar def2tzvp apfd int=(grid=ultrafine)
 ------------------------------------------
 1/38=1,172=1/1;
 2/12=2,17=6,18=5,40=1/2;
 3/5=44,7=101,11=2,25=1,30=1,74=-44,75=-5/1,2,3;
 4//1;
 5/5=2,38=5,98=1/2;
 8/6=4,10=90,11=11/1;
 10/6=1,13=10/2;
 6/7=2,8=2,9=2,10=2,28=1/1;
 99/5=1,9=1/99;
 ---------
 2ggn_II_S
 ---------
 Symbolic Z-matrix:
 Charge =  0 Multiplicity = 1
 Fe                    15.10427   54.63901   19.27318 
 N                     13.47484   55.74737   18.53799 
 N                     14.75872   53.60675   17.29747 
 N                     16.33289   53.12528   19.66842 
 N                     15.50604   55.70639   20.72989 
 C                     13.08611   56.82166   19.28337 
 C                     12.00006   57.51574   18.61448 
 C                     11.738    56.81198   17.48002 
 C                     12.69281   55.73144   17.44529 
 C                     13.74358   53.80971   16.39283 
 C                     13.61277   52.66554   15.52232 
 C                     14.57339   51.77258   15.91551 
 C                     15.2604   52.39302   17.03121 
 C                     16.75752   52.05319   18.95138 
 C                     17.82963   51.38816   19.64561 
 C                     18.01413   52.06735   20.82642 
 C                     17.08352   53.18004   20.80033 
 C                     16.33228   55.35038   21.7447 
 C                     16.09778   56.2237   22.88274 
 C                     15.13722   57.11133   22.4949 
 C                     14.73167   56.73605   21.16026 
 C                     13.74309   57.34052   20.39758 
 H                     13.29886   58.23116   20.82441 
 C                     12.77426   54.79029   16.43632 
 H                     12.05751   54.856    15.63154 
 C                     16.33252   51.78247   17.67203 
 H                     16.73612   50.90647   17.18402 
 C                     16.9902   54.13563   21.81157 
 H                     17.57072   53.95058   22.70341 
 C                     10.72701   57.05388   16.41093 
 H                     11.21203   57.16323   15.43951 
 H                     10.15619   57.95859   16.60886 
 H                     10.02917   56.21636   16.34665 
 C                     11.35584   58.77662   19.08057 
 H                     12.08825   59.58702   19.11573 
 H                     10.93111   58.65555   20.07671 
 H                     10.55759   59.06749   18.39926 
 C                     12.51799   52.46653   14.52601 
 H                     12.47277   53.28315   13.80742 
 H                     11.55832   52.41504   15.04388 
 H                     12.65694   51.53341   13.981 
 C                     14.69725   50.41438   15.4306 
 H                     14.56621   50.28386   14.36112 
 C                     14.86039   49.3504   16.20311 
 H                     14.95278   49.4366   17.273 
 H                     14.88733   48.35653   15.79568 
 C                     18.60953   50.21485   19.15255 
 H                     18.70514   50.23549   18.06548 
 H                     18.13007   49.27049   19.43666 
 H                     19.60693   50.23111   19.59243 
 C                     19.0384   51.88078   21.82967 
 H                     19.36061   52.79825   22.31431 
 C                     19.63562   50.7482   22.18056 
 H                     19.34603   49.78389   21.80474 
 H                     20.43813   50.75301   22.89962 
 C                     16.83876   56.13669   24.17432 
 H                     17.91152   56.2367   24.00454 
 H                     16.66162   55.17321   24.65929 
 H                     16.52626   56.9245   24.85677 
 C                     14.57351   58.25923   23.26612 
 H                     14.73919   59.19548   22.72604 
 H                     15.05264   58.34144   24.23909 
 H                     13.49959   58.14351   23.42141 
 C                     19.79287   56.79719   17.10688 
 H                     20.44256   56.46456   17.90973 
 H                     19.89039   57.87786   17.0032 
 H                     20.12566   56.33529   16.17707 
 N                     17.36949   56.6689   16.52248 
 H                     17.46356   57.107    15.62228 
 C                     18.38924   56.41453   17.40134 
 C                     16.23488   56.16684   17.05521 
 H                     15.27186   56.23517   16.59718 
 N                     16.47249   55.61418   18.21831 
 C                     17.80585   55.75914   18.4493 
 H                     18.25668   55.40558   19.35273 
 C                     12.15649   51.7294   23.12527 
 H                     12.       50.67674   22.8921 
 H                     11.21508   52.13759   23.49414 
 H                     12.89821   51.80121   23.9134 
 N                     11.9082   52.46925   20.75191 
 H                     11.0299   52.00869   20.59128 
 C                     12.62314   52.46134   21.92097 
 C                     12.61403   53.1754   19.84391 
 H                     12.29614   53.36363   18.84129 
 N                     13.73134   53.62248   20.36049 
 C                     13.74932   53.18405   21.65483 
 H                     14.55399   53.42075   22.31887 
 
 Stoichiometry    C38H40FeN8
 Framework group  C1[X(C38H40FeN8)]
 Deg. of freedom   255
 Full point group                 C1      NOp   1
 Largest Abelian subgroup         C1      NOp   1
 Largest concise Abelian subgroup C1      NOp   1
                         Standard orientation:                         
 ---------------------------------------------------------------------
 Center     Atomic      Atomic             Coordinates (Angstroms)
 Number     Number       Type             X           Y           Z
 ---------------------------------------------------------------------
      1         26           0       -0.134435   -0.237000    0.171826
      2          7           0       -2.233693   -0.317786    0.068824
      3          7           0       -0.640492    1.957281    0.303903
      4          7           0        1.744736    0.373080   -0.059771
      5          7           0        0.185249   -2.050810    0.346761
      6          6           0       -2.793390   -1.561777    0.062314
      7          6           0       -4.241052   -1.448382    0.054249
      8          6           0       -4.519967   -0.117117    0.024460
      9          6           0       -3.248600    0.562977    0.063395
     10          6           0       -1.869402    2.560413    0.177079
     11          6           0       -1.709842    3.959106   -0.142629
     12          6           0       -0.361116    4.188313   -0.198845
     13          6           0        0.270884    2.912893    0.076067
     14          6           0        2.341423    1.592701   -0.041691
     15          6           0        3.773496    1.441728   -0.038584
     16          6           0        4.026456    0.091806   -0.096806
     17          6           0        2.731439   -0.561751   -0.072054
     18          6           0        1.399396   -2.638780    0.207522
     19          6           0        1.219925   -4.066314    0.000768
     20          6           0       -0.123759   -4.296351    0.051418
     21          6           0       -0.764998   -3.011610    0.209044
     22          6           0       -2.130318   -2.771538    0.260114
     23          1           0       -2.762299   -3.650939    0.265253
     24          6           0       -3.094886    1.936579    0.067381
     25          1           0       -3.988352    2.540343    0.013521
     26          6           0        1.652430    2.769313    0.135858
     27          1           0        2.221673    3.688202    0.141364
     28          6           0        2.562134   -1.945864   -0.076833
     29          1           0        3.452800   -2.538986   -0.223621
     30          6           0       -5.832894    0.589475    0.001622
     31          1           0       -5.922187    1.264380    0.854498
     32          1           0       -6.659009   -0.117304    0.040373
     33          1           0       -5.933010    1.183003   -0.909561
     34          6           0       -5.202936   -2.585410    0.117738
     35          1           0       -5.074419   -3.140162    1.050552
     36          1           0       -5.052548   -3.273769   -0.713468
     37          1           0       -6.226959   -2.216875    0.078246
     38          6           0       -2.821312    4.887823   -0.507222
     39          1           0       -3.579351    4.936011    0.272742
     40          1           0       -3.299269    4.541944   -1.425774
     41          1           0       -2.441731    5.893770   -0.683378
     42          6           0        0.257524    5.414544   -0.655820
     43          1           0       -0.202429    6.332236   -0.303291
     44          6           0        1.256663    5.476498   -1.523774
     45          1           0        1.711583    4.587297   -1.927494
     46          1           0        1.640705    6.416385   -1.875367
     47          6           0        4.778934    2.541280    0.051244
     48          1           0        4.400222    3.371965    0.649449
     49          1           0        5.038874    2.925007   -0.942541
     50          1           0        5.690418    2.162830    0.514427
     51          6           0        5.293262   -0.598597   -0.001961
     52          1           0        5.240946   -1.559714    0.501979
     53          6           0        6.481796   -0.176712   -0.416623
     54          1           0        6.627239    0.728237   -0.977788
     55          1           0        7.367000   -0.760219   -0.224212
     56          6           0        2.339313   -5.036239   -0.175386
     57          1           0        3.016203   -4.994667    0.678856
     58          1           0        2.915582   -4.804699   -1.074921
     59          1           0        1.963297   -6.053503   -0.263766
     60          6           0       -0.842435   -5.602083   -0.042366
     61          1           0       -1.435008   -5.773345    0.860528
     62          1           0       -0.136607   -6.423379   -0.143743
     63          1           0       -1.517689   -5.622486   -0.899354
     64          6           0        1.333750   -0.026419    5.569375
     65          1           0        2.318454   -0.459494    5.427565
     66          1           0        0.789837   -0.626173    6.299148
     67          1           0        1.451694    0.978403    5.975666
     68          7           0       -0.638091    0.571797    4.160581
     69          1           0       -1.164492    0.995185    4.905424
     70          6           0        0.611176    0.020867    4.273630
     71          6           0       -1.000696    0.501545    2.861813
     72          1           0       -1.938897    0.840177    2.478425
     73          7           0       -0.060315   -0.063201    2.146676
     74          6           0        0.948495   -0.368529    3.007654
     75          1           0        1.836894   -0.861592    2.672894
     76          6           0        0.773576   -1.333467   -5.302402
     77          1           0        1.122687   -0.487571   -5.893619
     78          1           0        0.004611   -1.852209   -5.875591
     79          1           0        1.605786   -2.011182   -5.145638
     80          7           0       -0.762950    0.056116   -3.905977
     81          1           0       -1.236760    0.492846   -4.676749
     82          6           0        0.245515   -0.867388   -3.995585
     83          6           0       -0.979603    0.301548   -2.596726
     84          1           0       -1.721162    0.972087   -2.219645
     85          7           0       -0.176965   -0.409973   -1.845301
     86          6           0        0.592153   -1.142836   -2.705086
     87          1           0        1.333440   -1.829042   -2.352842
 ---------------------------------------------------------------------
 Rotational constants (GHZ):           0.0777487           0.0743482           0.0595180
 Standard basis: def2TZVP (5D, 7F)
 There are  1948 symmetry adapted cartesian basis functions of A   symmetry.
 There are  1711 symmetry adapted basis functions of A   symmetry.
  1711 basis functions,  2768 primitive gaussians,  1948 cartesian basis functions
   175 alpha electrons      175 beta electrons
       nuclear repulsion energy      7160.0704334010 Hartrees.
 NAtoms=   87 NActive=   87 NUniq=   87 SFac= 1.00D+00 NAtFMM=   60 NAOKFM=T Big=T
 Integral buffers will be    131072 words long.
 Raffenetti 2 integral format.
 Two-electron integral symmetry is turned on.
 R6APFD:  NTU= -4 IXU= 1 FactS= 1.050
 Nuclear repulsion after empirical dispersion term =     7159.8926552894 Hartrees.
 One-electron integrals computed using PRISM.
   1 Symmetry operations used in ECPInt.
 ECPInt:  NShTT=  232221 NPrTT=  716997 LenC2=  183290 LenP2D=  371417.
 LDataN:  DoStor=T MaxTD1= 6 Len=  172
 Number of processors reduced to  20 by ecpmxn.
 NBasis=  1711 RedAO= T EigKep=  4.67D-06  NBF=  1711
 NBsUse=  1711 1.00D-06 EigRej= -1.00D+00 NBFU=  1711
 ExpMin= 4.20D-02 ExpMax= 3.01D+05 ExpMxC= 2.91D+03 IAcc=3 IRadAn=         5 AccDes= 0.00D+00
 Harris functional with IExCor= 3731 and IRadAn=       5 diagonalized for initial guess.
 HarFok:  IExCor= 3731 AccDes= 0.00D+00 IRadAn=         5 IDoV= 1 UseB2=F ITyADJ=14
 ICtDFT=  3500011 ScaDFX=  1.000000  1.000000  1.000000  1.000000
 FoFCou: FMM=F IPFlag=           0 FMFlag=      100000 FMFlg1=        2001
         NFxFlg=           0 DoJE=T BraDBF=F KetDBF=T FulRan=T
         wScrn=  0.000000 ICntrl=       500 IOpCl=  0 I1Cent=   200000004 NGrid=           0
         NMat0=    1 NMatS0=      1 NMatT0=    0 NMatD0=    1 NMtDS0=    0 NMtDT0=    0
 Petite list used in FoFCou.
 Requested convergence on RMS density matrix=1.00D-08 within 128 cycles.
 Requested convergence on MAX density matrix=1.00D-06.
 Requested convergence on             energy=1.00D-06.
 No special actions if energy rises.
 EnCoef did     2 forward-backward iterations
 EnCoef did   100 forward-backward iterations
 EnCoef did   100 forward-backward iterations
 EnCoef did   100 forward-backward iterations
 EnCoef did     3 forward-backward iterations
 EnCoef did   100 forward-backward iterations
 Restarting incremental Fock formation.
 SCF Done:  E(RAPFD) =  -3173.03941218     A.U. after   28 cycles
            NFock= 28  Conv=0.22D-08     -V/T= 2.0035
 DoSCS=F DFT=T ScalE2(SS,OS)=  1.000000  1.000000
 Range of M.O.s used for correlation:     1  1711
 NBasis=  1711 NAE=   175 NBE=   175 NFC=     0 NFV=     0
 NROrb=   1711 NOA=   175 NOB=   175 NVA=  1536 NVB=  1536

 **** Warning!!: The largest alpha MO coefficient is  0.41942033D+02

          Differentiating once with respect to electric field.
                with respect to dipole field.
          Electric field/nuclear overlap derivatives assumed to be zero.
          There are     3 degrees of freedom in the 1st order CPHF.  IDoFFX=0 NUNeed=     3.
      3 vectors produced by pass  0 Test12= 8.96D-12 3.33D-08 XBig12= 1.99D+03 2.43D+01.
 AX will form     3 AO Fock derivatives at one time.
      3 vectors produced by pass  1 Test12= 8.96D-12 3.33D-08 XBig12= 1.44D+03 6.29D+00.
      3 vectors produced by pass  2 Test12= 8.96D-12 3.33D-08 XBig12= 4.36D+02 3.57D+00.
      3 vectors produced by pass  3 Test12= 8.96D-12 3.33D-08 XBig12= 2.64D+02 4.24D+00.
      3 vectors produced by pass  4 Test12= 8.96D-12 3.33D-08 XBig12= 1.90D+02 2.26D+00.
      3 vectors produced by pass  5 Test12= 8.96D-12 3.33D-08 XBig12= 7.53D+01 1.71D+00.
      3 vectors produced by pass  6 Test12= 8.96D-12 3.33D-08 XBig12= 4.40D+01 1.49D+00.
      3 vectors produced by pass  7 Test12= 8.96D-12 3.33D-08 XBig12= 2.92D+01 1.10D+00.
      3 vectors produced by pass  8 Test12= 8.96D-12 3.33D-08 XBig12= 1.49D+01 6.62D-01.
      3 vectors produced by pass  9 Test12= 8.96D-12 3.33D-08 XBig12= 7.95D+00 6.41D-01.
      3 vectors produced by pass 10 Test12= 8.96D-12 3.33D-08 XBig12= 4.67D+00 5.70D-01.
      3 vectors produced by pass 11 Test12= 8.96D-12 3.33D-08 XBig12= 3.78D+00 3.85D-01.
      3 vectors produced by pass 12 Test12= 8.96D-12 3.33D-08 XBig12= 1.63D+00 1.84D-01.
      3 vectors produced by pass 13 Test12= 8.96D-12 3.33D-08 XBig12= 8.55D-01 1.79D-01.
      3 vectors produced by pass 14 Test12= 8.96D-12 3.33D-08 XBig12= 2.85D-01 1.27D-01.
      3 vectors produced by pass 15 Test12= 8.96D-12 3.33D-08 XBig12= 9.39D-02 5.40D-02.
      3 vectors produced by pass 16 Test12= 8.96D-12 3.33D-08 XBig12= 3.16D-02 4.46D-02.
      3 vectors produced by pass 17 Test12= 8.96D-12 3.33D-08 XBig12= 1.20D-02 1.54D-02.
      3 vectors produced by pass 18 Test12= 8.96D-12 3.33D-08 XBig12= 4.25D-03 1.75D-02.
      3 vectors produced by pass 19 Test12= 8.96D-12 3.33D-08 XBig12= 7.89D-04 6.19D-03.
      3 vectors produced by pass 20 Test12= 8.96D-12 3.33D-08 XBig12= 3.19D-04 4.38D-03.
      3 vectors produced by pass 21 Test12= 8.96D-12 3.33D-08 XBig12= 6.35D-05 1.09D-03.
      3 vectors produced by pass 22 Test12= 8.96D-12 3.33D-08 XBig12= 1.22D-05 5.61D-04.
      3 vectors produced by pass 23 Test12= 8.96D-12 3.33D-08 XBig12= 4.04D-06 1.83D-04.
      3 vectors produced by pass 24 Test12= 8.96D-12 3.33D-08 XBig12= 6.09D-07 9.03D-05.
      3 vectors produced by pass 25 Test12= 8.96D-12 3.33D-08 XBig12= 1.20D-07 2.63D-05.
      3 vectors produced by pass 26 Test12= 8.96D-12 3.33D-08 XBig12= 2.15D-08 1.98D-05.
      3 vectors produced by pass 27 Test12= 8.96D-12 3.33D-08 XBig12= 2.98D-09 8.16D-06.
      3 vectors produced by pass 28 Test12= 8.96D-12 3.33D-08 XBig12= 5.73D-10 2.66D-06.
      3 vectors produced by pass 29 Test12= 8.96D-12 3.33D-08 XBig12= 1.32D-10 1.36D-06.
      3 vectors produced by pass 30 Test12= 8.96D-12 3.33D-08 XBig12= 1.71D-11 6.86D-07.
      3 vectors produced by pass 31 Test12= 8.96D-12 3.33D-08 XBig12= 3.74D-12 2.87D-07.
      3 vectors produced by pass 32 Test12= 8.96D-12 3.33D-08 XBig12= 9.01D-13 1.70D-07.
      1 vectors produced by pass 33 Test12= 8.96D-12 3.33D-08 XBig12= 1.37D-13 7.69D-08.
 InvSVY:  IOpt=1 It=  1 EMax= 2.13D-14
 Solved reduced A of dimension   100 with     3 vectors.
 Isotropic polarizability for W=    0.000000      615.50 Bohr**3.
 End of Minotr F.D. properties file   721 does not exist.
 End of Minotr F.D. properties file   722 does not exist.
 End of Minotr F.D. properties file   788 does not exist.

 **********************************************************************

            Population analysis using the SCF Density.

 **********************************************************************

 Orbital symmetries:
       Occupied  (A) (A) (A) (A) (A) (A) (A) (A) (A) (A) (A) (A)
                 (A) (A) (A) (A) (A) (A) (A) (A) (A) (A) (A) (A)
                 (A) (A) (A) (A) (A) (A) (A) (A) (A) (A) (A) (A)
                 (A) (A) (A) (A) (A) (A) (A) (A) (A) (A) (A) (A)
                 (A) (A) (A) (A) (A) (A) (A) (A) (A) (A) (A) (A)
                 (A) (A) (A) (A) (A) (A) (A) (A) (A) (A) (A) (A)
                 (A) (A) (A) (A) (A) (A) (A) (A) (A) (A) (A) (A)
                 (A) (A) (A) (A) (A) (A) (A) (A) (A) (A) (A) (A)
                 (A) (A) (A) (A) (A) (A) (A) (A) (A) (A) (A) (A)
                 (A) (A) (A) (A) (A) (A) (A) (A) (A) (A) (A) (A)
                 (A) (A) (A) (A) (A) (A) (A) (A) (A) (A) (A) (A)
                 (A) (A) (A) (A) (A) (A) (A) (A) (A) (A) (A) (A)
                 (A) (A) (A) (A) (A) (A) (A) (A) (A) (A) (A) (A)
                 (A) (A) (A) (A) (A) (A) (A) (A) (A) (A) (A) (A)
                 (A) (A) (A) (A) (A) (A) (A)
       Virtual   (A) (A) (A) (A) (A) (A) (A) (A) (A) (A) (A) (A)
                 (A) (A) (A) (A) (A) (A) (A) (A) (A) (A) (A) (A)
                 (A) (A) (A) (A) (A) (A) (A) (A) (A) (A) (A) (A)
                 (A) (A) (A) (A) (A) (A) (A) (A) (A) (A) (A) (A)
                 (A) (A) (A) (A) (A) (A) (A) (A) (A) (A) (A) (A)
                 (A) (A) (A) (A) (A) (A) (A) (A) (A) (A) (A) (A)
                 (A) (A) (A) (A) (A) (A) (A) (A) (A) (A) (A) (A)
                 (A) (A) (A) (A) (A) (A) (A) (A) (A) (A) (A) (A)
                 (A) (A) (A) (A) (A) (A) (A) (A) (A) (A) (A) (A)
                 (A) (A) (A) (A) (A) (A) (A) (A) (A) (A) (A) (A)
                 (A) (A) (A) (A) (A) (A) (A) (A) (A) (A) (A) (A)
                 (A) (A) (A) (A) (A) (A) (A) (A) (A) (A) (A) (A)
                 (A) (A) (A) (A) (A) (A) (A) (A) (A) (A) (A) (A)
                 (A) (A) (A) (A) (A) (A) (A) (A) (A) (A) (A) (A)
                 (A) (A) (A) (A) (A) (A) (A) (A) (A) (A) (A) (A)
                 (A) (A) (A) (A) (A) (A) (A) (A) (A) (A) (A) (A)
                 (A) (A) (A) (A) (A) (A) (A) (A) (A) (A) (A) (A)
                 (A) (A) (A) (A) (A) (A) (A) (A) (A) (A) (A) (A)
                 (A) (A) (A) (A) (A) (A) (A) (A) (A) (A) (A) (A)
                 (A) (A) (A) (A) (A) (A) (A) (A) (A) (A) (A) (A)
                 (A) (A) (A) (A) (A) (A) (A) (A) (A) (A) (A) (A)
                 (A) (A) (A) (A) (A) (A) (A) (A) (A) (A) (A) (A)
                 (A) (A) (A) (A) (A) (A) (A) (A) (A) (A) (A) (A)
                 (A) (A) (A) (A) (A) (A) (A) (A) (A) (A) (A) (A)
                 (A) (A) (A) (A) (A) (A) (A) (A) (A) (A) (A) (A)
                 (A) (A) (A) (A) (A) (A) (A) (A) (A) (A) (A) (A)
                 (A) (A) (A) (A) (A) (A) (A) (A) (A) (A) (A) (A)
                 (A) (A) (A) (A) (A) (A) (A) (A) (A) (A) (A) (A)
                 (A) (A) (A) (A) (A) (A) (A) (A) (A) (A) (A) (A)
                 (A) (A) (A) (A) (A) (A) (A) (A) (A) (A) (A) (A)
                 (A) (A) (A) (A) (A) (A) (A) (A) (A) (A) (A) (A)
                 (A) (A) (A) (A) (A) (A) (A) (A) (A) (A) (A) (A)
                 (A) (A) (A) (A) (A) (A) (A) (A) (A) (A) (A) (A)
                 (A) (A) (A) (A) (A) (A) (A) (A) (A) (A) (A) (A)
                 (A) (A) (A) (A) (A) (A) (A) (A) (A) (A) (A) (A)
                 (A) (A) (A) (A) (A) (A) (A) (A) (A) (A) (A) (A)
                 (A) (A) (A) (A) (A) (A) (A) (A) (A) (A) (A) (A)
                 (A) (A) (A) (A) (A) (A) (A) (A) (A) (A) (A) (A)
                 (A) (A) (A) (A) (A) (A) (A) (A) (A) (A) (A) (A)
                 (A) (A) (A) (A) (A) (A) (A) (A) (A) (A) (A) (A)
                 (A) (A) (A) (A) (A) (A) (A) (A) (A) (A) (A) (A)
                 (A) (A) (A) (A) (A) (A) (A) (A) (A) (A) (A) (A)
                 (A) (A) (A) (A) (A) (A) (A) (A) (A) (A) (A) (A)
                 (A) (A) (A) (A) (A) (A) (A) (A) (A) (A) (A) (A)
                 (A) (A) (A) (A) (A) (A) (A) (A) (A) (A) (A) (A)
                 (A) (A) (A) (A) (A) (A) (A) (A) (A) (A) (A) (A)
                 (A) (A) (A) (A) (A) (A) (A) (A) (A) (A) (A) (A)
                 (A) (A) (A) (A) (A) (A) (A) (A) (A) (A) (A) (A)
                 (A) (A) (A) (A) (A) (A) (A) (A) (A) (A) (A) (A)
                 (A) (A) (A) (A) (A) (A) (A) (A) (A) (A) (A) (A)
                 (A) (A) (A) (A) (A) (A) (A) (A) (A) (A) (A) (A)
                 (A) (A) (A) (A) (A) (A) (A) (A) (A) (A) (A) (A)
                 (A) (A) (A) (A) (A) (A) (A) (A) (A) (A) (A) (A)
                 (A) (A) (A) (A) (A) (A) (A) (A) (A) (A) (A) (A)
                 (A) (A) (A) (A) (A) (A) (A) (A) (A) (A) (A) (A)
                 (A) (A) (A) (A) (A) (A) (A) (A) (A) (A) (A) (A)
                 (A) (A) (A) (A) (A) (A) (A) (A) (A) (A) (A) (A)
                 (A) (A) (A) (A) (A) (A) (A) (A) (A) (A) (A) (A)
                 (A) (A) (A) (A) (A) (A) (A) (A) (A) (A) (A) (A)
                 (A) (A) (A) (A) (A) (A) (A) (A) (A) (A) (A) (A)
                 (A) (A) (A) (A) (A) (A) (A) (A) (A) (A) (A) (A)
                 (A) (A) (A) (A) (A) (A) (A) (A) (A) (A) (A) (A)
                 (A) (A) (A) (A) (A) (A) (A) (A) (A) (A) (A) (A)
                 (A) (A) (A) (A) (A) (A) (A) (A) (A) (A) (A) (A)
                 (A) (A) (A) (A) (A) (A) (A) (A) (A) (A) (A) (A)
                 (A) (A) (A) (A) (A) (A) (A) (A) (A) (A) (A) (A)
                 (A) (A) (A) (A) (A) (A) (A) (A) (A) (A) (A) (A)
                 (A) (A) (A) (A) (A) (A) (A) (A) (A) (A) (A) (A)
                 (A) (A) (A) (A) (A) (A) (A) (A) (A) (A) (A) (A)
                 (A) (A) (A) (A) (A) (A) (A) (A) (A) (A) (A) (A)
                 (A) (A) (A) (A) (A) (A) (A) (A) (A) (A) (A) (A)
                 (A) (A) (A) (A) (A) (A) (A) (A) (A) (A) (A) (A)
                 (A) (A) (A) (A) (A) (A) (A) (A) (A) (A) (A) (A)
                 (A) (A) (A) (A) (A) (A) (A) (A) (A) (A) (A) (A)
                 (A) (A) (A) (A) (A) (A) (A) (A) (A) (A) (A) (A)
                 (A) (A) (A) (A) (A) (A) (A) (A) (A) (A) (A) (A)
                 (A) (A) (A) (A) (A) (A) (A) (A) (A) (A) (A) (A)
                 (A) (A) (A) (A) (A) (A) (A) (A) (A) (A) (A) (A)
                 (A) (A) (A) (A) (A) (A) (A) (A) (A) (A) (A) (A)
                 (A) (A) (A) (A) (A) (A) (A) (A) (A) (A) (A) (A)
                 (A) (A) (A) (A) (A) (A) (A) (A) (A) (A) (A) (A)
                 (A) (A) (A) (A) (A) (A) (A) (A) (A) (A) (A) (A)
                 (A) (A) (A) (A) (A) (A) (A) (A) (A) (A) (A) (A)
                 (A) (A) (A) (A) (A) (A) (A) (A) (A) (A) (A) (A)
                 (A) (A) (A) (A) (A) (A) (A) (A) (A) (A) (A) (A)
                 (A) (A) (A) (A) (A) (A) (A) (A) (A) (A) (A) (A)
                 (A) (A) (A) (A) (A) (A) (A) (A) (A) (A) (A) (A)
                 (A) (A) (A) (A) (A) (A) (A) (A) (A) (A) (A) (A)
                 (A) (A) (A) (A) (A) (A) (A) (A) (A) (A) (A) (A)
                 (A) (A) (A) (A) (A) (A) (A) (A) (A) (A) (A) (A)
                 (A) (A) (A) (A) (A) (A) (A) (A) (A) (A) (A) (A)
                 (A) (A) (A) (A) (A) (A) (A) (A) (A) (A) (A) (A)
                 (A) (A) (A) (A) (A) (A) (A) (A) (A) (A) (A) (A)
                 (A) (A) (A) (A) (A) (A) (A) (A) (A) (A) (A) (A)
                 (A) (A) (A) (A) (A) (A) (A) (A) (A) (A) (A) (A)
                 (A) (A) (A) (A) (A) (A) (A) (A) (A) (A) (A) (A)
                 (A) (A) (A) (A) (A) (A) (A) (A) (A) (A) (A) (A)
                 (A) (A) (A) (A) (A) (A) (A) (A) (A) (A) (A) (A)
                 (A) (A) (A) (A) (A) (A) (A) (A) (A) (A) (A) (A)
                 (A) (A) (A) (A) (A) (A) (A) (A) (A) (A) (A) (A)
                 (A) (A) (A) (A) (A) (A) (A) (A) (A) (A) (A) (A)
                 (A) (A) (A) (A) (A) (A) (A) (A) (A) (A) (A) (A)
                 (A) (A) (A) (A) (A) (A) (A) (A) (A) (A) (A) (A)
                 (A) (A) (A) (A) (A) (A) (A) (A) (A) (A) (A) (A)
                 (A) (A) (A) (A) (A) (A) (A) (A) (A) (A) (A) (A)
                 (A) (A) (A) (A) (A) (A) (A) (A) (A) (A) (A) (A)
                 (A) (A) (A) (A) (A) (A) (A) (A) (A) (A) (A) (A)
                 (A) (A) (A) (A) (A) (A) (A) (A) (A) (A) (A) (A)
                 (A) (A) (A) (A) (A) (A) (A) (A) (A) (A) (A) (A)
                 (A) (A) (A) (A) (A) (A) (A) (A) (A) (A) (A) (A)
                 (A) (A) (A) (A) (A) (A) (A) (A) (A) (A) (A) (A)
                 (A) (A) (A) (A) (A) (A) (A) (A) (A) (A) (A) (A)
                 (A) (A) (A) (A) (A) (A) (A) (A) (A) (A) (A) (A)
                 (A) (A) (A) (A) (A) (A) (A) (A) (A) (A) (A) (A)
                 (A) (A) (A) (A) (A) (A) (A) (A) (A) (A) (A) (A)
                 (A) (A) (A) (A) (A) (A) (A) (A) (A) (A) (A) (A)
                 (A) (A) (A) (A) (A) (A) (A) (A) (A) (A) (A) (A)
                 (A) (A) (A) (A) (A) (A) (A) (A) (A) (A) (A) (A)
                 (A) (A) (A) (A) (A) (A) (A) (A) (A) (A) (A) (A)
                 (A) (A) (A) (A) (A) (A) (A) (A) (A) (A) (A) (A)
                 (A) (A) (A) (A) (A) (A) (A) (A) (A) (A) (A) (A)
                 (A) (A) (A) (A) (A) (A) (A) (A) (A) (A) (A) (A)
                 (A) (A) (A) (A) (A) (A) (A) (A) (A) (A) (A) (A)
                 (A) (A) (A) (A) (A) (A) (A) (A) (A) (A) (A) (A)
                 (A) (A) (A) (A) (A) (A) (A) (A) (A) (A) (A) (A)
                 (A) (A) (A) (A) (A) (A) (A) (A) (A) (A) (A) (A)
                 (A) (A) (A) (A) (A) (A) (A) (A) (A) (A) (A) (A)
                 (A) (A) (A) (A) (A) (A) (A) (A) (A) (A) (A) (A)
 The electronic state is 1-A.
 Alpha  occ. eigenvalues -- -256.16216 -30.01240 -25.85352 -25.85062 -25.84966
 Alpha  occ. eigenvalues --  -14.40839 -14.40713 -14.35097 -14.34949 -14.32513
 Alpha  occ. eigenvalues --  -14.32343 -14.31909 -14.31602 -10.24378 -10.24209
 Alpha  occ. eigenvalues --  -10.22907 -10.22786 -10.20546 -10.20415 -10.20320
 Alpha  occ. eigenvalues --  -10.20214 -10.20195 -10.20182 -10.20165 -10.20161
 Alpha  occ. eigenvalues --  -10.20148 -10.20112 -10.20010 -10.19984 -10.19093
 Alpha  occ. eigenvalues --  -10.18980 -10.18499 -10.18481 -10.18381 -10.18279
 Alpha  occ. eigenvalues --  -10.18227 -10.18220 -10.18199 -10.18153 -10.18120
 Alpha  occ. eigenvalues --  -10.18098 -10.17984 -10.17968 -10.17905 -10.17878
 Alpha  occ. eigenvalues --  -10.17848 -10.17832 -10.17744 -10.17546 -10.17536
 Alpha  occ. eigenvalues --  -10.17515  -3.38868  -2.15329  -2.14880  -2.14764
 Alpha  occ. eigenvalues --   -1.04487  -1.04385  -0.96172  -0.95327  -0.95179
 Alpha  occ. eigenvalues --   -0.94226  -0.90002  -0.89911  -0.81584  -0.81131
 Alpha  occ. eigenvalues --   -0.80787  -0.80029  -0.79860  -0.79551  -0.79403
 Alpha  occ. eigenvalues --   -0.79074  -0.78740  -0.76243  -0.75083  -0.73710
 Alpha  occ. eigenvalues --   -0.73222  -0.72597  -0.71140  -0.71006  -0.70110
 Alpha  occ. eigenvalues --   -0.69324  -0.67590  -0.67358  -0.67315  -0.63816
 Alpha  occ. eigenvalues --   -0.63640  -0.63573  -0.63404  -0.60522  -0.60403
 Alpha  occ. eigenvalues --   -0.59877  -0.59618  -0.56911  -0.55958  -0.55239
 Alpha  occ. eigenvalues --   -0.55017  -0.53823  -0.53413  -0.52781  -0.51383
 Alpha  occ. eigenvalues --   -0.50669  -0.50273  -0.49794  -0.47609  -0.47543
 Alpha  occ. eigenvalues --   -0.47204  -0.47018  -0.46736  -0.46709  -0.46518
 Alpha  occ. eigenvalues --   -0.45409  -0.44120  -0.43979  -0.43756  -0.43624
 Alpha  occ. eigenvalues --   -0.43276  -0.42942  -0.42689  -0.42586  -0.42475
 Alpha  occ. eigenvalues --   -0.42443  -0.42234  -0.41907  -0.41857  -0.41816
 Alpha  occ. eigenvalues --   -0.41716  -0.41522  -0.41066  -0.41043  -0.40939
 Alpha  occ. eigenvalues --   -0.40928  -0.40768  -0.39660  -0.39453  -0.39236
 Alpha  occ. eigenvalues --   -0.38951  -0.38831  -0.38494  -0.38215  -0.37851
 Alpha  occ. eigenvalues --   -0.37796  -0.37263  -0.37063  -0.36497  -0.36192
 Alpha  occ. eigenvalues --   -0.35971  -0.35816  -0.35284  -0.34837  -0.34105
 Alpha  occ. eigenvalues --   -0.33488  -0.33196  -0.32531  -0.32023  -0.31402
 Alpha  occ. eigenvalues --   -0.30996  -0.30529  -0.30035  -0.29388  -0.28849
 Alpha  occ. eigenvalues --   -0.28198  -0.26524  -0.26044  -0.25579  -0.23637
 Alpha  occ. eigenvalues --   -0.23146  -0.22939  -0.22379  -0.21628  -0.21023
 Alpha  occ. eigenvalues --   -0.17889  -0.17855  -0.16968  -0.16675  -0.16164
 Alpha virt. eigenvalues --   -0.06091  -0.05890  -0.01464   0.01008   0.02078
 Alpha virt. eigenvalues --    0.02226   0.02624   0.02948   0.03504   0.04478
 Alpha virt. eigenvalues --    0.04645   0.04805   0.05090   0.05740   0.06061
 Alpha virt. eigenvalues --    0.06286   0.06455   0.06732   0.06928   0.07317
 Alpha virt. eigenvalues --    0.07526   0.08313   0.08422   0.08455   0.08588
 Alpha virt. eigenvalues --    0.09398   0.09689   0.09904   0.10094   0.10359
 Alpha virt. eigenvalues --    0.10503   0.10855   0.10999   0.11456   0.11830
 Alpha virt. eigenvalues --    0.11907   0.12176   0.12470   0.12637   0.12845
 Alpha virt. eigenvalues --    0.12930   0.13048   0.13261   0.13394   0.13729
 Alpha virt. eigenvalues --    0.14153   0.14223   0.14360   0.14833   0.14949
 Alpha virt. eigenvalues --    0.15084   0.15164   0.15298   0.15678   0.15794
 Alpha virt. eigenvalues --    0.16071   0.16240   0.16433   0.16612   0.16672
 Alpha virt. eigenvalues --    0.16741   0.17044   0.17457   0.17713   0.17863
 Alpha virt. eigenvalues --    0.18105   0.18419   0.18808   0.19030   0.19129
 Alpha virt. eigenvalues --    0.19394   0.19572   0.20002   0.20287   0.20498
 Alpha virt. eigenvalues --    0.20678   0.20768   0.20937   0.21420   0.21793
 Alpha virt. eigenvalues --    0.22130   0.22221   0.22520   0.22689   0.22747
 Alpha virt. eigenvalues --    0.23115   0.23359   0.23782   0.23836   0.24147
 Alpha virt. eigenvalues --    0.24385   0.24634   0.25163   0.25574   0.25845
 Alpha virt. eigenvalues --    0.25994   0.26295   0.26505   0.26887   0.27068
 Alpha virt. eigenvalues --    0.27289   0.27563   0.27848   0.28033   0.28473
 Alpha virt. eigenvalues --    0.28520   0.28559   0.28890   0.29166   0.29175
 Alpha virt. eigenvalues --    0.29387   0.29746   0.30086   0.30136   0.30273
 Alpha virt. eigenvalues --    0.30693   0.30917   0.31430   0.31606   0.31948
 Alpha virt. eigenvalues --    0.32175   0.32408   0.32502   0.32607   0.32781
 Alpha virt. eigenvalues --    0.33203   0.33410   0.33484   0.33825   0.34154
 Alpha virt. eigenvalues --    0.34513   0.34815   0.35169   0.35250   0.35527
 Alpha virt. eigenvalues --    0.35870   0.36047   0.36503   0.36543   0.36728
 Alpha virt. eigenvalues --    0.37077   0.37392   0.37578   0.37651   0.38022
 Alpha virt. eigenvalues --    0.38161   0.38331   0.38781   0.38881   0.39063
 Alpha virt. eigenvalues --    0.39378   0.39482   0.39638   0.39965   0.40262
 Alpha virt. eigenvalues --    0.40411   0.40690   0.40907   0.41064   0.41222
 Alpha virt. eigenvalues --    0.41509   0.41705   0.41823   0.42043   0.42214
 Alpha virt. eigenvalues --    0.42380   0.42527   0.42710   0.43059   0.43214
 Alpha virt. eigenvalues --    0.43430   0.43584   0.43882   0.44000   0.44241
 Alpha virt. eigenvalues --    0.44312   0.44387   0.44535   0.44759   0.45048
 Alpha virt. eigenvalues --    0.45128   0.45363   0.45587   0.45798   0.46033
 Alpha virt. eigenvalues --    0.46082   0.46252   0.46350   0.46752   0.46904
 Alpha virt. eigenvalues --    0.47081   0.47287   0.47332   0.47459   0.47618
 Alpha virt. eigenvalues --    0.47826   0.48097   0.48294   0.48452   0.48600
 Alpha virt. eigenvalues --    0.48801   0.49043   0.49309   0.49640   0.49732
 Alpha virt. eigenvalues --    0.49831   0.50140   0.50257   0.50532   0.50627
 Alpha virt. eigenvalues --    0.51125   0.51250   0.51422   0.51546   0.51599
 Alpha virt. eigenvalues --    0.51773   0.52046   0.52206   0.52643   0.52669
 Alpha virt. eigenvalues --    0.52724   0.52971   0.53477   0.53660   0.53727
 Alpha virt. eigenvalues --    0.53852   0.54329   0.54556   0.54722   0.55191
 Alpha virt. eigenvalues --    0.55553   0.55637   0.55855   0.55980   0.56266
 Alpha virt. eigenvalues --    0.56570   0.56758   0.57209   0.57273   0.57631
 Alpha virt. eigenvalues --    0.57704   0.58004   0.58351   0.58549   0.58713
 Alpha virt. eigenvalues --    0.58948   0.59340   0.59613   0.59876   0.60005
 Alpha virt. eigenvalues --    0.60256   0.60493   0.60787   0.60993   0.61446
 Alpha virt. eigenvalues --    0.61860   0.62089   0.62228   0.62352   0.62826
 Alpha virt. eigenvalues --    0.63155   0.63454   0.63681   0.64006   0.64372
 Alpha virt. eigenvalues --    0.64788   0.64836   0.65161   0.65212   0.65803
 Alpha virt. eigenvalues --    0.65956   0.66197   0.66496   0.66771   0.66968
 Alpha virt. eigenvalues --    0.67279   0.67460   0.67703   0.68069   0.68605
 Alpha virt. eigenvalues --    0.68837   0.69316   0.69487   0.69681   0.70012
 Alpha virt. eigenvalues --    0.70046   0.70594   0.70980   0.71077   0.71298
 Alpha virt. eigenvalues --    0.71596   0.72130   0.72343   0.72656   0.72734
 Alpha virt. eigenvalues --    0.73298   0.73524   0.73854   0.74219   0.74238
 Alpha virt. eigenvalues --    0.74417   0.75341   0.75563   0.75862   0.75964
 Alpha virt. eigenvalues --    0.76327   0.76570   0.76989   0.77389   0.77491
 Alpha virt. eigenvalues --    0.77873   0.78122   0.78625   0.78963   0.79121
 Alpha virt. eigenvalues --    0.79276   0.79728   0.79900   0.80155   0.80348
 Alpha virt. eigenvalues --    0.80814   0.81575   0.82027   0.82172   0.82316
 Alpha virt. eigenvalues --    0.82638   0.83024   0.83291   0.83849   0.84086
 Alpha virt. eigenvalues --    0.84578   0.84926   0.85066   0.85571   0.85630
 Alpha virt. eigenvalues --    0.86079   0.86605   0.87003   0.87284   0.87420
 Alpha virt. eigenvalues --    0.87603   0.88065   0.88592   0.88879   0.89110
 Alpha virt. eigenvalues --    0.89518   0.89763   0.89905   0.90378   0.90649
 Alpha virt. eigenvalues --    0.91371   0.91496   0.91950   0.92099   0.92653
 Alpha virt. eigenvalues --    0.92862   0.92984   0.93613   0.93716   0.94060
 Alpha virt. eigenvalues --    0.94271   0.94512   0.94727   0.95092   0.95533
 Alpha virt. eigenvalues --    0.95605   0.95660   0.96350   0.96396   0.96932
 Alpha virt. eigenvalues --    0.97358   0.97791   0.97903   0.98092   0.98615
 Alpha virt. eigenvalues --    0.98831   0.99121   0.99461   1.00047   1.00171
 Alpha virt. eigenvalues --    1.00227   1.00534   1.00668   1.00971   1.01180
 Alpha virt. eigenvalues --    1.01683   1.02113   1.02121   1.02618   1.03013
 Alpha virt. eigenvalues --    1.03362   1.03560   1.03815   1.04266   1.04325
 Alpha virt. eigenvalues --    1.04931   1.05017   1.05494   1.05696   1.06174
 Alpha virt. eigenvalues --    1.06377   1.07016   1.07284   1.07574   1.08214
 Alpha virt. eigenvalues --    1.08729   1.09155   1.09432   1.09785   1.10012
 Alpha virt. eigenvalues --    1.10532   1.10699   1.10825   1.10983   1.11399
 Alpha virt. eigenvalues --    1.11710   1.12164   1.12780   1.12865   1.13566
 Alpha virt. eigenvalues --    1.13897   1.13991   1.14441   1.14677   1.15457
 Alpha virt. eigenvalues --    1.15683   1.15853   1.16079   1.16520   1.16895
 Alpha virt. eigenvalues --    1.17273   1.17471   1.18064   1.18120   1.18458
 Alpha virt. eigenvalues --    1.19011   1.19434   1.19573   1.19852   1.20147
 Alpha virt. eigenvalues --    1.20948   1.20955   1.21470   1.21562   1.22251
 Alpha virt. eigenvalues --    1.22540   1.22866   1.23050   1.23523   1.23703
 Alpha virt. eigenvalues --    1.24111   1.24518   1.25177   1.25441   1.25859
 Alpha virt. eigenvalues --    1.26140   1.26589   1.26667   1.26920   1.27619
 Alpha virt. eigenvalues --    1.27782   1.28128   1.28364   1.28873   1.29093
 Alpha virt. eigenvalues --    1.29390   1.29910   1.30240   1.30704   1.31082
 Alpha virt. eigenvalues --    1.31676   1.31928   1.32460   1.32729   1.33449
 Alpha virt. eigenvalues --    1.33824   1.33930   1.34455   1.35136   1.35445
 Alpha virt. eigenvalues --    1.36157   1.36441   1.36990   1.37798   1.37857
 Alpha virt. eigenvalues --    1.38341   1.38816   1.38940   1.39019   1.39497
 Alpha virt. eigenvalues --    1.40450   1.40618   1.41023   1.41385   1.41497
 Alpha virt. eigenvalues --    1.42263   1.43028   1.43299   1.43763   1.43919
 Alpha virt. eigenvalues --    1.44245   1.44424   1.45075   1.45416   1.45919
 Alpha virt. eigenvalues --    1.46276   1.46971   1.47293   1.47438   1.47784
 Alpha virt. eigenvalues --    1.48109   1.48166   1.48576   1.48706   1.49310
 Alpha virt. eigenvalues --    1.49525   1.49778   1.50088   1.51013   1.51115
 Alpha virt. eigenvalues --    1.51282   1.51620   1.52202   1.52334   1.52498
 Alpha virt. eigenvalues --    1.52641   1.52899   1.53039   1.53171   1.53555
 Alpha virt. eigenvalues --    1.53838   1.54091   1.54274   1.54514   1.54804
 Alpha virt. eigenvalues --    1.55147   1.55478   1.55532   1.55954   1.56017
 Alpha virt. eigenvalues --    1.56223   1.56423   1.56591   1.56927   1.57121
 Alpha virt. eigenvalues --    1.57501   1.57819   1.58014   1.58192   1.58412
 Alpha virt. eigenvalues --    1.59217   1.59370   1.59404   1.59643   1.60240
 Alpha virt. eigenvalues --    1.60433   1.60667   1.60900   1.61000   1.61382
 Alpha virt. eigenvalues --    1.61720   1.62067   1.62280   1.62401   1.62495
 Alpha virt. eigenvalues --    1.62927   1.63279   1.63608   1.63946   1.64124
 Alpha virt. eigenvalues --    1.64168   1.64673   1.65048   1.65309   1.65726
 Alpha virt. eigenvalues --    1.65983   1.66349   1.66478   1.66873   1.66961
 Alpha virt. eigenvalues --    1.67365   1.68160   1.68406   1.68649   1.68746
 Alpha virt. eigenvalues --    1.69038   1.69501   1.69576   1.69897   1.70156
 Alpha virt. eigenvalues --    1.70364   1.70749   1.71049   1.71314   1.71484
 Alpha virt. eigenvalues --    1.72159   1.72560   1.72866   1.73477   1.73806
 Alpha virt. eigenvalues --    1.74312   1.74470   1.74663   1.74850   1.75280
 Alpha virt. eigenvalues --    1.75833   1.76411   1.76545   1.76957   1.77534
 Alpha virt. eigenvalues --    1.78303   1.78941   1.79333   1.79943   1.80216
 Alpha virt. eigenvalues --    1.80738   1.81204   1.81487   1.81679   1.82345
 Alpha virt. eigenvalues --    1.82774   1.83417   1.83669   1.84142   1.84693
 Alpha virt. eigenvalues --    1.85280   1.85462   1.85828   1.86382   1.86585
 Alpha virt. eigenvalues --    1.86979   1.87381   1.87827   1.87980   1.88036
 Alpha virt. eigenvalues --    1.89226   1.89362   1.89713   1.90045   1.90469
 Alpha virt. eigenvalues --    1.90669   1.91351   1.91631   1.91848   1.91943
 Alpha virt. eigenvalues --    1.92897   1.93246   1.93530   1.94169   1.95131
 Alpha virt. eigenvalues --    1.95712   1.95935   1.96347   1.96534   1.97202
 Alpha virt. eigenvalues --    1.97647   1.97854   1.98148   1.98692   1.99113
 Alpha virt. eigenvalues --    1.99389   1.99689   1.99796   2.00068   2.00105
 Alpha virt. eigenvalues --    2.01171   2.01802   2.02135   2.02272   2.02518
 Alpha virt. eigenvalues --    2.02918   2.03178   2.03736   2.04043   2.04169
 Alpha virt. eigenvalues --    2.04791   2.05251   2.05691   2.06538   2.06821
 Alpha virt. eigenvalues --    2.07186   2.07685   2.07991   2.08385   2.09065
 Alpha virt. eigenvalues --    2.09494   2.09642   2.10287   2.10505   2.10900
 Alpha virt. eigenvalues --    2.11343   2.12108   2.12215   2.13100   2.13133
 Alpha virt. eigenvalues --    2.13550   2.13689   2.13853   2.14236   2.14615
 Alpha virt. eigenvalues --    2.15278   2.15637   2.16062   2.16342   2.16511
 Alpha virt. eigenvalues --    2.17106   2.17225   2.17908   2.17947   2.18424
 Alpha virt. eigenvalues --    2.18676   2.19250   2.19954   2.20478   2.20725
 Alpha virt. eigenvalues --    2.20882   2.21460   2.21599   2.22428   2.22801
 Alpha virt. eigenvalues --    2.23245   2.23602   2.24197   2.24825   2.24963
 Alpha virt. eigenvalues --    2.25331   2.25823   2.26287   2.26561   2.26877
 Alpha virt. eigenvalues --    2.27288   2.27444   2.27530   2.28570   2.28855
 Alpha virt. eigenvalues --    2.29416   2.29793   2.30063   2.30136   2.30550
 Alpha virt. eigenvalues --    2.31470   2.31970   2.32427   2.32998   2.33058
 Alpha virt. eigenvalues --    2.33563   2.33839   2.34015   2.34428   2.34794
 Alpha virt. eigenvalues --    2.35047   2.35288   2.36007   2.36122   2.36463
 Alpha virt. eigenvalues --    2.36826   2.37040   2.37487   2.37681   2.37945
 Alpha virt. eigenvalues --    2.38122   2.38583   2.38940   2.39252   2.39586
 Alpha virt. eigenvalues --    2.39944   2.40480   2.40659   2.40972   2.41583
 Alpha virt. eigenvalues --    2.41659   2.42097   2.42517   2.43212   2.43815
 Alpha virt. eigenvalues --    2.44089   2.44410   2.44873   2.45063   2.45553
 Alpha virt. eigenvalues --    2.45849   2.46248   2.46778   2.47142   2.47399
 Alpha virt. eigenvalues --    2.47927   2.48403   2.48733   2.49313   2.49671
 Alpha virt. eigenvalues --    2.49993   2.50401   2.50926   2.51741   2.51817
 Alpha virt. eigenvalues --    2.52458   2.52569   2.53186   2.53268   2.53326
 Alpha virt. eigenvalues --    2.53799   2.53854   2.54333   2.54908   2.55057
 Alpha virt. eigenvalues --    2.55494   2.55896   2.56130   2.56769   2.56821
 Alpha virt. eigenvalues --    2.57146   2.57585   2.58002   2.58477   2.59334
 Alpha virt. eigenvalues --    2.59414   2.60007   2.60305   2.60486   2.60851
 Alpha virt. eigenvalues --    2.61170   2.61646   2.61874   2.62282   2.62671
 Alpha virt. eigenvalues --    2.63053   2.63508   2.63844   2.64188   2.64586
 Alpha virt. eigenvalues --    2.64974   2.65162   2.65675   2.66024   2.66453
 Alpha virt. eigenvalues --    2.66607   2.66841   2.67254   2.67298   2.67649
 Alpha virt. eigenvalues --    2.68060   2.68482   2.68651   2.69074   2.69533
 Alpha virt. eigenvalues --    2.70234   2.70381   2.70905   2.71224   2.71974
 Alpha virt. eigenvalues --    2.72196   2.72418   2.72749   2.73116   2.73369
 Alpha virt. eigenvalues --    2.73848   2.74111   2.74529   2.74835   2.75574
 Alpha virt. eigenvalues --    2.75907   2.76129   2.76969   2.76979   2.77585
 Alpha virt. eigenvalues --    2.78228   2.78891   2.79199   2.79545   2.80165
 Alpha virt. eigenvalues --    2.80471   2.80935   2.81047   2.81768   2.82385
 Alpha virt. eigenvalues --    2.82486   2.83207   2.83288   2.83693   2.84107
 Alpha virt. eigenvalues --    2.84430   2.84661   2.84964   2.85092   2.85893
 Alpha virt. eigenvalues --    2.86401   2.86504   2.86735   2.86991   2.87346
 Alpha virt. eigenvalues --    2.87490   2.88147   2.88585   2.88671   2.88940
 Alpha virt. eigenvalues --    2.89884   2.90350   2.90464   2.90844   2.91170
 Alpha virt. eigenvalues --    2.91363   2.91974   2.92153   2.92317   2.92646
 Alpha virt. eigenvalues --    2.92904   2.93491   2.93774   2.94115   2.94488
 Alpha virt. eigenvalues --    2.95350   2.95665   2.95827   2.96121   2.96426
 Alpha virt. eigenvalues --    2.96724   2.96855   2.97448   2.97710   2.98141
 Alpha virt. eigenvalues --    2.98402   2.98508   2.99047   2.99071   2.99332
 Alpha virt. eigenvalues --    2.99629   2.99771   3.00106   3.00442   3.00716
 Alpha virt. eigenvalues --    3.01060   3.01457   3.01825   3.02365   3.02655
 Alpha virt. eigenvalues --    3.02933   3.03359   3.03829   3.04057   3.04830
 Alpha virt. eigenvalues --    3.05224   3.05312   3.05555   3.06125   3.06258
 Alpha virt. eigenvalues --    3.06429   3.06706   3.07292   3.07395   3.07911
 Alpha virt. eigenvalues --    3.08366   3.08523   3.08714   3.08886   3.09847
 Alpha virt. eigenvalues --    3.09904   3.10001   3.10358   3.10677   3.11184
 Alpha virt. eigenvalues --    3.11372   3.11524   3.11663   3.11930   3.12125
 Alpha virt. eigenvalues --    3.12392   3.12609   3.12937   3.13000   3.13343
 Alpha virt. eigenvalues --    3.13774   3.14001   3.14373   3.14972   3.15073
 Alpha virt. eigenvalues --    3.15349   3.15395   3.15843   3.16038   3.16258
 Alpha virt. eigenvalues --    3.16507   3.16886   3.17448   3.17574   3.17922
 Alpha virt. eigenvalues --    3.18038   3.18315   3.18831   3.18974   3.19535
 Alpha virt. eigenvalues --    3.19591   3.19934   3.20118   3.20229   3.20435
 Alpha virt. eigenvalues --    3.20721   3.21142   3.21341   3.21638   3.21833
 Alpha virt. eigenvalues --    3.22414   3.22690   3.23067   3.23183   3.23623
 Alpha virt. eigenvalues --    3.24029   3.24248   3.24577   3.24981   3.25063
 Alpha virt. eigenvalues --    3.25136   3.25675   3.25911   3.26283   3.26522
 Alpha virt. eigenvalues --    3.26708   3.26843   3.27266   3.27554   3.27803
 Alpha virt. eigenvalues --    3.28116   3.28251   3.28437   3.28812   3.29044
 Alpha virt. eigenvalues --    3.29307   3.29508   3.29701   3.30107   3.30309
 Alpha virt. eigenvalues --    3.30509   3.30612   3.30964   3.31130   3.31357
 Alpha virt. eigenvalues --    3.31599   3.32021   3.32132   3.32651   3.32924
 Alpha virt. eigenvalues --    3.33330   3.33480   3.33620   3.34159   3.34212
 Alpha virt. eigenvalues --    3.34639   3.34694   3.35160   3.35282   3.35925
 Alpha virt. eigenvalues --    3.36122   3.36316   3.36473   3.36759   3.36985
 Alpha virt. eigenvalues --    3.37376   3.37619   3.37773   3.38247   3.38366
 Alpha virt. eigenvalues --    3.38638   3.38874   3.39081   3.39490   3.39565
 Alpha virt. eigenvalues --    3.39938   3.40086   3.40402   3.40609   3.41066
 Alpha virt. eigenvalues --    3.41322   3.41539   3.42013   3.42118   3.42623
 Alpha virt. eigenvalues --    3.42839   3.42876   3.43331   3.43699   3.44124
 Alpha virt. eigenvalues --    3.44375   3.44594   3.44984   3.45054   3.45393
 Alpha virt. eigenvalues --    3.45821   3.46356   3.46642   3.47123   3.47276
 Alpha virt. eigenvalues --    3.47751   3.48694   3.48815   3.48993   3.49461
 Alpha virt. eigenvalues --    3.49814   3.50077   3.50390   3.50475   3.50683
 Alpha virt. eigenvalues --    3.51610   3.52179   3.52529   3.52815   3.53416
 Alpha virt. eigenvalues --    3.53597   3.54088   3.54297   3.54783   3.55131
 Alpha virt. eigenvalues --    3.55592   3.55814   3.56460   3.56660   3.56997
 Alpha virt. eigenvalues --    3.57396   3.57821   3.58287   3.58437   3.58933
 Alpha virt. eigenvalues --    3.59368   3.59548   3.60176   3.60364   3.60814
 Alpha virt. eigenvalues --    3.61226   3.61652   3.62157   3.62606   3.63152
 Alpha virt. eigenvalues --    3.63600   3.64086   3.64449   3.64956   3.65345
 Alpha virt. eigenvalues --    3.65987   3.66201   3.66717   3.67202   3.67507
 Alpha virt. eigenvalues --    3.67658   3.67876   3.68203   3.68458   3.68974
 Alpha virt. eigenvalues --    3.69225   3.69809   3.70235   3.70792   3.71293
 Alpha virt. eigenvalues --    3.71717   3.71863   3.72112   3.72261   3.72558
 Alpha virt. eigenvalues --    3.72770   3.73366   3.73693   3.73986   3.74426
 Alpha virt. eigenvalues --    3.74618   3.74948   3.75217   3.75661   3.76172
 Alpha virt. eigenvalues --    3.76518   3.77045   3.77478   3.77901   3.78485
 Alpha virt. eigenvalues --    3.78746   3.79259   3.79907   3.80300   3.80737
 Alpha virt. eigenvalues --    3.81352   3.81613   3.82288   3.82931   3.83515
 Alpha virt. eigenvalues --    3.83654   3.84198   3.84270   3.84891   3.85404
 Alpha virt. eigenvalues --    3.86198   3.86637   3.87129   3.87448   3.88268
 Alpha virt. eigenvalues --    3.88536   3.89191   3.89515   3.90704   3.90819
 Alpha virt. eigenvalues --    3.91285   3.91583   3.92368   3.92668   3.93445
 Alpha virt. eigenvalues --    3.93827   3.94018   3.94525   3.95193   3.95673
 Alpha virt. eigenvalues --    3.95939   3.96566   3.97377   3.97706   3.97978
 Alpha virt. eigenvalues --    3.98688   3.98939   3.99276   3.99947   4.00752
 Alpha virt. eigenvalues --    4.01376   4.01720   4.02206   4.02337   4.02878
 Alpha virt. eigenvalues --    4.04004   4.04292   4.05061   4.05576   4.05886
 Alpha virt. eigenvalues --    4.06473   4.07208   4.07785   4.07920   4.09148
 Alpha virt. eigenvalues --    4.09966   4.10477   4.10943   4.12280   4.12849
 Alpha virt. eigenvalues --    4.13916   4.14177   4.14870   4.15476   4.16102
 Alpha virt. eigenvalues --    4.16269   4.17038   4.17689   4.17857   4.18420
 Alpha virt. eigenvalues --    4.18995   4.19388   4.20159   4.20519   4.21444
 Alpha virt. eigenvalues --    4.22085   4.22568   4.22741   4.23426   4.23987
 Alpha virt. eigenvalues --    4.24728   4.24792   4.25295   4.25570   4.25910
 Alpha virt. eigenvalues --    4.26714   4.26964   4.27234   4.27739   4.28123
 Alpha virt. eigenvalues --    4.28766   4.29807   4.30147   4.30729   4.31017
 Alpha virt. eigenvalues --    4.31621   4.32006   4.33063   4.33909   4.34160
 Alpha virt. eigenvalues --    4.34617   4.35246   4.35481   4.35957   4.36511
 Alpha virt. eigenvalues --    4.37009   4.37479   4.38179   4.38308   4.38823
 Alpha virt. eigenvalues --    4.39261   4.39551   4.40465   4.40982   4.41451
 Alpha virt. eigenvalues --    4.42231   4.42674   4.42817   4.43199   4.43926
 Alpha virt. eigenvalues --    4.44074   4.44305   4.44491   4.45208   4.45752
 Alpha virt. eigenvalues --    4.45817   4.46555   4.47495   4.47882   4.48649
 Alpha virt. eigenvalues --    4.49099   4.49610   4.49947   4.50797   4.52538
 Alpha virt. eigenvalues --    4.52995   4.53815   4.54107   4.55621   4.56099
 Alpha virt. eigenvalues --    4.56588   4.57728   4.57773   4.58435   4.58850
 Alpha virt. eigenvalues --    4.60537   4.61232   4.61626   4.62707   4.63134
 Alpha virt. eigenvalues --    4.64318   4.64374   4.65318   4.66776   4.67368
 Alpha virt. eigenvalues --    4.68150   4.69413   4.70045   4.70370   4.70543
 Alpha virt. eigenvalues --    4.71080   4.72242   4.72584   4.72838   4.73489
 Alpha virt. eigenvalues --    4.73954   4.74831   4.75244   4.76393   4.76834
 Alpha virt. eigenvalues --    4.77102   4.78147   4.78462   4.78935   4.79813
 Alpha virt. eigenvalues --    4.80927   4.81699   4.82202   4.83017   4.83617
 Alpha virt. eigenvalues --    4.84845   4.85069   4.85715   4.86354   4.87126
 Alpha virt. eigenvalues --    4.87836   4.88708   4.89390   4.89995   4.90338
 Alpha virt. eigenvalues --    4.91202   4.92381   4.92533   4.93576   4.94812
 Alpha virt. eigenvalues --    4.95024   4.95287   4.96146   4.97073   4.97612
 Alpha virt. eigenvalues --    4.97971   4.98567   4.99064   4.99970   5.00484
 Alpha virt. eigenvalues --    5.00499   5.02026   5.02750   5.02954   5.03257
 Alpha virt. eigenvalues --    5.04685   5.04801   5.05318   5.05913   5.06654
 Alpha virt. eigenvalues --    5.08006   5.08875   5.09122   5.10201   5.10684
 Alpha virt. eigenvalues --    5.11575   5.11801   5.12619   5.13563   5.13932
 Alpha virt. eigenvalues --    5.14144   5.15235   5.16148   5.17707   5.19710
 Alpha virt. eigenvalues --    5.20161   5.20803   5.21613   5.22061   5.23410
 Alpha virt. eigenvalues --    5.23864   5.24815   5.25438   5.26337   5.28517
 Alpha virt. eigenvalues --    5.28926   5.30399   5.31000   5.32206   5.32788
 Alpha virt. eigenvalues --    5.34592   5.36613   5.37708   5.38233   5.38453
 Alpha virt. eigenvalues --    5.39445   5.40002   5.41220   5.41904   5.43126
 Alpha virt. eigenvalues --    5.43617   5.44682   5.45409   5.45700   5.46957
 Alpha virt. eigenvalues --    5.47386   5.49020   5.49374   5.50564   5.51347
 Alpha virt. eigenvalues --    5.52588   5.53279   5.54233   5.55245   5.56778
 Alpha virt. eigenvalues --    5.58419   5.59483   5.60299   5.61444   5.63099
 Alpha virt. eigenvalues --    5.63507   5.63883   5.64888   5.65930   5.66912
 Alpha virt. eigenvalues --    5.67715   5.68293   5.70081   5.70568   5.71699
 Alpha virt. eigenvalues --    5.72581   5.73884   5.77783   5.79180   5.80322
 Alpha virt. eigenvalues --    5.83040   5.83996   5.87735   5.92227   5.95845
 Alpha virt. eigenvalues --    5.97860   5.99468   6.00758   6.01818   6.02710
 Alpha virt. eigenvalues --    6.05295   6.06946   6.09492   6.10648   6.10716
 Alpha virt. eigenvalues --    6.14051   6.15195   6.18472   6.19006   6.20873
 Alpha virt. eigenvalues --    6.23066   6.25204   6.32366   6.35179   6.39701
 Alpha virt. eigenvalues --   22.34962  22.38339  22.44944  22.45151  22.45840
 Alpha virt. eigenvalues --   22.46680  22.50824  22.53404  22.60367  22.61727
 Alpha virt. eigenvalues --   22.79731  22.84254  22.87068  22.87772  22.89463
 Alpha virt. eigenvalues --   22.92603  22.94631  22.96327  22.97460  23.01286
 Alpha virt. eigenvalues --   23.01867  23.07247  23.12748  23.13383  23.25934
 Alpha virt. eigenvalues --   23.29271  23.30240  23.30996  23.32879  23.40868
 Alpha virt. eigenvalues --   23.44685  23.51360  23.51737  23.55351  23.67406
 Alpha virt. eigenvalues --   23.72892  23.77893  23.84971  32.42933  32.45049
 Alpha virt. eigenvalues --   32.82718  32.85256  32.95531  33.04476  33.10920
 Alpha virt. eigenvalues --   33.27361
          Condensed to atoms (all electrons):
 Mulliken charges:
               1
     1  Fe  -0.231264
     2  N   -0.157123
     3  N   -0.208547
     4  N   -0.033451
     5  N   -0.003422
     6  C    0.223921
     7  C   -0.033974
     8  C   -0.016549
     9  C    0.163416
    10  C    0.176777
    11  C   -0.056111
    12  C    0.049896
    13  C    0.263109
    14  C    0.240179
    15  C   -0.010647
    16  C    0.041828
    17  C    0.251887
    18  C    0.116041
    19  C   -0.001160
    20  C   -0.049102
    21  C    0.225337
    22  C   -0.426973
    23  H    0.131395
    24  C   -0.500849
    25  H    0.131522
    26  C   -0.537640
    27  H    0.164340
    28  C   -0.512928
    29  H    0.109927
    30  C   -0.408093
    31  H    0.132875
    32  H    0.118274
    33  H    0.131754
    34  C   -0.423292
    35  H    0.136369
    36  H    0.133724
    37  H    0.116224
    38  C   -0.386964
    39  H    0.130945
    40  H    0.133068
    41  H    0.121333
    42  C   -0.251655
    43  H    0.115794
    44  C   -0.302797
    45  H    0.154165
    46  H    0.117138
    47  C   -0.451785
    48  H    0.132364
    49  H    0.137338
    50  H    0.152547
    51  C   -0.216469
    52  H    0.110757
    53  C   -0.293189
    54  H    0.137549
    55  H    0.118753
    56  C   -0.412020
    57  H    0.133424
    58  H    0.132620
    59  H    0.117907
    60  C   -0.426694
    61  H    0.134380
    62  H    0.116100
    63  H    0.137384
    64  C   -0.397719
    65  H    0.144516
    66  H    0.133970
    67  H    0.133168
    68  N   -0.232369
    69  H    0.231630
    70  C    0.177573
    71  C    0.016495
    72  H    0.174503
    73  N    0.180776
    74  C   -0.199849
    75  H    0.147559
    76  C   -0.399419
    77  H    0.133264
    78  H    0.134652
    79  H    0.144652
    80  N   -0.228754
    81  H    0.230856
    82  C    0.164178
    83  C    0.005360
    84  H    0.180715
    85  N    0.110524
    86  C   -0.178649
    87  H    0.152702
 Sum of Mulliken charges =  -0.00000
 Mulliken charges with hydrogens summed into heavy atoms:
               1
     1  Fe  -0.231264
     2  N   -0.157123
     3  N   -0.208547
     4  N   -0.033451
     5  N   -0.003422
     6  C    0.223921
     7  C   -0.033974
     8  C   -0.016549
     9  C    0.163416
    10  C    0.176777
    11  C   -0.056111
    12  C    0.049896
    13  C    0.263109
    14  C    0.240179
    15  C   -0.010647
    16  C    0.041828
    17  C    0.251887
    18  C    0.116041
    19  C   -0.001160
    20  C   -0.049102
    21  C    0.225337
    22  C   -0.295578
    24  C   -0.369327
    26  C   -0.373300
    28  C   -0.403002
    30  C   -0.025190
    34  C   -0.036975
    38  C   -0.001618
    42  C   -0.135861
    44  C   -0.031494
    47  C   -0.029536
    51  C   -0.105712
    53  C   -0.036888
    56  C   -0.028069
    60  C   -0.038830
    64  C    0.013936
    68  N   -0.000738
    70  C    0.177573
    71  C    0.190999
    73  N    0.180776
    74  C   -0.052290
    76  C    0.013150
    80  N    0.002103
    82  C    0.164178
    83  C    0.186075
    85  N    0.110524
    86  C   -0.025946
 Electronic spatial extent (au):  <R**2>=          22354.6587
 Charge=             -0.0000 electrons
 Dipole moment (field-independent basis, Debye):
    X=             -2.2985    Y=              0.0589    Z=             -0.2884  Tot=              2.3172
 Quadrupole moment (field-independent basis, Debye-Ang):
   XX=           -273.4981   YY=           -275.3381   ZZ=           -232.4481
   XY=             -6.2950   XZ=              0.6074   YZ=              3.2545
 Traceless Quadrupole moment (field-independent basis, Debye-Ang):
   XX=            -13.0700   YY=            -14.9100   ZZ=             27.9800
   XY=             -6.2950   XZ=              0.6074   YZ=              3.2545
 Octapole moment (field-independent basis, Debye-Ang**2):
  XXX=            -54.3021  YYY=            -33.2233  ZZZ=             25.4932  XYY=             -6.0107
  XXY=             -0.3115  XXZ=              6.4202  XZZ=            -40.3608  YZZ=             22.0687
  YYZ=             -5.6239  XYZ=             -8.4678
 Hexadecapole moment (field-independent basis, Debye-Ang**3):
 XXXX=         -12463.0711 YYYY=         -11443.2869 ZZZZ=          -5225.5893 XXXY=            -27.8322
 XXXZ=            -10.6159 YYYX=            -37.5549 YYYZ=             12.5628 ZZZX=             30.3383
 ZZZY=            153.8967 XXYY=          -3942.3735 XXZZ=          -3185.6085 YYZZ=          -3111.6852
 XXYZ=            -47.3677 YYXZ=            -44.2870 ZZXY=            -74.0301
 N-N= 7.159892655289D+03 E-N=-2.177261542628D+04  KE= 3.161971992321D+03
  Exact polarizability:     746.898      -1.819     693.941     -14.274     -12.514     405.666
 Approx polarizability:    1432.917     -34.042    1340.864     -40.470     -19.503     614.592

 ----------------------------------------------------------------------

 Electric dipole moment (input orientation):
 (Debye = 10**-18 statcoulomb cm , SI units = C m)
                  (au)            (Debye)         (10**-30 SI)
   Tot        0.911671D+00      0.231724D+01      0.772947D+01
   x         -0.749505D+00     -0.190505D+01     -0.635456D+01
   y          0.401761D+00      0.102117D+01      0.340627D+01
   z         -0.328596D+00     -0.835209D+00     -0.278596D+01

 Dipole polarizability, Alpha (input orientation).
 (esu units = cm**3 , SI units = C**2 m**2 J**-1)
 Alpha(0;0):
               (au)            (10**-24 esu)      (10**-40 SI)
   iso        0.615502D+03      0.912079D+02      0.101483D+03
   aniso      0.319787D+03      0.473875D+02      0.527257D+02
   xx         0.581302D+03      0.861400D+02      0.958437D+02
   yx        -0.125125D+03     -0.185417D+02     -0.206304D+02
   yy         0.631953D+03      0.936458D+02      0.104195D+03
   zx         0.117070D+03      0.173479D+02      0.193022D+02
   zy         0.620371D+02      0.919295D+01      0.102285D+02
   zz         0.633250D+03      0.938380D+02      0.104409D+03

 First dipole hyperpolarizability, Beta (input orientation).
 ||, _|_  parallel and perpendicular components, (z) with respect to z axis,
 vector components x,y,z.  Values do not include the 1/n! factor of 1/2.
 (esu units = statvolt**-1 cm**4 , SI units = C**3 m**3 J**-2)
 Beta(0;0,0):
               (au)            (10**-30 esu)      (10**-50 SI)
   || (z)     0.517925D+02      0.447447D+00      0.166066D+00
   _|_(z)     0.172642D+02      0.149149D+00      0.553552D-01
   x          0.231706D+04      0.200176D+02      0.742933D+01
   y         -0.344903D+04     -0.297970D+02     -0.110589D+02
   z          0.258963D+03      0.223723D+01      0.830328D+00
   ||         0.832626D+03      0.719324D+01      0.266970D+01
   xxx        0.562795D+03      0.486211D+01      0.180452D+01
   xxy       -0.397081D+03     -0.343047D+01     -0.127319D+01
   yxy        0.188982D+03      0.163266D+01      0.605945D+00
   yyy       -0.502447D+03     -0.434075D+01     -0.161103D+01
   xxz        0.223171D+03      0.192802D+01      0.715567D+00
   yxz       -0.355925D+03     -0.307491D+01     -0.114122D+01
   yyz       -0.602107D+02     -0.520174D+00     -0.193057D+00
   zxz        0.205760D+02      0.177761D+00      0.659741D-01
   zyz       -0.250150D+03     -0.216110D+01     -0.802070D+00
   zzz       -0.766396D+02     -0.662106D+00     -0.245734D+00

 ----------------------------------------------------------------------

 Dipole orientation:
    26         11.91715291       -112.16477967          8.90895182
     7         12.06772750       -112.52800971         12.86418295
     7         14.13850645       -108.67331857          9.93185334
     7         11.70958969       -110.66004088          5.47037543
     7         10.57322118       -115.30918881          8.18145919
     6         11.08070953       -114.69343167         13.85506478
     6         11.43647852       -114.71421203         16.57593240
     6         12.59559855       -112.49751582         17.16968888
     6         13.01368478       -111.19867806         14.81012834
     6         14.68081416       -107.73787474         12.29414474
     6         15.33302889       -105.09359569         12.13744317
     6         15.18622091       -104.45791129          9.63359896
     6         14.41839030       -106.73786367          8.32304278
     6         12.68781041       -108.53984728          4.40626784
     6         12.29403977       -108.58019880          1.71398221
     6         10.97678720       -110.75667088          1.18867903
     6         10.69239064       -112.06913541          3.57886718
     6          9.60313111       -115.99339402          5.91014607
     6          8.05160063       -118.23785048          6.22660434
     6          8.18746232       -118.86939779          8.72226715
     6          9.68646361       -116.94590443          9.94885646
     6         10.23551484       -116.79247647         12.50755761
     1          9.59820859       -118.36717453         13.64870209
     6         14.18501721       -108.87478655         14.58704748
     1         14.78683315       -107.95032093         16.30344582
     6         14.13502284       -106.82199963          5.71248957
     1         14.83612129       -105.19962745          4.68833516
     6          9.51351893       -114.41232577          3.83085183
     1          8.58685144       -115.14739673          2.16740449
     6         13.41692459       -111.49028799         19.66997448
     1         15.44234435       -111.10254781         19.66917664
     1         13.02195332       -112.83344797         21.17539536
     1         12.43173844       -109.72881518         20.10044878
     6         10.73433644       -116.82073916         18.30935398
     1         11.78397710       -118.53142928         17.82242072
     1          8.72194293       -117.24042286         18.18989241
     1         11.18015268       -116.32283021         20.25579160
     6         15.73972771       -103.39053803         14.35116205
     1         17.22408823       -104.09226963         15.59091791
     1         13.99671781       -103.25544805         15.44647652
     1         16.24897307       -101.49498854         13.72942099
     6         15.37383062       -101.91618562          8.64038923
     1         16.84506992       -100.74815386          9.46370126
     6         13.79334147       -100.91799266          6.97469666
     1         12.26242527       -101.99511592          6.17422624
     1         13.95178006        -98.98222768          6.38268200
     6         13.21116465       -106.66138048         -0.13893687
     1         15.00133354       -105.83762581          0.47013548
     1         11.83861507       -105.12685180         -0.37401021
     1         13.48436826       -107.55598177         -1.97455525
     6         10.29823706       -111.80539607         -1.24131494
     1         10.31339440       -113.85740799         -1.30794459
     6          9.75100844       -110.56341234         -3.35133317
     1          9.57420256       -108.54255951         -3.44850270
     1          9.39939855       -111.57388346         -5.08385742
     6          6.70581352       -119.54539890          4.12324248
     1          8.03998241       -120.10589458          2.65555311
     1          5.29906913       -118.29931874          3.26575941
     1          5.74490263       -121.23267897          4.79997498
     6          7.03098339       -121.08752104         10.02870200
     1          8.49874875       -122.23782024         10.91884918
     1          6.01636472       -122.27208700          8.69007746
     1          5.71031946       -120.48891614         11.49498741
     6         20.82708475       -116.21645154          4.89761013
     1         20.03018765       -116.67316078          3.06441395
     1         21.62475005       -117.92983468          5.71668325
     1         22.35562324       -114.86135125          4.62924514
     7         19.36609737       -114.30238416          8.95373885
     1         21.07455879       -114.30976356          9.78558882
     6         18.84236417       -115.13539126          6.55903795
     6         17.20690484       -113.36171513          9.93549846
     1         17.03717472       -112.60631715         11.80051436
     7         15.34775828       -113.55460508          8.31389777
     6         16.32969732       -114.65282309          6.20580499
     1         15.17690796       -115.05929112          4.59562156
     6          1.66533532       -109.17575452          8.44179084
     1          1.34902292       -107.19754703          7.96709373
     1          0.40251624       -109.67043032          9.99304393
     1          1.18233700       -110.32168334          6.81245664
     7          5.48878537       -108.27285614         11.06020100
     1          4.67140939       -106.95099464         12.15057811
     6          4.34840309       -109.59340461          9.14663224
     6          7.92597652       -109.01584373         11.17016291
     1          9.27608447       -108.32583472         12.50367795
     7          8.41085420       -110.73257896          9.45477535
     6          6.19643563       -111.10928991          8.18013949
     1          6.04906439       -112.45068113          6.67485012

 Electric dipole moment (dipole orientation):
 (Debye = 10**-18 statcoulomb cm , SI units = C m)
                  (au)            (Debye)         (10**-30 SI)
   Tot        0.911671D+00      0.231724D+01      0.772947D+01
   x          0.000000D+00      0.000000D+00      0.000000D+00
   y          0.000000D+00      0.000000D+00      0.000000D+00
   z          0.911671D+00      0.231724D+01      0.772947D+01

 Dipole polarizability, Alpha (dipole orientation).
 (esu units = cm**3 , SI units = C**2 m**2 J**-1)
 Alpha(0;0):
               (au)            (10**-24 esu)      (10**-40 SI)
   iso        0.615502D+03      0.912079D+02      0.101483D+03
   aniso      0.319787D+03      0.473875D+02      0.527257D+02
   xx         0.462447D+03      0.685276D+02      0.762473D+02
   yx         0.106217D+03      0.157397D+02      0.175128D+02
   yy         0.645833D+03      0.957025D+02      0.106483D+03
   zx         0.504491D+02      0.747579D+01      0.831793D+01
   zy        -0.236111D+02     -0.349880D+01     -0.389295D+01
   zz         0.738225D+03      0.109394D+03      0.121717D+03

 First dipole hyperpolarizability, Beta (dipole orientation).
 ||, _|_  parallel and perpendicular components, (z) with respect to z axis,
 vector components x,y,z.  Values do not include the 1/n! factor of 1/2.
 (esu units = statvolt**-1 cm**4 , SI units = C**3 m**3 J**-2)
 Beta(0;0,0):
               (au)            (10**-30 esu)      (10**-50 SI)
   || (z)    -0.703637D+03     -0.607887D+01     -0.225611D+01
   _|_(z)    -0.234546D+03     -0.202629D+01     -0.752038D+00
   x          0.344960D+02      0.298019D+00      0.110607D+00
   y          0.222550D+04      0.192266D+02      0.713576D+01
   z         -0.351818D+04     -0.303944D+02     -0.112806D+02
   ||         0.832626D+03      0.719324D+01      0.266970D+01
   xxx        0.370579D+02      0.320151D+00      0.118821D+00
   xxy       -0.649256D+02     -0.560906D+00     -0.208175D+00
   yxy        0.822526D+02      0.710599D+00      0.263732D+00
   yyy        0.648091D+03      0.559900D+01      0.207801D+01
   xxz        0.163199D+01      0.140991D-01      0.523274D-02
   yxz        0.812341D+02      0.701800D+00      0.260466D+00
   yyz        0.101989D+03      0.881108D+00      0.327014D+00
   zxz       -0.107812D+03     -0.931410D+00     -0.345684D+00
   zyz        0.158668D+03      0.137077D+01      0.508747D+00
   zzz       -0.127635D+04     -0.110267D+02     -0.409244D+01

 ----------------------------------------------------------------------
 Unable to Open any file for archive entry.
 1\1\GINC-BGN1029\SP\RAPFD\def2TZVP\C38H40Fe1N8\BECSLEIP\26-Aug-2024\0\
 \# polar def2tzvp apfd int=(grid=ultrafine)\\2ggn_II_S\\0,1\Fe,0,15.10
 42736099,54.639013535,19.2731797903\N,0,13.4748408283,55.7473716544,18
 .5379852177\N,0,14.7587154448,53.6067471615,17.2974710435\N,0,16.33289
 46255,53.1252789794,19.6684230239\N,0,15.5060408894,55.7063852554,20.7
 298908742\C,0,13.086105499,56.8216642646,19.2833701798\C,0,12.00005810
 62,57.515737047,18.6144804099\C,0,11.7380002413,56.8119774403,17.48002
 28\C,0,12.6928084656,55.7314445782,17.4452909395\C,0,13.7435800317,53.
 8097097125,16.3928278226\C,0,13.6127744326,52.6655396091,15.5223226605
 \C,0,14.5733915062,51.7725820804,15.9155145825\C,0,15.260396204,52.393
 0211567,17.0312112829\C,0,16.7575180244,52.0531875124,18.9513791528\C,
 0,17.8296270623,51.3881563149,19.6456059489\C,0,18.0141292744,52.06734
 72832,20.8264221926\C,0,17.0835150087,53.1800444096,20.8003287148\C,0,
 16.3322831772,55.3503825937,21.7446982741\C,0,16.0977774146,56.2236976
 8,22.8827389983\C,0,15.1372219081,57.1113279522,22.4949049259\C,0,14.7
 316726785,56.7360509668,21.1602557813\C,0,13.7430911274,57.3405175316,
 20.3975839028\H,0,13.298855459,58.2311610565,20.8244100277\C,0,12.7742
 593197,54.7902910169,16.4363201119\H,0,12.0575109588,54.8559969669,15.
[...]
                                                    172(r)
   164. CR (   1) N  85                  1.99936   -14.13933  171(r),168(r),169(r),1516(v)
                                                    172(r),1573(v),1707(v)
                                                    1604(r),184(r),190(r),192(r)
   165. CR (   1) C  86                  1.99896   -10.05146  1701(v),1490(v),1705(g)
                                                    1549(v),1600(v),1493(v)
                                                    168(r),169(r),171(r),170(r)
   179. LP (   1) N  80                  1.57961    -0.27654  1709(v),1706(v),1519(v)
                                                    1491(v),1485(v),185(r)
   180. LP (   1) N  85                  1.63947    -0.35183  171(r),168(r),169(r),172(r)
                                                    1704(v),1705(v),1604(r)
                                                    1516(v),1707(v),1711(v)
                                                    1573(v),1708(g),1710(g)
                                                    1550(g),170(r),186(r),193(r)
                                                    1614(r),185(r),1611(r)
                                                    1615(r),1606(r),195(r)
                                                    289(r),263(r),1364(r),211(r)
                                                    14(r),239(r),237(r),236(r)
                                                    197(r),260(r),1612(r),196(r)
                                                    209(r),210(r),199(r),1608(r)
                                                    187(r),208(r),262(r)
  1418. RY*(   1) C  76                  0.00119     1.17208   
  1419. RY*(   2) C  76                  0.00080     2.01247   
  1420. RY*(   3) C  76                  0.00051     1.33496   
  1421. RY*(   4) C  76                  0.00012     1.26591   
  1422. RY*(   5) C  76                  0.00009     2.12847   
  1423. RY*(   6) C  76                  0.00007     1.34389   
  1424. RY*(   7) C  76                  0.00001     1.83816   
  1425. RY*(   8) C  76                  0.00001     1.89380   
  1426. RY*(   9) C  76                  0.00001     1.39396   
  1427. RY*(  10) C  76                  0.00000     3.17692   
  1428. RY*(  11) C  76                  0.00000     2.55795   
  1429. RY*(  12) C  76                  0.00001     1.44398   
  1430. RY*(  13) C  76                  0.00000     2.60939   
  1431. RY*(  14) C  76                  0.00001     2.95497   
  1432. RY*(  15) C  76                  0.00000     2.51289   
  1433. RY*(  16) C  76                  0.00000     2.41670   
  1434. RY*(  17) C  76                  0.00001     2.53814   
  1435. RY*(  18) C  76                  0.00000    21.59818   
  1436. RY*(  19) C  76                  0.00000     2.69590   
  1437. RY*(  20) C  76                  0.00000     3.73623   
  1438. RY*(  21) C  76                  0.00001     3.41280   
  1439. RY*(  22) C  76                  0.00001     3.40533   
  1440. RY*(  23) C  76                  0.00000     3.38821   
  1441. RY*(  24) C  76                  0.00000     3.66229   
  1442. RY*(  25) C  76                  0.00000     3.26687   
  1443. RY*(  26) C  76                  0.00000     3.42996   
  1444. RY*(   1) H  77                  0.00076     1.00452   
  1445. RY*(   2) H  77                  0.00015     1.67826   
  1446. RY*(   3) H  77                  0.00008     1.99251   
  1447. RY*(   4) H  77                  0.00006     2.01415   
  1448. RY*(   5) H  77                  0.00000     2.88542   
  1449. RY*(   1) H  78                  0.00076     0.98477   
  1450. RY*(   2) H  78                  0.00015     1.72063   
  1451. RY*(   3) H  78                  0.00008     1.97754   
  1452. RY*(   4) H  78                  0.00006     2.01080   
  1453. RY*(   5) H  78                  0.00000     2.88727   
  1454. RY*(   1) H  79                  0.00024     1.37585   
  1455. RY*(   2) H  79                  0.00012     1.75134   
  1456. RY*(   3) H  79                  0.00008     2.06183   
  1457. RY*(   4) H  79                  0.00002     1.61588   
  1458. RY*(   5) H  79                  0.00001     2.86710   
  1459. RY*(   1) N  80                  0.00283     0.68579   
  1460. RY*(   2) N  80                  0.00227     1.79387   
  1461. RY*(   3) N  80                  0.00100     2.05972   
  1462. RY*(   4) N  80                  0.00079     2.14371   
  1463. RY*(   5) N  80                  0.00051     1.21831   
  1464. RY*(   6) N  80                  0.00025     2.32056   
  1465. RY*(   7) N  80                  0.00020     1.79575   
  1466. RY*(   8) N  80                  0.00007     2.46977   
  1467. RY*(   9) N  80                  0.00007     2.43785   
  1468. RY*(  10) N  80                  0.00006     3.75391   
  1469. RY*(  11) N  80                  0.00004     3.10891   
  1470. RY*(  12) N  80                  0.00000     2.13638   
  1471. RY*(  13) N  80                  0.00001     3.19032   
  1472. RY*(  14) N  80                  0.00001     3.39011   
  1473. RY*(  15) N  80                  0.00001     3.74803   
  1474. RY*(  16) N  80                  0.00001     2.40503   
  1475. RY*(  17) N  80                  0.00000     4.08139   
  1476. RY*(  18) N  80                  0.00000     4.81643   
  1477. RY*(  19) N  80                  0.00000    30.84159   
  1478. RY*(  20) N  80                  0.00000     4.71265   
  1479. RY*(  21) N  80                  0.00000     4.65327   
  1480. RY*(  22) N  80                  0.00000     4.56663   
  1481. RY*(  23) N  80                  0.00000     4.29517   
  1482. RY*(  24) N  80                  0.00000     4.60230   
  1483. RY*(  25) N  80                  0.00000     4.47535   
  1484. RY*(  26) N  80                  0.00000     4.48602   
  1485. RY*(   1) H  81                  0.00058     2.16287   
  1486. RY*(   2) H  81                  0.00039     2.14144   
  1487. RY*(   3) H  81                  0.00032     1.05014   
  1488. RY*(   4) H  81                  0.00021     2.53817   
  1489. RY*(   5) H  81                  0.00001     3.10830   
  1490. RY*(   1) C  82                  0.00401     1.69948   
  1491. RY*(   2) C  82                  0.00265     0.98645   
  1492. RY*(   3) C  82                  0.00194     1.52567   
  1493. RY*(   4) C  82                  0.00160     2.04437   
  1494. RY*(   5) C  82                  0.00124     1.77802   
  1495. RY*(   6) C  82                  0.00112     1.72185   
  1496. RY*(   7) C  82                  0.00037     2.86375   
  1497. RY*(   8) C  82                  0.00019     2.73540   
  1498. RY*(   9) C  82                  0.00016     2.59634   
  1499. RY*(  10) C  82                  0.00007     3.60440   
  1500. RY*(  11) C  82                  0.00003     2.57472   
  1501. RY*(  12) C  82                  0.00000    21.10639   
  1502. RY*(  13) C  82                  0.00001     2.85271   
  1503. RY*(  14) C  82                  0.00001     1.61292   
  1504. RY*(  15) C  82                  0.00001     1.65732   
  1505. RY*(  16) C  82                  0.00000     1.18575   
  1506. RY*(  17) C  82                  0.00000     2.00792   
  1507. RY*(  18) C  82                  0.00001     1.80316   
  1508. RY*(  19) C  82                  0.00000     3.70197   
  1509. RY*(  20) C  82                  0.00000     4.09346   
  1510. RY*(  21) C  82                  0.00000     3.64403   
  1511. RY*(  22) C  82                  0.00000     3.59440   
  1512. RY*(  23) C  82                  0.00000     3.38558   
  1513. RY*(  24) C  82                  0.00000     3.79210   
  1514. RY*(  25) C  82                  0.00000     3.49706   
  1515. RY*(  26) C  82                  0.00000     3.60342   
  1516. RY*(   1) C  83                  0.00409     1.55119   
  1517. RY*(   2) C  83                  0.00330     0.68548   
  1518. RY*(   3) C  83                  0.00209     1.34640   
  1519. RY*(   4) C  83                  0.00127     2.57494   
  1520. RY*(   5) C  83                  0.00097     1.38325   
  1521. RY*(   6) C  83                  0.00046     1.61661   
  1522. RY*(   7) C  83                  0.00023     1.83962   
  1523. RY*(   8) C  83                  0.00013     2.49449   
  1524. RY*(   9) C  83                  0.00007     2.97567   
  1525. RY*(  10) C  83                  0.00007     2.02202   
  1526. RY*(  11) C  83                  0.00004     1.71710   
  1527. RY*(  12) C  83                  0.00003     3.35420   
  1528. RY*(  13) C  83                  0.00003     2.78779   
  1529. RY*(  14) C  83                  0.00002     2.75678   
  1530. RY*(  15) C  83                  0.00002     2.95082   
  1531. RY*(  16) C  83                  0.00000     3.18966   
  1532. RY*(  17) C  83                  0.00000     3.56938   
  1533. RY*(  18) C  83                  0.00000     2.76956   
  1534. RY*(  19) C  83                  0.00000    21.32770   
  1535. RY*(  20) C  83                  0.00001     3.88870   
  1536. RY*(  21) C  83                  0.00000     3.85754   
  1537. RY*(  22) C  83                  0.00000     3.85315   
  1538. RY*(  23) C  83                  0.00000     3.60043   
  1539. RY*(  24) C  83                  0.00000     3.87813   
  1540. RY*(  25) C  83                  0.00000     3.46846   
  1541. RY*(  26) C  83                  0.00000     3.54827   
  1542. RY*(   1) H  84                  0.00079     0.68694   
  1543. RY*(   2) H  84                  0.00034     2.53046   
  1544. RY*(   3) H  84                  0.00020     2.16278   
  1545. RY*(   4) H  84                  0.00012     2.46356   
  1546. RY*(   5) H  84                  0.00002     3.21206   
  1547. RY*(   1) N  85                  0.00819     0.99834   
  1548. RY*(   2) N  85                  0.00802     1.20892   
  1549. RY*(   3) N  85                  0.00571     1.38570   
  1550. RY*(   4) N  85                  0.00087     1.67989   
  1551. RY*(   5) N  85                  0.00067     1.82773   
  1552. RY*(   6) N  85                  0.00048     2.16860   
  1553. RY*(   7) N  85                  0.00036     3.25046   
  1554. RY*(   8) N  85                  0.00031     3.33726   
  1555. RY*(   9) N  85                  0.00014     2.74102   
  1556. RY*(  10) N  85                  0.00010     3.45187   
  1557. RY*(  11) N  85                  0.00008     3.17817   
  1558. RY*(  12) N  85                  0.00007     2.93960   
  1559. RY*(  13) N  85                  0.00005     3.21367   
  1560. RY*(  14) N  85                  0.00004     3.76820   
  1561. RY*(  15) N  85                  0.00001     4.10725   
  1562. RY*(  16) N  85                  0.00001     4.42232   
  1563. RY*(  17) N  85                  0.00001     4.54845   
  1564. RY*(  18) N  85                  0.00000     4.87882   
  1565. RY*(  19) N  85                  0.00000    31.66042   
  1566. RY*(  20) N  85                  0.00000     4.46434   
  1567. RY*(  21) N  85                  0.00001     4.65940   
  1568. RY*(  22) N  85                  0.00001     4.47991   
  1569. RY*(  23) N  85                  0.00000     4.66868   
  1570. RY*(  24) N  85                  0.00000     4.69762   
  1571. RY*(  25) N  85                  0.00000     4.57065   
  1572. RY*(  26) N  85                  0.00000     4.66610   
  1573. RY*(   1) C  86                  0.00412     1.55005   
  1574. RY*(   2) C  86                  0.00262     0.76262   
  1575. RY*(   3) C  86                  0.00175     1.80589   
  1576. RY*(   4) C  86                  0.00066     1.59486   
  1577. RY*(   5) C  86                  0.00059     2.09576   
  1578. RY*(   6) C  86                  0.00047     1.99992   
  1579. RY*(   7) C  86                  0.00043     1.98628   
  1580. RY*(   8) C  86                  0.00024     1.41152   
  1581. RY*(   9) C  86                  0.00022     1.78836   
  1582. RY*(  10) C  86                  0.00020     1.77327   
  1583. RY*(  11) C  86                  0.00011     1.26518   
  1584. RY*(  12) C  86                  0.00006     2.04619   
  1585. RY*(  13) C  86                  0.00005     2.43613   
  1586. RY*(  14) C  86                  0.00002     3.42680   
  1587. RY*(  15) C  86                  0.00003     1.52495   
  1588. RY*(  16) C  86                  0.00003     3.87242   
  1589. RY*(  17) C  86                  0.00000     3.26644   
  1590. RY*(  18) C  86                  0.00001     3.69788   
  1591. RY*(  19) C  86                  0.00000    20.88936   
  1592. RY*(  20) C  86                  0.00001     3.87811   
  1593. RY*(  21) C  86                  0.00001     3.80851   
  1594. RY*(  22) C  86                  0.00001     3.73429   
  1595. RY*(  23) C  86                  0.00000     3.36037   
  1596. RY*(  24) C  86                  0.00000     3.67185   
  1597. RY*(  25) C  86                  0.00000     3.53430   
  1598. RY*(  26) C  86                  0.00000     3.63477   
  1599. RY*(   1) H  87                  0.00056     0.65535   
  1600. RY*(   2) H  87                  0.00032     2.42619   
  1601. RY*(   3) H  87                  0.00024     2.34437   
  1602. RY*(   4) H  87                  0.00008     2.81174   
  1603. RY*(   5) H  87                  0.00002     3.15633   
  1698. BD*(   1) C  76 - H  77          0.01159     0.36435   
  1699. BD*(   1) C  76 - H  78          0.01254     0.36358   
  1700. BD*(   1) C  76 - H  79          0.00355     0.37866   
  1701. BD*(   1) C  76 - C  82          0.01389     0.39527   
  1702. BD*(   1) N  80 - H  81          0.01460     0.37710   
  1703. BD*(   1) N  80 - C  82          0.02724     0.43691   
  1704. BD*(   1) N  80 - C  83          0.02383     0.45997   
  1705. BD*(   1) C  82 - C  86          0.02146     0.57386   
  1706. BD*(   2) C  82 - C  86          0.30216     0.04214  1709(v),1699(v),1698(v)
                                                    1578(g),1494(g),1645(r)
                                                    1613(r)
  1707. BD*(   1) C  83 - H  84          0.01850     0.40667   
  1708. BD*(   1) C  83 - N  85          0.01594     0.54538   
  1709. BD*(   2) C  83 - N  85          0.40904     0.00515  1706(v),1517(g),1613(r)
                                                    1695(r),172(r),1604(r)
                                                    183(r)
  1710. BD*(   1) N  85 - C  86          0.01660     0.48680   
  1711. BD*(   1) C  86 - H  87          0.01579     0.44083   
       -------------------------------
              Total Lewis   42.71538  ( 97.7403%)
        Valence non-Lewis    0.90673  (  2.0748%)
        Rydberg non-Lewis    0.08084  (  0.1850%)
       -------------------------------
            Total unit  3   43.70295  (100.0000%)
           Charge unit  3    0.29705
 Unable to Open any file for archive entry.
 1\1\GINC-BGN1029\SP\RAPFD\def2TZVP\C38H40Fe1N8\BECSLEIP\26-Aug-2024\0\
 \# apfd/def2TZVP int=(grid=ultrafine) geom=check guess=read pop=nbo sc
 f=qc\\2ggn_II_S_nbo\\0,1\Fe,0,15.1042736099,54.639013535,19.2731797903
 \N,0,13.4748408283,55.7473716544,18.5379852177\N,0,14.7587154448,53.60
 67471615,17.2974710435\N,0,16.3328946255,53.1252789794,19.6684230239\N
 ,0,15.5060408894,55.7063852554,20.7298908742\C,0,13.086105499,56.82166
 42646,19.2833701798\C,0,12.0000581062,57.515737047,18.6144804099\C,0,1
 1.7380002413,56.8119774403,17.4800228\C,0,12.6928084656,55.7314445782,
 17.4452909395\C,0,13.7435800317,53.8097097125,16.3928278226\C,0,13.612
 7744326,52.6655396091,15.5223226605\C,0,14.5733915062,51.7725820804,15
 .9155145825\C,0,15.260396204,52.3930211567,17.0312112829\C,0,16.757518
 0244,52.0531875124,18.9513791528\C,0,17.8296270623,51.3881563149,19.64
 56059489\C,0,18.0141292744,52.0673472832,20.8264221926\C,0,17.08351500
 87,53.1800444096,20.8003287148\C,0,16.3322831772,55.3503825937,21.7446
 982741\C,0,16.0977774146,56.22369768,22.8827389983\C,0,15.1372219081,5
 7.1113279522,22.4949049259\C,0,14.7316726785,56.7360509668,21.16025578
 13\C,0,13.7430911274,57.3405175316,20.3975839028\H,0,13.298855459,58.2
 311610565,20.8244100277\C,0,12.7742593197,54.7902910169,16.4363201119\
 H,0,12.0575109588,54.8559969669,15.6315411974\C,0,16.3325155503,51.782
 4708645,17.6720289103\H,0,16.736122644,50.9064727822,17.1840186046\C,0
 ,16.9902018077,54.1356305423,21.8115670966\H,0,17.5707239104,53.950576
 7075,22.7034054823\C,0,10.7270098582,57.0538773335,16.4109330698\H,0,1
 1.2120310748,57.1632313915,15.4395091095\H,0,10.1561943825,57.95858758
 76,16.6088574098\H,0,10.0291671928,56.2163587583,16.3466533444\C,0,11.
 3558376269,58.776620121,19.0805695452\H,0,12.0882486349,59.5870188176,
 19.1157344807\H,0,10.9311052232,58.655547915,20.0767131628\H,0,10.5575
 851614,59.0674887037,18.3992553616\C,0,12.5179897746,52.4665267149,14.
 5260051375\H,0,12.4727749095,53.2831540581,13.8074193389\H,0,11.558319
 6796,52.4150391051,15.0438823098\H,0,12.656944653,51.5334117459,13.981
 0013922\C,0,14.6972472278,50.4143846749,15.4306001358\H,0,14.566214388
 ,50.283855381,14.3611215022\C,0,14.8603895001,49.3503958666,16.2031115
 8\H,0,14.9527834168,49.4366024651,17.2729959203\H,0,14.8873338719,48.3
 565323373,15.7956775027\C,0,18.6095319457,50.2148543523,19.1525549983\
 H,0,18.7051436832,50.2354859823,18.0654750482\H,0,18.1300718181,49.270
 4901009,19.4366624315\H,0,19.6069330315,50.2311111114,19.59243325\C,0,
 19.0384049693,51.8807849355,21.8296678514\H,0,19.3606086808,52.7982498
 184,22.3143134757\C,0,19.6356242778,50.7481992549,22.1805567132\H,0,19
 .3460293721,49.783890731,21.8047441914\H,0,20.4381319054,50.7530083279
 ,22.8996163138\C,0,16.8387594049,56.13668723,24.174323066\H,0,17.91151
 71937,56.2366999737,24.004540569\H,0,16.661621889,55.173208156,24.6592
 874421\H,0,16.526263386,56.9244965557,24.856765647\C,0,14.5735097851,5
 8.2592337157,23.2661171595\H,0,14.7391871671,59.1954797798,22.72603939
 01\H,0,15.0526445497,58.3414415562,24.2390868072\H,0,13.4995882482,58.
 1435090348,23.4214050257\C,0,19.7928660449,56.7971853626,17.1068814521
 \H,0,20.4425632742,56.4645589038,17.9097259518\H,0,19.8903866836,57.87
 78580345,17.0031972703\H,0,20.1256596374,56.3352897014,16.1770691586\N
 ,0,17.3694919028,56.6688982764,16.5224809794\H,0,17.4635560293,57.1069
 997437,15.6222779868\C,0,18.3892369795,56.4145264064,17.4013366106\C,0
 ,16.2348784599,56.1668390112,17.0552143332\H,0,15.2718576279,56.235167
 4913,16.597175427\N,0,16.4724932805,55.6141809213,18.2183071164\C,0,17
 .8058463604,55.7591431087,18.449304955\H,0,18.2566772397,55.4055779672
 ,19.3527274677\C,0,12.1564892712,51.7293994609,23.1252712862\H,0,11.99
 99998251,50.6767365702,22.8921026922\H,0,11.2150763257,52.1375928683,2
 3.4941419228\H,0,12.8982083864,51.8012051092,23.9133982852\N,0,11.9081
 991936,52.4692492878,20.7519131358\H,0,11.0299030466,52.0086930642,20.
 5912805219\C,0,12.6231380828,52.4613428332,21.920968075\C,0,12.6140268
 831,53.1754007597,19.8439102315\H,0,12.2961426993,53.3636292863,18.841
 2924037\N,0,13.7313446505,53.622475461,20.3604906213\C,0,13.749318489,
 53.1840509411,21.6548333798\H,0,14.5539865315,53.420751181,22.31886910
 29\\Version=ES64L-G16RevC.02\State=1-A\HF=-3173.0394122\RMSD=7.771e-10
 \Dipole=-0.7495045,0.4017608,-0.3285965\Quadrupole=4.4120605,-5.498844
 4,1.0867839,12.6664453,-8.3230474,-9.8910131\PG=C01 [X(C38H40Fe1N8)]\\
 @
 The archive entry for this job was punched.


 SACRED COWS MAKE GREAT HAMBURGERS -- ROBERT REISNER
 Job cpu time:       0 days  1 hours  7 minutes 14.8 seconds.
 Elapsed time:       0 days  0 hours  1 minutes 23.0 seconds.
 File lengths (MBytes):  RWF=    987 Int=      0 D2E=      0 Chk=    233 Scr=      1
 Normal termination of Gaussian 16 at Mon Aug 26 16:38:43 2024.
