 Entering Gaussian System, Link 0=g16
 Input=2hbg01.com
 Output=2hbg01.log
 Initial command:
 /sw/chem/gaussian/g16_C02/a100/g16/l1.exe "/local/becsleip_7993346/Gau-2376643.inp" -scrdir="/local/becsleip_7993346/"
 Entering Link 1 = /sw/chem/gaussian/g16_C02/a100/g16/l1.exe PID=   2376644.
  
 Copyright (c) 1988-2021, Gaussian, Inc.  All Rights Reserved.
  
 This is part of the Gaussian(R) 16 program.  It is based on
 the Gaussian(R) 09 system (copyright 2009, Gaussian, Inc.),
 the Gaussian(R) 03 system (copyright 2003, Gaussian, Inc.),
 the Gaussian(R) 98 system (copyright 1998, Gaussian, Inc.),
 the Gaussian(R) 94 system (copyright 1995, Gaussian, Inc.),
 the Gaussian 92(TM) system (copyright 1992, Gaussian, Inc.),
 the Gaussian 90(TM) system (copyright 1990, Gaussian, Inc.),
 the Gaussian 88(TM) system (copyright 1988, Gaussian, Inc.),
 the Gaussian 86(TM) system (copyright 1986, Carnegie Mellon
 University), and the Gaussian 82(TM) system (copyright 1983,
 Carnegie Mellon University). Gaussian is a federally registered
 trademark of Gaussian, Inc.
  
 This software contains proprietary and confidential information,
 including trade secrets, belonging to Gaussian, Inc.
  
 This software is provided under written license and may be
 used, copied, transmitted, or stored only in accord with that
 written license.
  
 The following legend is applicable only to US Government
 contracts under FAR:
  
                    RESTRICTED RIGHTS LEGEND
  
 Use, reproduction and disclosure by the US Government is
 subject to restrictions as set forth in subparagraphs (a)
 and (c) of the Commercial Computer Software - Restricted
 Rights clause in FAR 52.227-19.
  
 Gaussian, Inc.
 340 Quinnipiac St., Bldg. 40, Wallingford CT 06492
  
  
 ---------------------------------------------------------------
 Warning -- This program may not be used in any manner that
 competes with the business of Gaussian, Inc. or will provide
 assistance to any competitor of Gaussian, Inc.  The licensee
 of this program is prohibited from giving any competitor of
 Gaussian, Inc. access to this program.  By using this program,
 the user acknowledges that Gaussian, Inc. is engaged in the
 business of creating and licensing software in the field of
 computational chemistry and represents and warrants to the
 licensee that it is not a competitor of Gaussian, Inc. and that
 it will not use this program in any manner prohibited above.
 ---------------------------------------------------------------
  

 Cite this work as:
 Gaussian 16, Revision C.02,
 M. J. Frisch, G. W. Trucks, H. B. Schlegel, G. E. Scuseria, 
 M. A. Robb, J. R. Cheeseman, G. Scalmani, V. Barone, 
 G. A. Petersson, H. Nakatsuji, X. Li, M. Caricato, A. V. Marenich, 
 J. Bloino, B. G. Janesko, R. Gomperts, B. Mennucci, H. P. Hratchian, 
 J. V. Ortiz, A. F. Izmaylov, J. L. Sonnenberg, D. Williams-Young, 
 F. Ding, F. Lipparini, F. Egidi, J. Goings, B. Peng, A. Petrone, 
 T. Henderson, D. Ranasinghe, V. G. Zakrzewski, J. Gao, N. Rega, 
 G. Zheng, W. Liang, M. Hada, M. Ehara, K. Toyota, R. Fukuda, 
 J. Hasegawa, M. Ishida, T. Nakajima, Y. Honda, O. Kitao, H. Nakai, 
 T. Vreven, K. Throssell, J. A. Montgomery, Jr., J. E. Peralta, 
 F. Ogliaro, M. J. Bearpark, J. J. Heyd, E. N. Brothers, K. N. Kudin, 
 V. N. Staroverov, T. A. Keith, R. Kobayashi, J. Normand, 
 K. Raghavachari, A. P. Rendell, J. C. Burant, S. S. Iyengar, 
 J. Tomasi, M. Cossi, J. M. Millam, M. Klene, C. Adamo, R. Cammi, 
 J. W. Ochterski, R. L. Martin, K. Morokuma, O. Farkas, 
 J. B. Foresman, and D. J. Fox, Gaussian, Inc., Wallingford CT, 2019.
 
 ******************************************
 Gaussian 16:  ES64L-G16RevC.02  7-Dec-2021
                26-Aug-2024 
 ******************************************
 %mem=16GB
 %CPU=0-71
 SetSPE:  set environment variable "OMP_PROC_BIND" = "true"
 SetSPE:  set environment variable "OMP_PLACES" = "{0},{1},{2},{3},{4},{5},{6},{7},{8},{9},{10},{11},{12},{13},{14},{15},{16},{17},{18},{19},{20},{21},{22},{23},{24},{25},{26},{27},{28},{29},{30},{31},{32},{33},{34},{35},{36},{37},{38},{39},{40},{41},{42},{43},{44},{45},{46},{47},{48},{49},{50},{51},{52},{53},{54},{55},{56},{57},{58},{59},{60},{61},{62},{63},{64},{65},{66},{67},{68},{69},{70},{71}"
 Will use up to   72 processors via shared memory.
 %gpucpu=0,1,2,3=0,1,2,3
 Will use    4 GPUs:
 Thread  CPU   GPU
      0    0     0
      1    1     1
      2    2     2
      3    3     3
      4    4    -1
      5    5    -1
      6    6    -1
      7    7    -1
      8    8    -1
      9    9    -1
     10   10    -1
     11   11    -1
     12   12    -1
     13   13    -1
     14   14    -1
     15   15    -1
     16   16    -1
     17   17    -1
     18   18    -1
     19   19    -1
     20   20    -1
     21   21    -1
     22   22    -1
     23   23    -1
     24   24    -1
     25   25    -1
     26   26    -1
     27   27    -1
     28   28    -1
     29   29    -1
     30   30    -1
     31   31    -1
     32   32    -1
     33   33    -1
     34   34    -1
     35   35    -1
     36   36    -1
     37   37    -1
     38   38    -1
     39   39    -1
     40   40    -1
     41   41    -1
     42   42    -1
     43   43    -1
     44   44    -1
     45   45    -1
     46   46    -1
     47   47    -1
     48   48    -1
     49   49    -1
     50   50    -1
     51   51    -1
     52   52    -1
     53   53    -1
     54   54    -1
     55   55    -1
     56   56    -1
     57   57    -1
     58   58    -1
     59   59    -1
     60   60    -1
     61   61    -1
     62   62    -1
     63   63    -1
     64   64    -1
     65   65    -1
     66   66    -1
     67   67    -1
     68   68    -1
     69   69    -1
     70   70    -1
     71   71    -1
 SetGPE:  set environment variable "OMP_PROC_BIND" = "true"
 SetGPE:  set environment variable "OMP_PLACES" = "{0},{1},{2},{3},{4},{5},{6},{7},{8},{9},{10},{11},{12},{13},{14},{15},{16},{17},{18},{19},{20},{21},{22},{23},{24},{25},{26},{27},{28},{29},{30},{31},{32},{33},{34},{35},{36},{37},{38},{39},{40},{41},{42},{43},{44},{45},{46},{47},{48},{49},{50},{51},{52},{53},{54},{55},{56},{57},{58},{59},{60},{61},{62},{63},{64},{65},{66},{67},{68},{69},{70},{71}"
 %chk=2hbg_II_O.chk
 Properties for Device   0
 Minimum vector length:                              32
 Maximum vector length:                            1024
 Number of SMPs:                                    108
 Maximum number of threads per SMP:                2048
 Number of ASync Engines:                             5
 Memory:                                           9207742464
 Properties for Device   1
 Minimum vector length:                              32
 Maximum vector length:                            1024
 Number of SMPs:                                    108
 Maximum number of threads per SMP:                2048
 Number of ASync Engines:                             5
 Memory:                                           9207742464
 Properties for Device   2
 Minimum vector length:                              32
 Maximum vector length:                            1024
 Number of SMPs:                                    108
 Maximum number of threads per SMP:                2048
 Number of ASync Engines:                             5
 Memory:                                           9207742464
 Properties for Device   3
 Minimum vector length:                              32
 Maximum vector length:                            1024
 Number of SMPs:                                    108
 Maximum number of threads per SMP:                2048
 Number of ASync Engines:                             5
 Memory:                                           9207742464
   8286968217 words of memory will be used on each GPU.
 ------------------------------------------
 # polar def2tzvp apfd int=(grid=ultrafine)
 ------------------------------------------
 1/38=1,172=1/1;
 2/12=2,17=6,18=5,40=1/2;
 3/5=44,7=101,11=2,25=1,30=1,74=-44,75=-5/1,2,3;
 4//1;
 5/5=2,38=5,98=1/2;
 8/6=4,10=90,11=11/1;
 10/6=1,13=10/2;
 6/7=2,8=2,9=2,10=2,28=1/1;
 99/5=1,9=1/99;
 ---------
 2hbg_II_S
 ---------
 Symbolic Z-matrix:
 Charge =  0 Multiplicity = 1
 Fe                    2.681     10.75835   3.14803 
 N                     1.95009   9.39068   1.91626 
 N                     2.10871   9.59345   4.71133 
 N                     3.70643   11.92361   4.43593 
 N                     3.68782   11.6016   1.65388 
 C                     2.15442   9.30615   0.57287 
 C                     1.49917   8.14038   0.0233 
 C                     0.83624   7.55464   1.05521 
 C                     1.13187   8.34423   2.23194 
 C                     1.15224   8.61992   4.66977 
 C                     0.8129    8.16096   5.98942 
 C                     1.5034    8.96214   6.85955 
 C                     2.24752   9.8949    6.03508 
 C                     3.59714   11.92778   5.79524 
 C                     4.44955   12.93631   6.37199 
 C                     4.89626   13.6987   5.32565 
 C                     4.37397   13.07304   4.12415 
 C                     4.45636   12.72616   1.70037 
 C                     4.89953   13.10196   0.37652 
 C                     4.4467    12.13216  -0.46375 
 C                     3.60582   11.26797   0.33427 
 C                     2.90451   10.19247  -0.177 
 H                     2.9673    10.01741  -1.24016 
 C                     0.7647    7.9691    3.50879 
 H                     0.08984   7.13183   3.60491 
 C                     2.97288   10.94921   6.54746 
 H                     3.01153   11.05475   7.62059 
 C                     4.7821    13.42046   2.84955 
 H                     5.36711   14.32045   2.73544 
 C                    -0.00407   6.32385   1.06037 
 H                    -0.12359   5.93375   0.05274 
 H                    -0.99346   6.53666   1.46558 
 H                     0.45421   5.54919   1.67571 
 C                     1.56462   7.73833  -1.40982 
 H                     2.59899   7.57971  -1.71425 
 H                     1.13994   8.51553  -2.04599 
 H                     1.01293   6.81703  -1.57912 
 C                    -0.17708   7.09203   6.2955 
 H                     0.2857    6.1058    6.2332 
 H                    -1.00621   7.12047   5.59 
 H                    -0.56955   7.2229    7.30204 
 C                     1.50712   8.94335   8.30555 
 H                     1.62703   9.90531   8.78975 
 C                     1.3866    7.85546   9.0595 
 H                     1.31392   6.86939   8.6354 
 H                     1.38617   7.91332   10.13533 
 C                     4.75641   13.07622   7.82157 
 H                     4.90702   12.09843   8.27666 
 H                     3.94089   13.57381   8.34921 
 H                     5.66182   13.66448   7.95402 
 C                     5.75647   14.86266   5.34649 
 H                     6.43191   14.96686   4.50566 
 C                     5.76422   15.79207   6.29619 
 H                     5.08455   15.76483   7.1301 
 H                     6.43942   16.63081   6.25846 
 C                     5.78038   14.26836   0.08532 
 H                     6.75014   14.14902   0.56952 
 H                     5.32958   15.18961   0.45467 
 H                     5.94257   14.37214  -0.98465 
 C                     4.63666   11.99492  -1.93526 
 H                     5.30964   12.76127  -2.31141 
 H                     3.68397   12.08579  -2.45795 
 H                     5.06106   11.01979  -2.17332 
 C                    -2.50706   12.84564   3.15419 
 H                    -2.79106   13.56549   3.92104 
 H                    -2.96791   11.89044   3.38436 
 H                    -2.89311   13.19679   2.1974 
 N                    -0.18376   13.74544   2.90959 
 H                    -0.45891   14.70685   2.79305 
 C                    -1.03187   12.68711   3.10083 
 C                     1.08031   13.26466   2.90768 
 H                     1.95367   13.87182   2.77813 
 N                     1.0863    11.96275   3.08654 
 C                    -0.22428   11.59119   3.20782 
 H                    -0.49341   10.56593   3.36303 
 
 Stoichiometry    C34H34FeN6
 Framework group  C1[X(C34H34FeN6)]
 Deg. of freedom   219
 Full point group                 C1      NOp   1
 Largest Abelian subgroup         C1      NOp   1
 Largest concise Abelian subgroup C1      NOp   1
                         Standard orientation:                         
 ---------------------------------------------------------------------
 Center     Atomic      Atomic             Coordinates (Angstroms)
 Number     Number       Type             X           Y           Z
 ---------------------------------------------------------------------
      1         26           0       -0.016265   -0.222225   -0.304230
      2          7           0        1.312869   -1.680429   -0.474636
      3          7           0        1.476761    1.117520   -0.627288
      4          7           0       -1.354393    1.274994   -0.493350
      5          7           0       -1.506507   -1.521378   -0.524678
      6          6           0        1.055748   -3.009714   -0.617680
      7          6           0        2.282900   -3.760197   -0.763556
      8          6           0        3.295337   -2.861900   -0.639220
      9          6           0        2.673424   -1.566430   -0.464457
     10          6           0        2.809376    0.883163   -0.444138
     11          6           0        3.571214    2.100325   -0.517560
     12          6           0        2.657593    3.113865   -0.635158
     13          6           0        1.354694    2.476770   -0.627414
     14          6           0       -1.088680    2.612434   -0.475220
     15          6           0       -2.306316    3.375478   -0.582493
     16          6           0       -3.330187    2.479221   -0.427495
     17          6           0       -2.705005    1.173160   -0.321654
     18          6           0       -2.844484   -1.268378   -0.467471
     19          6           0       -3.603796   -2.497249   -0.526597
     20          6           0       -2.695592   -3.495346   -0.701467
     21          6           0       -1.392567   -2.878667   -0.589441
     22          6           0       -0.203049   -3.579900   -0.646458
     23          1           0       -0.262188   -4.653030   -0.745431
     24          6           0        3.379621   -0.380196   -0.463164
     25          1           0        4.456897   -0.444439   -0.430636
     26          6           0        0.167579    3.177052   -0.602358
     27          1           0        0.222072    4.254406   -0.626612
     28          6           0       -3.413633   -0.013070   -0.372391
     29          1           0       -4.489059    0.038563   -0.294617
     30          6           0        4.767586   -3.083433   -0.705453
     31          1           0        4.995123   -4.143039   -0.790513
     32          1           0        5.254008   -2.698875    0.191155
     33          1           0        5.194092   -2.570937   -1.568127
     34          6           0        2.345267   -5.232788   -0.981126
     35          1           0        1.804361   -5.507474   -1.886518
     36          1           0        1.893502   -5.763851   -0.142679
     37          1           0        3.375045   -5.565853   -1.083348
     38          6           0        5.050968    2.193162   -0.383112
     39          1           0        5.539687    2.004832   -1.340384
     40          1           0        5.420012    1.460928    0.333579
     41          1           0        5.334005    3.187805   -0.044216
     42          6           0        2.886596    4.538877   -0.725645
     43          1           0        2.130820    5.168186   -0.270702
     44          6           0        3.927105    5.112952   -1.320834
     45          1           0        4.682522    4.541615   -1.831128
     46          1           0        4.042911    6.183881   -1.342571
     47          6           0       -2.383274    4.842632   -0.820289
     48          1           0       -1.636603    5.151363   -1.550392
     49          1           0       -2.206672    5.399508    0.101543
     50          1           0       -3.368731    5.106013   -1.198254
     51          6           0       -4.757924    2.717280   -0.418571
     52          1           0       -5.370616    1.935431   -0.851452
     53          6           0       -5.351190    3.795855    0.081936
     54          1           0       -4.797510    4.582310    0.564662
     55          1           0       -6.421082    3.917989    0.046933
     56          6           0       -5.092546   -2.565915   -0.516244
     57          1           0       -5.507547   -2.059151   -1.388074
     58          1           0       -5.491394   -2.083675    0.376337
     59          1           0       -5.431541   -3.598810   -0.527242
     60          6           0       -2.921838   -4.959801   -0.857854
     61          1           0       -3.984139   -5.182858   -0.916605
     62          1           0       -2.500438   -5.508058   -0.014698
     63          1           0       -2.445142   -5.321839   -1.768548
     64          6           0        1.453431   -0.150648    5.090922
     65          1           0        1.172463    0.701649    5.708623
     66          1           0        2.515209   -0.090051    4.874753
     67          1           0        1.265520   -1.060822    5.660182
     68          7           0       -0.683385   -0.144071    3.786645
     69          1           0       -1.291842   -0.127020    4.588576
     70          6           0        0.685791   -0.156173    3.820153
     71          6           0       -1.063384   -0.157706    2.488786
     72          1           0       -2.083726   -0.151694    2.161572
     73          7           0       -0.016530   -0.177689    1.694635
     74          6           0        1.079411   -0.177329    2.512747
     75          1           0        2.070120   -0.192094    2.105388
 ---------------------------------------------------------------------
 Rotational constants (GHZ):           0.0941173           0.0918523           0.0594894
 Standard basis: def2TZVP (5D, 7F)
 There are  1696 symmetry adapted cartesian basis functions of A   symmetry.
 There are  1489 symmetry adapted basis functions of A   symmetry.
  1489 basis functions,  2414 primitive gaussians,  1696 cartesian basis functions
   153 alpha electrons      153 beta electrons
       nuclear repulsion energy      5562.9145032549 Hartrees.
 NAtoms=   75 NActive=   75 NUniq=   75 SFac= 1.00D+00 NAtFMM=   60 NAOKFM=T Big=T
 Integral buffers will be    131072 words long.
 Raffenetti 2 integral format.
 Two-electron integral symmetry is turned on.
 R6APFD:  NTU= -4 IXU= 1 FactS= 1.050
 Nuclear repulsion after empirical dispersion term =     5562.7817474676 Hartrees.
 One-electron integrals computed using PRISM.
   1 Symmetry operations used in ECPInt.
 ECPInt:  NShTT=  174936 NPrTT=  542361 LenC2=  137150 LenP2D=  281507.
 LDataN:  DoStor=T MaxTD1= 6 Len=  172
 Number of processors reduced to  24 by ecpmxn.
 NBasis=  1489 RedAO= T EigKep=  4.27D-06  NBF=  1489
 NBsUse=  1489 1.00D-06 EigRej= -1.00D+00 NBFU=  1489
 ExpMin= 4.20D-02 ExpMax= 3.01D+05 ExpMxC= 2.91D+03 IAcc=3 IRadAn=         5 AccDes= 0.00D+00
 Harris functional with IExCor= 3731 and IRadAn=       5 diagonalized for initial guess.
 HarFok:  IExCor= 3731 AccDes= 0.00D+00 IRadAn=         5 IDoV= 1 UseB2=F ITyADJ=14
 ICtDFT=  3500011 ScaDFX=  1.000000  1.000000  1.000000  1.000000
 FoFCou: FMM=F IPFlag=           0 FMFlag=      100000 FMFlg1=        2001
         NFxFlg=           0 DoJE=T BraDBF=F KetDBF=T FulRan=T
         wScrn=  0.000000 ICntrl=       500 IOpCl=  0 I1Cent=   200000004 NGrid=           0
         NMat0=    1 NMatS0=      1 NMatT0=    0 NMatD0=    1 NMtDS0=    0 NMtDT0=    0
 Petite list used in FoFCou.
 Requested convergence on RMS density matrix=1.00D-08 within 128 cycles.
 Requested convergence on MAX density matrix=1.00D-06.
 Requested convergence on             energy=1.00D-06.
 No special actions if energy rises.
 EnCoef did     3 forward-backward iterations
 EnCoef did   100 forward-backward iterations
 EnCoef did   100 forward-backward iterations
 EnCoef did   100 forward-backward iterations
 Restarting incremental Fock formation.
 SCF Done:  E(RAPFD) =  -2907.59215563     A.U. after   27 cycles
            NFock= 27  Conv=0.50D-08     -V/T= 2.0035
 DoSCS=F DFT=T ScalE2(SS,OS)=  1.000000  1.000000
 Range of M.O.s used for correlation:     1  1489
 NBasis=  1489 NAE=   153 NBE=   153 NFC=     0 NFV=     0
 NROrb=   1489 NOA=   153 NOB=   153 NVA=  1336 NVB=  1336

 **** Warning!!: The largest alpha MO coefficient is  0.44275572D+02

          Differentiating once with respect to electric field.
                with respect to dipole field.
          Electric field/nuclear overlap derivatives assumed to be zero.
          There are     3 degrees of freedom in the 1st order CPHF.  IDoFFX=0 NUNeed=     3.
      3 vectors produced by pass  0 Test12= 6.81D-12 3.33D-08 XBig12= 1.85D+03 2.83D+01.
 AX will form     3 AO Fock derivatives at one time.
      3 vectors produced by pass  1 Test12= 6.81D-12 3.33D-08 XBig12= 1.19D+03 8.30D+00.
      3 vectors produced by pass  2 Test12= 6.81D-12 3.33D-08 XBig12= 3.85D+02 4.36D+00.
      3 vectors produced by pass  3 Test12= 6.81D-12 3.33D-08 XBig12= 2.44D+02 3.36D+00.
      3 vectors produced by pass  4 Test12= 6.81D-12 3.33D-08 XBig12= 1.52D+02 2.70D+00.
      3 vectors produced by pass  5 Test12= 6.81D-12 3.33D-08 XBig12= 5.97D+01 1.83D+00.
      3 vectors produced by pass  6 Test12= 6.81D-12 3.33D-08 XBig12= 4.44D+01 1.68D+00.
      3 vectors produced by pass  7 Test12= 6.81D-12 3.33D-08 XBig12= 2.70D+01 1.82D+00.
      3 vectors produced by pass  8 Test12= 6.81D-12 3.33D-08 XBig12= 1.80D+01 1.23D+00.
      3 vectors produced by pass  9 Test12= 6.81D-12 3.33D-08 XBig12= 9.23D+00 8.48D-01.
      3 vectors produced by pass 10 Test12= 6.81D-12 3.33D-08 XBig12= 6.43D+00 6.80D-01.
      3 vectors produced by pass 11 Test12= 6.81D-12 3.33D-08 XBig12= 1.77D+00 2.77D-01.
      3 vectors produced by pass 12 Test12= 6.81D-12 3.33D-08 XBig12= 7.90D-01 2.97D-01.
      3 vectors produced by pass 13 Test12= 6.81D-12 3.33D-08 XBig12= 2.15D-01 1.48D-01.
      3 vectors produced by pass 14 Test12= 6.81D-12 3.33D-08 XBig12= 1.15D-01 1.28D-01.
      3 vectors produced by pass 15 Test12= 6.81D-12 3.33D-08 XBig12= 3.52D-02 5.59D-02.
      3 vectors produced by pass 16 Test12= 6.81D-12 3.33D-08 XBig12= 1.69D-02 2.13D-02.
      3 vectors produced by pass 17 Test12= 6.81D-12 3.33D-08 XBig12= 4.05D-03 9.71D-03.
      3 vectors produced by pass 18 Test12= 6.81D-12 3.33D-08 XBig12= 6.82D-04 5.56D-03.
      3 vectors produced by pass 19 Test12= 6.81D-12 3.33D-08 XBig12= 1.53D-04 2.40D-03.
      3 vectors produced by pass 20 Test12= 6.81D-12 3.33D-08 XBig12= 2.97D-05 9.59D-04.
      3 vectors produced by pass 21 Test12= 6.81D-12 3.33D-08 XBig12= 9.08D-06 5.21D-04.
      3 vectors produced by pass 22 Test12= 6.81D-12 3.33D-08 XBig12= 1.76D-06 1.92D-04.
      3 vectors produced by pass 23 Test12= 6.81D-12 3.33D-08 XBig12= 3.01D-07 1.65D-04.
      3 vectors produced by pass 24 Test12= 6.81D-12 3.33D-08 XBig12= 7.14D-08 7.14D-05.
      3 vectors produced by pass 25 Test12= 6.81D-12 3.33D-08 XBig12= 1.04D-08 2.46D-05.
      3 vectors produced by pass 26 Test12= 6.81D-12 3.33D-08 XBig12= 2.00D-09 8.02D-06.
      3 vectors produced by pass 27 Test12= 6.81D-12 3.33D-08 XBig12= 2.91D-10 2.38D-06.
      3 vectors produced by pass 28 Test12= 6.81D-12 3.33D-08 XBig12= 4.68D-11 1.83D-06.
      3 vectors produced by pass 29 Test12= 6.81D-12 3.33D-08 XBig12= 6.58D-12 6.74D-07.
      3 vectors produced by pass 30 Test12= 6.81D-12 3.33D-08 XBig12= 1.06D-12 2.47D-07.
      2 vectors produced by pass 31 Test12= 6.81D-12 3.33D-08 XBig12= 1.43D-13 8.97D-08.
 InvSVY:  IOpt=1 It=  1 EMax= 2.13D-14
 Solved reduced A of dimension    95 with     3 vectors.
 Isotropic polarizability for W=    0.000000      571.16 Bohr**3.
 End of Minotr F.D. properties file   721 does not exist.
 End of Minotr F.D. properties file   722 does not exist.
 End of Minotr F.D. properties file   788 does not exist.

 **********************************************************************

            Population analysis using the SCF Density.

 **********************************************************************

 Orbital symmetries:
       Occupied  (A) (A) (A) (A) (A) (A) (A) (A) (A) (A) (A) (A)
                 (A) (A) (A) (A) (A) (A) (A) (A) (A) (A) (A) (A)
                 (A) (A) (A) (A) (A) (A) (A) (A) (A) (A) (A) (A)
                 (A) (A) (A) (A) (A) (A) (A) (A) (A) (A) (A) (A)
                 (A) (A) (A) (A) (A) (A) (A) (A) (A) (A) (A) (A)
                 (A) (A) (A) (A) (A) (A) (A) (A) (A) (A) (A) (A)
                 (A) (A) (A) (A) (A) (A) (A) (A) (A) (A) (A) (A)
                 (A) (A) (A) (A) (A) (A) (A) (A) (A) (A) (A) (A)
                 (A) (A) (A) (A) (A) (A) (A) (A) (A) (A) (A) (A)
                 (A) (A) (A) (A) (A) (A) (A) (A) (A) (A) (A) (A)
                 (A) (A) (A) (A) (A) (A) (A) (A) (A) (A) (A) (A)
                 (A) (A) (A) (A) (A) (A) (A) (A) (A) (A) (A) (A)
                 (A) (A) (A) (A) (A) (A) (A) (A) (A)
       Virtual   (A) (A) (A) (A) (A) (A) (A) (A) (A) (A) (A) (A)
                 (A) (A) (A) (A) (A) (A) (A) (A) (A) (A) (A) (A)
                 (A) (A) (A) (A) (A) (A) (A) (A) (A) (A) (A) (A)
                 (A) (A) (A) (A) (A) (A) (A) (A) (A) (A) (A) (A)
                 (A) (A) (A) (A) (A) (A) (A) (A) (A) (A) (A) (A)
                 (A) (A) (A) (A) (A) (A) (A) (A) (A) (A) (A) (A)
                 (A) (A) (A) (A) (A) (A) (A) (A) (A) (A) (A) (A)
                 (A) (A) (A) (A) (A) (A) (A) (A) (A) (A) (A) (A)
                 (A) (A) (A) (A) (A) (A) (A) (A) (A) (A) (A) (A)
                 (A) (A) (A) (A) (A) (A) (A) (A) (A) (A) (A) (A)
                 (A) (A) (A) (A) (A) (A) (A) (A) (A) (A) (A) (A)
                 (A) (A) (A) (A) (A) (A) (A) (A) (A) (A) (A) (A)
                 (A) (A) (A) (A) (A) (A) (A) (A) (A) (A) (A) (A)
                 (A) (A) (A) (A) (A) (A) (A) (A) (A) (A) (A) (A)
                 (A) (A) (A) (A) (A) (A) (A) (A) (A) (A) (A) (A)
                 (A) (A) (A) (A) (A) (A) (A) (A) (A) (A) (A) (A)
                 (A) (A) (A) (A) (A) (A) (A) (A) (A) (A) (A) (A)
                 (A) (A) (A) (A) (A) (A) (A) (A) (A) (A) (A) (A)
                 (A) (A) (A) (A) (A) (A) (A) (A) (A) (A) (A) (A)
                 (A) (A) (A) (A) (A) (A) (A) (A) (A) (A) (A) (A)
                 (A) (A) (A) (A) (A) (A) (A) (A) (A) (A) (A) (A)
                 (A) (A) (A) (A) (A) (A) (A) (A) (A) (A) (A) (A)
                 (A) (A) (A) (A) (A) (A) (A) (A) (A) (A) (A) (A)
                 (A) (A) (A) (A) (A) (A) (A) (A) (A) (A) (A) (A)
                 (A) (A) (A) (A) (A) (A) (A) (A) (A) (A) (A) (A)
                 (A) (A) (A) (A) (A) (A) (A) (A) (A) (A) (A) (A)
                 (A) (A) (A) (A) (A) (A) (A) (A) (A) (A) (A) (A)
                 (A) (A) (A) (A) (A) (A) (A) (A) (A) (A) (A) (A)
                 (A) (A) (A) (A) (A) (A) (A) (A) (A) (A) (A) (A)
                 (A) (A) (A) (A) (A) (A) (A) (A) (A) (A) (A) (A)
                 (A) (A) (A) (A) (A) (A) (A) (A) (A) (A) (A) (A)
                 (A) (A) (A) (A) (A) (A) (A) (A) (A) (A) (A) (A)
                 (A) (A) (A) (A) (A) (A) (A) (A) (A) (A) (A) (A)
                 (A) (A) (A) (A) (A) (A) (A) (A) (A) (A) (A) (A)
                 (A) (A) (A) (A) (A) (A) (A) (A) (A) (A) (A) (A)
                 (A) (A) (A) (A) (A) (A) (A) (A) (A) (A) (A) (A)
                 (A) (A) (A) (A) (A) (A) (A) (A) (A) (A) (A) (A)
                 (A) (A) (A) (A) (A) (A) (A) (A) (A) (A) (A) (A)
                 (A) (A) (A) (A) (A) (A) (A) (A) (A) (A) (A) (A)
                 (A) (A) (A) (A) (A) (A) (A) (A) (A) (A) (A) (A)
                 (A) (A) (A) (A) (A) (A) (A) (A) (A) (A) (A) (A)
                 (A) (A) (A) (A) (A) (A) (A) (A) (A) (A) (A) (A)
                 (A) (A) (A) (A) (A) (A) (A) (A) (A) (A) (A) (A)
                 (A) (A) (A) (A) (A) (A) (A) (A) (A) (A) (A) (A)
                 (A) (A) (A) (A) (A) (A) (A) (A) (A) (A) (A) (A)
                 (A) (A) (A) (A) (A) (A) (A) (A) (A) (A) (A) (A)
                 (A) (A) (A) (A) (A) (A) (A) (A) (A) (A) (A) (A)
                 (A) (A) (A) (A) (A) (A) (A) (A) (A) (A) (A) (A)
                 (A) (A) (A) (A) (A) (A) (A) (A) (A) (A) (A) (A)
                 (A) (A) (A) (A) (A) (A) (A) (A) (A) (A) (A) (A)
                 (A) (A) (A) (A) (A) (A) (A) (A) (A) (A) (A) (A)
                 (A) (A) (A) (A) (A) (A) (A) (A) (A) (A) (A) (A)
                 (A) (A) (A) (A) (A) (A) (A) (A) (A) (A) (A) (A)
                 (A) (A) (A) (A) (A) (A) (A) (A) (A) (A) (A) (A)
                 (A) (A) (A) (A) (A) (A) (A) (A) (A) (A) (A) (A)
                 (A) (A) (A) (A) (A) (A) (A) (A) (A) (A) (A) (A)
                 (A) (A) (A) (A) (A) (A) (A) (A) (A) (A) (A) (A)
                 (A) (A) (A) (A) (A) (A) (A) (A) (A) (A) (A) (A)
                 (A) (A) (A) (A) (A) (A) (A) (A) (A) (A) (A) (A)
                 (A) (A) (A) (A) (A) (A) (A) (A) (A) (A) (A) (A)
                 (A) (A) (A) (A) (A) (A) (A) (A) (A) (A) (A) (A)
                 (A) (A) (A) (A) (A) (A) (A) (A) (A) (A) (A) (A)
                 (A) (A) (A) (A) (A) (A) (A) (A) (A) (A) (A) (A)
                 (A) (A) (A) (A) (A) (A) (A) (A) (A) (A) (A) (A)
                 (A) (A) (A) (A) (A) (A) (A) (A) (A) (A) (A) (A)
                 (A) (A) (A) (A) (A) (A) (A) (A) (A) (A) (A) (A)
                 (A) (A) (A) (A) (A) (A) (A) (A) (A) (A) (A) (A)
                 (A) (A) (A) (A) (A) (A) (A) (A) (A) (A) (A) (A)
                 (A) (A) (A) (A) (A) (A) (A) (A) (A) (A) (A) (A)
                 (A) (A) (A) (A) (A) (A) (A) (A) (A) (A) (A) (A)
                 (A) (A) (A) (A) (A) (A) (A) (A) (A) (A) (A) (A)
                 (A) (A) (A) (A) (A) (A) (A) (A) (A) (A) (A) (A)
                 (A) (A) (A) (A) (A) (A) (A) (A) (A) (A) (A) (A)
                 (A) (A) (A) (A) (A) (A) (A) (A) (A) (A) (A) (A)
                 (A) (A) (A) (A) (A) (A) (A) (A) (A) (A) (A) (A)
                 (A) (A) (A) (A) (A) (A) (A) (A) (A) (A) (A) (A)
                 (A) (A) (A) (A) (A) (A) (A) (A) (A) (A) (A) (A)
                 (A) (A) (A) (A) (A) (A) (A) (A) (A) (A) (A) (A)
                 (A) (A) (A) (A) (A) (A) (A) (A) (A) (A) (A) (A)
                 (A) (A) (A) (A) (A) (A) (A) (A) (A) (A) (A) (A)
                 (A) (A) (A) (A) (A) (A) (A) (A) (A) (A) (A) (A)
                 (A) (A) (A) (A) (A) (A) (A) (A) (A) (A) (A) (A)
                 (A) (A) (A) (A) (A) (A) (A) (A) (A) (A) (A) (A)
                 (A) (A) (A) (A) (A) (A) (A) (A) (A) (A) (A) (A)
                 (A) (A) (A) (A) (A) (A) (A) (A) (A) (A) (A) (A)
                 (A) (A) (A) (A) (A) (A) (A) (A) (A) (A) (A) (A)
                 (A) (A) (A) (A) (A) (A) (A) (A) (A) (A) (A) (A)
                 (A) (A) (A) (A) (A) (A) (A) (A) (A) (A) (A) (A)
                 (A) (A) (A) (A) (A) (A) (A) (A) (A) (A) (A) (A)
                 (A) (A) (A) (A) (A) (A) (A) (A) (A) (A) (A) (A)
                 (A) (A) (A) (A) (A) (A) (A) (A) (A) (A) (A) (A)
                 (A) (A) (A) (A) (A) (A) (A) (A) (A) (A) (A) (A)
                 (A) (A) (A) (A) (A) (A) (A) (A) (A) (A) (A) (A)
                 (A) (A) (A) (A) (A) (A) (A) (A) (A) (A) (A) (A)
                 (A) (A) (A) (A) (A) (A) (A) (A) (A) (A) (A) (A)
                 (A) (A) (A) (A) (A) (A) (A) (A) (A) (A) (A) (A)
                 (A) (A) (A) (A) (A) (A) (A) (A) (A) (A) (A) (A)
                 (A) (A) (A) (A) (A) (A) (A) (A) (A) (A) (A) (A)
                 (A) (A) (A) (A) (A) (A) (A) (A) (A) (A) (A) (A)
                 (A) (A) (A) (A) (A) (A) (A) (A) (A) (A) (A) (A)
                 (A) (A) (A) (A) (A) (A) (A) (A) (A) (A) (A) (A)
                 (A) (A) (A) (A) (A) (A) (A) (A) (A) (A) (A) (A)
                 (A) (A) (A) (A) (A) (A) (A) (A) (A) (A) (A) (A)
                 (A) (A) (A) (A) (A) (A) (A) (A) (A) (A) (A) (A)
                 (A) (A) (A) (A) (A) (A) (A) (A) (A) (A) (A) (A)
                 (A) (A) (A) (A) (A) (A) (A) (A) (A) (A) (A) (A)
                 (A) (A) (A) (A) (A) (A) (A) (A) (A) (A) (A) (A)
                 (A) (A) (A) (A) (A) (A) (A) (A) (A) (A) (A) (A)
                 (A) (A) (A) (A) (A) (A) (A) (A) (A) (A) (A) (A)
                 (A) (A) (A) (A) (A) (A) (A) (A) (A) (A) (A) (A)
                 (A) (A) (A) (A) (A) (A) (A) (A) (A) (A) (A) (A)
                 (A) (A) (A) (A)
 The electronic state is 1-A.
 Alpha  occ. eigenvalues -- -256.18096 -30.03009 -25.87195 -25.86787 -25.86732
 Alpha  occ. eigenvalues --  -14.42366 -14.37448 -14.33743 -14.33730 -14.33703
 Alpha  occ. eigenvalues --  -14.33666 -10.26162 -10.24356 -10.21576 -10.21514
 Alpha  occ. eigenvalues --  -10.21296 -10.21184 -10.21072 -10.21051 -10.21025
 Alpha  occ. eigenvalues --  -10.20986 -10.20958 -10.20950 -10.19758 -10.19650
 Alpha  occ. eigenvalues --  -10.19154 -10.19121 -10.18873 -10.18835 -10.18792
 Alpha  occ. eigenvalues --  -10.18777 -10.18749 -10.18725 -10.18720 -10.18720
 Alpha  occ. eigenvalues --  -10.18711 -10.18702 -10.18676 -10.18672 -10.18543
 Alpha  occ. eigenvalues --  -10.18512 -10.18498 -10.18394 -10.18389 -10.18213
 Alpha  occ. eigenvalues --   -3.40816  -2.17593  -2.16633  -2.16571  -1.05919
 Alpha  occ. eigenvalues --   -0.97027  -0.96079  -0.96031  -0.95071  -0.91530
 Alpha  occ. eigenvalues --   -0.82431  -0.82005  -0.81714  -0.80884  -0.80832
 Alpha  occ. eigenvalues --   -0.80547  -0.79771  -0.79671  -0.76882  -0.75827
 Alpha  occ. eigenvalues --   -0.74463  -0.74102  -0.73269  -0.72379  -0.71116
 Alpha  occ. eigenvalues --   -0.70244  -0.68394  -0.68065  -0.67935  -0.65153
 Alpha  occ. eigenvalues --   -0.64290  -0.64213  -0.61923  -0.60731  -0.60118
 Alpha  occ. eigenvalues --   -0.58021  -0.56740  -0.56450  -0.54601  -0.53797
 Alpha  occ. eigenvalues --   -0.53415  -0.52727  -0.51226  -0.51124  -0.50609
 Alpha  occ. eigenvalues --   -0.48874  -0.48345  -0.48079  -0.47948  -0.47488
 Alpha  occ. eigenvalues --   -0.45089  -0.44888  -0.44787  -0.44493  -0.44293
 Alpha  occ. eigenvalues --   -0.43826  -0.43791  -0.43528  -0.43408  -0.43285
 Alpha  occ. eigenvalues --   -0.43136  -0.42922  -0.42830  -0.42463  -0.42172
 Alpha  occ. eigenvalues --   -0.41849  -0.41573  -0.41439  -0.40420  -0.40324
 Alpha  occ. eigenvalues --   -0.40264  -0.39906  -0.39587  -0.39409  -0.39249
 Alpha  occ. eigenvalues --   -0.38612  -0.38459  -0.38094  -0.37743  -0.37364
 Alpha  occ. eigenvalues --   -0.37031  -0.36549  -0.36142  -0.36044  -0.35517
 Alpha  occ. eigenvalues --   -0.34590  -0.34434  -0.34163  -0.33848  -0.32363
 Alpha  occ. eigenvalues --   -0.31893  -0.31524  -0.30544  -0.30470  -0.29548
 Alpha  occ. eigenvalues --   -0.28934  -0.26838  -0.26780  -0.24871  -0.24086
 Alpha  occ. eigenvalues --   -0.23859  -0.22828  -0.22178  -0.19815  -0.19043
 Alpha  occ. eigenvalues --   -0.18456  -0.18240  -0.17963
 Alpha virt. eigenvalues --   -0.06761  -0.06689  -0.02098  -0.01622   0.00402
 Alpha virt. eigenvalues --    0.00903   0.01829   0.02422   0.04016   0.04056
 Alpha virt. eigenvalues --    0.04526   0.04697   0.05507   0.05776   0.05998
 Alpha virt. eigenvalues --    0.06137   0.07117   0.07214   0.07608   0.07906
 Alpha virt. eigenvalues --    0.08341   0.08702   0.09149   0.09405   0.10032
 Alpha virt. eigenvalues --    0.10214   0.10847   0.10993   0.11144   0.11517
 Alpha virt. eigenvalues --    0.11595   0.11674   0.12036   0.12124   0.12398
 Alpha virt. eigenvalues --    0.12611   0.12792   0.12910   0.13296   0.13500
 Alpha virt. eigenvalues --    0.13710   0.13829   0.14085   0.14352   0.14634
 Alpha virt. eigenvalues --    0.15026   0.15274   0.15544   0.15641   0.15825
 Alpha virt. eigenvalues --    0.15916   0.16038   0.16075   0.16506   0.16854
 Alpha virt. eigenvalues --    0.17017   0.17277   0.17646   0.17802   0.18069
 Alpha virt. eigenvalues --    0.18500   0.18541   0.18874   0.19216   0.19719
 Alpha virt. eigenvalues --    0.19950   0.20307   0.20417   0.20657   0.21147
 Alpha virt. eigenvalues --    0.21213   0.21613   0.22157   0.22247   0.22308
 Alpha virt. eigenvalues --    0.22624   0.22836   0.23190   0.23457   0.23748
 Alpha virt. eigenvalues --    0.24226   0.24400   0.24823   0.25342   0.25593
 Alpha virt. eigenvalues --    0.26092   0.26304   0.26517   0.26789   0.26928
 Alpha virt. eigenvalues --    0.27173   0.27362   0.27487   0.27809   0.28237
 Alpha virt. eigenvalues --    0.28390   0.28621   0.29003   0.29200   0.29454
 Alpha virt. eigenvalues --    0.29563   0.29808   0.30135   0.30346   0.30818
 Alpha virt. eigenvalues --    0.31017   0.31447   0.31646   0.32059   0.32256
 Alpha virt. eigenvalues --    0.32376   0.32741   0.33046   0.33408   0.33556
 Alpha virt. eigenvalues --    0.33706   0.34028   0.34245   0.34589   0.35065
 Alpha virt. eigenvalues --    0.35325   0.35574   0.36229   0.36453   0.36714
 Alpha virt. eigenvalues --    0.36790   0.37142   0.37349   0.37690   0.38106
 Alpha virt. eigenvalues --    0.38253   0.38473   0.38786   0.38989   0.39364
 Alpha virt. eigenvalues --    0.39374   0.39605   0.39884   0.40156   0.40279
 Alpha virt. eigenvalues --    0.40540   0.40985   0.41182   0.41285   0.41462
 Alpha virt. eigenvalues --    0.41513   0.41801   0.41901   0.42072   0.42229
 Alpha virt. eigenvalues --    0.42528   0.42659   0.43089   0.43148   0.43307
 Alpha virt. eigenvalues --    0.43603   0.43837   0.44053   0.44398   0.44658
 Alpha virt. eigenvalues --    0.44974   0.45228   0.45296   0.45452   0.45705
 Alpha virt. eigenvalues --    0.45971   0.46448   0.46562   0.46668   0.46697
 Alpha virt. eigenvalues --    0.46984   0.47247   0.47468   0.47555   0.47626
 Alpha virt. eigenvalues --    0.48084   0.48407   0.48565   0.48715   0.48921
 Alpha virt. eigenvalues --    0.49037   0.49491   0.49673   0.49859   0.50022
 Alpha virt. eigenvalues --    0.50387   0.50793   0.50923   0.51134   0.51415
 Alpha virt. eigenvalues --    0.51598   0.51648   0.51821   0.52191   0.52366
 Alpha virt. eigenvalues --    0.52672   0.52832   0.52985   0.53077   0.53270
 Alpha virt. eigenvalues --    0.53626   0.54012   0.54327   0.54661   0.55029
 Alpha virt. eigenvalues --    0.55117   0.55409   0.55987   0.56120   0.56494
 Alpha virt. eigenvalues --    0.56579   0.56874   0.57146   0.57504   0.57645
 Alpha virt. eigenvalues --    0.57998   0.58315   0.58839   0.59027   0.59427
 Alpha virt. eigenvalues --    0.59617   0.60072   0.60295   0.60510   0.60778
 Alpha virt. eigenvalues --    0.60924   0.61603   0.61909   0.62379   0.62912
 Alpha virt. eigenvalues --    0.63059   0.63287   0.63754   0.64352   0.64467
 Alpha virt. eigenvalues --    0.64630   0.65114   0.65303   0.65436   0.65890
 Alpha virt. eigenvalues --    0.66201   0.66439   0.66860   0.67119   0.67406
 Alpha virt. eigenvalues --    0.67642   0.67889   0.68313   0.68504   0.69187
 Alpha virt. eigenvalues --    0.69598   0.69974   0.70170   0.70263   0.70510
 Alpha virt. eigenvalues --    0.71131   0.71472   0.71600   0.71890   0.72029
 Alpha virt. eigenvalues --    0.72320   0.72888   0.72900   0.73404   0.73633
 Alpha virt. eigenvalues --    0.73964   0.74135   0.74465   0.75039   0.75103
 Alpha virt. eigenvalues --    0.75406   0.75743   0.75903   0.76708   0.76987
 Alpha virt. eigenvalues --    0.77455   0.77740   0.78138   0.78333   0.78498
 Alpha virt. eigenvalues --    0.79101   0.79455   0.79980   0.80271   0.80735
 Alpha virt. eigenvalues --    0.81073   0.81172   0.81613   0.82040   0.82427
 Alpha virt. eigenvalues --    0.82672   0.83310   0.83511   0.83711   0.84590
 Alpha virt. eigenvalues --    0.84872   0.85195   0.85494   0.86036   0.86287
 Alpha virt. eigenvalues --    0.86454   0.87286   0.87646   0.88055   0.88162
 Alpha virt. eigenvalues --    0.88699   0.88946   0.89283   0.89372   0.89819
 Alpha virt. eigenvalues --    0.90258   0.90364   0.91075   0.91537   0.91878
 Alpha virt. eigenvalues --    0.92312   0.92347   0.92626   0.92985   0.93671
 Alpha virt. eigenvalues --    0.93870   0.94440   0.94839   0.95311   0.95478
 Alpha virt. eigenvalues --    0.95995   0.96264   0.96796   0.97109   0.97454
 Alpha virt. eigenvalues --    0.97941   0.98279   0.98534   0.98825   0.99087
 Alpha virt. eigenvalues --    0.99639   0.99759   1.00359   1.00679   1.00961
 Alpha virt. eigenvalues --    1.01384   1.01940   1.02018   1.02273   1.02527
 Alpha virt. eigenvalues --    1.02868   1.03188   1.03386   1.03925   1.04197
 Alpha virt. eigenvalues --    1.04590   1.04635   1.05105   1.05308   1.05696
 Alpha virt. eigenvalues --    1.06434   1.06900   1.07103   1.07456   1.07967
 Alpha virt. eigenvalues --    1.08097   1.08489   1.09039   1.09367   1.09720
 Alpha virt. eigenvalues --    1.10104   1.10591   1.10840   1.11654   1.12067
 Alpha virt. eigenvalues --    1.12587   1.13406   1.13502   1.13851   1.14486
 Alpha virt. eigenvalues --    1.14564   1.15347   1.15880   1.16096   1.16288
 Alpha virt. eigenvalues --    1.17036   1.17354   1.17987   1.18291   1.18503
 Alpha virt. eigenvalues --    1.18876   1.19069   1.19417   1.19975   1.20246
 Alpha virt. eigenvalues --    1.20693   1.21120   1.21327   1.21574   1.22313
 Alpha virt. eigenvalues --    1.22879   1.23313   1.23543   1.24118   1.24703
 Alpha virt. eigenvalues --    1.25127   1.25582   1.26233   1.26312   1.26615
 Alpha virt. eigenvalues --    1.27102   1.27660   1.27854   1.28211   1.28348
 Alpha virt. eigenvalues --    1.28678   1.28945   1.29138   1.29621   1.30212
 Alpha virt. eigenvalues --    1.30550   1.30949   1.31420   1.32058   1.32293
 Alpha virt. eigenvalues --    1.32708   1.32840   1.34359   1.35097   1.35291
 Alpha virt. eigenvalues --    1.36347   1.36682   1.37348   1.37795   1.38928
 Alpha virt. eigenvalues --    1.39540   1.39794   1.40210   1.40543   1.40996
 Alpha virt. eigenvalues --    1.41313   1.42254   1.42801   1.43103   1.43591
 Alpha virt. eigenvalues --    1.44159   1.44472   1.44996   1.45334   1.45927
 Alpha virt. eigenvalues --    1.46837   1.46913   1.47252   1.47741   1.47878
 Alpha virt. eigenvalues --    1.48584   1.48660   1.48993   1.49344   1.49590
 Alpha virt. eigenvalues --    1.50210   1.50351   1.50497   1.50901   1.51216
 Alpha virt. eigenvalues --    1.51430   1.51760   1.51895   1.52105   1.52557
 Alpha virt. eigenvalues --    1.52796   1.53414   1.53641   1.53887   1.54303
 Alpha virt. eigenvalues --    1.54314   1.54640   1.54956   1.55154   1.55581
 Alpha virt. eigenvalues --    1.55827   1.55967   1.56135   1.56287   1.56704
 Alpha virt. eigenvalues --    1.56869   1.57188   1.57728   1.58089   1.58282
 Alpha virt. eigenvalues --    1.58535   1.58746   1.58935   1.59412   1.59454
 Alpha virt. eigenvalues --    1.60010   1.60311   1.60716   1.61178   1.61298
 Alpha virt. eigenvalues --    1.61687   1.62031   1.62290   1.62518   1.62911
 Alpha virt. eigenvalues --    1.63305   1.63538   1.63638   1.63938   1.64304
 Alpha virt. eigenvalues --    1.64793   1.65067   1.65491   1.65699   1.65996
 Alpha virt. eigenvalues --    1.66269   1.66703   1.66977   1.66995   1.67575
 Alpha virt. eigenvalues --    1.68214   1.68698   1.68932   1.69031   1.69592
 Alpha virt. eigenvalues --    1.70138   1.70412   1.70608   1.71112   1.71757
 Alpha virt. eigenvalues --    1.72213   1.72440   1.72459   1.72819   1.73418
 Alpha virt. eigenvalues --    1.73739   1.74190   1.74742   1.75706   1.76464
 Alpha virt. eigenvalues --    1.77700   1.78168   1.78724   1.78914   1.79723
 Alpha virt. eigenvalues --    1.79853   1.80545   1.80819   1.81219   1.81491
 Alpha virt. eigenvalues --    1.82194   1.82796   1.83392   1.83669   1.84244
 Alpha virt. eigenvalues --    1.84369   1.85240   1.85668   1.85895   1.86305
 Alpha virt. eigenvalues --    1.86824   1.86963   1.87571   1.87826   1.88424
 Alpha virt. eigenvalues --    1.88940   1.89472   1.89869   1.90437   1.91216
 Alpha virt. eigenvalues --    1.91340   1.91623   1.92588   1.92868   1.93992
 Alpha virt. eigenvalues --    1.94552   1.94570   1.95008   1.95072   1.95662
 Alpha virt. eigenvalues --    1.96561   1.97476   1.97521   1.98130   1.98657
 Alpha virt. eigenvalues --    1.99057   1.99390   1.99980   2.00262   2.00586
 Alpha virt. eigenvalues --    2.00921   2.01269   2.01911   2.02381   2.02994
 Alpha virt. eigenvalues --    2.03160   2.03963   2.04311   2.04525   2.05574
 Alpha virt. eigenvalues --    2.05874   2.06840   2.07322   2.07571   2.08318
 Alpha virt. eigenvalues --    2.08862   2.09322   2.09382   2.09711   2.09894
 Alpha virt. eigenvalues --    2.10735   2.10879   2.11558   2.12150   2.12584
 Alpha virt. eigenvalues --    2.12907   2.13513   2.13851   2.14623   2.14889
 Alpha virt. eigenvalues --    2.15381   2.15911   2.16358   2.16656   2.17253
 Alpha virt. eigenvalues --    2.17463   2.17613   2.18070   2.18553   2.19138
 Alpha virt. eigenvalues --    2.19902   2.20130   2.20745   2.21279   2.21757
 Alpha virt. eigenvalues --    2.22105   2.22714   2.23400   2.23651   2.23821
 Alpha virt. eigenvalues --    2.24538   2.25142   2.25992   2.26980   2.26991
 Alpha virt. eigenvalues --    2.27259   2.27912   2.28228   2.28663   2.28776
 Alpha virt. eigenvalues --    2.29714   2.29819   2.30593   2.31234   2.31368
 Alpha virt. eigenvalues --    2.31638   2.31887   2.32408   2.33203   2.33846
 Alpha virt. eigenvalues --    2.34562   2.34920   2.35094   2.35290   2.35783
 Alpha virt. eigenvalues --    2.36276   2.36793   2.37087   2.37446   2.37695
 Alpha virt. eigenvalues --    2.37769   2.38492   2.38732   2.38905   2.39477
 Alpha virt. eigenvalues --    2.39978   2.40804   2.41348   2.41748   2.42177
 Alpha virt. eigenvalues --    2.42806   2.43092   2.43564   2.43741   2.43974
 Alpha virt. eigenvalues --    2.44196   2.44930   2.45135   2.45828   2.46232
 Alpha virt. eigenvalues --    2.46556   2.46902   2.47391   2.47524   2.47863
 Alpha virt. eigenvalues --    2.48684   2.49235   2.49563   2.50741   2.50886
 Alpha virt. eigenvalues --    2.51766   2.52115   2.52328   2.52875   2.53264
 Alpha virt. eigenvalues --    2.53759   2.53852   2.54697   2.54921   2.55731
 Alpha virt. eigenvalues --    2.55896   2.56438   2.56563   2.56751   2.56849
 Alpha virt. eigenvalues --    2.57303   2.57555   2.57642   2.58070   2.58975
 Alpha virt. eigenvalues --    2.59465   2.59699   2.60010   2.60598   2.61021
 Alpha virt. eigenvalues --    2.61097   2.61471   2.61714   2.62139   2.62838
 Alpha virt. eigenvalues --    2.63360   2.64051   2.64464   2.64934   2.65188
 Alpha virt. eigenvalues --    2.65567   2.66313   2.66404   2.66580   2.66891
 Alpha virt. eigenvalues --    2.67741   2.68012   2.68536   2.68948   2.69122
 Alpha virt. eigenvalues --    2.69857   2.70505   2.70579   2.71173   2.71427
 Alpha virt. eigenvalues --    2.71841   2.72119   2.72925   2.73451   2.74013
 Alpha virt. eigenvalues --    2.74215   2.74526   2.74866   2.75714   2.75980
 Alpha virt. eigenvalues --    2.76467   2.76814   2.77450   2.78175   2.78570
 Alpha virt. eigenvalues --    2.78915   2.79447   2.79947   2.80543   2.80697
 Alpha virt. eigenvalues --    2.80908   2.81972   2.82355   2.82522   2.82977
 Alpha virt. eigenvalues --    2.83326   2.84310   2.84778   2.84984   2.85332
 Alpha virt. eigenvalues --    2.85907   2.86069   2.86167   2.86494   2.87077
 Alpha virt. eigenvalues --    2.87609   2.88046   2.88311   2.89083   2.89264
 Alpha virt. eigenvalues --    2.89333   2.89920   2.90063   2.90687   2.91223
 Alpha virt. eigenvalues --    2.91555   2.92075   2.92599   2.92990   2.93203
 Alpha virt. eigenvalues --    2.93447   2.93603   2.93956   2.94471   2.94663
 Alpha virt. eigenvalues --    2.95019   2.95576   2.96018   2.96206   2.96639
 Alpha virt. eigenvalues --    2.97093   2.97297   2.97779   2.98000   2.98499
 Alpha virt. eigenvalues --    2.98829   2.99271   2.99463   2.99951   3.00581
 Alpha virt. eigenvalues --    3.01370   3.01503   3.02007   3.02147   3.02556
 Alpha virt. eigenvalues --    3.02886   3.03096   3.03534   3.03751   3.04511
 Alpha virt. eigenvalues --    3.04700   3.05471   3.05953   3.06072   3.06633
 Alpha virt. eigenvalues --    3.06873   3.07403   3.07642   3.07995   3.08296
 Alpha virt. eigenvalues --    3.08392   3.09016   3.09579   3.09769   3.10110
 Alpha virt. eigenvalues --    3.10264   3.10551   3.10878   3.11163   3.11758
 Alpha virt. eigenvalues --    3.12182   3.12411   3.12737   3.12980   3.13295
 Alpha virt. eigenvalues --    3.13703   3.13756   3.14236   3.14960   3.15137
 Alpha virt. eigenvalues --    3.15814   3.16175   3.16401   3.16768   3.17253
 Alpha virt. eigenvalues --    3.17290   3.17396   3.17821   3.18322   3.18520
 Alpha virt. eigenvalues --    3.18808   3.19278   3.19323   3.19930   3.20286
 Alpha virt. eigenvalues --    3.20481   3.20733   3.21240   3.21504   3.21764
 Alpha virt. eigenvalues --    3.21952   3.22193   3.22684   3.23113   3.23387
 Alpha virt. eigenvalues --    3.23917   3.24379   3.24407   3.24638   3.24926
 Alpha virt. eigenvalues --    3.25103   3.25274   3.25527   3.25670   3.26030
 Alpha virt. eigenvalues --    3.26619   3.26785   3.27096   3.27162   3.27691
 Alpha virt. eigenvalues --    3.27988   3.28304   3.28672   3.28864   3.29149
 Alpha virt. eigenvalues --    3.29382   3.29802   3.30040   3.30367   3.30707
 Alpha virt. eigenvalues --    3.31011   3.31163   3.31556   3.31806   3.31938
 Alpha virt. eigenvalues --    3.32377   3.32681   3.33301   3.33404   3.33487
 Alpha virt. eigenvalues --    3.33997   3.34282   3.34425   3.34580   3.35008
 Alpha virt. eigenvalues --    3.35436   3.35482   3.35692   3.36345   3.36610
 Alpha virt. eigenvalues --    3.36720   3.37039   3.37309   3.37766   3.37916
 Alpha virt. eigenvalues --    3.38080   3.38259   3.38703   3.38996   3.39263
 Alpha virt. eigenvalues --    3.39597   3.39781   3.39908   3.40687   3.41162
 Alpha virt. eigenvalues --    3.41242   3.41727   3.42131   3.42444   3.43155
 Alpha virt. eigenvalues --    3.43413   3.43790   3.43965   3.44328   3.44564
 Alpha virt. eigenvalues --    3.45234   3.45730   3.46410   3.46435   3.46801
 Alpha virt. eigenvalues --    3.46989   3.47727   3.47988   3.48675   3.48918
 Alpha virt. eigenvalues --    3.49936   3.50194   3.50546   3.50997   3.51342
 Alpha virt. eigenvalues --    3.51928   3.52035   3.52778   3.53439   3.53542
 Alpha virt. eigenvalues --    3.54283   3.54656   3.55229   3.55615   3.55838
 Alpha virt. eigenvalues --    3.56487   3.56730   3.57499   3.57604   3.57942
 Alpha virt. eigenvalues --    3.58837   3.58967   3.59333   3.60530   3.61369
 Alpha virt. eigenvalues --    3.61602   3.61951   3.62521   3.63216   3.63613
 Alpha virt. eigenvalues --    3.64060   3.64401   3.65102   3.65563   3.65696
 Alpha virt. eigenvalues --    3.66477   3.66814   3.67143   3.67964   3.68523
 Alpha virt. eigenvalues --    3.68817   3.69422   3.69576   3.70125   3.70547
 Alpha virt. eigenvalues --    3.70690   3.70938   3.71273   3.71869   3.72234
 Alpha virt. eigenvalues --    3.72719   3.73459   3.73560   3.74136   3.74204
 Alpha virt. eigenvalues --    3.75183   3.75701   3.75844   3.76010   3.76889
 Alpha virt. eigenvalues --    3.76941   3.78017   3.78639   3.78839   3.79400
 Alpha virt. eigenvalues --    3.79983   3.81016   3.81153   3.81867   3.82528
 Alpha virt. eigenvalues --    3.82917   3.83037   3.84483   3.84617   3.84952
 Alpha virt. eigenvalues --    3.85420   3.85567   3.86954   3.87284   3.87487
 Alpha virt. eigenvalues --    3.88025   3.88623   3.89309   3.89546   3.90145
 Alpha virt. eigenvalues --    3.91032   3.91403   3.91887   3.92545   3.92696
 Alpha virt. eigenvalues --    3.93885   3.93985   3.94421   3.94874   3.96237
 Alpha virt. eigenvalues --    3.96669   3.97478   3.98098   3.98966   3.99234
 Alpha virt. eigenvalues --    4.00126   4.01065   4.01274   4.01413   4.02289
 Alpha virt. eigenvalues --    4.02678   4.03489   4.03926   4.04159   4.04787
 Alpha virt. eigenvalues --    4.05861   4.06189   4.06768   4.07567   4.07746
 Alpha virt. eigenvalues --    4.08595   4.09423   4.09740   4.11528   4.12216
 Alpha virt. eigenvalues --    4.12591   4.13202   4.14046   4.14488   4.14802
 Alpha virt. eigenvalues --    4.15453   4.15983   4.16121   4.16718   4.17562
 Alpha virt. eigenvalues --    4.18281   4.19036   4.19812   4.20340   4.20417
 Alpha virt. eigenvalues --    4.21125   4.21849   4.21993   4.23394   4.23655
 Alpha virt. eigenvalues --    4.24062   4.24607   4.25373   4.25938   4.26415
 Alpha virt. eigenvalues --    4.26795   4.27629   4.28028   4.28185   4.28712
 Alpha virt. eigenvalues --    4.28931   4.30194   4.30803   4.31632   4.32077
 Alpha virt. eigenvalues --    4.33062   4.33114   4.33540   4.34292   4.35417
 Alpha virt. eigenvalues --    4.35975   4.36561   4.37621   4.38138   4.38958
 Alpha virt. eigenvalues --    4.39557   4.40000   4.40601   4.41026   4.41316
 Alpha virt. eigenvalues --    4.41907   4.41936   4.42564   4.42973   4.43556
 Alpha virt. eigenvalues --    4.44482   4.44712   4.44866   4.45209   4.45855
 Alpha virt. eigenvalues --    4.46135   4.46939   4.47384   4.47965   4.48666
 Alpha virt. eigenvalues --    4.49441   4.51387   4.51900   4.53051   4.53598
 Alpha virt. eigenvalues --    4.54132   4.55573   4.55844   4.56347   4.57186
 Alpha virt. eigenvalues --    4.58066   4.58644   4.59140   4.61011   4.62419
 Alpha virt. eigenvalues --    4.63507   4.63953   4.65171   4.65501   4.67087
 Alpha virt. eigenvalues --    4.67990   4.68728   4.68956   4.69502   4.70540
 Alpha virt. eigenvalues --    4.71209   4.71486   4.72034   4.73762   4.73987
 Alpha virt. eigenvalues --    4.74601   4.75361   4.76849   4.77367   4.78282
 Alpha virt. eigenvalues --    4.79189   4.80436   4.81220   4.82277   4.82569
 Alpha virt. eigenvalues --    4.83362   4.83714   4.84384   4.84652   4.85472
 Alpha virt. eigenvalues --    4.85895   4.86498   4.87068   4.88599   4.89975
 Alpha virt. eigenvalues --    4.90201   4.91376   4.91716   4.92972   4.93453
 Alpha virt. eigenvalues --    4.94474   4.95286   4.95989   4.96300   4.97729
 Alpha virt. eigenvalues --    4.98812   4.99242   5.00576   5.01017   5.01308
 Alpha virt. eigenvalues --    5.02972   5.03257   5.04595   5.05363   5.06740
 Alpha virt. eigenvalues --    5.07544   5.07730   5.08172   5.08596   5.08935
 Alpha virt. eigenvalues --    5.10218   5.10850   5.12557   5.13475   5.16558
 Alpha virt. eigenvalues --    5.16995   5.18571   5.19227   5.19655   5.21117
 Alpha virt. eigenvalues --    5.21401   5.22676   5.23395   5.23627   5.25672
 Alpha virt. eigenvalues --    5.26770   5.27986   5.29281   5.30758   5.33672
 Alpha virt. eigenvalues --    5.34042   5.35166   5.35757   5.37194   5.37407
 Alpha virt. eigenvalues --    5.38640   5.39713   5.40419   5.41263   5.41513
 Alpha virt. eigenvalues --    5.42622   5.45332   5.47723   5.48395   5.49292
 Alpha virt. eigenvalues --    5.50356   5.51276   5.51671   5.53171   5.55379
 Alpha virt. eigenvalues --    5.57211   5.58454   5.59257   5.59846   5.60925
 Alpha virt. eigenvalues --    5.61413   5.64773   5.65194   5.65699   5.66247
 Alpha virt. eigenvalues --    5.67582   5.70334   5.72150   5.74077   5.75285
 Alpha virt. eigenvalues --    5.75801   5.77146   5.79465   5.87035   5.87619
 Alpha virt. eigenvalues --    5.91485   5.95452   5.98491   5.99501   6.01552
 Alpha virt. eigenvalues --    6.07004   6.08732   6.10838   6.11525   6.12356
 Alpha virt. eigenvalues --    6.15864   6.16166   6.24136   6.31296   6.32251
 Alpha virt. eigenvalues --    6.37976  22.34836  22.36153  22.43661  22.46096
 Alpha virt. eigenvalues --   22.46558  22.53024  22.53911  22.61097  22.62116
 Alpha virt. eigenvalues --   22.74808  22.79752  22.86620  22.88520  22.90208
 Alpha virt. eigenvalues --   22.93031  22.93771  22.94554  23.00770  23.02906
 Alpha virt. eigenvalues --   23.04554  23.11189  23.25076  23.27683  23.28273
 Alpha virt. eigenvalues --   23.29625  23.36415  23.41493  23.49763  23.50750
 Alpha virt. eigenvalues --   23.55197  23.71604  23.76905  23.77673  23.85520
 Alpha virt. eigenvalues --   32.39731  32.65140  32.82588  32.88010  32.93776
 Alpha virt. eigenvalues --   33.06428
          Condensed to atoms (all electrons):
 Mulliken charges:
               1
     1  Fe  -0.132107
     2  N   -0.041826
     3  N   -0.136891
     4  N   -0.091018
     5  N   -0.078407
     6  C    0.250631
     7  C   -0.069922
     8  C   -0.017350
     9  C    0.210715
    10  C    0.239882
    11  C   -0.049609
    12  C    0.033058
    13  C    0.255572
    14  C    0.271491
    15  C   -0.070987
    16  C    0.067986
    17  C    0.219920
    18  C    0.215449
    19  C   -0.044359
    20  C   -0.069770
    21  C    0.262743
    22  C   -0.429367
    23  H    0.140626
    24  C   -0.437864
    25  H    0.129335
    26  C   -0.454185
    27  H    0.110647
    28  C   -0.466756
    29  H    0.118808
    30  C   -0.416140
    31  H    0.120588
    32  H    0.130704
    33  H    0.141169
    34  C   -0.408466
    35  H    0.138982
    36  H    0.132888
    37  H    0.119706
    38  C   -0.453830
    39  H    0.144967
    40  H    0.125674
    41  H    0.157978
    42  C   -0.197350
    43  H    0.106833
    44  C   -0.285104
    45  H    0.139666
    46  H    0.122241
    47  C   -0.443421
    48  H    0.138275
    49  H    0.136484
    50  H    0.158086
    51  C   -0.202578
    52  H    0.109095
    53  C   -0.286328
    54  H    0.139144
    55  H    0.122704
    56  C   -0.397610
    57  H    0.139146
    58  H    0.131908
    59  H    0.120956
    60  C   -0.397851
    61  H    0.120698
    62  H    0.131740
    63  H    0.140008
    64  C   -0.389845
    65  H    0.135290
    66  H    0.146401
    67  H    0.138246
    68  N   -0.228493
    69  H    0.237502
    70  C    0.169442
    71  C    0.011539
    72  H    0.178337
    73  N    0.036819
    74  C   -0.208807
    75  H    0.156161
 Sum of Mulliken charges =  -0.00000
 Mulliken charges with hydrogens summed into heavy atoms:
               1
     1  Fe  -0.132107
     2  N   -0.041826
     3  N   -0.136891
     4  N   -0.091018
     5  N   -0.078407
     6  C    0.250631
     7  C   -0.069922
     8  C   -0.017350
     9  C    0.210715
    10  C    0.239882
    11  C   -0.049609
    12  C    0.033058
    13  C    0.255572
    14  C    0.271491
    15  C   -0.070987
    16  C    0.067986
    17  C    0.219920
    18  C    0.215449
    19  C   -0.044359
    20  C   -0.069770
    21  C    0.262743
    22  C   -0.288741
    24  C   -0.308529
    26  C   -0.343538
    28  C   -0.347948
    30  C   -0.023679
    34  C   -0.016890
    38  C   -0.025211
    42  C   -0.090517
    44  C   -0.023198
    47  C   -0.010575
    51  C   -0.093484
    53  C   -0.024480
    56  C   -0.005601
    60  C   -0.005404
    64  C    0.030092
    68  N    0.009009
    70  C    0.169442
    71  C    0.189877
    73  N    0.036819
    74  C   -0.052646
 Electronic spatial extent (au):  <R**2>=          19861.3139
 Charge=              0.0000 electrons
 Dipole moment (field-independent basis, Debye):
    X=             -0.3048    Y=             -1.4320    Z=              5.9244  Tot=              6.1027
 Quadrupole moment (field-independent basis, Debye-Ang):
   XX=           -228.8548   YY=           -234.6659   ZZ=           -224.8910
   XY=              0.2041   XZ=             -4.1367   YZ=              2.2642
 Traceless Quadrupole moment (field-independent basis, Debye-Ang):
   XX=              0.6158   YY=             -5.1953   ZZ=              4.5796
   XY=              0.2041   XZ=             -4.1367   YZ=              2.2642
 Octapole moment (field-independent basis, Debye-Ang**2):
  XXX=              8.6657  YYY=            -30.1993  ZZZ=            165.0615  XYY=             -5.9405
  XXY=            -31.9093  XXZ=              2.6567  XZZ=            -10.1286  YZZ=            -18.3235
  YYZ=            -12.1513  XYZ=             -6.1787
 Hexadecapole moment (field-independent basis, Debye-Ang**3):
 XXXX=         -11813.7616 YYYY=         -11400.9885 ZZZZ=          -2784.4989 XXXY=             14.3371
 XXXZ=            -31.5953 YYYX=            -15.3888 YYYZ=             84.3276 ZZZX=            -73.4706
 ZZZY=              7.1755 XXYY=          -3942.3416 XXZZ=          -2606.1339 YYZZ=          -2646.2412
 XXYZ=             -0.0139 YYXZ=            -50.9967 ZZXY=             11.8805
 N-N= 5.562781747468D+03 E-N=-1.795770134488D+04  KE= 2.897569355412D+03
  Exact polarizability:     712.663       1.364     696.739     -14.166       2.590     304.087
 Approx polarizability:    1321.781       2.985    1275.920     -33.663      11.067     484.353

 ----------------------------------------------------------------------

 Electric dipole moment (input orientation):
 (Debye = 10**-18 statcoulomb cm , SI units = C m)
                  (au)            (Debye)         (10**-30 SI)
   Tot        0.240097D+01      0.610266D+01      0.203563D+02
   x         -0.181753D+01     -0.461969D+01     -0.154096D+02
   y          0.140544D+01      0.357227D+01      0.119158D+02
   z         -0.697138D+00     -0.177195D+01     -0.591058D+01

 Dipole polarizability, Alpha (input orientation).
 (esu units = cm**3 , SI units = C**2 m**2 J**-1)
 Alpha(0;0):
               (au)            (10**-24 esu)      (10**-40 SI)
   iso        0.571163D+03      0.846376D+02      0.941720D+02
   aniso      0.401633D+03      0.595159D+02      0.662204D+02
   xx         0.437970D+03      0.649005D+02      0.722115D+02
   yx         0.191216D+03      0.283352D+02      0.315272D+02
   yy         0.579158D+03      0.858223D+02      0.954902D+02
   zx        -0.195731D+02     -0.290043D+01     -0.322717D+01
   zy         0.915577D+01      0.135675D+01      0.150958D+01
   zz         0.696361D+03      0.103190D+03      0.114814D+03

 First dipole hyperpolarizability, Beta (input orientation).
 ||, _|_  parallel and perpendicular components, (z) with respect to z axis,
 vector components x,y,z.  Values do not include the 1/n! factor of 1/2.
 (esu units = statvolt**-1 cm**4 , SI units = C**3 m**3 J**-2)
 Beta(0;0,0):
               (au)            (10**-30 esu)      (10**-50 SI)
   || (z)     0.972293D+03      0.839985D+01      0.311752D+01
   _|_(z)     0.324098D+03      0.279995D+01      0.103917D+01
   x          0.725643D+03      0.626899D+01      0.232667D+01
   y          0.142205D+04      0.122854D+02      0.455960D+01
   z          0.486146D+04      0.419993D+02      0.155876D+02
   ||         0.102338D+04      0.884120D+01      0.328132D+01
   xxx        0.464262D+02      0.401086D+00      0.148859D+00
   xxy        0.391601D+03      0.338313D+01      0.125561D+01
   yxy        0.245797D+03      0.212350D+01      0.788116D+00
   yyy        0.431445D+03      0.372735D+01      0.138337D+01
   xxz        0.248956D+03      0.215079D+01      0.798243D+00
   yxz        0.446749D+03      0.385957D+01      0.143244D+01
   yyz        0.737041D+03      0.636746D+01      0.236322D+01
   zxz       -0.503428D+02     -0.434922D+00     -0.161417D+00
   zyz       -0.349031D+03     -0.301535D+01     -0.111912D+01
   zzz        0.634490D+03      0.548150D+01      0.203441D+01

 ----------------------------------------------------------------------

 Dipole orientation:
    26          5.29467714        -20.15378533          6.33808778
     7          5.40137909        -16.41870632          6.54664817
     7          1.70120050        -19.89490119          5.01041057
     7          5.28571441        -23.86115554          5.45351437
     7          9.03696304        -20.32472919          6.65042317
     6          7.48290469        -14.94797101          6.89795498
     6          6.82422052        -12.29682995          6.84730979
     6          4.27151992        -12.19512721          6.58150855
     6          3.41114847        -14.78454061          6.38635196
     6          0.12410596        -17.87704788          5.32454841
     6         -2.41799217        -18.47960276          4.57820819
     6         -2.41743875        -21.00218092          3.99925992
     6          0.14898393        -21.86765963          4.41895418
     6          3.22910487        -25.29965994          4.86862009
     6          3.95398913        -27.89057390          4.44838635
     6          6.41481505        -28.08116081          5.22681028
     6          7.17888661        -25.54478275          5.94113172
     6         10.50760046        -22.43569367          6.76946589
     6         13.11079325        -21.78045417          7.27759711
     6         13.20776940        -19.21111243          7.31366645
     6         10.62204547        -18.34874701          7.12273505
     6          9.91875926        -15.83537729          7.21681641
     1         11.39198107        -14.45710877          7.51669734
     6          0.95544902        -15.43803502          5.79604602
     1         -0.43434256        -13.94434260          5.78252767
     6          0.86220686        -24.36846235          4.26643423
     1         -0.56383806        -25.72709227          3.73905397
     6          9.65641935        -24.88189706          6.44095935
     1         11.01826422        -26.38443283          6.66224688
     6          2.58268393         -9.94728795          6.41927877
     1          3.64540324         -8.21369375          6.71162930
     1          1.10175389        -10.04883029          7.84769716
     1          1.68114221         -9.85019267          4.56915587
     6          8.68215493        -10.19600856          7.09528983
     1         10.10132374        -10.31035582          5.60717678
     1          9.65045030        -10.29538696          8.91158405
     1          7.74691460         -8.37202348          6.95825765
     6         -4.58950598        -16.69215163          4.64402320
     1         -4.65424048        -15.55475463          2.92525985
     1         -4.43281760        -15.41316572          6.24868715
     1         -6.35673487        -17.73250317          4.79796039
     6         -4.49425096        -22.57805072          3.17973456
     1         -4.43668572        -24.52660094          3.80661743
     6         -6.40537775        -21.82392743          1.73506350
     1         -6.51494815        -19.93904989          0.98096484
     1         -7.90727458        -23.09402360          1.20936301
     6          2.29349218        -29.88737434          3.36880991
     1          1.16615650        -29.13142725          1.82203210
     1          1.00489474        -30.63241984          4.79633334
     1          3.43689226        -31.43790056          2.65163927
     6          8.04399186        -30.27791940          5.27237521
     1         10.02397895        -29.93075961          4.88277230
     6          7.29670878        -32.62342919          5.76828405
     1          5.37211274        -33.06700603          6.25285735
     1          8.60427825        -34.18397192          5.75089313
     6         15.20963233        -23.64883312          7.46755633
     1         15.45827400        -24.64811294          5.68260323
     1         14.80554911        -25.04347438          8.92882689
     1         16.97797293        -22.71454547          7.93740268
     6         15.42329158        -17.51616368          7.69752203
     1         17.16567404        -18.60043138          7.78891861
     1         15.22917244        -16.44584610          9.44766672
     1         15.57686523        -16.17482770          6.14237176
     6          1.19032539        -19.69081912         16.06522315
     1          0.26211943        -21.35388565         16.84699226
     1         -0.24293966        -18.32062285         15.54156439
     1          2.38135205        -18.86928156         17.53089373
     7          4.56477384        -22.17678404         13.87125007
     1          5.06634820        -23.20367897         15.39228809
     6          2.71346172        -20.36909199         13.80885726
     6          5.58340583        -22.32770568         11.53219537
     1          7.08021962        -23.59386590         11.02554875
     7          4.48897406        -20.72251131          9.98535076
     6          2.69759851        -19.49046137         11.38260466
     1          1.52751390        -18.06453327         10.54832882

 Electric dipole moment (dipole orientation):
 (Debye = 10**-18 statcoulomb cm , SI units = C m)
                  (au)            (Debye)         (10**-30 SI)
   Tot        0.240097D+01      0.610266D+01      0.203563D+02
   x          0.000000D+00      0.000000D+00      0.000000D+00
   y          0.000000D+00      0.000000D+00      0.000000D+00
   z          0.240097D+01      0.610266D+01      0.203563D+02

 Dipole polarizability, Alpha (dipole orientation).
 (esu units = cm**3 , SI units = C**2 m**2 J**-1)
 Alpha(0;0):
               (au)            (10**-24 esu)      (10**-40 SI)
   iso        0.571163D+03      0.846376D+02      0.941720D+02
   aniso      0.401633D+03      0.595159D+02      0.662204D+02
   xx         0.687409D+03      0.101863D+03      0.113338D+03
   yx        -0.172018D+02     -0.254904D+01     -0.283619D+01
   yy         0.699126D+03      0.103600D+03      0.115270D+03
   zx         0.846625D+02      0.125457D+02      0.139590D+02
   zy         0.392822D+02      0.582102D+01      0.647676D+01
   zz         0.326953D+03      0.484495D+02      0.539073D+02

 First dipole hyperpolarizability, Beta (dipole orientation).
 ||, _|_  parallel and perpendicular components, (z) with respect to z axis,
 vector components x,y,z.  Values do not include the 1/n! factor of 1/2.
 (esu units = statvolt**-1 cm**4 , SI units = C**3 m**3 J**-2)
 Beta(0;0,0):
               (au)            (10**-30 esu)      (10**-50 SI)
   || (z)    -0.225691D+03     -0.194979D+01     -0.723646D+00
   _|_(z)    -0.752303D+02     -0.649931D+00     -0.241215D+00
   x         -0.278839D+04     -0.240895D+02     -0.894057D+01
   y         -0.413934D+04     -0.357606D+02     -0.132722D+02
   z         -0.112845D+04     -0.974897D+01     -0.361823D+01
   ||         0.102338D+04      0.884120D+01      0.328132D+01
   xxx       -0.109041D+04     -0.942030D+01     -0.349625D+01
   xxy        0.651036D+02      0.562444D+00      0.208746D+00
   yxy        0.406897D+03      0.351528D+01      0.130466D+01
   yyy       -0.140262D+04     -0.121175D+02     -0.449730D+01
   xxz       -0.463299D+03     -0.400254D+01     -0.148550D+01
   yxz        0.705478D+02      0.609478D+00      0.226202D+00
   yyz       -0.125112D+03     -0.108087D+01     -0.401155D+00
   zxz       -0.245949D+03     -0.212481D+01     -0.788601D+00
   zyz       -0.422632D+02     -0.365121D+00     -0.135511D+00
   zzz        0.212260D+03      0.183376D+01      0.680581D+00

 ----------------------------------------------------------------------
 Unable to Open any file for archive entry.
 1\1\GINC-BGN1034\SP\RAPFD\def2TZVP\C34H34Fe1N6\BECSLEIP\26-Aug-2024\0\
 \# polar def2tzvp apfd int=(grid=ultrafine)\\2hbg_II_S\\0,1\Fe,0,2.681
 0025327,10.758350229,3.1480251828\N,0,1.9500946881,9.3906819718,1.9162
 572943\N,0,2.1087093324,9.5934537613,4.7113253377\N,0,3.706428085,11.9
 236087466,4.4359264881\N,0,3.6878214948,11.6015976124,1.6538810867\C,0
 ,2.154423898,9.3061535712,0.5728746071\C,0,1.4991723131,8.1403847315,0
 .0232972089\C,0,0.8362365158,7.554637932,1.0552088888\C,0,1.1318734526
 ,8.3442287598,2.2319445775\C,0,1.1522444035,8.6199151541,4.6697683011\
 C,0,0.8129043707,8.160957351,5.9894186914\C,0,1.503396198,8.9621387515
 ,6.8595470708\C,0,2.2475170704,9.8948955143,6.03508036\C,0,3.597143105
 1,11.927782086,5.7952350273\C,0,4.4495514277,12.9363137525,6.371988225
 3\C,0,4.8962634766,13.6987003722,5.3256485074\C,0,4.3739657612,13.0730
 388255,4.1241477077\C,0,4.4563644494,12.7261609057,1.7003672375\C,0,4.
 8995258079,13.1019571042,0.3765244323\C,0,4.4466957316,12.1321617553,-
 0.463745021\C,0,3.605823668,11.2679691714,0.3342684482\C,0,2.904512349
 4,10.1924713656,-0.1770031589\H,0,2.967300109,10.0174082132,-1.2401640
 522\C,0,0.7647012136,7.9691028046,3.5087892858\H,0,0.0898418228,7.1318
 250437,3.6049100402\C,0,2.9728774186,10.9492128513,6.5474577929\H,0,3.
 0115318666,11.0547461973,7.6205923284\C,0,4.7820984045,13.4204558295,2
 .8495498513\H,0,5.3671144108,14.3204506974,2.735439722\C,0,-0.00406731
 15,6.3238480221,1.0603672276\H,0,-0.1235917481,5.9337548741,0.05273891
 72\H,0,-0.9934648726,6.5366612409,1.4655835643\H,0,0.4542132823,5.5491
 856632,1.6757069141\C,0,1.5646175031,7.7383311504,-1.4098176132\H,0,2.
 5989916538,7.579710312,-1.7142471743\H,0,1.1399400667,8.5155327477,-2.
 0459928419\H,0,1.0129298867,6.817025827,-1.5791171516\C,0,-0.177077479
 9,7.0920257325,6.2955016443\H,0,0.2856998293,6.1058006878,6.2332009038
 \H,0,-1.0062106955,7.1204748696,5.5899987956\H,0,-0.5695538352,7.22290
 22685,7.302035065\C,0,1.507120451,8.9433493367,8.3055499365\H,0,1.6270
 309099,9.9053101513,8.7897531325\C,0,1.3865952171,7.8554568194,9.05949
 58337\H,0,1.3139179507,6.8693858537,8.6353951212\H,0,1.3861747206,7.91
 33172444,10.1353331987\C,0,4.7564090217,13.0762223007,7.8215657093\H,0
 ,4.9070233604,12.0984252968,8.2766600386\H,0,3.9408880151,13.573811172
 4,8.3492056607\H,0,5.6618186267,13.6644753843,7.9540210521\C,0,5.75646
 90095,14.8626578589,5.346491561\H,0,6.4319058643,14.9668578923,4.50566
 36529\C,0,5.7642195559,15.7920694326,6.2961918067\H,0,5.084554588,15.7
 648263947,7.1301048373\H,0,6.4394216485,16.6308128664,6.2584648169\C,0
 ,5.7803758784,14.2683638665,0.0853224272\H,0,6.7501375521,14.149016593
 3,0.5695155257\H,0,5.329581152,15.1896124574,0.4546725825\H,0,5.942574
 9023,14.3721351577,-0.9846462969\C,0,4.6366595017,11.9949239724,-1.935
 2583451\H,0,5.3096420407,12.7612737067,-2.3114114128\H,0,3.6839713128,
 12.085787711,-2.4579487446\H,0,5.0610552598,11.0197892304,-2.173321523
 2\C,0,-2.5070590526,12.8456406017,3.154185717\H,0,-2.7910579363,13.565
 4865678,3.9210447481\H,0,-2.9679101304,11.8904390083,3.3843586125\H,0,
 -2.8931124031,13.1967884881,2.1973976625\N,0,-0.183763548,13.745436120
 9,2.909588024\H,0,-0.4589101754,14.7068502656,2.7930484077\C,0,-1.0318
 714339,12.6871120894,3.1008321325\C,0,1.0803056138,13.2646553821,2.907
 6841942\H,0,1.9536704987,13.8718232373,2.7781348088\N,0,1.0862982289,1
 1.9627517282,3.0865448329\C,0,-0.2242838669,11.5911871801,3.2078155657
 \H,0,-0.4934139909,10.5659341727,3.3630250027\\Version=ES64L-G16RevC.0
 2\State=1-A\HF=-2907.5921556\RMSD=5.049e-09\Dipole=-1.8175279,1.405438
 ,-0.6971376\Polar=437.9700991,191.2157051,579.157665,-19.5731035,9.155
 7743,696.3607216\HyperPolar=46.4261831,391.6011,245.7974677,431.445272
 5,248.9560525,446.7494197,737.0414192,-50.3427906,-349.0308258,634.490
 4517\Quadrupole=-0.7555123,4.5829667,-3.8274544,-2.443903,-1.2318171,-
 0.2735811\PG=C01 [X(C34H34Fe1N6)]\\@
 The archive entry for this job was punched.


 STEINBACH'S GUIDELINES FOR SYSTEMS PROGRAMMING:
 NEVER TEST FOR AN ERROR CONDITION YOU DON'T KNOW HOW
 TO HANDLE.
 Job cpu time:       2 days  1 hours 39 minutes  8.6 seconds.
 Elapsed time:       0 days  0 hours 43 minutes 15.8 seconds.
 File lengths (MBytes):  RWF=   1142 Int=      0 D2E=      0 Chk=    146 Scr=      1
 Normal termination of Gaussian 16 at Mon Aug 26 16:54:33 2024.
 Initial command:
 /sw/chem/gaussian/g16_C02/a100/g16/l1.exe "/local/becsleip_7993346/Gau-2376643.inp" -scrdir="/local/becsleip_7993346/"
 Entering Link 1 = /sw/chem/gaussian/g16_C02/a100/g16/l1.exe PID=   2378351.
  
 Copyright (c) 1988-2021, Gaussian, Inc.  All Rights Reserved.
  
 This is part of the Gaussian(R) 16 program.  It is based on
 the Gaussian(R) 09 system (copyright 2009, Gaussian, Inc.),
 the Gaussian(R) 03 system (copyright 2003, Gaussian, Inc.),
 the Gaussian(R) 98 system (copyright 1998, Gaussian, Inc.),
 the Gaussian(R) 94 system (copyright 1995, Gaussian, Inc.),
 the Gaussian 92(TM) system (copyright 1992, Gaussian, Inc.),
 the Gaussian 90(TM) system (copyright 1990, Gaussian, Inc.),
 the Gaussian 88(TM) system (copyright 1988, Gaussian, Inc.),
 the Gaussian 86(TM) system (copyright 1986, Carnegie Mellon
 University), and the Gaussian 82(TM) system (copyright 1983,
 Carnegie Mellon University). Gaussian is a federally registered
 trademark of Gaussian, Inc.
  
 This software contains proprietary and confidential information,
 including trade secrets, belonging to Gaussian, Inc.
  
 This software is provided under written license and may be
 used, copied, transmitted, or stored only in accord with that
 written license.
  
 The following legend is applicable only to US Government
 contracts under FAR:
  
                    RESTRICTED RIGHTS LEGEND
  
 Use, reproduction and disclosure by the US Government is
 subject to restrictions as set forth in subparagraphs (a)
 and (c) of the Commercial Computer Software - Restricted
 Rights clause in FAR 52.227-19.
  
 Gaussian, Inc.
 340 Quinnipiac St., Bldg. 40, Wallingford CT 06492
  
  
 ---------------------------------------------------------------
 Warning -- This program may not be used in any manner that
 competes with the business of Gaussian, Inc. or will provide
 assistance to any competitor of Gaussian, Inc.  The licensee
 of this program is prohibited from giving any competitor of
 Gaussian, Inc. access to this program.  By using this program,
 the user acknowledges that Gaussian, Inc. is engaged in the
 business of creating and licensing software in the field of
 computational chemistry and represents and warrants to the
 licensee that it is not a competitor of Gaussian, Inc. and that
 it will not use this program in any manner prohibited above.
 ---------------------------------------------------------------
  

 Cite this work as:
 Gaussian 16, Revision C.02,
 M. J. Frisch, G. W. Trucks, H. B. Schlegel, G. E. Scuseria, 
 M. A. Robb, J. R. Cheeseman, G. Scalmani, V. Barone, 
 G. A. Petersson, H. Nakatsuji, X. Li, M. Caricato, A. V. Marenich, 
 J. Bloino, B. G. Janesko, R. Gomperts, B. Mennucci, H. P. Hratchian, 
 J. V. Ortiz, A. F. Izmaylov, J. L. Sonnenberg, D. Williams-Young, 
 F. Ding, F. Lipparini, F. Egidi, J. Goings, B. Peng, A. Petrone, 
 T. Henderson, D. Ranasinghe, V. G. Zakrzewski, J. Gao, N. Rega, 
 G. Zheng, W. Liang, M. Hada, M. Ehara, K. Toyota, R. Fukuda, 
 J. Hasegawa, M. Ishida, T. Nakajima, Y. Honda, O. Kitao, H. Nakai, 
 T. Vreven, K. Throssell, J. A. Montgomery, Jr., J. E. Peralta, 
 F. Ogliaro, M. J. Bearpark, J. J. Heyd, E. N. Brothers, K. N. Kudin, 
 V. N. Staroverov, T. A. Keith, R. Kobayashi, J. Normand, 
 K. Raghavachari, A. P. Rendell, J. C. Burant, S. S. Iyengar, 
 J. Tomasi, M. Cossi, J. M. Millam, M. Klene, C. Adamo, R. Cammi, 
 J. W. Ochterski, R. L. Martin, K. Morokuma, O. Farkas, 
 J. B. Foresman, and D. J. Fox, Gaussian, Inc., Wallingford CT, 2019.
 
 ******************************************
 Gaussian 16:  ES64L-G16RevC.02  7-Dec-2021
                26-Aug-2024 
 ******************************************
 %mem=16GB
 %CPU=0-71
 SetSPE:  set environment variable "OMP_PROC_BIND" = "true"
 SetSPE:  set environment variable "OMP_PLACES" = "{0},{1},{2},{3},{4},{5},{6},{7},{8},{9},{10},{11},{12},{13},{14},{15},{16},{17},{18},{19},{20},{21},{22},{23},{24},{25},{26},{27},{28},{29},{30},{31},{32},{33},{34},{35},{36},{37},{38},{39},{40},{41},{42},{43},{44},{45},{46},{47},{48},{49},{50},{51},{52},{53},{54},{55},{56},{57},{58},{59},{60},{61},{62},{63},{64},{65},{66},{67},{68},{69},{70},{71}"
 Will use up to   72 processors via shared memory.
 %gpucpu=0,1,2,3=0,1,2,3
 Will use    4 GPUs:
 Thread  CPU   GPU
      0    0     0
      1    1     1
      2    2     2
      3    3     3
      4    4    -1
      5    5    -1
      6    6    -1
      7    7    -1
      8    8    -1
      9    9    -1
     10   10    -1
     11   11    -1
     12   12    -1
     13   13    -1
     14   14    -1
     15   15    -1
     16   16    -1
     17   17    -1
     18   18    -1
     19   19    -1
     20   20    -1
     21   21    -1
     22   22    -1
     23   23    -1
     24   24    -1
[...]
                                                    1340(v),1483(g),148(r)
                                                    157(r),151(r),147(r),168(r)
   137. CR (   1) C  64                  1.99940   -10.06450  1483(v),1283(v),1481(v)
                                                    1291(v)
   138. CR (   1) N  68                  1.99938   -14.22789  1311(v),1285(v),1279(v)
                                                    1479(v),1286(v)
   139. CR (   1) C  70                  1.99915   -10.09588  1368(v),1483(g),1489(v)
                                                    1213(v),1256(v)
   140. CR (   1) C  71                  1.99938   -10.12996  1340(v),1480(v),148(r)
                                                    147(r)
   141. CR (   1) N  73                  1.99933   -14.16738  147(r),148(r),151(r),1309(v)
                                                    1366(v),1485(v),1368(v)
                                                    164(r),173(r),165(r),166(r)
                                                    167(r)
   142. CR (   1) C  74                  1.99900   -10.06739  1479(v),1283(v),1483(g)
                                                    1342(v),1286(v),148(r)
                                                    147(r)
   158. LP (   1) N  68                  1.57674    -0.29066  1487(v),1484(v),1312(v)
                                                    1284(v),1278(v),163(r)
   159. LP (   1) N  73                  1.62477    -0.38651  147(r),148(r),151(r),1482(v)
                                                    1483(v),1309(v),1485(v)
                                                    1489(v),1366(v),1486(g)
                                                    155(r),1343(g),1488(g)
                                                    165(r),185(r),268(r),267(r)
                                                    216(r),179(r),190(r),189(r)
                                                    215(r),242(r),241(r),1402(r)
                                                    1404(r),1399(r),1405(r)
                                                    1397(r),1403(r),1407(r)
                                                    1406(r),1400(r),1401(r)
                                                    146(r),169(r)
  1211. RY*(   1) C  64                  0.00122     1.13678   
  1212. RY*(   2) C  64                  0.00077     1.99211   
  1213. RY*(   3) C  64                  0.00053     1.30350   
  1214. RY*(   4) C  64                  0.00012     1.27147   
  1215. RY*(   5) C  64                  0.00007     1.07372   
  1216. RY*(   6) C  64                  0.00008     2.38888   
  1217. RY*(   7) C  64                  0.00003     2.10391   
  1218. RY*(   8) C  64                  0.00001     1.86472   
  1219. RY*(   9) C  64                  0.00001     1.45771   
  1220. RY*(  10) C  64                  0.00001     1.41305   
  1221. RY*(  11) C  64                  0.00000     2.97681   
  1222. RY*(  12) C  64                  0.00001     3.09766   
  1223. RY*(  13) C  64                  0.00000     2.38356   
  1224. RY*(  14) C  64                  0.00000     2.87920   
  1225. RY*(  15) C  64                  0.00000     2.20854   
  1226. RY*(  16) C  64                  0.00000     3.11893   
  1227. RY*(  17) C  64                  0.00000     2.48024   
  1228. RY*(  18) C  64                  0.00000    21.58035   
  1229. RY*(  19) C  64                  0.00000     2.60574   
  1230. RY*(  20) C  64                  0.00000     3.63458   
  1231. RY*(  21) C  64                  0.00001     3.14712   
  1232. RY*(  22) C  64                  0.00000     3.01606   
  1233. RY*(  23) C  64                  0.00000     3.74263   
  1234. RY*(  24) C  64                  0.00000     3.32528   
  1235. RY*(  25) C  64                  0.00000     3.37696   
  1236. RY*(  26) C  64                  0.00000     3.23193   
  1237. RY*(   1) H  65                  0.00072     0.99405   
  1238. RY*(   2) H  65                  0.00014     1.69873   
  1239. RY*(   3) H  65                  0.00008     1.96211   
  1240. RY*(   4) H  65                  0.00006     1.99962   
  1241. RY*(   5) H  65                  0.00000     2.86927   
  1242. RY*(   1) H  66                  0.00024     1.31254   
  1243. RY*(   2) H  66                  0.00013     1.64948   
  1244. RY*(   3) H  66                  0.00008     2.04887   
  1245. RY*(   4) H  66                  0.00003     1.69718   
  1246. RY*(   5) H  66                  0.00001     2.89294   
  1247. RY*(   1) H  67                  0.00075     1.00747   
  1248. RY*(   2) H  67                  0.00014     1.69086   
  1249. RY*(   3) H  67                  0.00008     1.94129   
  1250. RY*(   4) H  67                  0.00006     2.01292   
  1251. RY*(   5) H  67                  0.00000     2.86988   
  1252. RY*(   1) N  68                  0.00281     0.65966   
  1253. RY*(   2) N  68                  0.00234     1.74023   
  1254. RY*(   3) N  68                  0.00103     2.05939   
  1255. RY*(   4) N  68                  0.00075     2.19729   
  1256. RY*(   5) N  68                  0.00053     1.10251   
  1257. RY*(   6) N  68                  0.00025     2.04962   
  1258. RY*(   7) N  68                  0.00021     1.68610   
  1259. RY*(   8) N  68                  0.00006     2.32258   
  1260. RY*(   9) N  68                  0.00007     2.67114   
  1261. RY*(  10) N  68                  0.00006     2.64537   
  1262. RY*(  11) N  68                  0.00005     3.78444   
  1263. RY*(  12) N  68                  0.00000    30.62613   
  1264. RY*(  13) N  68                  0.00001     4.28188   
  1265. RY*(  14) N  68                  0.00000     2.53565   
  1266. RY*(  15) N  68                  0.00000     3.42170   
  1267. RY*(  16) N  68                  0.00000     2.08765   
  1268. RY*(  17) N  68                  0.00000     4.56948   
  1269. RY*(  18) N  68                  0.00001     3.74400   
  1270. RY*(  19) N  68                  0.00001     3.95131   
  1271. RY*(  20) N  68                  0.00000     4.61239   
  1272. RY*(  21) N  68                  0.00000     4.70527   
  1273. RY*(  22) N  68                  0.00000     4.34134   
  1274. RY*(  23) N  68                  0.00000     4.52274   
  1275. RY*(  24) N  68                  0.00000     4.26875   
  1276. RY*(  25) N  68                  0.00000     4.54021   
  1277. RY*(  26) N  68                  0.00000     4.39350   
  1278. RY*(   1) H  69                  0.00057     2.14360   
  1279. RY*(   2) H  69                  0.00039     2.14607   
  1280. RY*(   3) H  69                  0.00029     1.08932   
  1281. RY*(   4) H  69                  0.00021     2.44656   
  1282. RY*(   5) H  69                  0.00001     3.05866   
  1283. RY*(   1) C  70                  0.00416     1.67000   
  1284. RY*(   2) C  70                  0.00258     0.98615   
  1285. RY*(   3) C  70                  0.00189     1.44536   
  1286. RY*(   4) C  70                  0.00164     2.01201   
  1287. RY*(   5) C  70                  0.00120     1.73749   
  1288. RY*(   6) C  70                  0.00110     1.68601   
  1289. RY*(   7) C  70                  0.00038     2.84401   
  1290. RY*(   8) C  70                  0.00018     2.77210   
  1291. RY*(   9) C  70                  0.00016     2.33245   
  1292. RY*(  10) C  70                  0.00008     3.48115   
  1293. RY*(  11) C  70                  0.00003     2.73324   
  1294. RY*(  12) C  70                  0.00001     1.90380   
  1295. RY*(  13) C  70                  0.00002     2.32679   
  1296. RY*(  14) C  70                  0.00000    20.75327   
  1297. RY*(  15) C  70                  0.00001     2.79757   
  1298. RY*(  16) C  70                  0.00001     2.20249   
  1299. RY*(  17) C  70                  0.00000     3.27424   
  1300. RY*(  18) C  70                  0.00001     1.33779   
  1301. RY*(  19) C  70                  0.00000     1.07458   
  1302. RY*(  20) C  70                  0.00000     4.00474   
  1303. RY*(  21) C  70                  0.00000     3.82127   
  1304. RY*(  22) C  70                  0.00000     3.52549   
  1305. RY*(  23) C  70                  0.00001     3.69745   
  1306. RY*(  24) C  70                  0.00000     3.37350   
  1307. RY*(  25) C  70                  0.00000     3.42463   
  1308. RY*(  26) C  70                  0.00000     3.49409   
  1309. RY*(   1) C  71                  0.00408     1.57758   
  1310. RY*(   2) C  71                  0.00319     0.68494   
  1311. RY*(   3) C  71                  0.00208     1.31199   
  1312. RY*(   4) C  71                  0.00129     2.50404   
  1313. RY*(   5) C  71                  0.00080     1.61403   
  1314. RY*(   6) C  71                  0.00039     1.58281   
  1315. RY*(   7) C  71                  0.00031     1.79387   
  1316. RY*(   8) C  71                  0.00012     2.90570   
  1317. RY*(   9) C  71                  0.00005     3.73194   
  1318. RY*(  10) C  71                  0.00005     2.17723   
  1319. RY*(  11) C  71                  0.00004     1.87602   
  1320. RY*(  12) C  71                  0.00002     2.17173   
  1321. RY*(  13) C  71                  0.00001     2.14620   
  1322. RY*(  14) C  71                  0.00002     2.81525   
  1323. RY*(  15) C  71                  0.00001     2.58363   
  1324. RY*(  16) C  71                  0.00001     3.63404   
  1325. RY*(  17) C  71                  0.00001     2.73228   
  1326. RY*(  18) C  71                  0.00000     3.16900   
  1327. RY*(  19) C  71                  0.00000    21.50934   
  1328. RY*(  20) C  71                  0.00001     3.47970   
  1329. RY*(  21) C  71                  0.00001     4.03123   
  1330. RY*(  22) C  71                  0.00000     3.53761   
  1331. RY*(  23) C  71                  0.00000     3.79750   
  1332. RY*(  24) C  71                  0.00000     3.52306   
  1333. RY*(  25) C  71                  0.00000     3.53534   
  1334. RY*(  26) C  71                  0.00000     3.31556   
  1335. RY*(   1) H  72                  0.00060     0.86225   
  1336. RY*(   2) H  72                  0.00028     2.32511   
  1337. RY*(   3) H  72                  0.00021     2.09682   
  1338. RY*(   4) H  72                  0.00011     2.39885   
  1339. RY*(   5) H  72                  0.00002     3.13581   
  1340. RY*(   1) N  73                  0.00599     1.44934   
  1341. RY*(   2) N  73                  0.00549     0.91673   
  1342. RY*(   3) N  73                  0.00517     1.42151   
  1343. RY*(   4) N  73                  0.00127     1.39584   
  1344. RY*(   5) N  73                  0.00066     1.74242   
  1345. RY*(   6) N  73                  0.00041     2.26315   
  1346. RY*(   7) N  73                  0.00035     3.40576   
  1347. RY*(   8) N  73                  0.00034     2.95225   
  1348. RY*(   9) N  73                  0.00010     2.87870   
  1349. RY*(  10) N  73                  0.00010     2.32451   
  1350. RY*(  11) N  73                  0.00008     3.14409   
  1351. RY*(  12) N  73                  0.00006     3.12577   
  1352. RY*(  13) N  73                  0.00006     3.08891   
  1353. RY*(  14) N  73                  0.00002     3.95418   
  1354. RY*(  15) N  73                  0.00003     4.30799   
  1355. RY*(  16) N  73                  0.00001     4.71513   
  1356. RY*(  17) N  73                  0.00001     4.43590   
  1357. RY*(  18) N  73                  0.00000    31.70375   
  1358. RY*(  19) N  73                  0.00001     4.24687   
  1359. RY*(  20) N  73                  0.00000     4.38388   
  1360. RY*(  21) N  73                  0.00001     4.09950   
  1361. RY*(  22) N  73                  0.00000     4.11796   
  1362. RY*(  23) N  73                  0.00000     4.73178   
  1363. RY*(  24) N  73                  0.00000     4.64956   
  1364. RY*(  25) N  73                  0.00000     4.76662   
  1365. RY*(  26) N  73                  0.00000     4.48270   
  1366. RY*(   1) C  74                  0.00366     1.62053   
  1367. RY*(   2) C  74                  0.00253     0.71270   
  1368. RY*(   3) C  74                  0.00171     1.76204   
  1369. RY*(   4) C  74                  0.00065     2.05829   
  1370. RY*(   5) C  74                  0.00059     1.63181   
  1371. RY*(   6) C  74                  0.00045     2.07021   
  1372. RY*(   7) C  74                  0.00045     1.70674   
  1373. RY*(   8) C  74                  0.00020     1.59192   
  1374. RY*(   9) C  74                  0.00015     1.80903   
  1375. RY*(  10) C  74                  0.00012     1.77533   
  1376. RY*(  11) C  74                  0.00008     1.96534   
  1377. RY*(  12) C  74                  0.00006     2.05191   
  1378. RY*(  13) C  74                  0.00005     2.78753   
  1379. RY*(  14) C  74                  0.00004     2.45094   
  1380. RY*(  15) C  74                  0.00002     5.33207   
  1381. RY*(  16) C  74                  0.00002     1.48725   
  1382. RY*(  17) C  74                  0.00001     3.72752   
  1383. RY*(  18) C  74                  0.00000     3.20059   
  1384. RY*(  19) C  74                  0.00000    18.95950   
  1385. RY*(  20) C  74                  0.00001     3.30365   
  1386. RY*(  21) C  74                  0.00001     4.12605   
  1387. RY*(  22) C  74                  0.00000     3.45732   
  1388. RY*(  23) C  74                  0.00000     3.78002   
  1389. RY*(  24) C  74                  0.00000     3.30478   
  1390. RY*(  25) C  74                  0.00000     3.69241   
  1391. RY*(  26) C  74                  0.00000     3.33636   
  1392. RY*(   1) H  75                  0.00063     1.01368   
  1393. RY*(   2) H  75                  0.00025     2.27403   
  1394. RY*(   3) H  75                  0.00022     2.14456   
  1395. RY*(   4) H  75                  0.00007     2.66629   
  1396. RY*(   5) H  75                  0.00001     3.09004   
  1476. BD*(   1) C  64 - H  65          0.01109     0.35470   
  1477. BD*(   1) C  64 - H  66          0.00344     0.36764   
  1478. BD*(   1) C  64 - H  67          0.01223     0.35461   
  1479. BD*(   1) C  64 - C  70          0.01353     0.38327   
  1480. BD*(   1) N  68 - H  69          0.01401     0.36078   
  1481. BD*(   1) N  68 - C  70          0.02724     0.42388   
  1482. BD*(   1) N  68 - C  71          0.02244     0.43921   
  1483. BD*(   1) C  70 - C  74          0.02108     0.55813   
  1484. BD*(   2) C  70 - C  74          0.29866     0.02747  1487(v),1478(v),1476(v)
                                                    1371(g),1287(g),1398(r)
  1485. BD*(   1) C  71 - H  72          0.01815     0.38330   
  1486. BD*(   1) C  71 - N  73          0.01525     0.52675   
  1487. BD*(   2) C  71 - N  73          0.42370    -0.01491  1484(v),1310(g),1367(v)
                                                    150(r),1398(r),1406(r)
                                                    1434(r)
  1488. BD*(   1) N  73 - C  74          0.01561     0.47130   
  1489. BD*(   1) C  74 - H  75          0.01464     0.42274   
       -------------------------------
              Total Lewis   42.70791  ( 97.7447%)
        Valence non-Lewis    0.91107  (  2.0851%)
        Rydberg non-Lewis    0.07435  (  0.1702%)
       -------------------------------
            Total unit  3   43.69333  (100.0000%)
           Charge unit  3    0.30667
 Unable to Open any file for archive entry.
 1\1\GINC-BGN1034\SP\RAPFD\def2TZVP\C34H34Fe1N6\BECSLEIP\26-Aug-2024\0\
 \# apfd/def2TZVP int=(grid=ultrafine) geom=check guess=read pop=nbo sc
 f=qc\\2hbg_II_S_nbo\\0,1\Fe,0,2.6810025327,10.758350229,3.1480251828\N
 ,0,1.9500946881,9.3906819718,1.9162572943\N,0,2.1087093324,9.593453761
 3,4.7113253377\N,0,3.706428085,11.9236087466,4.4359264881\N,0,3.687821
 4948,11.6015976124,1.6538810867\C,0,2.154423898,9.3061535712,0.5728746
 071\C,0,1.4991723131,8.1403847315,0.0232972089\C,0,0.8362365158,7.5546
 37932,1.0552088888\C,0,1.1318734526,8.3442287598,2.2319445775\C,0,1.15
 22444035,8.6199151541,4.6697683011\C,0,0.8129043707,8.160957351,5.9894
 186914\C,0,1.503396198,8.9621387515,6.8595470708\C,0,2.2475170704,9.89
 48955143,6.03508036\C,0,3.5971431051,11.927782086,5.7952350273\C,0,4.4
 495514277,12.9363137525,6.3719882253\C,0,4.8962634766,13.6987003722,5.
 3256485074\C,0,4.3739657612,13.0730388255,4.1241477077\C,0,4.456364449
 4,12.7261609057,1.7003672375\C,0,4.8995258079,13.1019571042,0.37652443
 23\C,0,4.4466957316,12.1321617553,-0.463745021\C,0,3.605823668,11.2679
 691714,0.3342684482\C,0,2.9045123494,10.1924713656,-0.1770031589\H,0,2
 .967300109,10.0174082132,-1.2401640522\C,0,0.7647012136,7.9691028046,3
 .5087892858\H,0,0.0898418228,7.1318250437,3.6049100402\C,0,2.972877418
 6,10.9492128513,6.5474577929\H,0,3.0115318666,11.0547461973,7.62059232
 84\C,0,4.7820984045,13.4204558295,2.8495498513\H,0,5.3671144108,14.320
 4506974,2.735439722\C,0,-0.0040673115,6.3238480221,1.0603672276\H,0,-0
 .1235917481,5.9337548741,0.0527389172\H,0,-0.9934648726,6.5366612409,1
 .4655835643\H,0,0.4542132823,5.5491856632,1.6757069141\C,0,1.564617503
 1,7.7383311504,-1.4098176132\H,0,2.5989916538,7.579710312,-1.714247174
 3\H,0,1.1399400667,8.5155327477,-2.0459928419\H,0,1.0129298867,6.81702
 5827,-1.5791171516\C,0,-0.1770774799,7.0920257325,6.2955016443\H,0,0.2
 856998293,6.1058006878,6.2332009038\H,0,-1.0062106955,7.1204748696,5.5
 899987956\H,0,-0.5695538352,7.2229022685,7.302035065\C,0,1.507120451,8
 .9433493367,8.3055499365\H,0,1.6270309099,9.9053101513,8.7897531325\C,
 0,1.3865952171,7.8554568194,9.0594958337\H,0,1.3139179507,6.8693858537
 ,8.6353951212\H,0,1.3861747206,7.9133172444,10.1353331987\C,0,4.756409
 0217,13.0762223007,7.8215657093\H,0,4.9070233604,12.0984252968,8.27666
 00386\H,0,3.9408880151,13.5738111724,8.3492056607\H,0,5.6618186267,13.
 6644753843,7.9540210521\C,0,5.7564690095,14.8626578589,5.346491561\H,0
 ,6.4319058643,14.9668578923,4.5056636529\C,0,5.7642195559,15.792069432
 6,6.2961918067\H,0,5.084554588,15.7648263947,7.1301048373\H,0,6.439421
 6485,16.6308128664,6.2584648169\C,0,5.7803758784,14.2683638665,0.08532
 24272\H,0,6.7501375521,14.1490165933,0.5695155257\H,0,5.329581152,15.1
 896124574,0.4546725825\H,0,5.9425749023,14.3721351577,-0.9846462969\C,
 0,4.6366595017,11.9949239724,-1.9352583451\H,0,5.3096420407,12.7612737
 067,-2.3114114128\H,0,3.6839713128,12.085787711,-2.4579487446\H,0,5.06
 10552598,11.0197892304,-2.1733215232\C,0,-2.5070590526,12.8456406017,3
 .154185717\H,0,-2.7910579363,13.5654865678,3.9210447481\H,0,-2.9679101
 304,11.8904390083,3.3843586125\H,0,-2.8931124031,13.1967884881,2.19739
 76625\N,0,-0.183763548,13.7454361209,2.909588024\H,0,-0.4589101754,14.
 7068502656,2.7930484077\C,0,-1.0318714339,12.6871120894,3.1008321325\C
 ,0,1.0803056138,13.2646553821,2.9076841942\H,0,1.9536704987,13.8718232
 373,2.7781348088\N,0,1.0862982289,11.9627517282,3.0865448329\C,0,-0.22
 42838669,11.5911871801,3.2078155657\H,0,-0.4934139909,10.5659341727,3.
 3630250027\\Version=ES64L-G16RevC.02\State=1-A\HF=-2907.5921556\RMSD=1
 .988e-09\Dipole=-1.8175279,1.405438,-0.6971376\Quadrupole=-0.7555123,4
 .5829667,-3.8274544,-2.443903,-1.2318171,-0.2735811\PG=C01 [X(C34H34Fe
 1N6)]\\@
 The archive entry for this job was punched.


 IN SO FAR AS QUANTUM MECHANICS IS CORRECT, CHEMICAL 
 QUESTIONS ARE PROBLEMS IN APPLIED MATHEMATICS.

                    -- EYRING, WALTER, & KIMBALL, 1944
 Job cpu time:       0 days  0 hours 43 minutes 47.5 seconds.
 Elapsed time:       0 days  0 hours  0 minutes 55.1 seconds.
 File lengths (MBytes):  RWF=    749 Int=      0 D2E=      0 Chk=    150 Scr=      1
 Normal termination of Gaussian 16 at Mon Aug 26 16:55:31 2024.
