 Entering Gaussian System, Link 0=g16
 Input=2hi412.com
 Output=2hi412.log
 Initial command:
 /sw/chem/gaussian/g16_C02/a100/g16/l1.exe "/local/becsleip_7994350/Gau-2256232.inp" -scrdir="/local/becsleip_7994350/"
 Entering Link 1 = /sw/chem/gaussian/g16_C02/a100/g16/l1.exe PID=   2256233.
  
 Copyright (c) 1988-2021, Gaussian, Inc.  All Rights Reserved.
  
 This is part of the Gaussian(R) 16 program.  It is based on
 the Gaussian(R) 09 system (copyright 2009, Gaussian, Inc.),
 the Gaussian(R) 03 system (copyright 2003, Gaussian, Inc.),
 the Gaussian(R) 98 system (copyright 1998, Gaussian, Inc.),
 the Gaussian(R) 94 system (copyright 1995, Gaussian, Inc.),
 the Gaussian 92(TM) system (copyright 1992, Gaussian, Inc.),
 the Gaussian 90(TM) system (copyright 1990, Gaussian, Inc.),
 the Gaussian 88(TM) system (copyright 1988, Gaussian, Inc.),
 the Gaussian 86(TM) system (copyright 1986, Carnegie Mellon
 University), and the Gaussian 82(TM) system (copyright 1983,
 Carnegie Mellon University). Gaussian is a federally registered
 trademark of Gaussian, Inc.
  
 This software contains proprietary and confidential information,
 including trade secrets, belonging to Gaussian, Inc.
  
 This software is provided under written license and may be
 used, copied, transmitted, or stored only in accord with that
 written license.
  
 The following legend is applicable only to US Government
 contracts under FAR:
  
                    RESTRICTED RIGHTS LEGEND
  
 Use, reproduction and disclosure by the US Government is
 subject to restrictions as set forth in subparagraphs (a)
 and (c) of the Commercial Computer Software - Restricted
 Rights clause in FAR 52.227-19.
  
 Gaussian, Inc.
 340 Quinnipiac St., Bldg. 40, Wallingford CT 06492
  
  
 ---------------------------------------------------------------
 Warning -- This program may not be used in any manner that
 competes with the business of Gaussian, Inc. or will provide
 assistance to any competitor of Gaussian, Inc.  The licensee
 of this program is prohibited from giving any competitor of
 Gaussian, Inc. access to this program.  By using this program,
 the user acknowledges that Gaussian, Inc. is engaged in the
 business of creating and licensing software in the field of
 computational chemistry and represents and warrants to the
 licensee that it is not a competitor of Gaussian, Inc. and that
 it will not use this program in any manner prohibited above.
 ---------------------------------------------------------------
  

 Cite this work as:
 Gaussian 16, Revision C.02,
 M. J. Frisch, G. W. Trucks, H. B. Schlegel, G. E. Scuseria, 
 M. A. Robb, J. R. Cheeseman, G. Scalmani, V. Barone, 
 G. A. Petersson, H. Nakatsuji, X. Li, M. Caricato, A. V. Marenich, 
 J. Bloino, B. G. Janesko, R. Gomperts, B. Mennucci, H. P. Hratchian, 
 J. V. Ortiz, A. F. Izmaylov, J. L. Sonnenberg, D. Williams-Young, 
 F. Ding, F. Lipparini, F. Egidi, J. Goings, B. Peng, A. Petrone, 
 T. Henderson, D. Ranasinghe, V. G. Zakrzewski, J. Gao, N. Rega, 
 G. Zheng, W. Liang, M. Hada, M. Ehara, K. Toyota, R. Fukuda, 
 J. Hasegawa, M. Ishida, T. Nakajima, Y. Honda, O. Kitao, H. Nakai, 
 T. Vreven, K. Throssell, J. A. Montgomery, Jr., J. E. Peralta, 
 F. Ogliaro, M. J. Bearpark, J. J. Heyd, E. N. Brothers, K. N. Kudin, 
 V. N. Staroverov, T. A. Keith, R. Kobayashi, J. Normand, 
 K. Raghavachari, A. P. Rendell, J. C. Burant, S. S. Iyengar, 
 J. Tomasi, M. Cossi, J. M. Millam, M. Klene, C. Adamo, R. Cammi, 
 J. W. Ochterski, R. L. Martin, K. Morokuma, O. Farkas, 
 J. B. Foresman, and D. J. Fox, Gaussian, Inc., Wallingford CT, 2019.
 
 ******************************************
 Gaussian 16:  ES64L-G16RevC.02  7-Dec-2021
                27-Aug-2024 
 ******************************************
 %mem=16GB
 %CPU=0-71
 SetSPE:  set environment variable "OMP_PROC_BIND" = "true"
 SetSPE:  set environment variable "OMP_PLACES" = "{0},{1},{2},{3},{4},{5},{6},{7},{8},{9},{10},{11},{12},{13},{14},{15},{16},{17},{18},{19},{20},{21},{22},{23},{24},{25},{26},{27},{28},{29},{30},{31},{32},{33},{34},{35},{36},{37},{38},{39},{40},{41},{42},{43},{44},{45},{46},{47},{48},{49},{50},{51},{52},{53},{54},{55},{56},{57},{58},{59},{60},{61},{62},{63},{64},{65},{66},{67},{68},{69},{70},{71}"
 Will use up to   72 processors via shared memory.
 %gpucpu=0,1,2,3=0,1,2,3
 Will use    4 GPUs:
 Thread  CPU   GPU
      0    0     0
      1    1     1
      2    2     2
      3    3     3
      4    4    -1
      5    5    -1
      6    6    -1
      7    7    -1
      8    8    -1
      9    9    -1
     10   10    -1
     11   11    -1
     12   12    -1
     13   13    -1
     14   14    -1
     15   15    -1
     16   16    -1
     17   17    -1
     18   18    -1
     19   19    -1
     20   20    -1
     21   21    -1
     22   22    -1
     23   23    -1
     24   24    -1
     25   25    -1
     26   26    -1
     27   27    -1
     28   28    -1
     29   29    -1
     30   30    -1
     31   31    -1
     32   32    -1
     33   33    -1
     34   34    -1
     35   35    -1
     36   36    -1
     37   37    -1
     38   38    -1
     39   39    -1
     40   40    -1
     41   41    -1
     42   42    -1
     43   43    -1
     44   44    -1
     45   45    -1
     46   46    -1
     47   47    -1
     48   48    -1
     49   49    -1
     50   50    -1
     51   51    -1
     52   52    -1
     53   53    -1
     54   54    -1
     55   55    -1
     56   56    -1
     57   57    -1
     58   58    -1
     59   59    -1
     60   60    -1
     61   61    -1
     62   62    -1
     63   63    -1
     64   64    -1
     65   65    -1
     66   66    -1
     67   67    -1
     68   68    -1
     69   69    -1
     70   70    -1
     71   71    -1
 SetGPE:  set environment variable "OMP_PROC_BIND" = "true"
 SetGPE:  set environment variable "OMP_PLACES" = "{0},{1},{2},{3},{4},{5},{6},{7},{8},{9},{10},{11},{12},{13},{14},{15},{16},{17},{18},{19},{20},{21},{22},{23},{24},{25},{26},{27},{28},{29},{30},{31},{32},{33},{34},{35},{36},{37},{38},{39},{40},{41},{42},{43},{44},{45},{46},{47},{48},{49},{50},{51},{52},{53},{54},{55},{56},{57},{58},{59},{60},{61},{62},{63},{64},{65},{66},{67},{68},{69},{70},{71}"
 %oldchk=2hi4_II_Sre.chk
 %chk=2hi4_III_Dn.chk
 Properties for Device   0
 Minimum vector length:                              32
 Maximum vector length:                            1024
 Number of SMPs:                                    108
 Maximum number of threads per SMP:                2048
 Number of ASync Engines:                             5
 Memory:                                           9207742464
 Properties for Device   1
 Minimum vector length:                              32
 Maximum vector length:                            1024
 Number of SMPs:                                    108
 Maximum number of threads per SMP:                2048
 Number of ASync Engines:                             5
 Memory:                                           9207742464
 Properties for Device   2
 Minimum vector length:                              32
 Maximum vector length:                            1024
 Number of SMPs:                                    108
 Maximum number of threads per SMP:                2048
 Number of ASync Engines:                             5
 Memory:                                           9207742464
 Properties for Device   3
 Minimum vector length:                              32
 Maximum vector length:                            1024
 Number of SMPs:                                    108
 Maximum number of threads per SMP:                2048
 Number of ASync Engines:                             5
 Memory:                                           9207742464
   8286968217 words of memory will be used on each GPU.
 Copying data from "2hi4_II_Sre.chk" to current chk file "2hi4_III_Dn.chk"
 IOpt=  2 FromEx=T IUOpen= 4 IOptOp= 5 NList=   0 IFRang= 0 IUIn= 4 IUOut= 2.
 --------------------------------------------------------------
 # apfd/def2TZVP guess=read scf=maxcycle=999 geom=check pop=nbo
 --------------------------------------------------------------
 1/29=2,38=1,172=1/1;
 2/12=2,40=1/2;
 3/5=44,7=101,11=2,14=-4,25=1,30=1,74=-44,116=-2/1,2,3;
 4/5=1/1;
 5/5=2,7=999,38=6/2;
 6/7=2,8=2,9=2,10=2,28=1,40=1/1,7;
 99/5=1,9=1/99;
 ----------
 2hi4_III_D
 ----------
 Structure from the checkpoint file:  "2hi4_III_Dn.chk"
 Charge =  1 Multiplicity = 2
 Z-Matrix found in chk file.
 Fe,0,4.9372331738,24.8867628936,23.8754325922
 N,0,6.506163405,25.029519593,22.640716737
 N,0,6.1829144335,24.21422527,25.3109058902
 N,0,3.4017316402,24.3515131901,25.0390038345
 N,0,3.7152894996,25.0156348417,22.310833863
 C,0,6.4747301785,25.3160412629,21.3100810487
 C,0,7.808432853,25.3710605652,20.7587288351
 C,0,8.6575663153,25.1168331647,21.7894433329
 C,0,7.8291786785,24.8957850083,22.9534163101
 C,0,7.5461797964,24.1513624405,25.2671626851
 C,0,8.0891265372,23.7658594681,26.5426062579
 C,0,7.0186227238,23.5954991809,27.3795215554
 C,0,5.8412879716,23.8904342027,26.59031781
 C,0,3.4256258581,24.2353207178,26.3980547457
 C,0,2.0924761559,24.1826736312,26.9384031098
 C,0,1.2458741273,24.2340447184,25.8645813068
 C,0,2.0870372879,24.345665128,24.6876603217
 C,0,2.355887669,24.944631931,22.3277769759
 C,0,1.8050724211,25.2159166351,21.018854217
 C,0,2.8639762942,25.4768734846,20.207735864
 C,0,4.046525612,25.3347881612,21.0278379559
 C,0,5.3297580445,25.5472388754,20.5690846555
 H,0,5.4531863513,25.8112992943,19.5303260886
 C,0,8.3192354921,24.4237323097,24.15294684
 H,0,9.3891664671,24.3265493199,24.250913702
 C,0,4.5740026444,23.9943477336,27.1296892905
 H,0,4.4736961509,23.8463795868,28.1936920608
 C,0,1.5891256274,24.7128701545,23.4518732127
 H,0,0.5164231282,24.741744437,23.3377394618
 C,0,10.1451656597,25.0383117495,21.7904028515
 H,0,10.5480203214,25.3540255353,20.8313626214
 H,0,10.4751418785,24.0163261312,21.9797211648
 H,0,10.5636358283,25.6786478373,22.5667011306
 C,0,8.1156436275,25.6505054909,19.328367648
 H,0,7.7420282758,26.6335578684,19.0398928108
 H,0,7.6449417942,24.9069598242,18.6851174717
 H,0,9.1881172492,25.6249550096,19.1523078812
 C,0,9.5310529133,23.5264524708,26.8223637494
 H,0,10.0072508771,23.0210201902,25.9834578317
 H,0,9.639384932,22.9063043963,27.7095746442
 H,0,10.0567215818,24.4677091615,26.9934738508
 C,0,6.9926547646,23.1834411203,28.7662319129
 H,0,6.1485501795,22.5669234304,29.0523113919
 C,0,7.9028426435,23.503093647,29.6799647089
 H,0,8.7339625655,24.1496610247,29.4580041346
 H,0,7.8313038385,23.1485044219,30.6945511349
 C,0,1.7536676841,24.0134353815,28.3771968814
 H,0,1.8165532319,24.9672754478,28.9031820261
 H,0,2.4407529518,23.3190321114,28.8581332288
 H,0,0.7414140964,23.6283277833,28.4793217097
 C,0,-0.1986772875,24.1626442922,25.8299291952
 H,0,-0.6178063069,23.6364004931,24.9800669097
 C,0,-1.0154969128,24.6879458549,26.736531389
 H,0,-0.6500420728,25.2599535227,27.5715102078
 H,0,-2.0849852732,24.587065013,26.6571778815
 C,0,0.350403129,25.1978333062,20.7017027975
 H,0,-0.1766297814,25.9555658183,21.2818592788
 H,0,-0.0804384615,24.2262529322,20.943002884
 H,0,0.1824368872,25.3951380594,19.64598224
 C,0,2.8857009577,25.8102930357,18.7563066646
 H,0,1.8766388725,25.8475661501,18.3540335811
 H,0,3.4504954081,25.0621399708,18.1998201734
 H,0,3.355995058,26.780222706,18.5935042033
 C,0,6.3018244718,27.9815512643,23.8219829699
 H,0,7.2061678285,27.3963060013,23.9490105293
 H,0,6.3902436037,28.9547329879,24.2946905674
 H,0,6.0824237165,28.0954039666,22.7653935588
 S,0,4.8792872044,27.087708551,24.551981034
 H,0,5.4161255262,27.0081988408,25.7785325885
 Recover connectivity data from disk.
 Stoichiometry    C31H32FeN4S(1+,2)
 Framework group  C1[X(C31H32FeN4S)]
 Deg. of freedom   201
 Full point group                 C1      NOp   1
 Largest Abelian subgroup         C1      NOp   1
 Largest concise Abelian subgroup C1      NOp   1
                         Standard orientation:                         
 ---------------------------------------------------------------------
 Center     Atomic      Atomic             Coordinates (Angstroms)
 Number     Number       Type             X           Y           Z
 ---------------------------------------------------------------------
      1         26           0       -0.049406   -0.174877   -0.034327
      2          7           0       -1.856023   -1.028099   -0.155123
      3          7           0       -0.922214    1.616118   -0.342803
      4          7           0        1.723610    0.707062   -0.311371
      5          7           0        0.792118   -1.960123   -0.284239
      6          6           0       -2.129246   -2.361649   -0.180945
      7          6           0       -3.552751   -2.599495   -0.234268
      8          6           0       -4.143835   -1.375301   -0.233823
      9          6           0       -3.071697   -0.406325   -0.194755
     10          6           0       -2.258297    1.892851   -0.394375
     11          6           0       -2.492117    3.310505   -0.470160
     12          6           0       -1.257934    3.903901   -0.460023
     13          6           0       -0.295259    2.826330   -0.370342
     14          6           0        2.004081    2.027372   -0.113361
     15          6           0        3.424533    2.254371   -0.060237
     16          6           0        4.011228    1.035721   -0.267963
     17          6           0        2.927871    0.082053   -0.416325
     18          6           0        2.123529   -2.231146   -0.369044
     19          6           0        2.361908   -3.656483   -0.412209
     20          6           0        1.141332   -4.248483   -0.328427
     21          6           0        0.174674   -3.175002   -0.262184
     22          6           0       -1.185115   -3.371884   -0.141816
     23          1           0       -1.544139   -4.389051   -0.120531
     24          6           0       -3.267457    0.947116   -0.372906
     25          1           0       -4.285120    1.300571   -0.429703
     26          6           0        1.054933    3.031698   -0.164097
     27          1           0        1.392647    4.051717   -0.066273
     28          6           0        3.127215   -1.283819   -0.348636
     29          1           0        4.146568   -1.637781   -0.362067
     30          6           0       -5.590674   -1.024913   -0.288626
     31          1           0       -6.206424   -1.915854   -0.194811
     32          1           0       -5.832432   -0.540786   -1.235386
     33          1           0       -5.851443   -0.340224    0.518211
     34          6           0       -4.177762   -3.950494   -0.284908
     35          1           0       -3.913860   -4.529577    0.600652
     36          1           0       -3.832915   -4.497338   -1.162538
     37          1           0       -5.260951   -3.872510   -0.334602
     38          6           0       -3.827006    3.951446   -0.618474
     39          1           0       -4.457113    3.376401   -1.295436
     40          1           0       -3.713972    4.957086   -1.017693
     41          1           0       -4.336833    4.018148    0.344436
     42          6           0       -0.911719    5.306202   -0.544402
     43          1           0       -0.002908    5.528611   -1.091252
     44          6           0       -1.609517    6.303356   -0.011214
     45          1           0       -2.492668    6.132059    0.579362
     46          1           0       -1.303015    7.329638   -0.125400
     47          6           0        4.078085    3.581407    0.099152
     48          1           0        4.097054    3.878575    1.148798
     49          1           0        3.540264    4.347643   -0.456917
     50          1           0        5.101623    3.539574   -0.266928
     51          6           0        5.414283    0.696875   -0.366179
     52          1           0        5.655227   -0.083510   -1.078790
     53          6           0        6.390572    1.255664    0.340701
     54          1           0        6.196957    1.999621    1.093683
     55          1           0        7.419300    0.964731    0.208966
     56          6           0        3.710595   -4.277518   -0.523269
     57          1           0        4.323823   -4.016200    0.339383
     58          1           0        4.219986   -3.925152   -1.420028
     59          1           0        3.634352   -5.360659   -0.575036
     60          6           0        0.787931   -5.695323   -0.335455
     61          1           0        1.681458   -6.310219   -0.405682
     62          1           0        0.142754   -5.927941   -1.182826
     63          1           0        0.257441   -5.964083    0.578215
     64          6           0       -1.506837   -0.620850    2.985554
     65          1           0       -2.338471   -0.166436    2.457940
     66          1           0       -1.525217   -0.372881    4.042213
     67          1           0       -1.530021   -1.697421    2.851616
     68         16           0        0.073939   -0.043795    2.261940
     69          1           0       -0.176125    1.256965    2.472741
 ---------------------------------------------------------------------
 Rotational constants (GHZ):           0.1106613           0.1095205           0.0598717
 Standard basis: def2TZVP (5D, 7F)
 There are  1546 symmetry adapted cartesian basis functions of A   symmetry.
 There are  1359 symmetry adapted basis functions of A   symmetry.
  1359 basis functions,  2212 primitive gaussians,  1546 cartesian basis functions
   144 alpha electrons      143 beta electrons
       nuclear repulsion energy      5033.0717265100 Hartrees.
 NAtoms=   69 NActive=   69 NUniq=   69 SFac= 1.00D+00 NAtFMM=   60 NAOKFM=T Big=T
 Integral buffers will be    131072 words long.
 Raffenetti 2 integral format.
 Two-electron integral symmetry is turned on.
 R6APFD:  NTU= -4 IXU= 1 FactS= 1.050
 Nuclear repulsion after empirical dispersion term =     5032.9415175637 Hartrees.
 One-electron integrals computed using PRISM.
   1 Symmetry operations used in ECPInt.
 ECPInt:  NShTT=  146611 NPrTT=  457451 LenC2=  115706 LenP2D=  240928.
 LDataN:  DoStor=T MaxTD1= 6 Len=  172
 Number of processors reduced to  26 by ecpmxn.
 NBasis=  1359 RedAO= T EigKep=  4.04D-06  NBF=  1359
 NBsUse=  1359 1.00D-06 EigRej= -1.00D+00 NBFU=  1359
 Initial guess from the checkpoint file:  "2hi4_III_Dn.chk"
 B after Tr=    -0.000000   -0.000000    0.000000
         Rot=    1.000000   -0.000000   -0.000000   -0.000000 Ang=   0.00 deg.
 Initial guess <Sx>= 0.0000 <Sy>= 0.0000 <Sz>= 0.5000 <S**2>= 1.3262 S= 0.7555
 Requested convergence on RMS density matrix=1.00D-08 within 999 cycles.
 Requested convergence on MAX density matrix=1.00D-06.
 Requested convergence on             energy=1.00D-06.
 No special actions if energy rises.
 Restarting incremental Fock formation.
 Restarting incremental Fock formation.
 SCF Done:  E(UAPFD) =  -3080.56076406     A.U. after   53 cycles
            NFock= 53  Conv=0.40D-08     -V/T= 2.0031
 <Sx>= 0.0000 <Sy>= 0.0000 <Sz>= 0.5000 <S**2>= 1.3539 S= 0.7664
 <L.S>=  0.00000000000    
 Annihilation of the first spin contaminant:
 S**2 before annihilation     1.3539,   after     0.7806

 **********************************************************************

            Population analysis using the SCF Density.

 **********************************************************************

 Orbital symmetries:
 Alpha Orbitals:
       Occupied  (A) (A) (A) (A) (A) (A) (A) (A) (A) (A) (A) (A)
                 (A) (A) (A) (A) (A) (A) (A) (A) (A) (A) (A) (A)
                 (A) (A) (A) (A) (A) (A) (A) (A) (A) (A) (A) (A)
                 (A) (A) (A) (A) (A) (A) (A) (A) (A) (A) (A) (A)
                 (A) (A) (A) (A) (A) (A) (A) (A) (A) (A) (A) (A)
                 (A) (A) (A) (A) (A) (A) (A) (A) (A) (A) (A) (A)
                 (A) (A) (A) (A) (A) (A) (A) (A) (A) (A) (A) (A)
                 (A) (A) (A) (A) (A) (A) (A) (A) (A) (A) (A) (A)
                 (A) (A) (A) (A) (A) (A) (A) (A) (A) (A) (A) (A)
                 (A) (A) (A) (A) (A) (A) (A) (A) (A) (A) (A) (A)
                 (A) (A) (A) (A) (A) (A) (A) (A) (A) (A) (A) (A)
                 (A) (A) (A) (A) (A) (A) (A) (A) (A) (A) (A) (A)
       Virtual   (A) (A) (A) (A) (A) (A) (A) (A) (A) (A) (A) (A)
                 (A) (A) (A) (A) (A) (A) (A) (A) (A) (A) (A) (A)
                 (A) (A) (A) (A) (A) (A) (A) (A) (A) (A) (A) (A)
                 (A) (A) (A) (A) (A) (A) (A) (A) (A) (A) (A) (A)
                 (A) (A) (A) (A) (A) (A) (A) (A) (A) (A) (A) (A)
                 (A) (A) (A) (A) (A) (A) (A) (A) (A) (A) (A) (A)
                 (A) (A) (A) (A) (A) (A) (A) (A) (A) (A) (A) (A)
                 (A) (A) (A) (A) (A) (A) (A) (A) (A) (A) (A) (A)
                 (A) (A) (A) (A) (A) (A) (A) (A) (A) (A) (A) (A)
                 (A) (A) (A) (A) (A) (A) (A) (A) (A) (A) (A) (A)
                 (A) (A) (A) (A) (A) (A) (A) (A) (A) (A) (A) (A)
                 (A) (A) (A) (A) (A) (A) (A) (A) (A) (A) (A) (A)
                 (A) (A) (A) (A) (A) (A) (A) (A) (A) (A) (A) (A)
                 (A) (A) (A) (A) (A) (A) (A) (A) (A) (A) (A) (A)
                 (A) (A) (A) (A) (A) (A) (A) (A) (A) (A) (A) (A)
                 (A) (A) (A) (A) (A) (A) (A) (A) (A) (A) (A) (A)
                 (A) (A) (A) (A) (A) (A) (A) (A) (A) (A) (A) (A)
                 (A) (A) (A) (A) (A) (A) (A) (A) (A) (A) (A) (A)
                 (A) (A) (A) (A) (A) (A) (A) (A) (A) (A) (A) (A)
                 (A) (A) (A) (A) (A) (A) (A) (A) (A) (A) (A) (A)
                 (A) (A) (A) (A) (A) (A) (A) (A) (A) (A) (A) (A)
                 (A) (A) (A) (A) (A) (A) (A) (A) (A) (A) (A) (A)
                 (A) (A) (A) (A) (A) (A) (A) (A) (A) (A) (A) (A)
                 (A) (A) (A) (A) (A) (A) (A) (A) (A) (A) (A) (A)
                 (A) (A) (A) (A) (A) (A) (A) (A) (A) (A) (A) (A)
                 (A) (A) (A) (A) (A) (A) (A) (A) (A) (A) (A) (A)
                 (A) (A) (A) (A) (A) (A) (A) (A) (A) (A) (A) (A)
                 (A) (A) (A) (A) (A) (A) (A) (A) (A) (A) (A) (A)
                 (A) (A) (A) (A) (A) (A) (A) (A) (A) (A) (A) (A)
                 (A) (A) (A) (A) (A) (A) (A) (A) (A) (A) (A) (A)
                 (A) (A) (A) (A) (A) (A) (A) (A) (A) (A) (A) (A)
                 (A) (A) (A) (A) (A) (A) (A) (A) (A) (A) (A) (A)
                 (A) (A) (A) (A) (A) (A) (A) (A) (A) (A) (A) (A)
                 (A) (A) (A) (A) (A) (A) (A) (A) (A) (A) (A) (A)
                 (A) (A) (A) (A) (A) (A) (A) (A) (A) (A) (A) (A)
                 (A) (A) (A) (A) (A) (A) (A) (A) (A) (A) (A) (A)
                 (A) (A) (A) (A) (A) (A) (A) (A) (A) (A) (A) (A)
                 (A) (A) (A) (A) (A) (A) (A) (A) (A) (A) (A) (A)
                 (A) (A) (A) (A) (A) (A) (A) (A) (A) (A) (A) (A)
                 (A) (A) (A) (A) (A) (A) (A) (A) (A) (A) (A) (A)
                 (A) (A) (A) (A) (A) (A) (A) (A) (A) (A) (A) (A)
                 (A) (A) (A) (A) (A) (A) (A) (A) (A) (A) (A) (A)
                 (A) (A) (A) (A) (A) (A) (A) (A) (A) (A) (A) (A)
                 (A) (A) (A) (A) (A) (A) (A) (A) (A) (A) (A) (A)
                 (A) (A) (A) (A) (A) (A) (A) (A) (A) (A) (A) (A)
                 (A) (A) (A) (A) (A) (A) (A) (A) (A) (A) (A) (A)
                 (A) (A) (A) (A) (A) (A) (A) (A) (A) (A) (A) (A)
                 (A) (A) (A) (A) (A) (A) (A) (A) (A) (A) (A) (A)
                 (A) (A) (A) (A) (A) (A) (A) (A) (A) (A) (A) (A)
                 (A) (A) (A) (A) (A) (A) (A) (A) (A) (A) (A) (A)
                 (A) (A) (A) (A) (A) (A) (A) (A) (A) (A) (A) (A)
                 (A) (A) (A) (A) (A) (A) (A) (A) (A) (A) (A) (A)
                 (A) (A) (A) (A) (A) (A) (A) (A) (A) (A) (A) (A)
                 (A) (A) (A) (A) (A) (A) (A) (A) (A) (A) (A) (A)
                 (A) (A) (A) (A) (A) (A) (A) (A) (A) (A) (A) (A)
                 (A) (A) (A) (A) (A) (A) (A) (A) (A) (A) (A) (A)
                 (A) (A) (A) (A) (A) (A) (A) (A) (A) (A) (A) (A)
                 (A) (A) (A) (A) (A) (A) (A) (A) (A) (A) (A) (A)
                 (A) (A) (A) (A) (A) (A) (A) (A) (A) (A) (A) (A)
                 (A) (A) (A) (A) (A) (A) (A) (A) (A) (A) (A) (A)
                 (A) (A) (A) (A) (A) (A) (A) (A) (A) (A) (A) (A)
                 (A) (A) (A) (A) (A) (A) (A) (A) (A) (A) (A) (A)
                 (A) (A) (A) (A) (A) (A) (A) (A) (A) (A) (A) (A)
                 (A) (A) (A) (A) (A) (A) (A) (A) (A) (A) (A) (A)
                 (A) (A) (A) (A) (A) (A) (A) (A) (A) (A) (A) (A)
                 (A) (A) (A) (A) (A) (A) (A) (A) (A) (A) (A) (A)
                 (A) (A) (A) (A) (A) (A) (A) (A) (A) (A) (A) (A)
                 (A) (A) (A) (A) (A) (A) (A) (A) (A) (A) (A) (A)
                 (A) (A) (A) (A) (A) (A) (A) (A) (A) (A) (A) (A)
                 (A) (A) (A) (A) (A) (A) (A) (A) (A) (A) (A) (A)
                 (A) (A) (A) (A) (A) (A) (A) (A) (A) (A) (A) (A)
                 (A) (A) (A) (A) (A) (A) (A) (A) (A) (A) (A) (A)
                 (A) (A) (A) (A) (A) (A) (A) (A) (A) (A) (A) (A)
                 (A) (A) (A) (A) (A) (A) (A) (A) (A) (A) (A) (A)
                 (A) (A) (A) (A) (A) (A) (A) (A) (A) (A) (A) (A)
                 (A) (A) (A) (A) (A) (A) (A) (A) (A) (A) (A) (A)
                 (A) (A) (A) (A) (A) (A) (A) (A) (A) (A) (A) (A)
                 (A) (A) (A) (A) (A) (A) (A) (A) (A) (A) (A) (A)
                 (A) (A) (A) (A) (A) (A) (A) (A) (A) (A) (A) (A)
                 (A) (A) (A) (A) (A) (A) (A) (A) (A) (A) (A) (A)
                 (A) (A) (A) (A) (A) (A) (A) (A) (A) (A) (A) (A)
                 (A) (A) (A) (A) (A) (A) (A) (A) (A) (A) (A) (A)
                 (A) (A) (A) (A) (A) (A) (A) (A) (A) (A) (A) (A)
                 (A) (A) (A) (A) (A) (A) (A) (A) (A) (A) (A) (A)
                 (A) (A) (A) (A) (A) (A) (A) (A) (A) (A) (A) (A)
                 (A) (A) (A) (A) (A) (A) (A) (A) (A) (A) (A) (A)
                 (A) (A) (A) (A) (A) (A) (A) (A) (A) (A) (A) (A)
                 (A) (A) (A) (A) (A) (A) (A) (A) (A) (A) (A) (A)
                 (A) (A) (A) (A) (A) (A) (A) (A) (A) (A) (A) (A)
                 (A) (A) (A) (A) (A) (A) (A) (A) (A) (A) (A) (A)
                 (A) (A) (A) (A) (A) (A) (A) (A) (A) (A) (A) (A)
                 (A) (A) (A) (A) (A) (A) (A) (A) (A) (A) (A) (A)
                 (A) (A) (A) (A) (A) (A) (A) (A) (A) (A) (A) (A)
                 (A) (A) (A) (A) (A) (A) (A) (A) (A) (A) (A) (A)
                 (A) (A) (A) (A) (A) (A) (A) (A) (A) (A) (A) (A)
                 (A) (A) (A) (A) (A) (A) (A) (A) (A) (A) (A) (A)
                 (A) (A) (A) (A) (A) (A) (A) (A) (A) (A) (A) (A)
                 (A) (A) (A) (A) (A) (A) (A) (A) (A) (A) (A) (A)
                 (A) (A) (A) (A) (A) (A) (A) (A) (A) (A) (A) (A)
                 (A) (A) (A) (A) (A) (A) (A) (A) (A) (A) (A) (A)
                 (A) (A) (A) (A) (A) (A) (A) (A) (A) (A) (A) (A)
                 (A) (A) (A)
 Beta  Orbitals:
       Occupied  (A) (A) (A) (A) (A) (A) (A) (A) (A) (A) (A) (A)
                 (A) (A) (A) (A) (A) (A) (A) (A) (A) (A) (A) (A)
                 (A) (A) (A) (A) (A) (A) (A) (A) (A) (A) (A) (A)
                 (A) (A) (A) (A) (A) (A) (A) (A) (A) (A) (A) (A)
                 (A) (A) (A) (A) (A) (A) (A) (A) (A) (A) (A) (A)
                 (A) (A) (A) (A) (A) (A) (A) (A) (A) (A) (A) (A)
                 (A) (A) (A) (A) (A) (A) (A) (A) (A) (A) (A) (A)
                 (A) (A) (A) (A) (A) (A) (A) (A) (A) (A) (A) (A)
                 (A) (A) (A) (A) (A) (A) (A) (A) (A) (A) (A) (A)
                 (A) (A) (A) (A) (A) (A) (A) (A) (A) (A) (A) (A)
                 (A) (A) (A) (A) (A) (A) (A) (A) (A) (A) (A) (A)
                 (A) (A) (A) (A) (A) (A) (A) (A) (A) (A) (A)
       Virtual   (A) (A) (A) (A) (A) (A) (A) (A) (A) (A) (A) (A)
                 (A) (A) (A) (A) (A) (A) (A) (A) (A) (A) (A) (A)
                 (A) (A) (A) (A) (A) (A) (A) (A) (A) (A) (A) (A)
                 (A) (A) (A) (A) (A) (A) (A) (A) (A) (A) (A) (A)
                 (A) (A) (A) (A) (A) (A) (A) (A) (A) (A) (A) (A)
                 (A) (A) (A) (A) (A) (A) (A) (A) (A) (A) (A) (A)
                 (A) (A) (A) (A) (A) (A) (A) (A) (A) (A) (A) (A)
                 (A) (A) (A) (A) (A) (A) (A) (A) (A) (A) (A) (A)
                 (A) (A) (A) (A) (A) (A) (A) (A) (A) (A) (A) (A)
                 (A) (A) (A) (A) (A) (A) (A) (A) (A) (A) (A) (A)
                 (A) (A) (A) (A) (A) (A) (A) (A) (A) (A) (A) (A)
                 (A) (A) (A) (A) (A) (A) (A) (A) (A) (A) (A) (A)
                 (A) (A) (A) (A) (A) (A) (A) (A) (A) (A) (A) (A)
                 (A) (A) (A) (A) (A) (A) (A) (A) (A) (A) (A) (A)
                 (A) (A) (A) (A) (A) (A) (A) (A) (A) (A) (A) (A)
                 (A) (A) (A) (A) (A) (A) (A) (A) (A) (A) (A) (A)
                 (A) (A) (A) (A) (A) (A) (A) (A) (A) (A) (A) (A)
                 (A) (A) (A) (A) (A) (A) (A) (A) (A) (A) (A) (A)
                 (A) (A) (A) (A) (A) (A) (A) (A) (A) (A) (A) (A)
                 (A) (A) (A) (A) (A) (A) (A) (A) (A) (A) (A) (A)
                 (A) (A) (A) (A) (A) (A) (A) (A) (A) (A) (A) (A)
                 (A) (A) (A) (A) (A) (A) (A) (A) (A) (A) (A) (A)
                 (A) (A) (A) (A) (A) (A) (A) (A) (A) (A) (A) (A)
                 (A) (A) (A) (A) (A) (A) (A) (A) (A) (A) (A) (A)
                 (A) (A) (A) (A) (A) (A) (A) (A) (A) (A) (A) (A)
                 (A) (A) (A) (A) (A) (A) (A) (A) (A) (A) (A) (A)
                 (A) (A) (A) (A) (A) (A) (A) (A) (A) (A) (A) (A)
                 (A) (A) (A) (A) (A) (A) (A) (A) (A) (A) (A) (A)
                 (A) (A) (A) (A) (A) (A) (A) (A) (A) (A) (A) (A)
                 (A) (A) (A) (A) (A) (A) (A) (A) (A) (A) (A) (A)
                 (A) (A) (A) (A) (A) (A) (A) (A) (A) (A) (A) (A)
                 (A) (A) (A) (A) (A) (A) (A) (A) (A) (A) (A) (A)
                 (A) (A) (A) (A) (A) (A) (A) (A) (A) (A) (A) (A)
                 (A) (A) (A) (A) (A) (A) (A) (A) (A) (A) (A) (A)
                 (A) (A) (A) (A) (A) (A) (A) (A) (A) (A) (A) (A)
                 (A) (A) (A) (A) (A) (A) (A) (A) (A) (A) (A) (A)
                 (A) (A) (A) (A) (A) (A) (A) (A) (A) (A) (A) (A)
                 (A) (A) (A) (A) (A) (A) (A) (A) (A) (A) (A) (A)
                 (A) (A) (A) (A) (A) (A) (A) (A) (A) (A) (A) (A)
                 (A) (A) (A) (A) (A) (A) (A) (A) (A) (A) (A) (A)
                 (A) (A) (A) (A) (A) (A) (A) (A) (A) (A) (A) (A)
                 (A) (A) (A) (A) (A) (A) (A) (A) (A) (A) (A) (A)
                 (A) (A) (A) (A) (A) (A) (A) (A) (A) (A) (A) (A)
                 (A) (A) (A) (A) (A) (A) (A) (A) (A) (A) (A) (A)
                 (A) (A) (A) (A) (A) (A) (A) (A) (A) (A) (A) (A)
                 (A) (A) (A) (A) (A) (A) (A) (A) (A) (A) (A) (A)
                 (A) (A) (A) (A) (A) (A) (A) (A) (A) (A) (A) (A)
                 (A) (A) (A) (A) (A) (A) (A) (A) (A) (A) (A) (A)
                 (A) (A) (A) (A) (A) (A) (A) (A) (A) (A) (A) (A)
                 (A) (A) (A) (A) (A) (A) (A) (A) (A) (A) (A) (A)
                 (A) (A) (A) (A) (A) (A) (A) (A) (A) (A) (A) (A)
                 (A) (A) (A) (A) (A) (A) (A) (A) (A) (A) (A) (A)
                 (A) (A) (A) (A) (A) (A) (A) (A) (A) (A) (A) (A)
                 (A) (A) (A) (A) (A) (A) (A) (A) (A) (A) (A) (A)
                 (A) (A) (A) (A) (A) (A) (A) (A) (A) (A) (A) (A)
                 (A) (A) (A) (A) (A) (A) (A) (A) (A) (A) (A) (A)
                 (A) (A) (A) (A) (A) (A) (A) (A) (A) (A) (A) (A)
                 (A) (A) (A) (A) (A) (A) (A) (A) (A) (A) (A) (A)
                 (A) (A) (A) (A) (A) (A) (A) (A) (A) (A) (A) (A)
                 (A) (A) (A) (A) (A) (A) (A) (A) (A) (A) (A) (A)
                 (A) (A) (A) (A) (A) (A) (A) (A) (A) (A) (A) (A)
                 (A) (A) (A) (A) (A) (A) (A) (A) (A) (A) (A) (A)
                 (A) (A) (A) (A) (A) (A) (A) (A) (A) (A) (A) (A)
                 (A) (A) (A) (A) (A) (A) (A) (A) (A) (A) (A) (A)
                 (A) (A) (A) (A) (A) (A) (A) (A) (A) (A) (A) (A)
                 (A) (A) (A) (A) (A) (A) (A) (A) (A) (A) (A) (A)
                 (A) (A) (A) (A) (A) (A) (A) (A) (A) (A) (A) (A)
                 (A) (A) (A) (A) (A) (A) (A) (A) (A) (A) (A) (A)
                 (A) (A) (A) (A) (A) (A) (A) (A) (A) (A) (A) (A)
                 (A) (A) (A) (A) (A) (A) (A) (A) (A) (A) (A) (A)
                 (A) (A) (A) (A) (A) (A) (A) (A) (A) (A) (A) (A)
                 (A) (A) (A) (A) (A) (A) (A) (A) (A) (A) (A) (A)
                 (A) (A) (A) (A) (A) (A) (A) (A) (A) (A) (A) (A)
                 (A) (A) (A) (A) (A) (A) (A) (A) (A) (A) (A) (A)
                 (A) (A) (A) (A) (A) (A) (A) (A) (A) (A) (A) (A)
                 (A) (A) (A) (A) (A) (A) (A) (A) (A) (A) (A) (A)
                 (A) (A) (A) (A) (A) (A) (A) (A) (A) (A) (A) (A)
                 (A) (A) (A) (A) (A) (A) (A) (A) (A) (A) (A) (A)
                 (A) (A) (A) (A) (A) (A) (A) (A) (A) (A) (A) (A)
                 (A) (A) (A) (A) (A) (A) (A) (A) (A) (A) (A) (A)
                 (A) (A) (A) (A) (A) (A) (A) (A) (A) (A) (A) (A)
                 (A) (A) (A) (A) (A) (A) (A) (A) (A) (A) (A) (A)
                 (A) (A) (A) (A) (A) (A) (A) (A) (A) (A) (A) (A)
                 (A) (A) (A) (A) (A) (A) (A) (A) (A) (A) (A) (A)
                 (A) (A) (A) (A) (A) (A) (A) (A) (A) (A) (A) (A)
                 (A) (A) (A) (A) (A) (A) (A) (A) (A) (A) (A) (A)
                 (A) (A) (A) (A) (A) (A) (A) (A) (A) (A) (A) (A)
                 (A) (A) (A) (A) (A) (A) (A) (A) (A) (A) (A) (A)
                 (A) (A) (A) (A) (A) (A) (A) (A) (A) (A) (A) (A)
                 (A) (A) (A) (A) (A) (A) (A) (A) (A) (A) (A) (A)
                 (A) (A) (A) (A) (A) (A) (A) (A) (A) (A) (A) (A)
                 (A) (A) (A) (A) (A) (A) (A) (A) (A) (A) (A) (A)
                 (A) (A) (A) (A) (A) (A) (A) (A) (A) (A) (A) (A)
                 (A) (A) (A) (A) (A) (A) (A) (A) (A) (A) (A) (A)
                 (A) (A) (A) (A) (A) (A) (A) (A) (A) (A) (A) (A)
                 (A) (A) (A) (A) (A) (A) (A) (A) (A) (A) (A) (A)
                 (A) (A) (A) (A) (A) (A) (A) (A) (A) (A) (A) (A)
                 (A) (A) (A) (A) (A) (A) (A) (A) (A) (A) (A) (A)
                 (A) (A) (A) (A) (A) (A) (A) (A) (A) (A) (A) (A)
                 (A) (A) (A) (A) (A) (A) (A) (A) (A) (A) (A) (A)
                 (A) (A) (A) (A) (A) (A) (A) (A) (A) (A) (A) (A)
                 (A) (A) (A) (A)
 The electronic state is 2-A.
 Alpha  occ. eigenvalues -- -256.39339 -89.11452 -30.26102 -26.10331 -26.09754
 Alpha  occ. eigenvalues --  -26.09077 -14.47989 -14.47957 -14.47895 -14.47775
 Alpha  occ. eigenvalues --  -10.35150 -10.34133 -10.34122 -10.34088 -10.34030
 Alpha  occ. eigenvalues --  -10.34027 -10.34018 -10.33930 -10.33920 -10.31328
 Alpha  occ. eigenvalues --  -10.31285 -10.31104 -10.31041 -10.31030 -10.30955
 Alpha  occ. eigenvalues --  -10.30829 -10.30790 -10.30776 -10.30752 -10.30684
 Alpha  occ. eigenvalues --  -10.30531 -10.29727 -10.29485 -10.28876 -10.28853
 Alpha  occ. eigenvalues --  -10.28744 -10.28608 -10.28594 -10.28479 -10.28444
 Alpha  occ. eigenvalues --  -10.28188  -8.14228  -6.08747  -6.08488  -6.08014
 Alpha  occ. eigenvalues --   -3.65504  -2.43326  -2.41667  -2.40067  -1.10393
 Alpha  occ. eigenvalues --   -1.09385  -1.09330  -1.08344  -0.95013  -0.94441
 Alpha  occ. eigenvalues --   -0.93402  -0.93095  -0.92673  -0.92370  -0.92111
 Alpha  occ. eigenvalues --   -0.92055  -0.87897  -0.86681  -0.86609  -0.85456
 Alpha  occ. eigenvalues --   -0.84013  -0.82335  -0.81279  -0.80049  -0.79652
 Alpha  occ. eigenvalues --   -0.79537  -0.79248  -0.76502  -0.76430  -0.71827
 Alpha  occ. eigenvalues --   -0.71154  -0.70248  -0.69620  -0.66479  -0.65761
 Alpha  occ. eigenvalues --   -0.64788  -0.64608  -0.63157  -0.63121  -0.62727
 Alpha  occ. eigenvalues --   -0.60564  -0.60299  -0.59541  -0.59425  -0.58143
 Alpha  occ. eigenvalues --   -0.57099  -0.56440  -0.55954  -0.55882  -0.55567
 Alpha  occ. eigenvalues --   -0.55089  -0.54666  -0.54604  -0.54300  -0.54027
 Alpha  occ. eigenvalues --   -0.53650  -0.53264  -0.53100  -0.52227  -0.51747
 Alpha  occ. eigenvalues --   -0.51721  -0.51587  -0.51468  -0.51421  -0.51169
 Alpha  occ. eigenvalues --   -0.51059  -0.50861  -0.50371  -0.50262  -0.49807
 Alpha  occ. eigenvalues --   -0.49489  -0.49251  -0.49019  -0.48823  -0.48445
 Alpha  occ. eigenvalues --   -0.47987  -0.47620  -0.47383  -0.46466  -0.46075
 Alpha  occ. eigenvalues --   -0.45704  -0.44704  -0.44502  -0.44242  -0.43944
 Alpha  occ. eigenvalues --   -0.43454  -0.42834  -0.42352  -0.41173  -0.41025
 Alpha  occ. eigenvalues --   -0.40500  -0.38785  -0.38436  -0.35799  -0.34751
 Alpha  occ. eigenvalues --   -0.33960  -0.33382  -0.31688  -0.30311
 Alpha virt. eigenvalues --   -0.24087  -0.19164  -0.18907  -0.16926  -0.13292
 Alpha virt. eigenvalues --   -0.12056  -0.09946  -0.08816  -0.08289  -0.06980
 Alpha virt. eigenvalues --   -0.05819  -0.04690  -0.04105  -0.03760  -0.03487
 Alpha virt. eigenvalues --   -0.03161  -0.03017  -0.02521  -0.01925  -0.01655
 Alpha virt. eigenvalues --   -0.01074  -0.00772  -0.00394  -0.00244   0.00586
 Alpha virt. eigenvalues --    0.00729   0.00951   0.01478   0.01699   0.01977
 Alpha virt. eigenvalues --    0.02108   0.02229   0.02385   0.02735   0.03049
 Alpha virt. eigenvalues --    0.03142   0.03467   0.03757   0.04118   0.04332
 Alpha virt. eigenvalues --    0.04512   0.04931   0.05048   0.05295   0.05390
 Alpha virt. eigenvalues --    0.05806   0.06095   0.06323   0.06610   0.06738
 Alpha virt. eigenvalues --    0.06989   0.07097   0.07190   0.07615   0.07668
 Alpha virt. eigenvalues --    0.07934   0.08123   0.08157   0.08644   0.08820
 Alpha virt. eigenvalues --    0.09111   0.09577   0.10037   0.10259   0.10379
 Alpha virt. eigenvalues --    0.10655   0.10887   0.11196   0.11507   0.11667
 Alpha virt. eigenvalues --    0.11750   0.11998   0.12636   0.12802   0.13127
 Alpha virt. eigenvalues --    0.13430   0.13682   0.14044   0.14457   0.14866
 Alpha virt. eigenvalues --    0.15040   0.15893   0.16222   0.16308   0.16611
 Alpha virt. eigenvalues --    0.16719   0.16952   0.16987   0.17298   0.17571
 Alpha virt. eigenvalues --    0.18210   0.18377   0.18856   0.19019   0.19270
 Alpha virt. eigenvalues --    0.19691   0.19827   0.20087   0.20180   0.20449
 Alpha virt. eigenvalues --    0.20577   0.20959   0.21518   0.21662   0.21867
 Alpha virt. eigenvalues --    0.22281   0.22747   0.23027   0.23277   0.23452
 Alpha virt. eigenvalues --    0.23586   0.23670   0.23892   0.24479   0.24768
 Alpha virt. eigenvalues --    0.25345   0.25606   0.25840   0.26145   0.26473
 Alpha virt. eigenvalues --    0.26857   0.27251   0.27646   0.28181   0.28298
 Alpha virt. eigenvalues --    0.28647   0.28917   0.29083   0.29332   0.29528
 Alpha virt. eigenvalues --    0.29894   0.29986   0.30158   0.30344   0.30421
 Alpha virt. eigenvalues --    0.30829   0.31035   0.31316   0.31529   0.31637
 Alpha virt. eigenvalues --    0.31843   0.32292   0.32316   0.33030   0.33147
 Alpha virt. eigenvalues --    0.33305   0.33591   0.34197   0.34373   0.34586
 Alpha virt. eigenvalues --    0.35192   0.35420   0.35487   0.35640   0.35919
 Alpha virt. eigenvalues --    0.36100   0.36484   0.36584   0.36679   0.36919
 Alpha virt. eigenvalues --    0.37264   0.37573   0.37746   0.38094   0.38353
 Alpha virt. eigenvalues --    0.38637   0.38987   0.39233   0.39299   0.39490
 Alpha virt. eigenvalues --    0.39895   0.40026   0.40162   0.40249   0.40810
 Alpha virt. eigenvalues --    0.40877   0.41078   0.41307   0.41636   0.41736
 Alpha virt. eigenvalues --    0.41969   0.42144   0.42489   0.42604   0.42847
 Alpha virt. eigenvalues --    0.43019   0.43184   0.43481   0.43683   0.44303
 Alpha virt. eigenvalues --    0.44731   0.44988   0.45023   0.45263   0.45466
 Alpha virt. eigenvalues --    0.45979   0.46176   0.46564   0.46834   0.47188
 Alpha virt. eigenvalues --    0.47399   0.48182   0.48349   0.48637   0.48892
 Alpha virt. eigenvalues --    0.49428   0.49858   0.50307   0.50454   0.50779
 Alpha virt. eigenvalues --    0.51337   0.51479   0.51888   0.52386   0.52645
 Alpha virt. eigenvalues --    0.52918   0.53115   0.53369   0.53622   0.53829
 Alpha virt. eigenvalues --    0.54123   0.54402   0.54684   0.55255   0.55410
 Alpha virt. eigenvalues --    0.55943   0.56403   0.56776   0.57244   0.57345
 Alpha virt. eigenvalues --    0.57691   0.57845   0.57995   0.58350   0.58890
 Alpha virt. eigenvalues --    0.59275   0.59551   0.59868   0.59954   0.60157
 Alpha virt. eigenvalues --    0.60716   0.60833   0.61450   0.61746   0.62027
 Alpha virt. eigenvalues --    0.62141   0.62562   0.62988   0.63096   0.63542
 Alpha virt. eigenvalues --    0.63806   0.64306   0.64608   0.64968   0.65302
 Alpha virt. eigenvalues --    0.65919   0.66514   0.66872   0.67067   0.67271
 Alpha virt. eigenvalues --    0.67643   0.67882   0.68604   0.68733   0.69111
 Alpha virt. eigenvalues --    0.69546   0.70256   0.70332   0.71033   0.71177
 Alpha virt. eigenvalues --    0.71534   0.72029   0.72684   0.72980   0.73590
 Alpha virt. eigenvalues --    0.74384   0.74606   0.75034   0.75715   0.75806
 Alpha virt. eigenvalues --    0.76224   0.76662   0.77245   0.77315   0.77705
 Alpha virt. eigenvalues --    0.77903   0.78800   0.78995   0.79392   0.80057
 Alpha virt. eigenvalues --    0.80348   0.80963   0.81824   0.81890   0.82244
 Alpha virt. eigenvalues --    0.82443   0.82866   0.83515   0.83666   0.84012
 Alpha virt. eigenvalues --    0.84466   0.84784   0.85124   0.85529   0.86128
 Alpha virt. eigenvalues --    0.86344   0.86434   0.86688   0.87072   0.87554
 Alpha virt. eigenvalues --    0.88111   0.88513   0.88846   0.89235   0.89254
 Alpha virt. eigenvalues --    0.89455   0.90172   0.90329   0.90517   0.90961
 Alpha virt. eigenvalues --    0.91332   0.91402   0.92192   0.92277   0.92803
 Alpha virt. eigenvalues --    0.93127   0.93424   0.93651   0.94252   0.94630
 Alpha virt. eigenvalues --    0.95123   0.95427   0.95893   0.96613   0.97224
 Alpha virt. eigenvalues --    0.97345   0.97516   0.98461   0.98741   0.99285
 Alpha virt. eigenvalues --    0.99899   0.99970   1.01007   1.01471   1.01696
 Alpha virt. eigenvalues --    1.02737   1.03022   1.03585   1.04675   1.05018
 Alpha virt. eigenvalues --    1.05441   1.05572   1.06578   1.06948   1.07100
 Alpha virt. eigenvalues --    1.07949   1.08151   1.08383   1.08898   1.09021
 Alpha virt. eigenvalues --    1.09237   1.09899   1.10018   1.10523   1.11116
 Alpha virt. eigenvalues --    1.11540   1.11720   1.12297   1.12843   1.13841
 Alpha virt. eigenvalues --    1.14221   1.14764   1.15350   1.15704   1.15838
 Alpha virt. eigenvalues --    1.16255   1.16554   1.17117   1.17394   1.17485
 Alpha virt. eigenvalues --    1.18047   1.18409   1.18462   1.19100   1.19244
 Alpha virt. eigenvalues --    1.19576   1.20760   1.21248   1.21413   1.22554
 Alpha virt. eigenvalues --    1.23372   1.23824   1.25183   1.25891   1.26105
 Alpha virt. eigenvalues --    1.26761   1.27372   1.27586   1.27987   1.29592
 Alpha virt. eigenvalues --    1.29926   1.30151   1.31084   1.31295   1.32661
 Alpha virt. eigenvalues --    1.33005   1.33399   1.33688   1.34141   1.34679
 Alpha virt. eigenvalues --    1.35187   1.35572   1.35774   1.36381   1.36636
 Alpha virt. eigenvalues --    1.36898   1.37324   1.37533   1.37923   1.38400
 Alpha virt. eigenvalues --    1.38683   1.39503   1.39592   1.40270   1.40570
 Alpha virt. eigenvalues --    1.41080   1.41162   1.41776   1.42214   1.42308
 Alpha virt. eigenvalues --    1.42709   1.42876   1.43311   1.43493   1.43870
 Alpha virt. eigenvalues --    1.44252   1.44314   1.44624   1.44934   1.45609
 Alpha virt. eigenvalues --    1.45789   1.45938   1.46267   1.46390   1.46660
 Alpha virt. eigenvalues --    1.47061   1.47438   1.47695   1.47876   1.48032
 Alpha virt. eigenvalues --    1.48460   1.48586   1.49079   1.49362   1.49644
 Alpha virt. eigenvalues --    1.49904   1.50489   1.50938   1.50983   1.51623
 Alpha virt. eigenvalues --    1.52354   1.52672   1.52878   1.53238   1.53514
 Alpha virt. eigenvalues --    1.53767   1.53989   1.54285   1.54610   1.55292
 Alpha virt. eigenvalues --    1.55446   1.55578   1.55941   1.56556   1.56874
 Alpha virt. eigenvalues --    1.57241   1.57477   1.57764   1.58225   1.58528
 Alpha virt. eigenvalues --    1.58815   1.59205   1.59266   1.59774   1.60041
 Alpha virt. eigenvalues --    1.60760   1.61291   1.61754   1.61966   1.62374
 Alpha virt. eigenvalues --    1.62630   1.62720   1.62988   1.63692   1.64757
 Alpha virt. eigenvalues --    1.64853   1.65300   1.66491   1.67079   1.67248
 Alpha virt. eigenvalues --    1.67992   1.69105   1.69372   1.69932   1.70366
 Alpha virt. eigenvalues --    1.70914   1.71214   1.72024   1.72451   1.72885
 Alpha virt. eigenvalues --    1.73112   1.73530   1.73973   1.74292   1.75112
 Alpha virt. eigenvalues --    1.75940   1.76459   1.77066   1.77404   1.77815
 Alpha virt. eigenvalues --    1.78143   1.78509   1.78762   1.79403   1.79782
 Alpha virt. eigenvalues --    1.80140   1.81108   1.81371   1.81919   1.82721
 Alpha virt. eigenvalues --    1.83174   1.83549   1.84214   1.84516   1.85384
 Alpha virt. eigenvalues --    1.85732   1.85934   1.86256   1.86761   1.87573
 Alpha virt. eigenvalues --    1.88232   1.88372   1.88585   1.89374   1.89690
 Alpha virt. eigenvalues --    1.90079   1.90659   1.91224   1.92068   1.92113
 Alpha virt. eigenvalues --    1.92770   1.93337   1.94317   1.94749   1.95527
 Alpha virt. eigenvalues --    1.95639   1.96283   1.97162   1.97267   1.98060
 Alpha virt. eigenvalues --    1.98582   1.99068   1.99875   2.00234   2.00730
 Alpha virt. eigenvalues --    2.01157   2.01703   2.02252   2.02570   2.03048
 Alpha virt. eigenvalues --    2.03508   2.04107   2.04285   2.04745   2.05608
 Alpha virt. eigenvalues --    2.06002   2.06399   2.06902   2.07984   2.08219
 Alpha virt. eigenvalues --    2.08282   2.09313   2.09559   2.10207   2.10783
 Alpha virt. eigenvalues --    2.11090   2.11446   2.12349   2.13066   2.13875
 Alpha virt. eigenvalues --    2.14035   2.14240   2.14587   2.15507   2.15938
 Alpha virt. eigenvalues --    2.16589   2.16770   2.17358   2.17472   2.18051
 Alpha virt. eigenvalues --    2.18209   2.19420   2.19731   2.20065   2.20370
 Alpha virt. eigenvalues --    2.20998   2.21362   2.22157   2.23261   2.24080
 Alpha virt. eigenvalues --    2.24167   2.24693   2.25254   2.25428   2.25880
 Alpha virt. eigenvalues --    2.26244   2.26789   2.27225   2.27453   2.27769
 Alpha virt. eigenvalues --    2.27940   2.28397   2.29142   2.29411   2.29451
 Alpha virt. eigenvalues --    2.30148   2.30847   2.31140   2.32003   2.32437
 Alpha virt. eigenvalues --    2.32864   2.33240   2.33329   2.34169   2.34565
 Alpha virt. eigenvalues --    2.34605   2.34927   2.35173   2.35968   2.36594
 Alpha virt. eigenvalues --    2.36797   2.37535   2.38136   2.38518   2.39967
 Alpha virt. eigenvalues --    2.40330   2.41601   2.42180   2.42837   2.42970
 Alpha virt. eigenvalues --    2.43224   2.43595   2.43822   2.43981   2.44744
 Alpha virt. eigenvalues --    2.44882   2.45322   2.45781   2.46348   2.46845
 Alpha virt. eigenvalues --    2.47277   2.47525   2.47643   2.48137   2.48572
 Alpha virt. eigenvalues --    2.49070   2.49513   2.49834   2.50228   2.50300
 Alpha virt. eigenvalues --    2.50645   2.51432   2.51816   2.52185   2.52413
 Alpha virt. eigenvalues --    2.52933   2.53942   2.54608   2.54689   2.55661
 Alpha virt. eigenvalues --    2.55797   2.55935   2.56344   2.56505   2.56963
 Alpha virt. eigenvalues --    2.57232   2.57661   2.58556   2.58846   2.59325
 Alpha virt. eigenvalues --    2.59368   2.60118   2.60659   2.60878   2.61898
 Alpha virt. eigenvalues --    2.62237   2.62448   2.62811   2.63872   2.64226
 Alpha virt. eigenvalues --    2.64806   2.64852   2.65732   2.66382   2.66651
 Alpha virt. eigenvalues --    2.67267   2.68169   2.68268   2.68917   2.69254
 Alpha virt. eigenvalues --    2.69347   2.70613   2.70988   2.71273   2.71351
 Alpha virt. eigenvalues --    2.71953   2.72455   2.72687   2.73445   2.73814
 Alpha virt. eigenvalues --    2.74229   2.74548   2.75545   2.75715   2.75897
 Alpha virt. eigenvalues --    2.76060   2.76505   2.77139   2.77542   2.77715
 Alpha virt. eigenvalues --    2.78457   2.78842   2.79622   2.79842   2.80347
 Alpha virt. eigenvalues --    2.81301   2.81576   2.82288   2.82489   2.82784
 Alpha virt. eigenvalues --    2.82865   2.83266   2.84273   2.84417   2.84619
 Alpha virt. eigenvalues --    2.85361   2.85742   2.86217   2.86584   2.87218
 Alpha virt. eigenvalues --    2.87733   2.88152   2.88948   2.89271   2.89992
 Alpha virt. eigenvalues --    2.90368   2.90618   2.91008   2.91645   2.92322
 Alpha virt. eigenvalues --    2.92883   2.93379   2.93736   2.94138   2.94567
 Alpha virt. eigenvalues --    2.95208   2.95493   2.95562   2.96207   2.96352
 Alpha virt. eigenvalues --    2.97152   2.97496   2.97644   2.98211   2.98826
 Alpha virt. eigenvalues --    2.98967   2.99293   2.99356   2.99733   3.00086
 Alpha virt. eigenvalues --    3.00624   3.01045   3.01140   3.01380   3.01923
 Alpha virt. eigenvalues --    3.02387   3.02779   3.02911   3.03454   3.03739
 Alpha virt. eigenvalues --    3.04348   3.04581   3.05185   3.05865   3.05947
 Alpha virt. eigenvalues --    3.06562   3.06708   3.06861   3.07231   3.07582
 Alpha virt. eigenvalues --    3.07908   3.08478   3.08891   3.09142   3.09352
 Alpha virt. eigenvalues --    3.09590   3.09983   3.10324   3.10451   3.10737
 Alpha virt. eigenvalues --    3.10801   3.11567   3.11827   3.12170   3.12568
 Alpha virt. eigenvalues --    3.12621   3.13140   3.13804   3.14184   3.14578
 Alpha virt. eigenvalues --    3.14682   3.14925   3.15201   3.15805   3.16220
 Alpha virt. eigenvalues --    3.16782   3.17019   3.17067   3.17750   3.18319
 Alpha virt. eigenvalues --    3.18545   3.18650   3.19033   3.19574   3.19778
 Alpha virt. eigenvalues --    3.20123   3.20562   3.20851   3.21038   3.21156
 Alpha virt. eigenvalues --    3.21457   3.21698   3.21979   3.22402   3.22885
 Alpha virt. eigenvalues --    3.23056   3.23334   3.23683   3.23950   3.24017
 Alpha virt. eigenvalues --    3.24367   3.24638   3.24940   3.24995   3.25485
 Alpha virt. eigenvalues --    3.25689   3.26234   3.26260   3.26715   3.27032
 Alpha virt. eigenvalues --    3.27073   3.27497   3.27733   3.28045   3.28416
 Alpha virt. eigenvalues --    3.28655   3.29122   3.29589   3.29888   3.30643
 Alpha virt. eigenvalues --    3.30827   3.31194   3.31594   3.32071   3.32207
 Alpha virt. eigenvalues --    3.32481   3.32794   3.33256   3.33543   3.34282
 Alpha virt. eigenvalues --    3.35048   3.35178   3.35450   3.36156   3.37009
 Alpha virt. eigenvalues --    3.37480   3.38341   3.38559   3.38803   3.39037
 Alpha virt. eigenvalues --    3.39837   3.40202   3.41366   3.41499   3.41926
 Alpha virt. eigenvalues --    3.42865   3.43336   3.43703   3.44162   3.44327
 Alpha virt. eigenvalues --    3.45611   3.45843   3.46670   3.46855   3.47654
 Alpha virt. eigenvalues --    3.48129   3.48689   3.48879   3.49605   3.49647
 Alpha virt. eigenvalues --    3.49918   3.50822   3.52016   3.52438   3.52756
 Alpha virt. eigenvalues --    3.52897   3.53962   3.54681   3.55075   3.55615
 Alpha virt. eigenvalues --    3.55964   3.56404   3.56906   3.57744   3.58222
 Alpha virt. eigenvalues --    3.58383   3.59444   3.59629   3.60213   3.60494
 Alpha virt. eigenvalues --    3.60868   3.61534   3.61855   3.61988   3.62173
 Alpha virt. eigenvalues --    3.63151   3.63271   3.63564   3.63883   3.64193
 Alpha virt. eigenvalues --    3.65082   3.65462   3.66193   3.66726   3.67339
 Alpha virt. eigenvalues --    3.67638   3.68879   3.69435   3.70705   3.70930
 Alpha virt. eigenvalues --    3.71406   3.71679   3.73016   3.73381   3.74318
 Alpha virt. eigenvalues --    3.74557   3.75072   3.75574   3.76002   3.76674
 Alpha virt. eigenvalues --    3.77215   3.77799   3.79140   3.79572   3.80090
 Alpha virt. eigenvalues --    3.81058   3.81368   3.82114   3.82950   3.83912
 Alpha virt. eigenvalues --    3.84733   3.85456   3.86378   3.86648   3.86845
 Alpha virt. eigenvalues --    3.87992   3.88082   3.88639   3.89146   3.89881
 Alpha virt. eigenvalues --    3.90789   3.91610   3.92391   3.92479   3.93156
 Alpha virt. eigenvalues --    3.93713   3.94324   3.95060   3.96342   3.96830
 Alpha virt. eigenvalues --    3.97177   3.97310   3.98588   3.99165   4.00119
 Alpha virt. eigenvalues --    4.00693   4.02272   4.02543   4.03139   4.03404
 Alpha virt. eigenvalues --    4.04473   4.05069   4.05708   4.06103   4.06259
 Alpha virt. eigenvalues --    4.06774   4.07500   4.07958   4.08641   4.08935
 Alpha virt. eigenvalues --    4.09618   4.10527   4.10739   4.11564   4.12108
 Alpha virt. eigenvalues --    4.12284   4.13326   4.13767   4.14295   4.14618
 Alpha virt. eigenvalues --    4.15781   4.15981   4.16975   4.17458   4.18642
 Alpha virt. eigenvalues --    4.19237   4.19592   4.20474   4.21110   4.21415
 Alpha virt. eigenvalues --    4.21767   4.22790   4.23621   4.24719   4.25496
 Alpha virt. eigenvalues --    4.26429   4.27718   4.27903   4.28621   4.29040
 Alpha virt. eigenvalues --    4.29539   4.29971   4.30801   4.30899   4.31420
 Alpha virt. eigenvalues --    4.33141   4.33159   4.33529   4.34101   4.34799
 Alpha virt. eigenvalues --    4.35759   4.36385   4.36869   4.37546   4.37970
 Alpha virt. eigenvalues --    4.39665   4.40332   4.41251   4.42018   4.42277
 Alpha virt. eigenvalues --    4.43389   4.43633   4.44739   4.46339   4.47175
 Alpha virt. eigenvalues --    4.47595   4.50085   4.51205   4.51862   4.52751
 Alpha virt. eigenvalues --    4.53120   4.55280   4.55529   4.56045   4.56897
 Alpha virt. eigenvalues --    4.57809   4.58502   4.60454   4.62029   4.62976
 Alpha virt. eigenvalues --    4.63051   4.64741   4.65169   4.66475   4.67422
 Alpha virt. eigenvalues --    4.68256   4.70541   4.70821   4.71000   4.72056
 Alpha virt. eigenvalues --    4.72916   4.73288   4.73729   4.74490   4.75269
 Alpha virt. eigenvalues --    4.76522   4.77597   4.79232   4.80350   4.80735
 Alpha virt. eigenvalues --    4.81491   4.82290   4.83040   4.83610   4.84614
 Alpha virt. eigenvalues --    4.87037   4.88237   4.89533   4.89857   4.90491
 Alpha virt. eigenvalues --    4.90748   4.93068   4.93280   4.94968   4.95736
 Alpha virt. eigenvalues --    4.96097   4.97203   4.99413   5.00871   5.03302
 Alpha virt. eigenvalues --    5.03522   5.06825   5.07116   5.08505   5.09157
 Alpha virt. eigenvalues --    5.10054   5.10382   5.11210   5.12456   5.13088
 Alpha virt. eigenvalues --    5.14834   5.21306   5.22241   5.23203   5.24489
 Alpha virt. eigenvalues --    5.24867   5.25114   5.25680   5.26092   5.28579
 Alpha virt. eigenvalues --    5.34478   5.35004   5.35975   5.37094   5.37139
 Alpha virt. eigenvalues --    5.38707   5.39437   5.43928   5.46367   5.46879
 Alpha virt. eigenvalues --    5.48295   5.49961   5.52154   5.52390   5.53817
 Alpha virt. eigenvalues --    5.55145   5.59642   5.62031   5.62424   5.63659
 Alpha virt. eigenvalues --    5.64888   5.71386   5.73003   5.75846   5.85136
 Alpha virt. eigenvalues --    5.87448   5.88460   5.93190   5.93330   5.96688
 Alpha virt. eigenvalues --    5.97340   6.03774   6.10704   6.18044   6.19439
 Alpha virt. eigenvalues --    6.25865   8.90379   9.05366   9.25958  19.33778
 Alpha virt. eigenvalues --   22.16983  22.25669  22.25833  22.36060  22.36432
 Alpha virt. eigenvalues --   22.41794  22.42673  22.51641  22.52264  22.66848
 Alpha virt. eigenvalues --   22.74443  22.77312  22.79139  22.80681  22.82260
 Alpha virt. eigenvalues --   22.83173  22.88246  22.90611  22.97857  23.13672
 Alpha virt. eigenvalues --   23.16778  23.17169  23.23529  23.28381  23.37364
 Alpha virt. eigenvalues --   23.38490  23.43395  23.60003  23.63208  23.66537
 Alpha virt. eigenvalues --   23.73350  32.66581  32.68411  32.75890  32.87625
  Beta  occ. eigenvalues -- -256.39295 -89.11534 -30.23518 -26.07863 -26.07662
  Beta  occ. eigenvalues --  -26.07171 -14.48142 -14.48095 -14.48073 -14.47871
  Beta  occ. eigenvalues --  -10.35131 -10.34118 -10.34080 -10.34057 -10.34010
  Beta  occ. eigenvalues --  -10.33993 -10.33987 -10.33903 -10.33896 -10.31416
  Beta  occ. eigenvalues --  -10.31340 -10.31174 -10.31091 -10.31030 -10.30942
  Beta  occ. eigenvalues --  -10.30821 -10.30771 -10.30742 -10.30738 -10.30678
  Beta  occ. eigenvalues --  -10.30537 -10.29739 -10.29485 -10.28877 -10.28854
  Beta  occ. eigenvalues --  -10.28745 -10.28609 -10.28596 -10.28457 -10.28445
  Beta  occ. eigenvalues --  -10.28190  -8.14302  -6.08800  -6.08572  -6.08236
  Beta  occ. eigenvalues --   -3.59165  -2.35552  -2.34970  -2.34161  -1.10512
  Beta  occ. eigenvalues --   -1.09502  -1.09446  -1.08455  -0.95074  -0.94652
  Beta  occ. eigenvalues --   -0.93423  -0.93125  -0.92688  -0.92388  -0.92185
  Beta  occ. eigenvalues --   -0.92131  -0.87892  -0.86831  -0.86626  -0.85463
  Beta  occ. eigenvalues --   -0.84025  -0.82349  -0.81307  -0.80164  -0.79668
  Beta  occ. eigenvalues --   -0.79550  -0.79280  -0.76508  -0.76455  -0.71833
  Beta  occ. eigenvalues --   -0.71167  -0.70249  -0.69678  -0.66492  -0.65777
  Beta  occ. eigenvalues --   -0.64803  -0.64607  -0.63192  -0.63171  -0.62753
  Beta  occ. eigenvalues --   -0.60526  -0.60210  -0.59573  -0.59423  -0.58220
  Beta  occ. eigenvalues --   -0.57168  -0.56519  -0.55945  -0.55784  -0.55512
  Beta  occ. eigenvalues --   -0.55072  -0.54694  -0.54614  -0.54328  -0.53988
  Beta  occ. eigenvalues --   -0.53601  -0.53249  -0.53096  -0.52010  -0.51728
  Beta  occ. eigenvalues --   -0.51684  -0.51459  -0.51450  -0.51341  -0.51079
  Beta  occ. eigenvalues --   -0.50846  -0.50558  -0.50408  -0.50222  -0.49686
  Beta  occ. eigenvalues --   -0.49423  -0.49287  -0.48805  -0.48683  -0.48352
  Beta  occ. eigenvalues --   -0.47877  -0.47387  -0.47050  -0.46113  -0.45606
  Beta  occ. eigenvalues --   -0.45353  -0.44734  -0.44398  -0.43742  -0.43649
  Beta  occ. eigenvalues --   -0.43532  -0.41231  -0.40597  -0.39555  -0.39340
  Beta  occ. eigenvalues --   -0.38406  -0.38146  -0.36099  -0.34817  -0.34098
  Beta  occ. eigenvalues --   -0.33207  -0.31747  -0.30095
  Beta virt. eigenvalues --   -0.21806  -0.19723  -0.18473  -0.18011  -0.13734
  Beta virt. eigenvalues --   -0.13353  -0.11461  -0.09853  -0.08835  -0.08347
  Beta virt. eigenvalues --   -0.06917  -0.05783  -0.04642  -0.04077  -0.03631
  Beta virt. eigenvalues --   -0.03343  -0.03068  -0.02975  -0.02381  -0.01890
  Beta virt. eigenvalues --   -0.01592  -0.01038  -0.00758  -0.00418  -0.00252
  Beta virt. eigenvalues --    0.00611   0.00755   0.00976   0.01480   0.01693
  Beta virt. eigenvalues --    0.01976   0.02078   0.02263   0.02402   0.02761
  Beta virt. eigenvalues --    0.03038   0.03142   0.03458   0.03766   0.04105
  Beta virt. eigenvalues --    0.04331   0.04511   0.04966   0.05064   0.05270
  Beta virt. eigenvalues --    0.05367   0.05827   0.06090   0.06298   0.06723
  Beta virt. eigenvalues --    0.06742   0.07008   0.07151   0.07243   0.07639
  Beta virt. eigenvalues --    0.07753   0.07978   0.08144   0.08172   0.08669
  Beta virt. eigenvalues --    0.08901   0.09161   0.09636   0.10044   0.10285
  Beta virt. eigenvalues --    0.10392   0.10676   0.10951   0.11235   0.11540
  Beta virt. eigenvalues --    0.11731   0.11815   0.12030   0.12645   0.12851
  Beta virt. eigenvalues --    0.13153   0.13484   0.13716   0.14088   0.14538
  Beta virt. eigenvalues --    0.14880   0.15061   0.15895   0.16253   0.16350
  Beta virt. eigenvalues --    0.16635   0.16708   0.16963   0.17036   0.17329
  Beta virt. eigenvalues --    0.17609   0.18240   0.18417   0.18882   0.19059
  Beta virt. eigenvalues --    0.19284   0.19711   0.19829   0.20087   0.20172
  Beta virt. eigenvalues --    0.20441   0.20564   0.20944   0.21544   0.21709
  Beta virt. eigenvalues --    0.21856   0.22306   0.22740   0.23040   0.23283
  Beta virt. eigenvalues --    0.23445   0.23600   0.23699   0.23931   0.24473
  Beta virt. eigenvalues --    0.24774   0.25372   0.25607   0.25841   0.26176
  Beta virt. eigenvalues --    0.26481   0.26890   0.27243   0.27653   0.28222
  Beta virt. eigenvalues --    0.28360   0.28683   0.28949   0.29112   0.29342
  Beta virt. eigenvalues --    0.29550   0.29893   0.30008   0.30186   0.30324
  Beta virt. eigenvalues --    0.30411   0.30821   0.31044   0.31321   0.31540
  Beta virt. eigenvalues --    0.31654   0.31853   0.32297   0.32348   0.33039
  Beta virt. eigenvalues --    0.33144   0.33316   0.33592   0.34200   0.34373
  Beta virt. eigenvalues --    0.34582   0.35212   0.35434   0.35490   0.35667
  Beta virt. eigenvalues --    0.35912   0.36119   0.36506   0.36587   0.36697
  Beta virt. eigenvalues --    0.36922   0.37268   0.37587   0.37777   0.38085
  Beta virt. eigenvalues --    0.38357   0.38639   0.39038   0.39253   0.39361
  Beta virt. eigenvalues --    0.39492   0.39904   0.40054   0.40207   0.40304
  Beta virt. eigenvalues --    0.40812   0.40888   0.41074   0.41330   0.41649
  Beta virt. eigenvalues --    0.41733   0.41982   0.42146   0.42486   0.42616
  Beta virt. eigenvalues --    0.42855   0.43024   0.43177   0.43503   0.43682
  Beta virt. eigenvalues --    0.44316   0.44724   0.45040   0.45060   0.45390
  Beta virt. eigenvalues --    0.45475   0.45982   0.46203   0.46578   0.46874
  Beta virt. eigenvalues --    0.47197   0.47388   0.48190   0.48341   0.48674
  Beta virt. eigenvalues --    0.48886   0.49450   0.49895   0.50298   0.50510
  Beta virt. eigenvalues --    0.50790   0.51372   0.51487   0.51899   0.52398
  Beta virt. eigenvalues --    0.52635   0.52925   0.53118   0.53373   0.53641
  Beta virt. eigenvalues --    0.53844   0.54117   0.54399   0.54689   0.55264
  Beta virt. eigenvalues --    0.55402   0.56017   0.56424   0.56784   0.57300
  Beta virt. eigenvalues --    0.57341   0.57722   0.57879   0.57994   0.58432
  Beta virt. eigenvalues --    0.58962   0.59254   0.59573   0.59955   0.60049
  Beta virt. eigenvalues --    0.60198   0.60799   0.60834   0.61460   0.61762
  Beta virt. eigenvalues --    0.62079   0.62158   0.62611   0.63014   0.63118
  Beta virt. eigenvalues --    0.63568   0.63849   0.64277   0.64674   0.65073
  Beta virt. eigenvalues --    0.65288   0.65940   0.66535   0.66881   0.67095
  Beta virt. eigenvalues --    0.67324   0.67652   0.67919   0.68603   0.68775
  Beta virt. eigenvalues --    0.69094   0.69573   0.70319   0.70404   0.71040
  Beta virt. eigenvalues --    0.71215   0.71565   0.72047   0.72685   0.72987
  Beta virt. eigenvalues --    0.73579   0.74388   0.74622   0.75037   0.75745
  Beta virt. eigenvalues --    0.75837   0.76234   0.76731   0.77269   0.77322
  Beta virt. eigenvalues --    0.77724   0.77948   0.78791   0.78986   0.79426
  Beta virt. eigenvalues --    0.80091   0.80382   0.80965   0.81846   0.81956
  Beta virt. eigenvalues --    0.82242   0.82487   0.82861   0.83513   0.83665
  Beta virt. eigenvalues --    0.84019   0.84469   0.84788   0.85171   0.85522
  Beta virt. eigenvalues --    0.86159   0.86348   0.86455   0.86673   0.87131
  Beta virt. eigenvalues --    0.87561   0.88149   0.88559   0.89126   0.89225
  Beta virt. eigenvalues --    0.89392   0.89455   0.90189   0.90462   0.90601
  Beta virt. eigenvalues --    0.90947   0.91355   0.91439   0.92240   0.92315
  Beta virt. eigenvalues --    0.92931   0.93164   0.93476   0.93669   0.94318
  Beta virt. eigenvalues --    0.94836   0.95138   0.95567   0.95957   0.96689
  Beta virt. eigenvalues --    0.97234   0.97367   0.97570   0.98513   0.98741
  Beta virt. eigenvalues --    0.99352   0.99913   0.99998   1.01136   1.01480
  Beta virt. eigenvalues --    1.01823   1.02814   1.03187   1.03610   1.04797
  Beta virt. eigenvalues --    1.05056   1.05478   1.05590   1.06617   1.06954
  Beta virt. eigenvalues --    1.07125   1.07978   1.08286   1.08400   1.09006
  Beta virt. eigenvalues --    1.09064   1.09308   1.10013   1.10069   1.10564
  Beta virt. eigenvalues --    1.11131   1.11588   1.11815   1.12330   1.12887
  Beta virt. eigenvalues --    1.14087   1.14389   1.14937   1.15343   1.15794
  Beta virt. eigenvalues --    1.15897   1.16266   1.16611   1.17206   1.17414
  Beta virt. eigenvalues --    1.17498   1.18049   1.18438   1.18463   1.19193
  Beta virt. eigenvalues --    1.19304   1.19601   1.20825   1.21351   1.21450
  Beta virt. eigenvalues --    1.22595   1.23387   1.23836   1.25220   1.25910
  Beta virt. eigenvalues --    1.26122   1.26795   1.27376   1.27604   1.28007
  Beta virt. eigenvalues --    1.29624   1.29961   1.30123   1.31069   1.31397
  Beta virt. eigenvalues --    1.32656   1.32998   1.33426   1.33671   1.34143
  Beta virt. eigenvalues --    1.34725   1.35181   1.35553   1.35818   1.36353
  Beta virt. eigenvalues --    1.36697   1.36948   1.37404   1.37559   1.37912
  Beta virt. eigenvalues --    1.38407   1.38692   1.39638   1.39653   1.40318
  Beta virt. eigenvalues --    1.40574   1.41118   1.41177   1.41783   1.42252
  Beta virt. eigenvalues --    1.42318   1.42759   1.42919   1.43314   1.43523
  Beta virt. eigenvalues --    1.43865   1.44249   1.44330   1.44627   1.44942
  Beta virt. eigenvalues --    1.45609   1.45795   1.45941   1.46263   1.46403
  Beta virt. eigenvalues --    1.46662   1.47057   1.47433   1.47692   1.47859
  Beta virt. eigenvalues --    1.48046   1.48466   1.48590   1.49073   1.49350
  Beta virt. eigenvalues --    1.49646   1.49892   1.50461   1.50884   1.50971
  Beta virt. eigenvalues --    1.51623   1.52348   1.52659   1.52864   1.53226
  Beta virt. eigenvalues --    1.53503   1.53749   1.53954   1.54278   1.54584
  Beta virt. eigenvalues --    1.55288   1.55475   1.55553   1.55934   1.56541
  Beta virt. eigenvalues --    1.56861   1.57289   1.57471   1.57753   1.58223
  Beta virt. eigenvalues --    1.58522   1.58795   1.59173   1.59269   1.59804
  Beta virt. eigenvalues --    1.60012   1.60756   1.61316   1.61710   1.61949
  Beta virt. eigenvalues --    1.62323   1.62596   1.62682   1.62987   1.63652
  Beta virt. eigenvalues --    1.64737   1.64876   1.65266   1.66487   1.67043
  Beta virt. eigenvalues --    1.67232   1.67976   1.69125   1.69352   1.69918
  Beta virt. eigenvalues --    1.70347   1.70925   1.71160   1.71974   1.72438
  Beta virt. eigenvalues --    1.72888   1.73113   1.73541   1.73973   1.74257
  Beta virt. eigenvalues --    1.75101   1.75958   1.76443   1.77068   1.77408
  Beta virt. eigenvalues --    1.77841   1.78155   1.78487   1.78801   1.79464
  Beta virt. eigenvalues --    1.79749   1.80165   1.81153   1.81370   1.81922
  Beta virt. eigenvalues --    1.82715   1.83206   1.83550   1.84241   1.84531
  Beta virt. eigenvalues --    1.85382   1.85727   1.85984   1.86269   1.86797
  Beta virt. eigenvalues --    1.87592   1.88253   1.88378   1.88582   1.89403
  Beta virt. eigenvalues --    1.89676   1.90093   1.90671   1.91236   1.92130
  Beta virt. eigenvalues --    1.92201   1.92824   1.93342   1.94565   1.94765
  Beta virt. eigenvalues --    1.95565   1.95683   1.96296   1.97172   1.97302
  Beta virt. eigenvalues --    1.98139   1.98604   1.99098   1.99913   2.00260
  Beta virt. eigenvalues --    2.00750   2.01188   2.01757   2.02275   2.02662
  Beta virt. eigenvalues --    2.03075   2.03533   2.04109   2.04279   2.04769
  Beta virt. eigenvalues --    2.05635   2.06048   2.06415   2.06925   2.07981
  Beta virt. eigenvalues --    2.08262   2.08304   2.09323   2.09551   2.10240
  Beta virt. eigenvalues --    2.10778   2.11163   2.11448   2.12381   2.13085
  Beta virt. eigenvalues --    2.13954   2.14066   2.14242   2.14627   2.15536
  Beta virt. eigenvalues --    2.15997   2.16600   2.16775   2.17420   2.17561
  Beta virt. eigenvalues --    2.18076   2.18251   2.19529   2.19763   2.20128
  Beta virt. eigenvalues --    2.20645   2.21388   2.21418   2.22209   2.23272
  Beta virt. eigenvalues --    2.24129   2.24198   2.24699   2.25251   2.25439
  Beta virt. eigenvalues --    2.25965   2.26438   2.26809   2.27321   2.27476
  Beta virt. eigenvalues --    2.27950   2.27955   2.28425   2.29176   2.29445
  Beta virt. eigenvalues --    2.29584   2.30159   2.30859   2.31218   2.32009
  Beta virt. eigenvalues --    2.32428   2.32896   2.33251   2.33378   2.34280
  Beta virt. eigenvalues --    2.34596   2.34693   2.34968   2.35196   2.35990
  Beta virt. eigenvalues --    2.36573   2.36803   2.37494   2.38133   2.38547
  Beta virt. eigenvalues --    2.40000   2.40287   2.41607   2.42198   2.42827
  Beta virt. eigenvalues --    2.42951   2.43253   2.43567   2.43825   2.43977
  Beta virt. eigenvalues --    2.44765   2.44874   2.45335   2.45761   2.46336
  Beta virt. eigenvalues --    2.46845   2.47275   2.47535   2.47644   2.48125
  Beta virt. eigenvalues --    2.48564   2.49060   2.49519   2.49831   2.50212
  Beta virt. eigenvalues --    2.50290   2.50694   2.51429   2.51853   2.52241
  Beta virt. eigenvalues --    2.52427   2.52952   2.53983   2.54631   2.54717
  Beta virt. eigenvalues --    2.55759   2.55820   2.55980   2.56360   2.56537
  Beta virt. eigenvalues --    2.56985   2.57299   2.57711   2.58576   2.58901
  Beta virt. eigenvalues --    2.59346   2.59450   2.60124   2.60674   2.60972
  Beta virt. eigenvalues --    2.61955   2.62230   2.62535   2.62844   2.63896
  Beta virt. eigenvalues --    2.64220   2.64816   2.64948   2.65768   2.66372
  Beta virt. eigenvalues --    2.66670   2.67292   2.68241   2.68323   2.68980
  Beta virt. eigenvalues --    2.69272   2.69395   2.70602   2.71004   2.71298
  Beta virt. eigenvalues --    2.71384   2.71964   2.72459   2.72736   2.73456
  Beta virt. eigenvalues --    2.73810   2.74224   2.74609   2.75532   2.75719
  Beta virt. eigenvalues --    2.75922   2.76134   2.76504   2.77185   2.77620
  Beta virt. eigenvalues --    2.77732   2.78453   2.78847   2.79643   2.79840
  Beta virt. eigenvalues --    2.80353   2.81321   2.81568   2.82356   2.82512
  Beta virt. eigenvalues --    2.82809   2.82865   2.83299   2.84281   2.84435
  Beta virt. eigenvalues --    2.84656   2.85369   2.85756   2.86269   2.86596
  Beta virt. eigenvalues --    2.87277   2.87757   2.88197   2.88938   2.89260
  Beta virt. eigenvalues --    2.89996   2.90376   2.90627   2.91019   2.91657
  Beta virt. eigenvalues --    2.92326   2.92890   2.93374   2.93763   2.94152
  Beta virt. eigenvalues --    2.94580   2.95212   2.95496   2.95584   2.96234
  Beta virt. eigenvalues --    2.96401   2.97169   2.97511   2.97652   2.98231
  Beta virt. eigenvalues --    2.98814   2.98985   2.99306   2.99369   2.99736
  Beta virt. eigenvalues --    3.00123   3.00631   3.01095   3.01194   3.01379
  Beta virt. eigenvalues --    3.01936   3.02400   3.02795   3.02910   3.03516
  Beta virt. eigenvalues --    3.03764   3.04375   3.04626   3.05202   3.05876
  Beta virt. eigenvalues --    3.06054   3.06594   3.06741   3.06874   3.07222
  Beta virt. eigenvalues --    3.07619   3.07926   3.08498   3.08912   3.09137
  Beta virt. eigenvalues --    3.09350   3.09612   3.09993   3.10365   3.10473
  Beta virt. eigenvalues --    3.10787   3.10842   3.11651   3.11846   3.12194
  Beta virt. eigenvalues --    3.12588   3.12627   3.13139   3.13814   3.14201
  Beta virt. eigenvalues --    3.14588   3.14695   3.14930   3.15225   3.15804
  Beta virt. eigenvalues --    3.16229   3.16754   3.17044   3.17062   3.17751
  Beta virt. eigenvalues --    3.18334   3.18528   3.18666   3.19035   3.19594
  Beta virt. eigenvalues --    3.19765   3.20134   3.20591   3.20872   3.21067
  Beta virt. eigenvalues --    3.21144   3.21476   3.21729   3.22012   3.22425
  Beta virt. eigenvalues --    3.22906   3.23054   3.23357   3.23708   3.23969
  Beta virt. eigenvalues --    3.24049   3.24382   3.24671   3.24950   3.25073
  Beta virt. eigenvalues --    3.25487   3.25697   3.26244   3.26258   3.26729
  Beta virt. eigenvalues --    3.27063   3.27083   3.27535   3.27768   3.28068
  Beta virt. eigenvalues --    3.28434   3.28689   3.29166   3.29600   3.29971
  Beta virt. eigenvalues --    3.30671   3.30854   3.31209   3.31625   3.32105
  Beta virt. eigenvalues --    3.32275   3.32518   3.32887   3.33271   3.33576
  Beta virt. eigenvalues --    3.34297   3.35053   3.35197   3.35463   3.36176
  Beta virt. eigenvalues --    3.37121   3.37518   3.38377   3.38612   3.38893
  Beta virt. eigenvalues --    3.39078   3.39940   3.40231   3.41473   3.41622
  Beta virt. eigenvalues --    3.41981   3.42914   3.43418   3.43764   3.44189
  Beta virt. eigenvalues --    3.44351   3.45664   3.45864   3.46720   3.46875
  Beta virt. eigenvalues --    3.47706   3.48218   3.48816   3.48908   3.49648
  Beta virt. eigenvalues --    3.49731   3.50058   3.51140   3.52041   3.52547
  Beta virt. eigenvalues --    3.52819   3.53032   3.54004   3.54925   3.55316
  Beta virt. eigenvalues --    3.55864   3.56220   3.56689   3.56914   3.57829
  Beta virt. eigenvalues --    3.58249   3.58641   3.59505   3.59997   3.60372
  Beta virt. eigenvalues --    3.60612   3.60856   3.61757   3.61925   3.62222
  Beta virt. eigenvalues --    3.62683   3.63280   3.63573   3.63748   3.63892
  Beta virt. eigenvalues --    3.64434   3.65218   3.65499   3.66353   3.67392
  Beta virt. eigenvalues --    3.67477   3.68951   3.69431   3.70336   3.70958
  Beta virt. eigenvalues --    3.71230   3.71697   3.72019   3.73183   3.73643
  Beta virt. eigenvalues --    3.74606   3.74737   3.75292   3.75637   3.76138
  Beta virt. eigenvalues --    3.76776   3.77286   3.77995   3.79582   3.79682
  Beta virt. eigenvalues --    3.80206   3.81225   3.81479   3.82374   3.83209
  Beta virt. eigenvalues --    3.84318   3.84993   3.85661   3.86486   3.86765
  Beta virt. eigenvalues --    3.87134   3.88068   3.88314   3.88715   3.89830
  Beta virt. eigenvalues --    3.90083   3.91465   3.92068   3.92529   3.92908
  Beta virt. eigenvalues --    3.93300   3.93960   3.94415   3.95203   3.96870
  Beta virt. eigenvalues --    3.97163   3.97580   3.98135   3.99323   3.99847
  Beta virt. eigenvalues --    4.00670   4.01123   4.02628   4.02812   4.03220
  Beta virt. eigenvalues --    4.03527   4.04551   4.05704   4.05829   4.06308
  Beta virt. eigenvalues --    4.06688   4.06919   4.07520   4.08257   4.09437
  Beta virt. eigenvalues --    4.10119   4.10507   4.10830   4.11681   4.12305
  Beta virt. eigenvalues --    4.13017   4.13562   4.14067   4.14327   4.14928
  Beta virt. eigenvalues --    4.15092   4.16265   4.17143   4.17375   4.17589
  Beta virt. eigenvalues --    4.18864   4.19508   4.20043   4.20639   4.21350
  Beta virt. eigenvalues --    4.21476   4.22100   4.22954   4.24027   4.24961
  Beta virt. eigenvalues --    4.25715   4.26449   4.28040   4.28452   4.28667
  Beta virt. eigenvalues --    4.29255   4.29834   4.30537   4.30915   4.31113
  Beta virt. eigenvalues --    4.32354   4.33281   4.33469   4.33606   4.34151
  Beta virt. eigenvalues --    4.34873   4.35802   4.36412   4.36905   4.37602
  Beta virt. eigenvalues --    4.38004   4.39703   4.40357   4.41370   4.42043
  Beta virt. eigenvalues --    4.42306   4.43408   4.43677   4.44776   4.46351
  Beta virt. eigenvalues --    4.47216   4.47624   4.50135   4.51370   4.51970
  Beta virt. eigenvalues --    4.52838   4.53137   4.55253   4.55524   4.56050
  Beta virt. eigenvalues --    4.56876   4.57819   4.58475   4.60455   4.62042
  Beta virt. eigenvalues --    4.62897   4.63044   4.64758   4.65340   4.66486
  Beta virt. eigenvalues --    4.67393   4.68260   4.70519   4.70795   4.70948
  Beta virt. eigenvalues --    4.72033   4.72912   4.73288   4.73678   4.74501
  Beta virt. eigenvalues --    4.75237   4.76480   4.77564   4.79161   4.80323
  Beta virt. eigenvalues --    4.80572   4.81328   4.82090   4.82905   4.83523
  Beta virt. eigenvalues --    4.84592   4.87013   4.88156   4.89429   4.89837
  Beta virt. eigenvalues --    4.90420   4.90640   4.93003   4.93149   4.94932
  Beta virt. eigenvalues --    4.95689   4.96082   4.97152   4.99379   5.00847
  Beta virt. eigenvalues --    5.03284   5.03462   5.06702   5.07042   5.08467
  Beta virt. eigenvalues --    5.09097   5.09896   5.10297   5.11070   5.12286
  Beta virt. eigenvalues --    5.13026   5.14809   5.21189   5.22211   5.23134
  Beta virt. eigenvalues --    5.24459   5.24790   5.24947   5.25554   5.25933
  Beta virt. eigenvalues --    5.28579   5.34386   5.34902   5.35848   5.36992
  Beta virt. eigenvalues --    5.37008   5.38574   5.39315   5.43831   5.46279
  Beta virt. eigenvalues --    5.46830   5.48262   5.49949   5.52094   5.52325
  Beta virt. eigenvalues --    5.53786   5.55140   5.59576   5.61958   5.62369
  Beta virt. eigenvalues --    5.63584   5.64833   5.71363   5.72990   5.75828
  Beta virt. eigenvalues --    5.85041   5.87344   5.88360   5.93092   5.93256
  Beta virt. eigenvalues --    5.96666   5.97312   6.03712   6.10638   6.17986
  Beta virt. eigenvalues --    6.19377   6.25808   8.90292   9.05070   9.25818
  Beta virt. eigenvalues --   19.33644  22.17002  22.25675  22.25839  22.36059
  Beta virt. eigenvalues --   22.36430  22.41792  22.42674  22.51638  22.52261
  Beta virt. eigenvalues --   22.66845  22.74438  22.77321  22.79133  22.80694
  Beta virt. eigenvalues --   22.82243  22.83163  22.88196  22.90555  22.97790
  Beta virt. eigenvalues --   23.13688  23.16791  23.17189  23.23546  23.28404
  Beta virt. eigenvalues --   23.37379  23.38512  23.43411  23.60017  23.63227
  Beta virt. eigenvalues --   23.66561  23.73375  32.66431  32.68257  32.75762
  Beta virt. eigenvalues --   32.87486
          Condensed to atoms (all electrons):
          Atomic-Atomic Spin Densities.
 Mulliken charges and spin densities:
               1          2
     1  Fe  -0.184918   1.373408
     2  N   -0.051495  -0.071417
     3  N   -0.079690  -0.082742
     4  N   -0.059723  -0.079168
     5  N   -0.074018  -0.079288
     6  C    0.255645   0.015913
     7  C   -0.063526   0.017525
     8  C    0.032330  -0.001763
     9  C    0.109345   0.028514
    10  C    0.275205   0.030002
    11  C   -0.043105   0.001072
    12  C    0.090191   0.023255
    13  C    0.171535   0.012002
    14  C    0.273002   0.016996
    15  C   -0.070475   0.008080
    16  C    0.121165  -0.002582
    17  C    0.112556   0.018717
    18  C    0.216120   0.017641
    19  C   -0.016284   0.002391
    20  C   -0.048338   0.016390
    21  C    0.279323   0.023339
    22  C   -0.422114  -0.056164
    23  H    0.170852   0.002436
    24  C   -0.383055  -0.062806
    25  H    0.163773   0.002963
    26  C   -0.362351  -0.041148
    27  H    0.151686   0.002081
    28  C   -0.274237  -0.034789
    29  H    0.157385   0.001855
    30  C   -0.398495  -0.000731
    31  H    0.140458  -0.000155
    32  H    0.157063   0.000157
    33  H    0.143697   0.000156
    34  C   -0.402707  -0.001315
    35  H    0.145352   0.001009
    36  H    0.158304   0.000866
    37  H    0.138885  -0.000123
    38  C   -0.442337  -0.000871
    39  H    0.143837   0.000159
    40  H    0.173869  -0.000059
    41  H    0.159507   0.000346
    42  C   -0.219638  -0.009552
    43  H    0.138580   0.000754
    44  C   -0.274600   0.015448
    45  H    0.154782  -0.000687
    46  H    0.150731  -0.000682
    47  C   -0.421982  -0.000513
    48  H    0.158669   0.000510
    49  H    0.136075   0.000370
    50  H    0.171233   0.000120
    51  C   -0.224416  -0.000163
    52  H    0.137302  -0.000021
    53  C   -0.275327  -0.000792
    54  H    0.154856   0.000036
    55  H    0.149655  -0.000022
    56  C   -0.409515  -0.001121
    57  H    0.152351   0.000285
    58  H    0.156500   0.000217
    59  H    0.138478  -0.000074
    60  C   -0.404909  -0.000978
    61  H    0.139771  -0.000020
    62  H    0.155115   0.000892
    63  H    0.147668   0.000939
    64  C   -0.344770   0.012164
    65  H    0.172860  -0.002198
    66  H    0.191336  -0.001186
    67  H    0.165869  -0.000042
    68  S    0.038849  -0.124722
    69  H    0.200265   0.008890
 Sum of Mulliken charges =   1.00000   1.00000
 Mulliken charges and spin densities with hydrogens summed into heavy atoms:
               1          2
     1  Fe  -0.184918   1.373408
     2  N   -0.051495  -0.071417
     3  N   -0.079690  -0.082742
     4  N   -0.059723  -0.079168
     5  N   -0.074018  -0.079288
[...]
  1142. RY*(  25) C  56                  0.00000     3.65204   
  1143. RY*(  26) C  56                  0.00000     3.60768   
  1144. RY*(   1) H  57                  0.00031     0.87069   
  1145. RY*(   2) H  57                  0.00011     1.66813   
  1146. RY*(   3) H  57                  0.00005     2.11700   
  1147. RY*(   4) H  57                  0.00003     2.29590   
  1148. RY*(   5) H  57                  0.00001     2.93264   
  1149. RY*(   1) H  58                  0.00030     0.86899   
  1150. RY*(   2) H  58                  0.00011     1.67552   
  1151. RY*(   3) H  58                  0.00005     2.10862   
  1152. RY*(   4) H  58                  0.00003     2.31418   
  1153. RY*(   5) H  58                  0.00001     2.93164   
  1154. RY*(   1) H  59                  0.00030     0.78771   
  1155. RY*(   2) H  59                  0.00008     1.95700   
  1156. RY*(   3) H  59                  0.00005     2.10383   
  1157. RY*(   4) H  59                  0.00003     2.20474   
  1158. RY*(   5) H  59                  0.00000     2.94321   
  1159. RY*(   1) C  60                  0.00060     1.01629   
  1160. RY*(   2) C  60                  0.00060     0.80148   
  1161. RY*(   3) C  60                  0.00040     1.56223   
  1162. RY*(   4) C  60                  0.00012     1.08712   
  1163. RY*(   5) C  60                  0.00005     1.12285   
  1164. RY*(   6) C  60                  0.00005     1.11714   
  1165. RY*(   7) C  60                  0.00001     2.36204   
  1166. RY*(   8) C  60                  0.00001     1.47070   
  1167. RY*(   9) C  60                  0.00002     1.73266   
  1168. RY*(  10) C  60                  0.00002     1.16730   
  1169. RY*(  11) C  60                  0.00000     2.91418   
  1170. RY*(  12) C  60                  0.00000    21.46749   
  1171. RY*(  13) C  60                  0.00000     3.11208   
  1172. RY*(  14) C  60                  0.00000     1.36018   
  1173. RY*(  15) C  60                  0.00000     2.68073   
  1174. RY*(  16) C  60                  0.00000     1.79611   
  1175. RY*(  17) C  60                  0.00000     3.02581   
  1176. RY*(  18) C  60                  0.00001     1.56380   
  1177. RY*(  19) C  60                  0.00000     2.93502   
  1178. RY*(  20) C  60                  0.00000     3.15600   
  1179. RY*(  21) C  60                  0.00000     3.68219   
  1180. RY*(  22) C  60                  0.00000     3.44671   
  1181. RY*(  23) C  60                  0.00000     3.39226   
  1182. RY*(  24) C  60                  0.00000     3.34581   
  1183. RY*(  25) C  60                  0.00000     3.55679   
  1184. RY*(  26) C  60                  0.00000     3.75634   
  1185. RY*(   1) H  61                  0.00031     0.78816   
  1186. RY*(   2) H  61                  0.00008     1.95304   
  1187. RY*(   3) H  61                  0.00005     2.10135   
  1188. RY*(   4) H  61                  0.00004     2.20768   
  1189. RY*(   5) H  61                  0.00000     2.94267   
  1190. RY*(   1) H  62                  0.00032     0.85228   
  1191. RY*(   2) H  62                  0.00011     1.67645   
  1192. RY*(   3) H  62                  0.00005     2.11269   
  1193. RY*(   4) H  62                  0.00003     2.30068   
  1194. RY*(   5) H  62                  0.00001     2.93232   
  1195. RY*(   1) H  63                  0.00031     0.83040   
  1196. RY*(   2) H  63                  0.00011     1.70301   
  1197. RY*(   3) H  63                  0.00005     2.11278   
  1198. RY*(   4) H  63                  0.00003     2.30385   
  1199. RY*(   5) H  63                  0.00001     2.92919   
  1200. RY*(   1) C  64                  0.00053     1.28802   
  1201. RY*(   2) C  64                  0.00036     0.92792   
  1202. RY*(   3) C  64                  0.00033     1.23332   
  1203. RY*(   4) C  64                  0.00019     1.00167   
  1204. RY*(   5) C  64                  0.00012     1.11021   
  1205. RY*(   6) C  64                  0.00005     1.48894   
  1206. RY*(   7) C  64                  0.00004     0.85726   
  1207. RY*(   8) C  64                  0.00002     0.83492   
  1208. RY*(   9) C  64                  0.00000     2.15527   
  1209. RY*(  10) C  64                  0.00001     0.88691   
  1210. RY*(  11) C  64                  0.00000     2.95467   
  1211. RY*(  12) C  64                  0.00001     1.62781   
  1212. RY*(  13) C  64                  0.00000     2.87283   
  1213. RY*(  14) C  64                  0.00001     1.05673   
  1214. RY*(  15) C  64                  0.00000     2.94589   
  1215. RY*(  16) C  64                  0.00000     1.39843   
  1216. RY*(  17) C  64                  0.00000     2.93179   
  1217. RY*(  18) C  64                  0.00000    20.69727   
  1218. RY*(  19) C  64                  0.00000     2.89511   
  1219. RY*(  20) C  64                  0.00000     3.45007   
  1220. RY*(  21) C  64                  0.00000     3.02314   
  1221. RY*(  22) C  64                  0.00000     3.27558   
  1222. RY*(  23) C  64                  0.00000     3.12150   
  1223. RY*(  24) C  64                  0.00000     3.19422   
  1224. RY*(  25) C  64                  0.00000     3.01733   
  1225. RY*(  26) C  64                  0.00000     3.40543   
  1226. RY*(   1) H  65                  0.00035     1.37955   
  1227. RY*(   2) H  65                  0.00009     1.89406   
  1228. RY*(   3) H  65                  0.00005     2.13248   
  1229. RY*(   4) H  65                  0.00002     2.57192   
  1230. RY*(   5) H  65                  0.00001     1.86410   
  1231. RY*(   1) H  66                  0.00025     1.23349   
  1232. RY*(   2) H  66                  0.00005     1.07413   
  1233. RY*(   3) H  66                  0.00003     2.06796   
  1234. RY*(   4) H  66                  0.00004     2.02430   
  1235. RY*(   5) H  66                  0.00000     2.82019   
  1236. RY*(   1) H  67                  0.00025     1.45278   
  1237. RY*(   2) H  67                  0.00009     1.80968   
  1238. RY*(   3) H  67                  0.00003     2.06719   
  1239. RY*(   4) H  67                  0.00002     2.77633   
  1240. RY*(   5) H  67                  0.00002     1.43684   
  1241. RY*(   1) S  68                  0.00235     0.43287   
  1242. RY*(   2) S  68                  0.00161     0.60606   
  1243. RY*(   3) S  68                  0.00096     0.65415   
  1244. RY*(   4) S  68                  0.00090     0.90498   
  1245. RY*(   5) S  68                  0.00053     0.99565   
  1246. RY*(   6) S  68                  0.00032     1.09670   
  1247. RY*(   7) S  68                  0.00021     1.31891   
  1248. RY*(   8) S  68                  0.00017     1.33627   
  1249. RY*(   9) S  68                  0.00006     1.28348   
  1250. RY*(  10) S  68                  0.00004     2.19065   
  1251. RY*(  11) S  68                  0.00000     8.32663   
  1252. RY*(  12) S  68                  0.00000    17.91280   
  1253. RY*(  13) S  68                  0.00001     1.62836   
  1254. RY*(  14) S  68                  0.00000     2.08699   
  1255. RY*(  15) S  68                  0.00001     1.96854   
  1256. RY*(  16) S  68                  0.00000     8.46651   
  1257. RY*(  17) S  68                  0.00001     1.56456   
  1258. RY*(  18) S  68                  0.00000     8.43452   
  1259. RY*(  19) S  68                  0.00001     1.64677   
  1260. RY*(  20) S  68                  0.00001     2.27421   
  1261. RY*(  21) S  68                  0.00001     1.56498   
  1262. RY*(  22) S  68                  0.00001     1.96242   
  1263. RY*(  23) S  68                  0.00000     1.90623   
  1264. RY*(  24) S  68                  0.00000     1.91217   
  1265. RY*(  25) S  68                  0.00000     1.94503   
  1266. RY*(  26) S  68                  0.00000     1.80898   
  1267. RY*(  27) S  68                  0.00000     1.91649   
  1268. RY*(  28) S  68                  0.00000     1.89688   
  1269. RY*(   1) H  69                  0.00064     0.81169   
  1270. RY*(   2) H  69                  0.00014     1.88786   
  1271. RY*(   3) H  69                  0.00013     1.74450   
  1272. RY*(   4) H  69                  0.00004     1.87731   
  1273. RY*(   5) H  69                  0.00001     2.49424   
  1274. BD*(   1)Fe   1 - N   5          0.08563     0.04569   
  1275. BD*(   1)Fe   1 - S  68          0.02292     0.07646   
  1276. BD*(   1) N   2 - C   6          0.01350     0.37289   
  1277. BD*(   2) N   2 - C   6          0.32789    -0.12115  1322(v),1291(v),1296(v)
                                                    282(g),142(r),138(r),696(v)
                                                    176(g),139(r),141(r)
  1278. BD*(   1) N   2 - C   9          0.01368     0.36645   
  1279. BD*(   1) N   3 - C  10          0.01429     0.36762   
  1280. BD*(   2) N   3 - C  10          0.33072    -0.12053  1296(v),1300(v),1305(v)
                                                    386(g),1286(r),142(r),141(r)
                                                    727(v),204(g)
  1281. BD*(   1) N   3 - C  13          0.01312     0.37095   
  1282. BD*(   1) N   4 - C  14          0.01351     0.36872   
  1283. BD*(   2) N   4 - C  14          0.33746    -0.12613  1305(v),1309(v),146(v)
                                                    138(r),490(g),228(g),142(r)
                                                    141(r),759(v),488(g),491(g)
  1284. BD*(   1) N   4 - C  17          0.01349     0.37407   
  1285. BD*(   1) N   5 - C  18          0.01369     0.37502   
  1286. BD*(   2) N   5 - C  18          0.33476    -0.12029  1317(v),1322(v),594(g)
                                                    1280(r),142(v),141(v),255(g)
  1287. BD*(   1) N   5 - C  21          0.01351     0.37093   
  1288. BD*(   1) C   6 - C   7          0.01745     0.37330   
  1289. BD*(   1) C   6 - C  22          0.01040     0.45218   
  1290. BD*(   1) C   7 - C   8          0.01167     0.49421   
  1291. BD*(   2) C   7 - C   8          0.11754    -0.04342  1296(v),1277(v),1328(v)
                                                    1330(v),1331(v),1329(v)
  1292. BD*(   1) C   7 - C  34          0.00805     0.30986   
  1293. BD*(   1) C   8 - C   9          0.01754     0.37140   
  1294. BD*(   1) C   8 - C  30          0.00808     0.30923   
  1295. BD*(   1) C   9 - C  24          0.01026     0.45709   
  1296. BD*(   2) C   9 - C  24          0.19191    -0.07548  1280(v),1291(v),1277(v)
                                                    1305(r),1322(r),727(g)
                                                    362(g)
  1297. BD*(   1) C  10 - C  11          0.01698     0.37962   
  1298. BD*(   1) C  10 - C  24          0.01047     0.45178   
  1299. BD*(   1) C  11 - C  12          0.01285     0.47880   
  1300. BD*(   2) C  11 - C  12          0.13780    -0.04738  1338(v),1305(v),1280(v)
                                                    1335(v),1333(v)
  1301. BD*(   1) C  11 - C  38          0.00767     0.31169   
  1302. BD*(   1) C  12 - C  13          0.01691     0.37013   
  1303. BD*(   1) C  12 - C  42          0.01330     0.38915   
  1304. BD*(   1) C  13 - C  26          0.01010     0.45420   
  1305. BD*(   2) C  13 - C  26          0.19157    -0.07477  1283(v),1300(v),1280(v)
                                                    1296(r),759(g),1322(r)
                                                    466(g)
  1306. BD*(   1) C  14 - C  15          0.01717     0.37981   
  1307. BD*(   1) C  14 - C  26          0.01050     0.45196   
  1308. BD*(   1) C  15 - C  16          0.01276     0.48167   
  1309. BD*(   2) C  15 - C  16          0.13550    -0.04574  1346(v),1283(v),146(v)
                                                    1341(v),1342(v)
  1310. BD*(   1) C  15 - C  47          0.00764     0.31370   
  1311. BD*(   1) C  16 - C  17          0.01695     0.36614   
  1312. BD*(   1) C  16 - C  51          0.01328     0.39114   
  1313. BD*(   1) C  17 - C  28          0.01018     0.45301   
  1314. BD*(   1) C  18 - C  19          0.01738     0.37220   
  1315. BD*(   1) C  18 - C  28          0.01028     0.45824   
  1316. BD*(   1) C  19 - C  20          0.01155     0.49585   
  1317. BD*(   2) C  19 - C  20          0.11736    -0.04208  1322(v),1286(v),1349(v)
                                                    1353(v),1354(v),1350(v)
  1318. BD*(   1) C  19 - C  56          0.00796     0.31209   
  1319. BD*(   1) C  20 - C  21          0.01735     0.37138   
  1320. BD*(   1) C  20 - C  60          0.00796     0.31071   
  1321. BD*(   1) C  21 - C  22          0.01020     0.45786   
  1322. BD*(   2) C  21 - C  22          0.20176    -0.07452  1277(v),1317(v),1286(v)
                                                    1296(r),696(g),1305(r)
                                                    674(g)
  1323. BD*(   1) C  22 - H  23          0.00605     0.31910   
  1324. BD*(   1) C  24 - H  25          0.00620     0.31801   
  1325. BD*(   1) C  26 - H  27          0.00647     0.32042   
  1326. BD*(   1) C  28 - H  29          0.00611     0.32075   
  1327. BD*(   1) C  30 - H  31          0.00298     0.29644   
  1328. BD*(   1) C  30 - H  32          0.00492     0.28373   
  1329. BD*(   1) C  30 - H  33          0.00410     0.28293   
  1330. BD*(   1) C  34 - H  35          0.00447     0.28217   
  1331. BD*(   1) C  34 - H  36          0.00439     0.28483   
  1332. BD*(   1) C  34 - H  37          0.00296     0.29677   
  1333. BD*(   1) C  38 - H  39          0.00434     0.28936   
  1334. BD*(   1) C  38 - H  40          0.00361     0.29954   
  1335. BD*(   1) C  38 - H  41          0.00516     0.28179   
  1336. BD*(   1) C  42 - H  43          0.01011     0.32565   
  1337. BD*(   1) C  42 - C  44          0.00368     0.53440   
  1338. BD*(   2) C  42 - C  44          0.02689    -0.03755   
  1339. BD*(   1) C  44 - H  45          0.00510     0.34085   
  1340. BD*(   1) C  44 - H  46          0.00382     0.34709   
  1341. BD*(   1) C  47 - H  48          0.00506     0.28474   
  1342. BD*(   1) C  47 - H  49          0.00442     0.29053   
  1343. BD*(   1) C  47 - H  50          0.00371     0.30062   
  1344. BD*(   1) C  51 - H  52          0.01018     0.32759   
  1345. BD*(   1) C  51 - C  53          0.00369     0.53644   
  1346. BD*(   2) C  51 - C  53          0.02842    -0.03477   
  1347. BD*(   1) C  53 - H  54          0.00508     0.34353   
  1348. BD*(   1) C  53 - H  55          0.00382     0.34919   
  1349. BD*(   1) C  56 - H  57          0.00448     0.28620   
  1350. BD*(   1) C  56 - H  58          0.00426     0.28732   
  1351. BD*(   1) C  56 - H  59          0.00296     0.29898   
  1352. BD*(   1) C  60 - H  61          0.00295     0.29833   
  1353. BD*(   1) C  60 - H  62          0.00441     0.28549   
  1354. BD*(   1) C  60 - H  63          0.00437     0.28397   
  1355. BD*(   1) C  64 - H  65          0.00562     0.25047   
  1356. BD*(   1) C  64 - H  66          0.00457     0.24625   
  1357. BD*(   1) C  64 - H  67          0.00350     0.24287   
  1358. BD*(   1) C  64 - S  68          0.00663    -0.00255   
  1359. BD*(   1) S  68 - H  69          0.00673     0.04779   
       -------------------------------
              Total Lewis  138.88071  ( 97.1194%)
        Valence non-Lewis    3.86314  (  2.7015%)
        Rydberg non-Lewis    0.25615  (  0.1791%)
       -------------------------------
            Total unit  1  143.00000  (100.0000%)
           Charge unit  1    1.00000
 Unable to Open any file for archive entry.
 1\1\GINC-BGN1022\SP\UAPFD\def2TZVP\C31H32Fe1N4S1(1+,2)\BECSLEIP\27-Aug
 -2024\0\\# apfd/def2TZVP guess=read scf=maxcycle=999 geom=check pop=nb
 o\\2hi4_III_D\\1,2\Fe,0,4.9372331738,24.8867628936,23.8754325922\N,0,6
 .506163405,25.029519593,22.640716737\N,0,6.1829144335,24.21422527,25.3
 109058902\N,0,3.4017316402,24.3515131901,25.0390038345\N,0,3.715289499
 6,25.0156348417,22.310833863\C,0,6.4747301785,25.3160412629,21.3100810
 487\C,0,7.808432853,25.3710605652,20.7587288351\C,0,8.6575663153,25.11
 68331647,21.7894433329\C,0,7.8291786785,24.8957850083,22.9534163101\C,
 0,7.5461797964,24.1513624405,25.2671626851\C,0,8.0891265372,23.7658594
 681,26.5426062579\C,0,7.0186227238,23.5954991809,27.3795215554\C,0,5.8
 412879716,23.8904342027,26.59031781\C,0,3.4256258581,24.2353207178,26.
 3980547457\C,0,2.0924761559,24.1826736312,26.9384031098\C,0,1.24587412
 73,24.2340447184,25.8645813068\C,0,2.0870372879,24.345665128,24.687660
 3217\C,0,2.355887669,24.944631931,22.3277769759\C,0,1.8050724211,25.21
 59166351,21.018854217\C,0,2.8639762942,25.4768734846,20.207735864\C,0,
 4.046525612,25.3347881612,21.0278379559\C,0,5.3297580445,25.5472388754
 ,20.5690846555\H,0,5.4531863513,25.8112992943,19.5303260886\C,0,8.3192
 354921,24.4237323097,24.15294684\H,0,9.3891664671,24.3265493199,24.250
 913702\C,0,4.5740026444,23.9943477336,27.1296892905\H,0,4.4736961509,2
 3.8463795868,28.1936920608\C,0,1.5891256274,24.7128701545,23.451873212
 7\H,0,0.5164231282,24.741744437,23.3377394618\C,0,10.1451656597,25.038
 3117495,21.7904028515\H,0,10.5480203214,25.3540255353,20.8313626214\H,
 0,10.4751418785,24.0163261312,21.9797211648\H,0,10.5636358283,25.67864
 78373,22.5667011306\C,0,8.1156436275,25.6505054909,19.328367648\H,0,7.
 7420282758,26.6335578684,19.0398928108\H,0,7.6449417942,24.9069598242,
 18.6851174717\H,0,9.1881172492,25.6249550096,19.1523078812\C,0,9.53105
 29133,23.5264524708,26.8223637494\H,0,10.0072508771,23.0210201902,25.9
 834578317\H,0,9.639384932,22.9063043963,27.7095746442\H,0,10.056721581
 8,24.4677091615,26.9934738508\C,0,6.9926547646,23.1834411203,28.766231
 9129\H,0,6.1485501795,22.5669234304,29.0523113919\C,0,7.9028426435,23.
 503093647,29.6799647089\H,0,8.7339625655,24.1496610247,29.4580041346\H
 ,0,7.8313038385,23.1485044219,30.6945511349\C,0,1.7536676841,24.013435
 3815,28.3771968814\H,0,1.8165532319,24.9672754478,28.9031820261\H,0,2.
 4407529518,23.3190321114,28.8581332288\H,0,0.7414140964,23.6283277833,
 28.4793217097\C,0,-0.1986772875,24.1626442922,25.8299291952\H,0,-0.617
 8063069,23.6364004931,24.9800669097\C,0,-1.0154969128,24.6879458549,26
 .736531389\H,0,-0.6500420728,25.2599535227,27.5715102078\H,0,-2.084985
 2732,24.587065013,26.6571778815\C,0,0.350403129,25.1978333062,20.70170
 27975\H,0,-0.1766297814,25.9555658183,21.2818592788\H,0,-0.0804384615,
 24.2262529322,20.943002884\H,0,0.1824368872,25.3951380594,19.64598224\
 C,0,2.8857009577,25.8102930357,18.7563066646\H,0,1.8766388725,25.84756
 61501,18.3540335811\H,0,3.4504954081,25.0621399708,18.1998201734\H,0,3
 .355995058,26.780222706,18.5935042033\C,0,6.3018244718,27.9815512643,2
 3.8219829699\H,0,7.2061678285,27.3963060013,23.9490105293\H,0,6.390243
 6037,28.9547329879,24.2946905674\H,0,6.0824237165,28.0954039666,22.765
 3935588\S,0,4.8792872044,27.087708551,24.551981034\H,0,5.4161255262,27
 .0081988408,25.7785325885\\Version=ES64L-G16RevC.02\State=2-A\HF=-3080
 .5607641\S2=1.353879\S2-1=0.\S2A=0.780638\RMSD=4.013e-09\Dipole=0.6080
 965,1.4101727,-0.161312\Quadrupole=15.0536599,-28.7666989,13.713039,3.
 1317613,0.6749334,-8.7763337\PG=C01 [X(C31H32Fe1N4S1)]\\@
 The archive entry for this job was punched.


 ALL OUR THINKING ABOUT NATURE MUST NECESSARILY MOVE IN CIRCLES OR SPIRALS;
 FOR WE CAN ONLY UNDERSTAND NATURE IF WE THINK ABOUT HER, AND WE CAN ONLY
 THINK BECAUSE OUR BRAIN IS BUILT IN ACCORDANCE WITH NATURE'S LAWS.

                                             -- TIMOTHY FERRIS, "GALAXIES"
 Job cpu time:       1 days  1 hours 31 minutes 39.3 seconds.
 Elapsed time:       0 days  0 hours 23 minutes 41.9 seconds.
 File lengths (MBytes):  RWF=   1706 Int=      0 D2E=      0 Chk=    156 Scr=      1
 Normal termination of Gaussian 16 at Tue Aug 27 11:51:05 2024.
