 Entering Gaussian System, Link 0=g16
 Input=2hi401.com
 Output=2hi401.log
 Initial command:
 /sw/chem/gaussian/g16_C02/a100/g16/l1.exe "/local/becsleip_7993349/Gau-2375032.inp" -scrdir="/local/becsleip_7993349/"
 Entering Link 1 = /sw/chem/gaussian/g16_C02/a100/g16/l1.exe PID=   2375033.
  
 Copyright (c) 1988-2021, Gaussian, Inc.  All Rights Reserved.
  
 This is part of the Gaussian(R) 16 program.  It is based on
 the Gaussian(R) 09 system (copyright 2009, Gaussian, Inc.),
 the Gaussian(R) 03 system (copyright 2003, Gaussian, Inc.),
 the Gaussian(R) 98 system (copyright 1998, Gaussian, Inc.),
 the Gaussian(R) 94 system (copyright 1995, Gaussian, Inc.),
 the Gaussian 92(TM) system (copyright 1992, Gaussian, Inc.),
 the Gaussian 90(TM) system (copyright 1990, Gaussian, Inc.),
 the Gaussian 88(TM) system (copyright 1988, Gaussian, Inc.),
 the Gaussian 86(TM) system (copyright 1986, Carnegie Mellon
 University), and the Gaussian 82(TM) system (copyright 1983,
 Carnegie Mellon University). Gaussian is a federally registered
 trademark of Gaussian, Inc.
  
 This software contains proprietary and confidential information,
 including trade secrets, belonging to Gaussian, Inc.
  
 This software is provided under written license and may be
 used, copied, transmitted, or stored only in accord with that
 written license.
  
 The following legend is applicable only to US Government
 contracts under FAR:
  
                    RESTRICTED RIGHTS LEGEND
  
 Use, reproduction and disclosure by the US Government is
 subject to restrictions as set forth in subparagraphs (a)
 and (c) of the Commercial Computer Software - Restricted
 Rights clause in FAR 52.227-19.
  
 Gaussian, Inc.
 340 Quinnipiac St., Bldg. 40, Wallingford CT 06492
  
  
 ---------------------------------------------------------------
 Warning -- This program may not be used in any manner that
 competes with the business of Gaussian, Inc. or will provide
 assistance to any competitor of Gaussian, Inc.  The licensee
 of this program is prohibited from giving any competitor of
 Gaussian, Inc. access to this program.  By using this program,
 the user acknowledges that Gaussian, Inc. is engaged in the
 business of creating and licensing software in the field of
 computational chemistry and represents and warrants to the
 licensee that it is not a competitor of Gaussian, Inc. and that
 it will not use this program in any manner prohibited above.
 ---------------------------------------------------------------
  

 Cite this work as:
 Gaussian 16, Revision C.02,
 M. J. Frisch, G. W. Trucks, H. B. Schlegel, G. E. Scuseria, 
 M. A. Robb, J. R. Cheeseman, G. Scalmani, V. Barone, 
 G. A. Petersson, H. Nakatsuji, X. Li, M. Caricato, A. V. Marenich, 
 J. Bloino, B. G. Janesko, R. Gomperts, B. Mennucci, H. P. Hratchian, 
 J. V. Ortiz, A. F. Izmaylov, J. L. Sonnenberg, D. Williams-Young, 
 F. Ding, F. Lipparini, F. Egidi, J. Goings, B. Peng, A. Petrone, 
 T. Henderson, D. Ranasinghe, V. G. Zakrzewski, J. Gao, N. Rega, 
 G. Zheng, W. Liang, M. Hada, M. Ehara, K. Toyota, R. Fukuda, 
 J. Hasegawa, M. Ishida, T. Nakajima, Y. Honda, O. Kitao, H. Nakai, 
 T. Vreven, K. Throssell, J. A. Montgomery, Jr., J. E. Peralta, 
 F. Ogliaro, M. J. Bearpark, J. J. Heyd, E. N. Brothers, K. N. Kudin, 
 V. N. Staroverov, T. A. Keith, R. Kobayashi, J. Normand, 
 K. Raghavachari, A. P. Rendell, J. C. Burant, S. S. Iyengar, 
 J. Tomasi, M. Cossi, J. M. Millam, M. Klene, C. Adamo, R. Cammi, 
 J. W. Ochterski, R. L. Martin, K. Morokuma, O. Farkas, 
 J. B. Foresman, and D. J. Fox, Gaussian, Inc., Wallingford CT, 2019.
 
 ******************************************
 Gaussian 16:  ES64L-G16RevC.02  7-Dec-2021
                26-Aug-2024 
 ******************************************
 %mem=16GB
 %CPU=0-71
 SetSPE:  set environment variable "OMP_PROC_BIND" = "true"
 SetSPE:  set environment variable "OMP_PLACES" = "{0},{1},{2},{3},{4},{5},{6},{7},{8},{9},{10},{11},{12},{13},{14},{15},{16},{17},{18},{19},{20},{21},{22},{23},{24},{25},{26},{27},{28},{29},{30},{31},{32},{33},{34},{35},{36},{37},{38},{39},{40},{41},{42},{43},{44},{45},{46},{47},{48},{49},{50},{51},{52},{53},{54},{55},{56},{57},{58},{59},{60},{61},{62},{63},{64},{65},{66},{67},{68},{69},{70},{71}"
 Will use up to   72 processors via shared memory.
 %gpucpu=0,1,2,3=0,1,2,3
 Will use    4 GPUs:
 Thread  CPU   GPU
      0    0     0
      1    1     1
      2    2     2
      3    3     3
      4    4    -1
      5    5    -1
      6    6    -1
      7    7    -1
      8    8    -1
      9    9    -1
     10   10    -1
     11   11    -1
     12   12    -1
     13   13    -1
     14   14    -1
     15   15    -1
     16   16    -1
     17   17    -1
     18   18    -1
     19   19    -1
     20   20    -1
     21   21    -1
     22   22    -1
     23   23    -1
     24   24    -1
     25   25    -1
     26   26    -1
     27   27    -1
     28   28    -1
     29   29    -1
     30   30    -1
     31   31    -1
     32   32    -1
     33   33    -1
     34   34    -1
     35   35    -1
     36   36    -1
     37   37    -1
     38   38    -1
     39   39    -1
     40   40    -1
     41   41    -1
     42   42    -1
     43   43    -1
     44   44    -1
     45   45    -1
     46   46    -1
     47   47    -1
     48   48    -1
     49   49    -1
     50   50    -1
     51   51    -1
     52   52    -1
     53   53    -1
     54   54    -1
     55   55    -1
     56   56    -1
     57   57    -1
     58   58    -1
     59   59    -1
     60   60    -1
     61   61    -1
     62   62    -1
     63   63    -1
     64   64    -1
     65   65    -1
     66   66    -1
     67   67    -1
     68   68    -1
     69   69    -1
     70   70    -1
     71   71    -1
 SetGPE:  set environment variable "OMP_PROC_BIND" = "true"
 SetGPE:  set environment variable "OMP_PLACES" = "{0},{1},{2},{3},{4},{5},{6},{7},{8},{9},{10},{11},{12},{13},{14},{15},{16},{17},{18},{19},{20},{21},{22},{23},{24},{25},{26},{27},{28},{29},{30},{31},{32},{33},{34},{35},{36},{37},{38},{39},{40},{41},{42},{43},{44},{45},{46},{47},{48},{49},{50},{51},{52},{53},{54},{55},{56},{57},{58},{59},{60},{61},{62},{63},{64},{65},{66},{67},{68},{69},{70},{71}"
 %chk=2hi4_II_O.chk
 Properties for Device   0
 Minimum vector length:                              32
 Maximum vector length:                            1024
 Number of SMPs:                                    108
 Maximum number of threads per SMP:                2048
 Number of ASync Engines:                             5
 Memory:                                           9207742464
 Properties for Device   1
 Minimum vector length:                              32
 Maximum vector length:                            1024
 Number of SMPs:                                    108
 Maximum number of threads per SMP:                2048
 Number of ASync Engines:                             5
 Memory:                                           9207742464
 Properties for Device   2
 Minimum vector length:                              32
 Maximum vector length:                            1024
 Number of SMPs:                                    108
 Maximum number of threads per SMP:                2048
 Number of ASync Engines:                             5
 Memory:                                           9207742464
 Properties for Device   3
 Minimum vector length:                              32
 Maximum vector length:                            1024
 Number of SMPs:                                    108
 Maximum number of threads per SMP:                2048
 Number of ASync Engines:                             5
 Memory:                                           9207742464
   8286968217 words of memory will be used on each GPU.
 ------------------------------------------
 # polar def2tzvp apfd int=(grid=ultrafine)
 ------------------------------------------
 1/38=1,172=1/1;
 2/12=2,17=6,18=5,40=1/2;
 3/5=44,7=101,11=2,25=1,30=1,74=-44,75=-5/1,2,3;
 4//1;
 5/5=2,38=5,98=1/2;
 8/6=4,10=90,11=11/1;
 10/6=1,13=10/2;
 6/7=2,8=2,9=2,10=2,28=1/1;
 99/5=1,9=1/99;
 ---------
 2hi4_II_S
 ---------
 Symbolic Z-matrix:
 Charge =  0 Multiplicity = 1
 Fe                    4.93723   24.88676   23.87543 
 N                     6.50616   25.02952   22.64072 
 N                     6.18291   24.21423   25.31091 
 N                     3.40173   24.35151   25.039 
 N                     3.71529   25.01563   22.31083 
 C                     6.47473   25.31604   21.31008 
 C                     7.80843   25.37106   20.75873 
 C                     8.65757   25.11683   21.78944 
 C                     7.82918   24.89579   22.95342 
 C                     7.54618   24.15136   25.26716 
 C                     8.08913   23.76586   26.54261 
 C                     7.01862   23.5955   27.37952 
 C                     5.84129   23.89043   26.59032 
 C                     3.42563   24.23532   26.39805 
 C                     2.09248   24.18267   26.9384 
 C                     1.24587   24.23404   25.86458 
 C                     2.08704   24.34567   24.68766 
 C                     2.35589   24.94463   22.32778 
 C                     1.80507   25.21592   21.01885 
 C                     2.86398   25.47687   20.20774 
 C                     4.04653   25.33479   21.02784 
 C                     5.32976   25.54724   20.56908 
 H                     5.45319   25.8113   19.53033 
 C                     8.31924   24.42373   24.15295 
 H                     9.38917   24.32655   24.25091 
 C                     4.574     23.99435   27.12969 
 H                     4.4737    23.84638   28.19369 
 C                     1.58913   24.71287   23.45187 
 H                     0.51642   24.74174   23.33774 
 C                     10.14517   25.03831   21.7904 
 H                     10.54802   25.35403   20.83136 
 H                     10.47514   24.01633   21.97972 
 H                     10.56364   25.67865   22.5667 
 C                     8.11564   25.65051   19.32837 
 H                     7.74203   26.63356   19.03989 
 H                     7.64494   24.90696   18.68512 
 H                     9.18812   25.62496   19.15231 
 C                     9.53105   23.52645   26.82236 
 H                     10.00725   23.02102   25.98346 
 H                     9.63938   22.9063   27.70957 
 H                     10.05672   24.46771   26.99347 
 C                     6.99265   23.18344   28.76623 
 H                     6.14855   22.56692   29.05231 
 C                     7.90284   23.50309   29.67996 
 H                     8.73396   24.14966   29.458 
 H                     7.8313    23.1485   30.69455 
 C                     1.75367   24.01344   28.3772 
 H                     1.81655   24.96728   28.90318 
 H                     2.44075   23.31903   28.85813 
 H                     0.74141   23.62833   28.47932 
 C                    -0.19868   24.16264   25.82993 
 H                    -0.61781   23.6364   24.98007 
 C                    -1.0155    24.68795   26.73653 
 H                    -0.65004   25.25995   27.57151 
 H                    -2.08499   24.58707   26.65718 
 C                     0.3504    25.19783   20.7017 
 H                    -0.17663   25.95557   21.28186 
 H                    -0.08044   24.22625   20.943 
 H                     0.18244   25.39514   19.64598 
 C                     2.8857    25.81029   18.75631 
 H                     1.87664   25.84757   18.35403 
 H                     3.4505    25.06214   18.19982 
 H                     3.356     26.78022   18.5935 
 C                     6.30182   27.98155   23.82198 
 H                     7.20617   27.39631   23.94901 
 H                     6.39024   28.95473   24.29469 
 H                     6.08242   28.0954   22.76539 
 S                     4.87929   27.08771   24.55198 
 H                     5.41613   27.0082   25.77853 
 
 Stoichiometry    C31H32FeN4S
 Framework group  C1[X(C31H32FeN4S)]
 Deg. of freedom   201
 Full point group                 C1      NOp   1
 Largest Abelian subgroup         C1      NOp   1
 Largest concise Abelian subgroup C1      NOp   1
                         Standard orientation:                         
 ---------------------------------------------------------------------
 Center     Atomic      Atomic             Coordinates (Angstroms)
 Number     Number       Type             X           Y           Z
 ---------------------------------------------------------------------
      1         26           0       -0.049406   -0.174877   -0.034327
      2          7           0       -1.856023   -1.028099   -0.155123
      3          7           0       -0.922214    1.616118   -0.342803
      4          7           0        1.723610    0.707062   -0.311371
      5          7           0        0.792118   -1.960123   -0.284239
      6          6           0       -2.129246   -2.361649   -0.180945
      7          6           0       -3.552751   -2.599495   -0.234268
      8          6           0       -4.143835   -1.375301   -0.233823
      9          6           0       -3.071697   -0.406325   -0.194755
     10          6           0       -2.258297    1.892851   -0.394375
     11          6           0       -2.492117    3.310505   -0.470160
     12          6           0       -1.257934    3.903901   -0.460023
     13          6           0       -0.295259    2.826330   -0.370342
     14          6           0        2.004081    2.027372   -0.113361
     15          6           0        3.424533    2.254371   -0.060237
     16          6           0        4.011228    1.035721   -0.267963
     17          6           0        2.927871    0.082053   -0.416325
     18          6           0        2.123529   -2.231146   -0.369044
     19          6           0        2.361908   -3.656483   -0.412209
     20          6           0        1.141332   -4.248483   -0.328427
     21          6           0        0.174674   -3.175002   -0.262184
     22          6           0       -1.185115   -3.371884   -0.141816
     23          1           0       -1.544139   -4.389051   -0.120531
     24          6           0       -3.267457    0.947116   -0.372906
     25          1           0       -4.285120    1.300571   -0.429703
     26          6           0        1.054933    3.031698   -0.164097
     27          1           0        1.392647    4.051717   -0.066273
     28          6           0        3.127215   -1.283819   -0.348636
     29          1           0        4.146568   -1.637781   -0.362067
     30          6           0       -5.590674   -1.024913   -0.288626
     31          1           0       -6.206424   -1.915854   -0.194811
     32          1           0       -5.832432   -0.540786   -1.235386
     33          1           0       -5.851443   -0.340224    0.518211
     34          6           0       -4.177762   -3.950494   -0.284908
     35          1           0       -3.913860   -4.529577    0.600652
     36          1           0       -3.832915   -4.497338   -1.162538
     37          1           0       -5.260951   -3.872510   -0.334602
     38          6           0       -3.827006    3.951446   -0.618474
     39          1           0       -4.457113    3.376401   -1.295436
     40          1           0       -3.713972    4.957086   -1.017693
     41          1           0       -4.336833    4.018148    0.344436
     42          6           0       -0.911719    5.306202   -0.544402
     43          1           0       -0.002908    5.528611   -1.091252
     44          6           0       -1.609517    6.303356   -0.011214
     45          1           0       -2.492668    6.132059    0.579362
     46          1           0       -1.303015    7.329638   -0.125400
     47          6           0        4.078085    3.581407    0.099152
     48          1           0        4.097054    3.878575    1.148798
     49          1           0        3.540264    4.347643   -0.456917
     50          1           0        5.101623    3.539574   -0.266928
     51          6           0        5.414283    0.696875   -0.366179
     52          1           0        5.655227   -0.083510   -1.078790
     53          6           0        6.390572    1.255664    0.340701
     54          1           0        6.196957    1.999621    1.093683
     55          1           0        7.419300    0.964731    0.208966
     56          6           0        3.710595   -4.277518   -0.523269
     57          1           0        4.323823   -4.016200    0.339383
     58          1           0        4.219986   -3.925152   -1.420028
     59          1           0        3.634352   -5.360659   -0.575036
     60          6           0        0.787931   -5.695323   -0.335455
     61          1           0        1.681458   -6.310219   -0.405682
     62          1           0        0.142754   -5.927941   -1.182826
     63          1           0        0.257441   -5.964083    0.578215
     64          6           0       -1.506837   -0.620850    2.985554
     65          1           0       -2.338471   -0.166436    2.457940
     66          1           0       -1.525217   -0.372881    4.042213
     67          1           0       -1.530021   -1.697421    2.851616
     68         16           0        0.073939   -0.043795    2.261940
     69          1           0       -0.176125    1.256965    2.472741
 ---------------------------------------------------------------------
 Rotational constants (GHZ):           0.1106613           0.1095205           0.0598717
 Standard basis: def2TZVP (5D, 7F)
 There are  1546 symmetry adapted cartesian basis functions of A   symmetry.
 There are  1359 symmetry adapted basis functions of A   symmetry.
  1359 basis functions,  2212 primitive gaussians,  1546 cartesian basis functions
   144 alpha electrons      144 beta electrons
       nuclear repulsion energy      5033.0717265100 Hartrees.
 NAtoms=   69 NActive=   69 NUniq=   69 SFac= 1.00D+00 NAtFMM=   60 NAOKFM=T Big=T
 Integral buffers will be    131072 words long.
 Raffenetti 2 integral format.
 Two-electron integral symmetry is turned on.
 R6APFD:  NTU= -4 IXU= 1 FactS= 1.050
 Nuclear repulsion after empirical dispersion term =     5032.9415175637 Hartrees.
 One-electron integrals computed using PRISM.
   1 Symmetry operations used in ECPInt.
 ECPInt:  NShTT=  146611 NPrTT=  457451 LenC2=  115706 LenP2D=  240928.
 LDataN:  DoStor=T MaxTD1= 6 Len=  172
 Number of processors reduced to  26 by ecpmxn.
 NBasis=  1359 RedAO= T EigKep=  4.04D-06  NBF=  1359
 NBsUse=  1359 1.00D-06 EigRej= -1.00D+00 NBFU=  1359
 ExpMin= 4.20D-02 ExpMax= 3.01D+05 ExpMxC= 2.91D+03 IAcc=3 IRadAn=         5 AccDes= 0.00D+00
 Harris functional with IExCor= 3731 and IRadAn=       5 diagonalized for initial guess.
 HarFok:  IExCor= 3731 AccDes= 0.00D+00 IRadAn=         5 IDoV= 1 UseB2=F ITyADJ=14
 ICtDFT=  3500011 ScaDFX=  1.000000  1.000000  1.000000  1.000000
 FoFCou: FMM=F IPFlag=           0 FMFlag=      100000 FMFlg1=        2001
         NFxFlg=           0 DoJE=T BraDBF=F KetDBF=T FulRan=T
         wScrn=  0.000000 ICntrl=       500 IOpCl=  0 I1Cent=   200000004 NGrid=           0
         NMat0=    1 NMatS0=      1 NMatT0=    0 NMatD0=    1 NMtDS0=    0 NMtDT0=    0
 Petite list used in FoFCou.
 Requested convergence on RMS density matrix=1.00D-08 within 128 cycles.
 Requested convergence on MAX density matrix=1.00D-06.
 Requested convergence on             energy=1.00D-06.
 No special actions if energy rises.
 EnCoef did     3 forward-backward iterations
 EnCoef did   100 forward-backward iterations
 EnCoef did   100 forward-backward iterations
 EnCoef did   100 forward-backward iterations
 EnCoef did     4 forward-backward iterations
 EnCoef did     6 forward-backward iterations
 Restarting incremental Fock formation.
 SCF Done:  E(RAPFD) =  -3080.76390739     A.U. after   31 cycles
            NFock= 31  Conv=0.25D-08     -V/T= 2.0031
 DoSCS=F DFT=T ScalE2(SS,OS)=  1.000000  1.000000
 Range of M.O.s used for correlation:     1  1359
 NBasis=  1359 NAE=   144 NBE=   144 NFC=     0 NFV=     0
 NROrb=   1359 NOA=   144 NOB=   144 NVA=  1215 NVB=  1215

 **** Warning!!: The largest alpha MO coefficient is  0.56694139D+02

          Differentiating once with respect to electric field.
                with respect to dipole field.
          Electric field/nuclear overlap derivatives assumed to be zero.
          There are     3 degrees of freedom in the 1st order CPHF.  IDoFFX=0 NUNeed=     3.
      3 vectors produced by pass  0 Test12= 5.83D-12 3.33D-08 XBig12= 1.83D+03 2.89D+01.
 AX will form     3 AO Fock derivatives at one time.
      3 vectors produced by pass  1 Test12= 5.83D-12 3.33D-08 XBig12= 1.12D+03 7.15D+00.
      3 vectors produced by pass  2 Test12= 5.83D-12 3.33D-08 XBig12= 5.05D+02 4.39D+00.
      3 vectors produced by pass  3 Test12= 5.83D-12 3.33D-08 XBig12= 2.16D+02 3.14D+00.
      3 vectors produced by pass  4 Test12= 5.83D-12 3.33D-08 XBig12= 1.41D+02 3.32D+00.
      3 vectors produced by pass  5 Test12= 5.83D-12 3.33D-08 XBig12= 8.18D+01 2.79D+00.
      3 vectors produced by pass  6 Test12= 5.83D-12 3.33D-08 XBig12= 5.99D+01 2.21D+00.
      3 vectors produced by pass  7 Test12= 5.83D-12 3.33D-08 XBig12= 3.21D+01 1.51D+00.
      3 vectors produced by pass  8 Test12= 5.83D-12 3.33D-08 XBig12= 8.82D+00 1.02D+00.
      3 vectors produced by pass  9 Test12= 5.83D-12 3.33D-08 XBig12= 6.26D+00 7.83D-01.
      3 vectors produced by pass 10 Test12= 5.83D-12 3.33D-08 XBig12= 2.13D+00 5.82D-01.
      3 vectors produced by pass 11 Test12= 5.83D-12 3.33D-08 XBig12= 8.84D-01 2.35D-01.
      3 vectors produced by pass 12 Test12= 5.83D-12 3.33D-08 XBig12= 2.98D-01 8.23D-02.
      3 vectors produced by pass 13 Test12= 5.83D-12 3.33D-08 XBig12= 1.04D-01 5.40D-02.
      3 vectors produced by pass 14 Test12= 5.83D-12 3.33D-08 XBig12= 3.57D-02 4.61D-02.
      3 vectors produced by pass 15 Test12= 5.83D-12 3.33D-08 XBig12= 9.14D-03 4.00D-02.
      3 vectors produced by pass 16 Test12= 5.83D-12 3.33D-08 XBig12= 4.05D-03 2.66D-02.
      3 vectors produced by pass 17 Test12= 5.83D-12 3.33D-08 XBig12= 1.15D-03 1.10D-02.
      3 vectors produced by pass 18 Test12= 5.83D-12 3.33D-08 XBig12= 1.65D-04 1.88D-03.
      3 vectors produced by pass 19 Test12= 5.83D-12 3.33D-08 XBig12= 5.00D-05 1.46D-03.
      3 vectors produced by pass 20 Test12= 5.83D-12 3.33D-08 XBig12= 1.00D-05 7.18D-04.
      3 vectors produced by pass 21 Test12= 5.83D-12 3.33D-08 XBig12= 1.70D-06 3.36D-04.
      3 vectors produced by pass 22 Test12= 5.83D-12 3.33D-08 XBig12= 3.10D-07 1.25D-04.
      3 vectors produced by pass 23 Test12= 5.83D-12 3.33D-08 XBig12= 5.08D-08 5.53D-05.
      3 vectors produced by pass 24 Test12= 5.83D-12 3.33D-08 XBig12= 7.87D-09 1.79D-05.
      3 vectors produced by pass 25 Test12= 5.83D-12 3.33D-08 XBig12= 1.80D-09 6.63D-06.
      3 vectors produced by pass 26 Test12= 5.83D-12 3.33D-08 XBig12= 3.18D-10 2.79D-06.
      3 vectors produced by pass 27 Test12= 5.83D-12 3.33D-08 XBig12= 6.40D-11 1.02D-06.
      3 vectors produced by pass 28 Test12= 5.83D-12 3.33D-08 XBig12= 1.05D-11 5.88D-07.
      3 vectors produced by pass 29 Test12= 5.83D-12 3.33D-08 XBig12= 9.09D-13 1.41D-07.
      2 vectors produced by pass 30 Test12= 5.83D-12 3.33D-08 XBig12= 7.16D-14 4.52D-08.
 InvSVY:  IOpt=1 It=  1 EMax= 9.31D-15
 Solved reduced A of dimension    92 with     3 vectors.
 Isotropic polarizability for W=    0.000000      544.98 Bohr**3.
 End of Minotr F.D. properties file   721 does not exist.
 End of Minotr F.D. properties file   722 does not exist.
 End of Minotr F.D. properties file   788 does not exist.

 **********************************************************************

            Population analysis using the SCF Density.

 **********************************************************************

 Orbital symmetries:
       Occupied  (A) (A) (A) (A) (A) (A) (A) (A) (A) (A) (A) (A)
                 (A) (A) (A) (A) (A) (A) (A) (A) (A) (A) (A) (A)
                 (A) (A) (A) (A) (A) (A) (A) (A) (A) (A) (A) (A)
                 (A) (A) (A) (A) (A) (A) (A) (A) (A) (A) (A) (A)
                 (A) (A) (A) (A) (A) (A) (A) (A) (A) (A) (A) (A)
                 (A) (A) (A) (A) (A) (A) (A) (A) (A) (A) (A) (A)
                 (A) (A) (A) (A) (A) (A) (A) (A) (A) (A) (A) (A)
                 (A) (A) (A) (A) (A) (A) (A) (A) (A) (A) (A) (A)
                 (A) (A) (A) (A) (A) (A) (A) (A) (A) (A) (A) (A)
                 (A) (A) (A) (A) (A) (A) (A) (A) (A) (A) (A) (A)
                 (A) (A) (A) (A) (A) (A) (A) (A) (A) (A) (A) (A)
                 (A) (A) (A) (A) (A) (A) (A) (A) (A) (A) (A) (A)
       Virtual   (A) (A) (A) (A) (A) (A) (A) (A) (A) (A) (A) (A)
                 (A) (A) (A) (A) (A) (A) (A) (A) (A) (A) (A) (A)
                 (A) (A) (A) (A) (A) (A) (A) (A) (A) (A) (A) (A)
                 (A) (A) (A) (A) (A) (A) (A) (A) (A) (A) (A) (A)
                 (A) (A) (A) (A) (A) (A) (A) (A) (A) (A) (A) (A)
                 (A) (A) (A) (A) (A) (A) (A) (A) (A) (A) (A) (A)
                 (A) (A) (A) (A) (A) (A) (A) (A) (A) (A) (A) (A)
                 (A) (A) (A) (A) (A) (A) (A) (A) (A) (A) (A) (A)
                 (A) (A) (A) (A) (A) (A) (A) (A) (A) (A) (A) (A)
                 (A) (A) (A) (A) (A) (A) (A) (A) (A) (A) (A) (A)
                 (A) (A) (A) (A) (A) (A) (A) (A) (A) (A) (A) (A)
                 (A) (A) (A) (A) (A) (A) (A) (A) (A) (A) (A) (A)
                 (A) (A) (A) (A) (A) (A) (A) (A) (A) (A) (A) (A)
                 (A) (A) (A) (A) (A) (A) (A) (A) (A) (A) (A) (A)
                 (A) (A) (A) (A) (A) (A) (A) (A) (A) (A) (A) (A)
                 (A) (A) (A) (A) (A) (A) (A) (A) (A) (A) (A) (A)
                 (A) (A) (A) (A) (A) (A) (A) (A) (A) (A) (A) (A)
                 (A) (A) (A) (A) (A) (A) (A) (A) (A) (A) (A) (A)
                 (A) (A) (A) (A) (A) (A) (A) (A) (A) (A) (A) (A)
                 (A) (A) (A) (A) (A) (A) (A) (A) (A) (A) (A) (A)
                 (A) (A) (A) (A) (A) (A) (A) (A) (A) (A) (A) (A)
                 (A) (A) (A) (A) (A) (A) (A) (A) (A) (A) (A) (A)
                 (A) (A) (A) (A) (A) (A) (A) (A) (A) (A) (A) (A)
                 (A) (A) (A) (A) (A) (A) (A) (A) (A) (A) (A) (A)
                 (A) (A) (A) (A) (A) (A) (A) (A) (A) (A) (A) (A)
                 (A) (A) (A) (A) (A) (A) (A) (A) (A) (A) (A) (A)
                 (A) (A) (A) (A) (A) (A) (A) (A) (A) (A) (A) (A)
                 (A) (A) (A) (A) (A) (A) (A) (A) (A) (A) (A) (A)
                 (A) (A) (A) (A) (A) (A) (A) (A) (A) (A) (A) (A)
                 (A) (A) (A) (A) (A) (A) (A) (A) (A) (A) (A) (A)
                 (A) (A) (A) (A) (A) (A) (A) (A) (A) (A) (A) (A)
                 (A) (A) (A) (A) (A) (A) (A) (A) (A) (A) (A) (A)
                 (A) (A) (A) (A) (A) (A) (A) (A) (A) (A) (A) (A)
                 (A) (A) (A) (A) (A) (A) (A) (A) (A) (A) (A) (A)
                 (A) (A) (A) (A) (A) (A) (A) (A) (A) (A) (A) (A)
                 (A) (A) (A) (A) (A) (A) (A) (A) (A) (A) (A) (A)
                 (A) (A) (A) (A) (A) (A) (A) (A) (A) (A) (A) (A)
                 (A) (A) (A) (A) (A) (A) (A) (A) (A) (A) (A) (A)
                 (A) (A) (A) (A) (A) (A) (A) (A) (A) (A) (A) (A)
                 (A) (A) (A) (A) (A) (A) (A) (A) (A) (A) (A) (A)
                 (A) (A) (A) (A) (A) (A) (A) (A) (A) (A) (A) (A)
                 (A) (A) (A) (A) (A) (A) (A) (A) (A) (A) (A) (A)
                 (A) (A) (A) (A) (A) (A) (A) (A) (A) (A) (A) (A)
                 (A) (A) (A) (A) (A) (A) (A) (A) (A) (A) (A) (A)
                 (A) (A) (A) (A) (A) (A) (A) (A) (A) (A) (A) (A)
                 (A) (A) (A) (A) (A) (A) (A) (A) (A) (A) (A) (A)
                 (A) (A) (A) (A) (A) (A) (A) (A) (A) (A) (A) (A)
                 (A) (A) (A) (A) (A) (A) (A) (A) (A) (A) (A) (A)
                 (A) (A) (A) (A) (A) (A) (A) (A) (A) (A) (A) (A)
                 (A) (A) (A) (A) (A) (A) (A) (A) (A) (A) (A) (A)
                 (A) (A) (A) (A) (A) (A) (A) (A) (A) (A) (A) (A)
                 (A) (A) (A) (A) (A) (A) (A) (A) (A) (A) (A) (A)
                 (A) (A) (A) (A) (A) (A) (A) (A) (A) (A) (A) (A)
                 (A) (A) (A) (A) (A) (A) (A) (A) (A) (A) (A) (A)
                 (A) (A) (A) (A) (A) (A) (A) (A) (A) (A) (A) (A)
                 (A) (A) (A) (A) (A) (A) (A) (A) (A) (A) (A) (A)
                 (A) (A) (A) (A) (A) (A) (A) (A) (A) (A) (A) (A)
                 (A) (A) (A) (A) (A) (A) (A) (A) (A) (A) (A) (A)
                 (A) (A) (A) (A) (A) (A) (A) (A) (A) (A) (A) (A)
                 (A) (A) (A) (A) (A) (A) (A) (A) (A) (A) (A) (A)
                 (A) (A) (A) (A) (A) (A) (A) (A) (A) (A) (A) (A)
                 (A) (A) (A) (A) (A) (A) (A) (A) (A) (A) (A) (A)
                 (A) (A) (A) (A) (A) (A) (A) (A) (A) (A) (A) (A)
                 (A) (A) (A) (A) (A) (A) (A) (A) (A) (A) (A) (A)
                 (A) (A) (A) (A) (A) (A) (A) (A) (A) (A) (A) (A)
                 (A) (A) (A) (A) (A) (A) (A) (A) (A) (A) (A) (A)
                 (A) (A) (A) (A) (A) (A) (A) (A) (A) (A) (A) (A)
                 (A) (A) (A) (A) (A) (A) (A) (A) (A) (A) (A) (A)
                 (A) (A) (A) (A) (A) (A) (A) (A) (A) (A) (A) (A)
                 (A) (A) (A) (A) (A) (A) (A) (A) (A) (A) (A) (A)
                 (A) (A) (A) (A) (A) (A) (A) (A) (A) (A) (A) (A)
                 (A) (A) (A) (A) (A) (A) (A) (A) (A) (A) (A) (A)
                 (A) (A) (A) (A) (A) (A) (A) (A) (A) (A) (A) (A)
                 (A) (A) (A) (A) (A) (A) (A) (A) (A) (A) (A) (A)
                 (A) (A) (A) (A) (A) (A) (A) (A) (A) (A) (A) (A)
                 (A) (A) (A) (A) (A) (A) (A) (A) (A) (A) (A) (A)
                 (A) (A) (A) (A) (A) (A) (A) (A) (A) (A) (A) (A)
                 (A) (A) (A) (A) (A) (A) (A) (A) (A) (A) (A) (A)
                 (A) (A) (A) (A) (A) (A) (A) (A) (A) (A) (A) (A)
                 (A) (A) (A) (A) (A) (A) (A) (A) (A) (A) (A) (A)
                 (A) (A) (A) (A) (A) (A) (A) (A) (A) (A) (A) (A)
                 (A) (A) (A) (A) (A) (A) (A) (A) (A) (A) (A) (A)
                 (A) (A) (A) (A) (A) (A) (A) (A) (A) (A) (A) (A)
                 (A) (A) (A) (A) (A) (A) (A) (A) (A) (A) (A) (A)
                 (A) (A) (A) (A) (A) (A) (A) (A) (A) (A) (A) (A)
                 (A) (A) (A) (A) (A) (A) (A) (A) (A) (A) (A) (A)
                 (A) (A) (A) (A) (A) (A) (A) (A) (A) (A) (A) (A)
                 (A) (A) (A) (A) (A) (A) (A) (A) (A) (A) (A) (A)
                 (A) (A) (A) (A) (A) (A) (A) (A) (A) (A) (A) (A)
                 (A) (A) (A) (A) (A) (A) (A) (A) (A) (A) (A) (A)
                 (A) (A) (A) (A) (A) (A) (A) (A) (A) (A) (A) (A)
                 (A) (A) (A) (A) (A) (A) (A) (A) (A) (A) (A) (A)
                 (A) (A) (A) (A) (A) (A) (A) (A) (A) (A) (A) (A)
                 (A) (A) (A) (A) (A) (A) (A) (A) (A) (A) (A) (A)
                 (A) (A) (A) (A) (A) (A) (A) (A) (A) (A) (A) (A)
                 (A) (A) (A) (A) (A) (A) (A) (A) (A) (A) (A) (A)
                 (A) (A) (A) (A) (A) (A) (A) (A) (A) (A) (A) (A)
                 (A) (A) (A) (A) (A) (A) (A) (A) (A) (A) (A) (A)
                 (A) (A) (A) (A) (A) (A) (A) (A) (A) (A) (A) (A)
                 (A) (A) (A) (A) (A) (A) (A) (A) (A) (A) (A) (A)
                 (A) (A) (A) (A) (A) (A) (A) (A) (A) (A) (A) (A)
                 (A) (A) (A)
 The electronic state is 1-A.
 Alpha  occ. eigenvalues -- -256.19645 -88.97634 -30.04564 -25.88762 -25.88322
 Alpha  occ. eigenvalues --  -25.88296 -14.34747 -14.34626 -14.34626 -14.34544
 Alpha  occ. eigenvalues --  -10.22869 -10.21932 -10.21827 -10.21815 -10.21798
 Alpha  occ. eigenvalues --  -10.21773 -10.21764 -10.21764 -10.21616 -10.20188
 Alpha  occ. eigenvalues --  -10.20044 -10.19808 -10.19752 -10.19547 -10.19453
 Alpha  occ. eigenvalues --  -10.19429 -10.19418 -10.19388 -10.19363 -10.19343
 Alpha  occ. eigenvalues --  -10.19333 -10.19330 -10.19261 -10.19200 -10.19197
 Alpha  occ. eigenvalues --  -10.19102 -10.19072 -10.19009 -10.18841 -10.18819
 Alpha  occ. eigenvalues --  -10.18673  -8.00336  -5.94902  -5.94626  -5.94137
 Alpha  occ. eigenvalues --   -3.42335  -2.19198  -2.18096  -2.18059  -0.97877
 Alpha  occ. eigenvalues --   -0.96911  -0.96874  -0.95897  -0.83179  -0.82628
 Alpha  occ. eigenvalues --   -0.82280  -0.81628  -0.81244  -0.81156  -0.80441
 Alpha  occ. eigenvalues --   -0.80429  -0.77454  -0.76406  -0.75024  -0.74849
 Alpha  occ. eigenvalues --   -0.73853  -0.71702  -0.70799  -0.69029  -0.68678
 Alpha  occ. eigenvalues --   -0.68607  -0.67344  -0.64981  -0.64892  -0.61320
 Alpha  occ. eigenvalues --   -0.60685  -0.58682  -0.57488  -0.55285  -0.54464
 Alpha  occ. eigenvalues --   -0.54059  -0.53366  -0.51880  -0.51817  -0.51350
 Alpha  occ. eigenvalues --   -0.49471  -0.48585  -0.48137  -0.47414  -0.46185
 Alpha  occ. eigenvalues --   -0.45616  -0.45402  -0.45258  -0.44856  -0.44544
 Alpha  occ. eigenvalues --   -0.44341  -0.44138  -0.43947  -0.43795  -0.43383
 Alpha  occ. eigenvalues --   -0.43044  -0.42430  -0.42132  -0.41912  -0.41586
 Alpha  occ. eigenvalues --   -0.40900  -0.40837  -0.40784  -0.40434  -0.40182
 Alpha  occ. eigenvalues --   -0.39979  -0.39862  -0.39303  -0.39188  -0.38715
 Alpha  occ. eigenvalues --   -0.38371  -0.37875  -0.37750  -0.37386  -0.37038
 Alpha  occ. eigenvalues --   -0.36826  -0.36221  -0.35704  -0.35197  -0.34775
 Alpha  occ. eigenvalues --   -0.34404  -0.32659  -0.31814  -0.31623  -0.31236
 Alpha  occ. eigenvalues --   -0.30340  -0.30021  -0.29306  -0.27542  -0.27343
 Alpha  occ. eigenvalues --   -0.25302  -0.24815  -0.23836  -0.22937  -0.21191
 Alpha  occ. eigenvalues --   -0.19799  -0.19663  -0.19614  -0.18659
 Alpha virt. eigenvalues --   -0.07496  -0.07385  -0.04008  -0.02707  -0.00054
 Alpha virt. eigenvalues --    0.00532   0.01666   0.02806   0.03488   0.03768
 Alpha virt. eigenvalues --    0.04475   0.05217   0.05636   0.05675   0.06549
 Alpha virt. eigenvalues --    0.07006   0.07209   0.07555   0.07875   0.08294
 Alpha virt. eigenvalues --    0.08410   0.08996   0.09513   0.09590   0.09949
 Alpha virt. eigenvalues --    0.10587   0.10667   0.10748   0.11113   0.11325
 Alpha virt. eigenvalues --    0.11563   0.12088   0.12107   0.12592   0.12816
 Alpha virt. eigenvalues --    0.13073   0.13194   0.13638   0.13743   0.13898
 Alpha virt. eigenvalues --    0.14122   0.14529   0.14828   0.15033   0.15176
 Alpha virt. eigenvalues --    0.15252   0.15496   0.15656   0.16032   0.16077
 Alpha virt. eigenvalues --    0.16663   0.16670   0.17000   0.17192   0.17254
 Alpha virt. eigenvalues --    0.17606   0.17917   0.18486   0.18835   0.19135
 Alpha virt. eigenvalues --    0.19316   0.19734   0.19840   0.20088   0.20307
 Alpha virt. eigenvalues --    0.20620   0.20928   0.21350   0.21596   0.21737
 Alpha virt. eigenvalues --    0.22258   0.22469   0.23029   0.23397   0.23651
 Alpha virt. eigenvalues --    0.23822   0.24126   0.24842   0.24949   0.25228
 Alpha virt. eigenvalues --    0.25445   0.25542   0.26328   0.26542   0.26643
 Alpha virt. eigenvalues --    0.26920   0.27035   0.27437   0.27898   0.28162
 Alpha virt. eigenvalues --    0.28530   0.28710   0.28912   0.29051   0.29374
 Alpha virt. eigenvalues --    0.29621   0.29826   0.30310   0.30463   0.30714
 Alpha virt. eigenvalues --    0.30868   0.31433   0.31643   0.31838   0.31935
 Alpha virt. eigenvalues --    0.32653   0.32990   0.33392   0.33811   0.33953
 Alpha virt. eigenvalues --    0.34122   0.34254   0.34709   0.34909   0.35337
 Alpha virt. eigenvalues --    0.35994   0.36079   0.36204   0.36802   0.36931
 Alpha virt. eigenvalues --    0.37263   0.37280   0.37987   0.38466   0.38747
 Alpha virt. eigenvalues --    0.38911   0.39335   0.39582   0.39589   0.39858
 Alpha virt. eigenvalues --    0.40057   0.40257   0.40535   0.40601   0.40823
 Alpha virt. eigenvalues --    0.41146   0.41378   0.41624   0.41848   0.42077
 Alpha virt. eigenvalues --    0.42326   0.42542   0.42751   0.42918   0.43185
 Alpha virt. eigenvalues --    0.43410   0.43643   0.43899   0.44306   0.44621
 Alpha virt. eigenvalues --    0.44917   0.45268   0.45506   0.45576   0.45932
 Alpha virt. eigenvalues --    0.46169   0.46317   0.46619   0.46713   0.47251
 Alpha virt. eigenvalues --    0.47431   0.47461   0.47870   0.48062   0.48235
 Alpha virt. eigenvalues --    0.48338   0.48545   0.48893   0.49217   0.49471
 Alpha virt. eigenvalues --    0.49817   0.49925   0.50118   0.50406   0.50626
 Alpha virt. eigenvalues --    0.50742   0.50866   0.51026   0.51341   0.51548
 Alpha virt. eigenvalues --    0.51853   0.52007   0.52143   0.52540   0.52858
 Alpha virt. eigenvalues --    0.52935   0.53365   0.53600   0.53781   0.54142
 Alpha virt. eigenvalues --    0.54894   0.55111   0.55648   0.55800   0.55889
 Alpha virt. eigenvalues --    0.56382   0.56825   0.57036   0.57324   0.57748
 Alpha virt. eigenvalues --    0.58021   0.58434   0.58623   0.59346   0.59632
 Alpha virt. eigenvalues --    0.59952   0.60625   0.60762   0.61296   0.61665
 Alpha virt. eigenvalues --    0.61732   0.61978   0.62449   0.62729   0.63173
 Alpha virt. eigenvalues --    0.63370   0.63483   0.63894   0.64220   0.64545
 Alpha virt. eigenvalues --    0.64852   0.65227   0.65522   0.65902   0.66065
 Alpha virt. eigenvalues --    0.66824   0.67249   0.67261   0.67615   0.68232
 Alpha virt. eigenvalues --    0.68380   0.68740   0.68881   0.69355   0.69963
 Alpha virt. eigenvalues --    0.70299   0.70672   0.70902   0.71136   0.71450
 Alpha virt. eigenvalues --    0.71876   0.72069   0.72196   0.72601   0.72837
 Alpha virt. eigenvalues --    0.73300   0.73528   0.73611   0.73815   0.74516
 Alpha virt. eigenvalues --    0.74770   0.75325   0.75778   0.75890   0.76296
 Alpha virt. eigenvalues --    0.76882   0.77347   0.77683   0.77824   0.78038
 Alpha virt. eigenvalues --    0.78477   0.78587   0.79225   0.79646   0.79906
 Alpha virt. eigenvalues --    0.80063   0.81266   0.81384   0.81708   0.82094
 Alpha virt. eigenvalues --    0.82448   0.83050   0.83080   0.83805   0.84432
 Alpha virt. eigenvalues --    0.85263   0.85457   0.85947   0.86429   0.86704
 Alpha virt. eigenvalues --    0.86882   0.87578   0.87964   0.88146   0.88244
 Alpha virt. eigenvalues --    0.88634   0.89093   0.89641   0.90049   0.90585
 Alpha virt. eigenvalues --    0.90916   0.91628   0.92268   0.92550   0.92808
 Alpha virt. eigenvalues --    0.93135   0.93483   0.94045   0.94222   0.94400
 Alpha virt. eigenvalues --    0.94918   0.95423   0.95881   0.96560   0.96647
 Alpha virt. eigenvalues --    0.96920   0.97274   0.97535   0.97924   0.98163
 Alpha virt. eigenvalues --    0.98652   0.98942   0.99649   0.99889   1.00021
 Alpha virt. eigenvalues --    1.00150   1.00718   1.00948   1.01361   1.01551
 Alpha virt. eigenvalues --    1.01826   1.02165   1.02794   1.02860   1.03603
 Alpha virt. eigenvalues --    1.03844   1.04008   1.04442   1.04717   1.05660
 Alpha virt. eigenvalues --    1.05987   1.06417   1.06746   1.07737   1.08032
 Alpha virt. eigenvalues --    1.08296   1.08625   1.09306   1.09695   1.10060
 Alpha virt. eigenvalues --    1.10708   1.10793   1.11793   1.12162   1.12507
 Alpha virt. eigenvalues --    1.13463   1.13921   1.14747   1.14946   1.15441
 Alpha virt. eigenvalues --    1.15649   1.16582   1.17069   1.17414   1.17733
 Alpha virt. eigenvalues --    1.18154   1.18497   1.19090   1.19534   1.19763
 Alpha virt. eigenvalues --    1.20439   1.20616   1.20880   1.21392   1.21978
 Alpha virt. eigenvalues --    1.22431   1.22771   1.23282   1.23868   1.24750
 Alpha virt. eigenvalues --    1.25392   1.25657   1.26294   1.26610   1.27032
 Alpha virt. eigenvalues --    1.27441   1.27630   1.28107   1.28459   1.28699
 Alpha virt. eigenvalues --    1.29128   1.29202   1.29571   1.30196   1.30456
 Alpha virt. eigenvalues --    1.31096   1.31661   1.32469   1.32815   1.33480
 Alpha virt. eigenvalues --    1.34774   1.35453   1.36050   1.37120   1.37362
 Alpha virt. eigenvalues --    1.38155   1.38587   1.38944   1.39499   1.40717
 Alpha virt. eigenvalues --    1.41247   1.41674   1.42207   1.42623   1.43603
 Alpha virt. eigenvalues --    1.43924   1.44441   1.44923   1.45105   1.45763
 Alpha virt. eigenvalues --    1.46195   1.46530   1.46962   1.47274   1.47703
 Alpha virt. eigenvalues --    1.47957   1.48379   1.48934   1.49163   1.49325
 Alpha virt. eigenvalues --    1.49763   1.50356   1.50733   1.50946   1.51314
 Alpha virt. eigenvalues --    1.51477   1.52065   1.52363   1.52908   1.53374
 Alpha virt. eigenvalues --    1.53597   1.53668   1.53999   1.54173   1.54457
 Alpha virt. eigenvalues --    1.54526   1.54910   1.55102   1.55361   1.55691
 Alpha virt. eigenvalues --    1.55985   1.56296   1.56373   1.56896   1.57369
 Alpha virt. eigenvalues --    1.57529   1.57815   1.58078   1.58304   1.58563
 Alpha virt. eigenvalues --    1.58843   1.59378   1.59492   1.59881   1.60277
 Alpha virt. eigenvalues --    1.60667   1.61285   1.61911   1.62118   1.62462
 Alpha virt. eigenvalues --    1.62841   1.63365   1.63511   1.64180   1.64492
 Alpha virt. eigenvalues --    1.64553   1.64812   1.64989   1.65305   1.65619
 Alpha virt. eigenvalues --    1.66132   1.66550   1.66681   1.66961   1.67466
 Alpha virt. eigenvalues --    1.68145   1.68283   1.68473   1.69136   1.69316
 Alpha virt. eigenvalues --    1.69704   1.70007   1.70282   1.70551   1.71483
 Alpha virt. eigenvalues --    1.71570   1.72417   1.72848   1.73107   1.73252
 Alpha virt. eigenvalues --    1.73960   1.74145   1.74572   1.75077   1.75918
 Alpha virt. eigenvalues --    1.76134   1.76656   1.77287   1.78220   1.78490
 Alpha virt. eigenvalues --    1.78910   1.80229   1.80540   1.81057   1.81474
 Alpha virt. eigenvalues --    1.82056   1.82515   1.82882   1.83014   1.83347
 Alpha virt. eigenvalues --    1.84051   1.84337   1.84783   1.85536   1.85864
 Alpha virt. eigenvalues --    1.86786   1.86955   1.87440   1.87796   1.88780
 Alpha virt. eigenvalues --    1.88986   1.89579   1.89982   1.90645   1.90978
 Alpha virt. eigenvalues --    1.91688   1.92379   1.92682   1.93188   1.93972
 Alpha virt. eigenvalues --    1.94219   1.94803   1.95297   1.95842   1.96499
 Alpha virt. eigenvalues --    1.96594   1.97271   1.97572   1.97810   1.98445
 Alpha virt. eigenvalues --    1.98970   1.99172   1.99380   2.00469   2.00793
 Alpha virt. eigenvalues --    2.00971   2.01633   2.02470   2.03324   2.03594
 Alpha virt. eigenvalues --    2.03842   2.04422   2.05752   2.06359   2.06883
 Alpha virt. eigenvalues --    2.07105   2.07703   2.07962   2.08560   2.09554
 Alpha virt. eigenvalues --    2.09832   2.10196   2.10761   2.11013   2.11659
 Alpha virt. eigenvalues --    2.11955   2.13211   2.13413   2.14078   2.14317
 Alpha virt. eigenvalues --    2.14380   2.15109   2.15625   2.15803   2.16803
 Alpha virt. eigenvalues --    2.16905   2.17643   2.18490   2.19005   2.19112
 Alpha virt. eigenvalues --    2.19338   2.20291   2.20766   2.21413   2.21854
 Alpha virt. eigenvalues --    2.22314   2.22676   2.23621   2.24284   2.24643
 Alpha virt. eigenvalues --    2.25108   2.25221   2.25395   2.26185   2.26776
 Alpha virt. eigenvalues --    2.27255   2.27489   2.27700   2.28454   2.28873
 Alpha virt. eigenvalues --    2.29718   2.30392   2.30758   2.31017   2.32274
 Alpha virt. eigenvalues --    2.32520   2.33031   2.33827   2.33956   2.34665
 Alpha virt. eigenvalues --    2.34859   2.35241   2.35483   2.35728   2.36508
 Alpha virt. eigenvalues --    2.36836   2.37201   2.37533   2.37947   2.38085
 Alpha virt. eigenvalues --    2.38665   2.39076   2.39679   2.40354   2.40500
 Alpha virt. eigenvalues --    2.41173   2.41998   2.42260   2.42592   2.43313
 Alpha virt. eigenvalues --    2.43634   2.43902   2.44678   2.45096   2.45452
 Alpha virt. eigenvalues --    2.45711   2.45887   2.46261   2.46436   2.47198
 Alpha virt. eigenvalues --    2.47558   2.48598   2.49270   2.49676   2.50586
 Alpha virt. eigenvalues --    2.51523   2.52314   2.52579   2.52717   2.53349
 Alpha virt. eigenvalues --    2.54010   2.54312   2.54715   2.54846   2.55123
 Alpha virt. eigenvalues --    2.55448   2.55969   2.56372   2.56782   2.57224
 Alpha virt. eigenvalues --    2.57634   2.58272   2.58487   2.58721   2.59047
 Alpha virt. eigenvalues --    2.59686   2.60044   2.60617   2.60645   2.61099
 Alpha virt. eigenvalues --    2.61740   2.62327   2.62686   2.62907   2.63020
 Alpha virt. eigenvalues --    2.63464   2.64446   2.65314   2.65600   2.66177
 Alpha virt. eigenvalues --    2.66628   2.66812   2.67087   2.67312   2.67731
 Alpha virt. eigenvalues --    2.68599   2.68931   2.69336   2.69952   2.70089
 Alpha virt. eigenvalues --    2.70803   2.71062   2.71625   2.72114   2.72864
 Alpha virt. eigenvalues --    2.73192   2.73819   2.74099   2.74738   2.74976
 Alpha virt. eigenvalues --    2.75572   2.76459   2.77044   2.77557   2.78019
 Alpha virt. eigenvalues --    2.78552   2.79224   2.79557   2.80276   2.80490
 Alpha virt. eigenvalues --    2.80605   2.81635   2.82113   2.82337   2.82721
 Alpha virt. eigenvalues --    2.82798   2.83144   2.83838   2.84349   2.84816
 Alpha virt. eigenvalues --    2.85337   2.85861   2.86517   2.86665   2.86884
 Alpha virt. eigenvalues --    2.87318   2.87683   2.88194   2.88923   2.88997
 Alpha virt. eigenvalues --    2.89542   2.90164   2.90314   2.90458   2.91601
 Alpha virt. eigenvalues --    2.91959   2.92737   2.92860   2.93509   2.93766
 Alpha virt. eigenvalues --    2.93990   2.94092   2.94741   2.94890   2.95827
 Alpha virt. eigenvalues --    2.96163   2.96593   2.97126   2.97554   2.98307
 Alpha virt. eigenvalues --    2.98567   2.99495   3.00033   3.00113   3.00720
 Alpha virt. eigenvalues --    3.01037   3.01243   3.02122   3.02550   3.03518
 Alpha virt. eigenvalues --    3.03772   3.04430   3.05114   3.05224   3.05646
 Alpha virt. eigenvalues --    3.06136   3.06351   3.06725   3.07076   3.07598
 Alpha virt. eigenvalues --    3.07676   3.08319   3.08850   3.09156   3.09553
 Alpha virt. eigenvalues --    3.09935   3.10113   3.10206   3.10752   3.11293
 Alpha virt. eigenvalues --    3.11701   3.12059   3.12303   3.12646   3.12752
 Alpha virt. eigenvalues --    3.13241   3.13783   3.13968   3.14563   3.14835
 Alpha virt. eigenvalues --    3.15485   3.15592   3.16016   3.16963   3.17062
 Alpha virt. eigenvalues --    3.17342   3.17427   3.17696   3.18240   3.18678
 Alpha virt. eigenvalues --    3.18841   3.19375   3.19945   3.20072   3.20261
 Alpha virt. eigenvalues --    3.20407   3.20791   3.21281   3.21383   3.21802
 Alpha virt. eigenvalues --    3.22039   3.22473   3.22786   3.22840   3.23417
 Alpha virt. eigenvalues --    3.23477   3.23994   3.24564   3.24817   3.25421
 Alpha virt. eigenvalues --    3.25552   3.25743   3.26271   3.26589   3.27030
 Alpha virt. eigenvalues --    3.27696   3.27831   3.28067   3.28532   3.29119
 Alpha virt. eigenvalues --    3.29241   3.29348   3.29872   3.30230   3.30396
 Alpha virt. eigenvalues --    3.30493   3.31113   3.31561   3.31959   3.32027
 Alpha virt. eigenvalues --    3.32236   3.32327   3.32917   3.33333   3.33562
 Alpha virt. eigenvalues --    3.33788   3.34372   3.34456   3.34692   3.34982
 Alpha virt. eigenvalues --    3.35143   3.35409   3.35690   3.36157   3.36321
 Alpha virt. eigenvalues --    3.36539   3.37228   3.37256   3.37621   3.37892
 Alpha virt. eigenvalues --    3.38363   3.38594   3.38835   3.39202   3.39482
 Alpha virt. eigenvalues --    3.39890   3.40291   3.40655   3.41095   3.41618
 Alpha virt. eigenvalues --    3.41725   3.42178   3.42550   3.43268   3.43408
 Alpha virt. eigenvalues --    3.43563   3.44058   3.44237   3.44507   3.45707
 Alpha virt. eigenvalues --    3.46059   3.46338   3.46387   3.47313   3.47937
 Alpha virt. eigenvalues --    3.48604   3.49370   3.49610   3.49977   3.50020
 Alpha virt. eigenvalues --    3.50973   3.51159   3.52584   3.52786   3.53240
 Alpha virt. eigenvalues --    3.54098   3.54590   3.55189   3.55446   3.55767
 Alpha virt. eigenvalues --    3.56671   3.56801   3.57783   3.58036   3.59058
 Alpha virt. eigenvalues --    3.59472   3.59922   3.60454   3.60737   3.60873
 Alpha virt. eigenvalues --    3.61774   3.62585   3.63238   3.63669   3.64258
 Alpha virt. eigenvalues --    3.64495   3.65004   3.66277   3.66587   3.66937
 Alpha virt. eigenvalues --    3.67560   3.68086   3.68433   3.68898   3.69400
 Alpha virt. eigenvalues --    3.69854   3.70318   3.70926   3.71589   3.71611
 Alpha virt. eigenvalues --    3.72014   3.72754   3.73091   3.73490   3.73855
 Alpha virt. eigenvalues --    3.74417   3.74624   3.74765   3.75246   3.76056
 Alpha virt. eigenvalues --    3.76393   3.76936   3.77419   3.78559   3.78786
 Alpha virt. eigenvalues --    3.79973   3.80553   3.81708   3.81877   3.82614
 Alpha virt. eigenvalues --    3.83501   3.83685   3.84636   3.84943   3.85399
 Alpha virt. eigenvalues --    3.86179   3.86325   3.86741   3.87237   3.88002
 Alpha virt. eigenvalues --    3.88784   3.89627   3.90699   3.91096   3.91475
 Alpha virt. eigenvalues --    3.91970   3.92603   3.93817   3.94436   3.95812
 Alpha virt. eigenvalues --    3.96315   3.97068   3.97921   3.98227   3.98476
 Alpha virt. eigenvalues --    3.99210   3.99424   3.99743   4.01366   4.01873
 Alpha virt. eigenvalues --    4.02598   4.03430   4.03859   4.04277   4.04783
 Alpha virt. eigenvalues --    4.04891   4.06054   4.06676   4.07974   4.08673
 Alpha virt. eigenvalues --    4.09164   4.10311   4.10871   4.11703   4.12564
 Alpha virt. eigenvalues --    4.13352   4.14520   4.14612   4.15334   4.15601
 Alpha virt. eigenvalues --    4.16020   4.16803   4.17737   4.18010   4.18501
 Alpha virt. eigenvalues --    4.18848   4.19205   4.20094   4.20814   4.21725
 Alpha virt. eigenvalues --    4.22572   4.22979   4.23220   4.24212   4.24783
 Alpha virt. eigenvalues --    4.25802   4.26292   4.26740   4.27281   4.27771
 Alpha virt. eigenvalues --    4.28110   4.29025   4.29394   4.30097   4.30485
 Alpha virt. eigenvalues --    4.31084   4.31747   4.32258   4.32699   4.32965
 Alpha virt. eigenvalues --    4.34154   4.34860   4.35557   4.36266   4.37131
 Alpha virt. eigenvalues --    4.37439   4.38840   4.39206   4.39762   4.40141
 Alpha virt. eigenvalues --    4.41090   4.41405   4.41962   4.42604   4.43437
 Alpha virt. eigenvalues --    4.44193   4.44602   4.44945   4.46157   4.46509
 Alpha virt. eigenvalues --    4.47088   4.47620   4.48099   4.48913   4.49333
 Alpha virt. eigenvalues --    4.50745   4.51201   4.52367   4.53053   4.53392
 Alpha virt. eigenvalues --    4.54344   4.54860   4.55567   4.56840   4.58296
 Alpha virt. eigenvalues --    4.58675   4.60944   4.62983   4.63487   4.64258
 Alpha virt. eigenvalues --    4.64674   4.66568   4.66965   4.67458   4.68189
 Alpha virt. eigenvalues --    4.68938   4.70007   4.71383   4.72864   4.73472
 Alpha virt. eigenvalues --    4.74174   4.76041   4.77035   4.78079   4.79499
 Alpha virt. eigenvalues --    4.79764   4.81700   4.81963   4.82807   4.83368
 Alpha virt. eigenvalues --    4.84275   4.84759   4.85159   4.85420   4.86998
 Alpha virt. eigenvalues --    4.88358   4.89252   4.90779   4.92049   4.93041
 Alpha virt. eigenvalues --    4.93824   4.94771   4.95172   4.95626   4.96323
 Alpha virt. eigenvalues --    4.98825   5.00060   5.01171   5.01516   5.02910
 Alpha virt. eigenvalues --    5.03193   5.04922   5.05519   5.06560   5.07260
 Alpha virt. eigenvalues --    5.07652   5.08801   5.11017   5.12098   5.14748
 Alpha virt. eigenvalues --    5.15394   5.18587   5.19786   5.20310   5.21045
 Alpha virt. eigenvalues --    5.22151   5.22575   5.23820   5.24792   5.25363
 Alpha virt. eigenvalues --    5.26482   5.33533   5.34144   5.35412   5.36232
 Alpha virt. eigenvalues --    5.36717   5.37899   5.38452   5.38685   5.40115
 Alpha virt. eigenvalues --    5.46822   5.47267   5.48209   5.49366   5.49897
 Alpha virt. eigenvalues --    5.51089   5.51789   5.56134   5.58515   5.58914
 Alpha virt. eigenvalues --    5.60398   5.61509   5.64249   5.64493   5.65669
 Alpha virt. eigenvalues --    5.67002   5.71982   5.74330   5.74866   5.76059
 Alpha virt. eigenvalues --    5.77237   5.84172   5.85692   5.89018   5.97609
 Alpha virt. eigenvalues --    5.99893   6.00873   6.06152   6.06529   6.09963
 Alpha virt. eigenvalues --    6.10535   6.16014   6.23735   6.30466   6.31889
 Alpha virt. eigenvalues --    6.38159   9.04157   9.19259   9.39733  19.47559
 Alpha virt. eigenvalues --   22.29228  22.35221  22.35419  22.45630  22.46017
 Alpha virt. eigenvalues --   22.51472  22.52325  22.61225  22.61858  22.78462
 Alpha virt. eigenvalues --   22.85280  22.88407  22.90133  22.91810  22.93669
 Alpha virt. eigenvalues --   22.94870  22.99753  23.02181  23.09537  23.25194
 Alpha virt. eigenvalues --   23.28418  23.28855  23.35293  23.40278  23.49004
 Alpha virt. eigenvalues --   23.50130  23.54840  23.71567  23.74984  23.78437
 Alpha virt. eigenvalues --   23.85407  32.79933  32.81661  32.89161  33.00912
          Condensed to atoms (all electrons):
 Mulliken charges:
               1
     1  Fe  -0.203767
     2  N   -0.062521
     3  N   -0.082839
     4  N   -0.082071
     5  N   -0.089111
     6  C    0.237564
     7  C   -0.066704
     8  C    0.034731
     9  C    0.106685
    10  C    0.264038
    11  C   -0.048207
    12  C    0.081608
    13  C    0.154113
    14  C    0.257488
    15  C   -0.073956
    16  C    0.112779
    17  C    0.105511
    18  C    0.202742
    19  C   -0.018334
    20  C   -0.049785
    21  C    0.260772
    22  C   -0.430602
    23  H    0.143389
    24  C   -0.405505
    25  H    0.137641
    26  C   -0.374736
    27  H    0.126257
    28  C   -0.293690
    29  H    0.130611
    30  C   -0.410007
    31  H    0.122834
    32  H    0.141760
    33  H    0.132721
    34  C   -0.415148
    35  H    0.133740
    36  H    0.142908
    37  H    0.121013
    38  C   -0.449254
    39  H    0.132118
    40  H    0.158005
    41  H    0.142432
    42  C   -0.219412
    43  H    0.122119
    44  C   -0.289208
    45  H    0.139911
    46  H    0.125306
    47  C   -0.430805
    48  H    0.141643
    49  H    0.125558
    50  H    0.155023
    51  C   -0.221766
    52  H    0.120599
    53  C   -0.287807
    54  H    0.140834
    55  H    0.124577
    56  C   -0.420543
    57  H    0.140594
    58  H    0.141268
    59  H    0.120456
    60  C   -0.416462
    61  H    0.121767
    62  H    0.139048
    63  H    0.135643
    64  C   -0.343963
    65  H    0.161020
    66  H    0.156303
    67  H    0.149032
    68  S   -0.022819
    69  H    0.164860
 Sum of Mulliken charges =  -0.00000
 Mulliken charges with hydrogens summed into heavy atoms:
               1
     1  Fe  -0.203767
     2  N   -0.062521
     3  N   -0.082839
     4  N   -0.082071
     5  N   -0.089111
     6  C    0.237564
     7  C   -0.066704
     8  C    0.034731
     9  C    0.106685
    10  C    0.264038
    11  C   -0.048207
    12  C    0.081608
    13  C    0.154113
    14  C    0.257488
    15  C   -0.073956
    16  C    0.112779
    17  C    0.105511
    18  C    0.202742
    19  C   -0.018334
    20  C   -0.049785
    21  C    0.260772
    22  C   -0.287213
    24  C   -0.267864
    26  C   -0.248479
    28  C   -0.163078
    30  C   -0.012693
    34  C   -0.017488
    38  C   -0.016698
    42  C   -0.097293
    44  C   -0.023991
    47  C   -0.008582
    51  C   -0.101168
    53  C   -0.022395
    56  C   -0.018224
    60  C   -0.020005
    64  C    0.122392
    68  S    0.142042
 Electronic spatial extent (au):  <R**2>=          18102.6993
 Charge=             -0.0000 electrons
 Dipole moment (field-independent basis, Debye):
    X=             -1.7253    Y=             -1.0087    Z=              2.3472  Tot=              3.0827
 Quadrupole moment (field-independent basis, Debye-Ang):
   XX=           -212.7629   YY=           -212.7409   ZZ=           -230.6204
   XY=              0.6325   XZ=             -4.3713   YZ=              2.7916
 Traceless Quadrupole moment (field-independent basis, Debye-Ang):
   XX=              5.9452   YY=              5.9672   ZZ=            -11.9124
   XY=              0.6325   XZ=             -4.3713   YZ=              2.7916
 Octapole moment (field-independent basis, Debye-Ang**2):
  XXX=            -27.5030  YYY=            -43.5805  ZZZ=             38.0200  XYY=              4.2844
  XXY=            -16.3685  XXZ=             -0.2587  XZZ=            -17.6793  YZZ=             -6.8639
  YYZ=              2.6112  XYZ=              7.3319
 Hexadecapole moment (field-independent basis, Debye-Ang**3):
 XXXX=         -11498.8158 YYYY=         -11356.5314 ZZZZ=          -1195.8184 XXXY=            -29.1352
 XXXZ=             22.4395 YYYX=             11.3567 YYYZ=             22.6202 ZZZX=            -49.2559
 ZZZY=             14.7633 XXYY=          -3829.6952 XXZZ=          -2268.7108 YYZZ=          -2262.1767
 XXYZ=             84.5293 YYXZ=            -28.4145 ZZXY=             13.1003
 N-N= 5.032941517564D+03 E-N=-1.731943152892D+04  KE= 3.071178345544D+03
  Exact polarizability:     693.590      -1.561     687.281       2.665       8.827     254.065
 Approx polarizability:    1274.220       0.418    1265.869      -0.242      15.806     436.134

 ----------------------------------------------------------------------

 Electric dipole moment (input orientation):
 (Debye = 10**-18 statcoulomb cm , SI units = C m)
                  (au)            (Debye)         (10**-30 SI)
   Tot        0.121285D+01      0.308274D+01      0.102829D+02
   x          0.586401D+00      0.149048D+01      0.497171D+01
   y          0.101395D+01      0.257720D+01      0.859661D+01
   z         -0.314701D+00     -0.799890D+00     -0.266814D+01

 Dipole polarizability, Alpha (input orientation).
 (esu units = cm**3 , SI units = C**2 m**2 J**-1)
 Alpha(0;0):
               (au)            (10**-24 esu)      (10**-40 SI)
   iso        0.544979D+03      0.807576D+02      0.898549D+02
   aniso      0.436705D+03      0.647130D+02      0.720029D+02
   xx         0.693846D+03      0.102817D+03      0.114400D+03
   yx        -0.681334D+01     -0.100963D+01     -0.112337D+01
   yy         0.272711D+03      0.404116D+02      0.449640D+02
   zx        -0.142958D+01     -0.211843D+00     -0.235707D+00
   zy        -0.881048D+02     -0.130558D+02     -0.145265D+02
   zz         0.668380D+03      0.990437D+02      0.110201D+03

 First dipole hyperpolarizability, Beta (input orientation).
 ||, _|_  parallel and perpendicular components, (z) with respect to z axis,
 vector components x,y,z.  Values do not include the 1/n! factor of 1/2.
 (esu units = statvolt**-1 cm**4 , SI units = C**3 m**3 J**-2)
 Beta(0;0,0):
               (au)            (10**-30 esu)      (10**-50 SI)
   || (z)     0.902100D+03      0.779344D+01      0.289246D+01
   _|_(z)     0.300700D+03      0.259781D+01      0.964153D+00
   x         -0.767042D+03     -0.662664D+01     -0.245941D+01
   y         -0.101885D+04     -0.880206D+01     -0.326680D+01
   z          0.451050D+04      0.389672D+02      0.144623D+02
   ||         0.937465D+03      0.809897D+01      0.300585D+01
   xxx       -0.760799D+03     -0.657271D+01     -0.243940D+01
   xxy       -0.136802D+03     -0.118186D+01     -0.438635D+00
   yxy        0.106808D+03      0.922735D+00      0.342464D+00
   yyy       -0.160147D+02     -0.138354D+00     -0.513488D-01
   xxz        0.870622D+03      0.752150D+01      0.279153D+01
   yxz       -0.215024D+03     -0.185764D+01     -0.689444D+00
   yyz        0.808496D+02      0.698478D+00      0.259233D+00
   zxz        0.398311D+03      0.344109D+01      0.127713D+01
   zyz       -0.186800D+03     -0.161381D+01     -0.598948D+00
   zzz        0.552029D+03      0.476910D+01      0.177000D+01

 ----------------------------------------------------------------------

 Dipole orientation:
    26         14.31943719        -55.65639551         32.12082769
     7         15.51929886        -52.87431886         34.38526042
     7         17.95593910        -56.60307044         31.49261259
     7         13.34405455        -57.97568628         29.30175150
     7         10.93120640        -54.03406483         31.97514826
     6         14.08139896        -51.03219540         35.46165032
     6         15.59682608        -49.39857926         37.03747763
     6         17.99953992        -50.29813050         36.90627408
     6         17.92220740        -52.45347970         35.22945133
     6         20.05214029        -55.65431165         32.66031948
     6         22.28685326        -57.01577274         31.92197184
     6         21.50734537        -58.84389620         30.26438083
     6         18.79550746        -58.55917244         30.04160793
     6         14.69301452        -60.01053275         28.47363106
     6         13.16694588        -61.62842457         26.90745222
     6         10.85176846        -60.48861856         26.74162789
     6         11.00329680        -58.21302880         28.26359524
     6          8.89765035        -54.82554982         30.61262773
     6          6.68950901        -53.31990326         31.17975712
     6          7.41979049        -51.61576806         32.95722737
     6         10.07518555        -52.07470149         33.41109011
     6         11.50206690        -50.75039594         35.14411438
     1         10.58279696        -49.25657710         36.18339420
     6         20.05865421        -53.65429268         34.34326908
     1         21.85370844        -53.07844388         35.11926099
     6         17.27496115        -60.26725547         28.78342476
     1         18.18247348        -61.88457544         27.93629811
     6          8.88522205        -56.87151565         28.99473748
     1          7.11255853        -57.36605164         28.11622460
     6         20.33742897        -49.33141935         38.14092374
     1         19.88970148        -47.83752227         39.47802098
     1         21.63803471        -48.57082162         36.73502337
     1         21.30238118        -50.84261703         39.15424095
     6         14.59326980        -47.18757729         38.46099407
     1         13.15851994        -47.78524499         39.81413479
     1         13.73208907        -45.83144239         37.17166341
     1         16.09842508        -46.23752034         39.48684040
     6         24.90675314        -56.38189631         32.72401644
     1         25.17966314        -54.34266421         32.77195111
     1         26.26019093        -57.19624385         31.40824062
     1         25.30124233        -57.12508610         34.60742353
     6         22.98427341        -60.70383442         28.90972441
     1         22.32049096        -61.14917659         27.02422887
     6         25.02602566        -61.86422356         29.79829482
     1         25.71018401        -61.55332698         31.68796036
     1         26.05797044        -63.21224363         28.67525735
     6         14.06274133        -63.96460375         25.62503864
     1         14.06162089        -65.55968215         26.93148859
     1         15.98070500        -63.72365733         24.91995015
     1         12.83176367        -64.41594025         24.04169772
     6          8.64026879        -61.24989841         25.32597985
     1          7.53789605        -59.71884218         24.52837754
     6          7.89294926        -63.61936729         24.96502671
     1          8.87136535        -65.19795288         25.79318551
     1          6.23570240        -64.05776689         23.86740602
     6          4.17199259        -53.68586319         29.97761526
     1          3.43142506        -55.55934956         30.40869836
     1          4.31863671        -53.51119552         27.93072395
     1          2.82925883        -52.28582289         30.65351220
     6          5.92489252        -49.59001783         34.21550545
     1          3.98181355        -49.59781180         33.54969171
     1          6.73939129        -47.73908172         33.82245150
     1          5.91168697        -49.86338296         36.25734540
     6         14.49378936        -57.34732112         38.28304553
     1         16.35655391        -56.50730990         38.12244252
     1         14.47155663        -58.85901269         39.66950489
     1         13.12171605        -55.90691221         38.78053475
    16         13.51359139        -58.61152838         35.21326178
     1         15.50865680        -60.15681659         34.97672264

 Electric dipole moment (dipole orientation):
 (Debye = 10**-18 statcoulomb cm , SI units = C m)
                  (au)            (Debye)         (10**-30 SI)
   Tot        0.121285D+01      0.308274D+01      0.102829D+02
   x          0.000000D+00      0.000000D+00      0.000000D+00
   y          0.000000D+00      0.000000D+00      0.000000D+00
   z          0.121285D+01      0.308274D+01      0.102829D+02

 Dipole polarizability, Alpha (dipole orientation).
 (esu units = cm**3 , SI units = C**2 m**2 J**-1)
 Alpha(0;0):
               (au)            (10**-24 esu)      (10**-40 SI)
   iso        0.544979D+03      0.807576D+02      0.898549D+02
   aniso      0.436705D+03      0.647130D+02      0.720029D+02
   xx         0.674295D+03      0.999203D+02      0.111176D+03
   yx        -0.506172D+02     -0.750070D+01     -0.834565D+01
   yy         0.529771D+03      0.785040D+02      0.873474D+02
   zx         0.696228D+02      0.103170D+02      0.114792D+02
   zy         0.202913D+03      0.300686D+02      0.334558D+02
   zz         0.430871D+03      0.638484D+02      0.710410D+02

 First dipole hyperpolarizability, Beta (dipole orientation).
 ||, _|_  parallel and perpendicular components, (z) with respect to z axis,
 vector components x,y,z.  Values do not include the 1/n! factor of 1/2.
 (esu units = statvolt**-1 cm**4 , SI units = C**3 m**3 J**-2)
 Beta(0;0,0):
               (au)            (10**-30 esu)      (10**-50 SI)
   || (z)    -0.478596D+03     -0.413469D+01     -0.153455D+01
   _|_(z)    -0.159532D+03     -0.137823D+01     -0.511517D+00
   x          0.188309D+04      0.162685D+02      0.603788D+01
   y         -0.356352D+04     -0.307860D+02     -0.114259D+02
   z         -0.239298D+04     -0.206735D+02     -0.767275D+01
   ||         0.937465D+03      0.809897D+01      0.300585D+01
   xxx        0.104841D+04      0.905741D+01      0.336157D+01
   xxy       -0.694433D+03     -0.599936D+01     -0.222660D+01
   yxy       -0.201144D+03     -0.173773D+01     -0.644940D+00
   yyy       -0.283878D+03     -0.245248D+01     -0.910214D+00
   xxz       -0.429320D+03     -0.370899D+01     -0.137656D+01
   yxz       -0.247983D+03     -0.214238D+01     -0.795123D+00
   yyz       -0.231677D+03     -0.200151D+01     -0.742839D+00
   zxz       -0.219564D+03     -0.189686D+01     -0.704002D+00
   zyz       -0.209528D+03     -0.181016D+01     -0.671821D+00
   zzz       -0.136662D+03     -0.118066D+01     -0.438189D+00

 ----------------------------------------------------------------------
 Unable to Open any file for archive entry.
 1\1\GINC-BGN1028\SP\RAPFD\def2TZVP\C31H32Fe1N4S1\BECSLEIP\26-Aug-2024\
 0\\# polar def2tzvp apfd int=(grid=ultrafine)\\2hi4_II_S\\0,1\Fe,0,4.9
 372331738,24.8867628936,23.8754325922\N,0,6.506163405,25.029519593,22.
 640716737\N,0,6.1829144335,24.21422527,25.3109058902\N,0,3.4017316402,
 24.3515131901,25.0390038345\N,0,3.7152894996,25.0156348417,22.31083386
 3\C,0,6.4747301785,25.3160412629,21.3100810487\C,0,7.808432853,25.3710
 605652,20.7587288351\C,0,8.6575663153,25.1168331647,21.7894433329\C,0,
 7.8291786785,24.8957850083,22.9534163101\C,0,7.5461797964,24.151362440
 5,25.2671626851\C,0,8.0891265372,23.7658594681,26.5426062579\C,0,7.018
 6227238,23.5954991809,27.3795215554\C,0,5.8412879716,23.8904342027,26.
 59031781\C,0,3.4256258581,24.2353207178,26.3980547457\C,0,2.0924761559
 ,24.1826736312,26.9384031098\C,0,1.2458741273,24.2340447184,25.8645813
 068\C,0,2.0870372879,24.345665128,24.6876603217\C,0,2.355887669,24.944
 631931,22.3277769759\C,0,1.8050724211,25.2159166351,21.018854217\C,0,2
 .8639762942,25.4768734846,20.207735864\C,0,4.046525612,25.3347881612,2
 1.0278379559\C,0,5.3297580445,25.5472388754,20.5690846555\H,0,5.453186
 3513,25.8112992943,19.5303260886\C,0,8.3192354921,24.4237323097,24.152
 94684\H,0,9.3891664671,24.3265493199,24.250913702\C,0,4.5740026444,23.
 9943477336,27.1296892905\H,0,4.4736961509,23.8463795868,28.1936920608\
 C,0,1.5891256274,24.7128701545,23.4518732127\H,0,0.5164231282,24.74174
 4437,23.3377394618\C,0,10.1451656597,25.0383117495,21.7904028515\H,0,1
 0.5480203214,25.3540255353,20.8313626214\H,0,10.4751418785,24.01632613
 12,21.9797211648\H,0,10.5636358283,25.6786478373,22.5667011306\C,0,8.1
 156436275,25.6505054909,19.328367648\H,0,7.7420282758,26.6335578684,19
 .0398928108\H,0,7.6449417942,24.9069598242,18.6851174717\H,0,9.1881172
 492,25.6249550096,19.1523078812\C,0,9.5310529133,23.5264524708,26.8223
 637494\H,0,10.0072508771,23.0210201902,25.9834578317\H,0,9.639384932,2
 2.9063043963,27.7095746442\H,0,10.0567215818,24.4677091615,26.99347385
 08\C,0,6.9926547646,23.1834411203,28.7662319129\H,0,6.1485501795,22.56
 69234304,29.0523113919\C,0,7.9028426435,23.503093647,29.6799647089\H,0
 ,8.7339625655,24.1496610247,29.4580041346\H,0,7.8313038385,23.14850442
 19,30.6945511349\C,0,1.7536676841,24.0134353815,28.3771968814\H,0,1.81
 65532319,24.9672754478,28.9031820261\H,0,2.4407529518,23.3190321114,28
 .8581332288\H,0,0.7414140964,23.6283277833,28.4793217097\C,0,-0.198677
 2875,24.1626442922,25.8299291952\H,0,-0.6178063069,23.6364004931,24.98
 00669097\C,0,-1.0154969128,24.6879458549,26.736531389\H,0,-0.650042072
 8,25.2599535227,27.5715102078\H,0,-2.0849852732,24.587065013,26.657177
 8815\C,0,0.350403129,25.1978333062,20.7017027975\H,0,-0.1766297814,25.
 9555658183,21.2818592788\H,0,-0.0804384615,24.2262529322,20.943002884\
 H,0,0.1824368872,25.3951380594,19.64598224\C,0,2.8857009577,25.8102930
 357,18.7563066646\H,0,1.8766388725,25.8475661501,18.3540335811\H,0,3.4
 504954081,25.0621399708,18.1998201734\H,0,3.355995058,26.780222706,18.
 5935042033\C,0,6.3018244718,27.9815512643,23.8219829699\H,0,7.20616782
 85,27.3963060013,23.9490105293\H,0,6.3902436037,28.9547329879,24.29469
 05674\H,0,6.0824237165,28.0954039666,22.7653935588\S,0,4.8792872044,27
 .087708551,24.551981034\H,0,5.4161255262,27.0081988408,25.7785325885\\
 Version=ES64L-G16RevC.02\State=1-A\HF=-3080.7639074\RMSD=2.456e-09\Dip
 ole=0.5864006,1.0139484,-0.3147008\Polar=693.8460456,-6.8133446,272.71
 10023,-1.4295849,-88.1047954,668.3798525\HyperPolar=-760.7988778,-136.
 8015764,106.8076948,-16.0146791,870.6219674,-215.0239051,80.8496149,39
 8.3106526,-186.799871,552.0289477\Quadrupole=4.3182312,-8.8279198,4.50
 96885,3.4419052,0.3964666,-1.8595458\PG=C01 [X(C31H32Fe1N4S1)]\\@
 The archive entry for this job was punched.


 10 WHATSOEVER THY HAND FINDETH TO DO, DO IT WITH THY  
 MIGHT. FOR THERE IS NO WORK, NOR DEVICE, NOR KNOWLEDGE, NOR  
 WISDOM, IN THE GRAVE, WHITHER THOU GOEST.                    
 11 I RETURNED AND SAW UNDER THE SUN, THAT THE RACE IS NOT TO 
 THE SWIFT, NOR THE BATTLE TO THE STRONG, NEITHER YET BREAD TO
 THE WISE, NOR YET RICHES TO MEN OF UNDERSTANDING, NOR YET    
 FAVOR TO MEN OF SKILL. BUT TIME AND CHANCE HAPPEN TO THEM ALL.
 12 FOR MAN ALSO KNOWETH NOT HIS TIME. AS THE FISHES   
 THAT ARE TAKEN IN AN EVIL NET, AND AS THE BIRDS THAT ARE     
 CAUGHT IN THE SNARE. SO ARE THE SONS OF MEN SNARED IN AN EVIL
 TIME, WHEN IT FALLETH SUDDENLY UPON THEM.
                                         ECCLESIASTES 9
 Job cpu time:       1 days 12 hours 48 minutes 45.6 seconds.
 Elapsed time:       0 days  0 hours 32 minutes  5.1 seconds.
 File lengths (MBytes):  RWF=    952 Int=      0 D2E=      0 Chk=    122 Scr=      1
 Normal termination of Gaussian 16 at Mon Aug 26 16:47:32 2024.
 Initial command:
 /sw/chem/gaussian/g16_C02/a100/g16/l1.exe "/local/becsleip_7993349/Gau-2375032.inp" -scrdir="/local/becsleip_7993349/"
 Entering Link 1 = /sw/chem/gaussian/g16_C02/a100/g16/l1.exe PID=   2376486.
  
 Copyright (c) 1988-2021, Gaussian, Inc.  All Rights Reserved.
  
 This is part of the Gaussian(R) 16 program.  It is based on
 the Gaussian(R) 09 system (copyright 2009, Gaussian, Inc.),
 the Gaussian(R) 03 system (copyright 2003, Gaussian, Inc.),
 the Gaussian(R) 98 system (copyright 1998, Gaussian, Inc.),
 the Gaussian(R) 94 system (copyright 1995, Gaussian, Inc.),
 the Gaussian 92(TM) system (copyright 1992, Gaussian, Inc.),
 the Gaussian 90(TM) system (copyright 1990, Gaussian, Inc.),
 the Gaussian 88(TM) system (copyright 1988, Gaussian, Inc.),
 the Gaussian 86(TM) system (copyright 1986, Carnegie Mellon
 University), and the Gaussian 82(TM) system (copyright 1983,
 Carnegie Mellon University). Gaussian is a federally registered
 trademark of Gaussian, Inc.
  
 This software contains proprietary and confidential information,
 including trade secrets, belonging to Gaussian, Inc.
  
 This software is provided under written license and may be
 used, copied, transmitted, or stored only in accord with that
 written license.
  
 The following legend is applicable only to US Government
 contracts under FAR:
  
                    RESTRICTED RIGHTS LEGEND
  
 Use, reproduction and disclosure by the US Government is
 subject to restrictions as set forth in subparagraphs (a)
 and (c) of the Commercial Computer Software - Restricted
 Rights clause in FAR 52.227-19.
  
 Gaussian, Inc.
 340 Quinnipiac St., Bldg. 40, Wallingford CT 06492
  
  
 ---------------------------------------------------------------
 Warning -- This program may not be used in any manner that
 competes with the business of Gaussian, Inc. or will provide
 assistance to any competitor of Gaussian, Inc.  The licensee
 of this program is prohibited from giving any competitor of
 Gaussian, Inc. access to this program.  By using this program,
 the user acknowledges that Gaussian, Inc. is engaged in the
 business of creating and licensing software in the field of
 computational chemistry and represents and warrants to the
 licensee that it is not a competitor of Gaussian, Inc. and that
 it will not use this program in any manner prohibited above.
 ---------------------------------------------------------------
  

 Cite this work as:
 Gaussian 16, Revision C.02,
 M. J. Frisch, G. W. Trucks, H. B. Schlegel, G. E. Scuseria, 
 M. A. Robb, J. R. Cheeseman, G. Scalmani, V. Barone, 
 G. A. Petersson, H. Nakatsuji, X. Li, M. Caricato, A. V. Marenich, 
 J. Bloino, B. G. Janesko, R. Gomperts, B. Mennucci, H. P. Hratchian, 
 J. V. Ortiz, A. F. Izmaylov, J. L. Sonnenberg, D. Williams-Young, 
 F. Ding, F. Lipparini, F. Egidi, J. Goings, B. Peng, A. Petrone, 
 T. Henderson, D. Ranasinghe, V. G. Zakrzewski, J. Gao, N. Rega, 
 G. Zheng, W. Liang, M. Hada, M. Ehara, K. Toyota, R. Fukuda, 
 J. Hasegawa, M. Ishida, T. Nakajima, Y. Honda, O. Kitao, H. Nakai, 
 T. Vreven, K. Throssell, J. A. Montgomery, Jr., J. E. Peralta, 
 F. Ogliaro, M. J. Bearpark, J. J. Heyd, E. N. Brothers, K. N. Kudin, 
 V. N. Staroverov, T. A. Keith, R. Kobayashi, J. Normand, 
 K. Raghavachari, A. P. Rendell, J. C. Burant, S. S. Iyengar, 
 J. Tomasi, M. Cossi, J. M. Millam, M. Klene, C. Adamo, R. Cammi, 
 J. W. Ochterski, R. L. Martin, K. Morokuma, O. Farkas, 
 J. B. Foresman, and D. J. Fox, Gaussian, Inc., Wallingford CT, 2019.
 
 ******************************************
 Gaussian 16:  ES64L-G16RevC.02  7-Dec-2021
                26-Aug-2024 
 ******************************************
 %mem=16GB
 %CPU=0-71
 SetSPE:  set environment variable "OMP_PROC_BIND" = "true"
 SetSPE:  set environment variable "OMP_PLACES" = "{0},{1},{2},{3},{4},{5},{6},{7},{8},{9},{10},{11},{12},{13},{14},{15},{16},{17},{18},{19},{20},{21},{22},{23},{24},{25},{26},{27},{28},{29},{30},{31},{32},{33},{34},{35},{36},{37},{38},{39},{40},{41},{42},{43},{44},{45},{46},{47},{48},{49},{50},{51},{52},{53},{54},{55},{56},{57},{58},{59},{60},{61},{62},{63},{64},{65},{66},{67},{68},{69},{70},{71}"
 Will use up to   72 processors via shared memory.
 %gpucpu=0,1,2,3=0,1,2,3
 Will use    4 GPUs:
 Thread  CPU   GPU
      0    0     0
      1    1     1
      2    2     2
      3    3     3
      4    4    -1
      5    5    -1
      6    6    -1
      7    7    -1
      8    8    -1
      9    9    -1
     10   10    -1
     11   11    -1
     12   12    -1
     13   13    -1
     14   14    -1
     15   15    -1
     16   16    -1
     17   17    -1
     18   18    -1
     19   19    -1
     20   20    -1
     21   21    -1
     22   22    -1
     23   23    -1
     24   24    -1
     25   25    -1
     26   26    -1
     27   27    -1
     28   28    -1
     29   29    -1
     30   30    -1
     31   31    -1
     32   32    -1
     33   33    -1
     34   34    -1
     35   35    -1
     36   36    -1
     37   37    -1
     38   38    -1
     39   39    -1
     40   40    -1
     41   41    -1
     42   42    -1
     43   43    -1
     44   44    -1
     45   45    -1
     46   46    -1
     47   47    -1
     48   48    -1
     49   49    -1
     50   50    -1
     51   51    -1
     52   52    -1
     53   53    -1
     54   54    -1
     55   55    -1
     56   56    -1
     57   57    -1
     58   58    -1
     59   59    -1
     60   60    -1
     61   61    -1
     62   62    -1
     63   63    -1
     64   64    -1
     65   65    -1
     66   66    -1
     67   67    -1
     68   68    -1
     69   69    -1
     70   70    -1
     71   71    -1
 SetGPE:  set environment variable "OMP_PROC_BIND" = "true"
 SetGPE:  set environment variable "OMP_PLACES" = "{0},{1},{2},{3},{4},{5},{6},{7},{8},{9},{10},{11},{12},{13},{14},{15},{16},{17},{18},{19},{20},{21},{22},{23},{24},{25},{26},{27},{28},{29},{30},{31},{32},{33},{34},{35},{36},{37},{38},{39},{40},{41},{42},{43},{44},{45},{46},{47},{48},{49},{50},{51},{52},{53},{54},{55},{56},{57},{58},{59},{60},{61},{62},{63},{64},{65},{66},{67},{68},{69},{70},{71}"
 %oldchk=2hi4_II_O.chk
 %chk=2hi4_II_Sn.chk
 Properties for Device   0
 Minimum vector length:                              32
 Maximum vector length:                            1024
 Number of SMPs:                                    108
 Maximum number of threads per SMP:                2048
 Number of ASync Engines:                             5
 Memory:                                           9207742464
 Properties for Device   1
 Minimum vector length:                              32
 Maximum vector length:                            1024
 Number of SMPs:                                    108
 Maximum number of threads per SMP:                2048
 Number of ASync Engines:                             5
 Memory:                                           9207742464
 Properties for Device   2
 Minimum vector length:                              32
 Maximum vector length:                            1024
 Number of SMPs:                                    108
 Maximum number of threads per SMP:                2048
 Number of ASync Engines:                             5
 Memory:                                           9207742464
 Properties for Device   3
 Minimum vector length:                              32
 Maximum vector length:                            1024
 Number of SMPs:                                    108
 Maximum number of threads per SMP:                2048
 Number of ASync Engines:                             5
 Memory:                                           9207742464
   8286968217 words of memory will be used on each GPU.
 Copying data from "2hi4_II_O.chk" to current chk file "2hi4_II_Sn.chk"
 IOpt=  2 FromEx=T IUOpen= 4 IOptOp= 5 NList=   0 IFRang= 0 IUIn= 4 IUOut= 2.
 ----------------------------------------------------------------------
 # apfd/def2TZVP int=(grid=ultrafine) geom=check guess=read pop=nbo scf
 =qc
 ----------------------------------------------------------------------
 1/29=2,38=1,172=1/1;
 2/12=2,40=1/2;
 3/5=44,7=101,11=2,14=-4,25=1,30=1,74=-44,75=-5,116=-2/1,2,3;
 4/5=1/1;
 5/5=2,8=3,38=6/8;
 6/7=2,8=2,9=2,10=2,28=1,40=1/1,7;
 99/5=1,9=1/99;
 -------------
 2hi4_II_S_nbo
 -------------
 Structure from the checkpoint file:  "2hi4_II_Sn.chk"
 Charge =  0 Multiplicity = 1
 Z-Matrix found in chk file.
[...]
  1062. RY*(  11) C  51                  0.00003     2.70510   
  1063. RY*(  12) C  51                  0.00002     2.30434   
  1064. RY*(  13) C  51                  0.00001     2.63692   
  1065. RY*(  14) C  51                  0.00001     1.73072   
  1066. RY*(  15) C  51                  0.00000     3.23446   
  1067. RY*(  16) C  51                  0.00000    21.16483   
  1068. RY*(  17) C  51                  0.00001     1.72306   
  1069. RY*(  18) C  51                  0.00001     1.64714   
  1070. RY*(  19) C  51                  0.00000     3.11483   
  1071. RY*(  20) C  51                  0.00000     3.42005   
  1072. RY*(  21) C  51                  0.00000     3.80460   
  1073. RY*(  22) C  51                  0.00000     3.38321   
  1074. RY*(  23) C  51                  0.00000     3.74022   
  1075. RY*(  24) C  51                  0.00000     3.72690   
  1076. RY*(  25) C  51                  0.00000     3.83798   
  1077. RY*(  26) C  51                  0.00000     3.89801   
  1078. RY*(   1) H  52                  0.00128     0.67144   
  1079. RY*(   2) H  52                  0.00023     2.25898   
  1080. RY*(   3) H  52                  0.00013     2.27626   
  1081. RY*(   4) H  52                  0.00010     2.77647   
  1082. RY*(   5) H  52                  0.00001     3.11721   
  1083. RY*(   1) C  53                  0.00231     1.27508   
  1084. RY*(   2) C  53                  0.00140     0.96008   
  1085. RY*(   3) C  53                  0.00109     0.62713   
  1086. RY*(   4) C  53                  0.00028     1.01387   
  1087. RY*(   5) C  53                  0.00016     1.05733   
  1088. RY*(   6) C  53                  0.00005     1.47731   
  1089. RY*(   7) C  53                  0.00004     1.54186   
  1090. RY*(   8) C  53                  0.00001     1.24948   
  1091. RY*(   9) C  53                  0.00001     1.76776   
  1092. RY*(  10) C  53                  0.00001     2.14668   
  1093. RY*(  11) C  53                  0.00000     3.24241   
  1094. RY*(  12) C  53                  0.00001     1.48470   
  1095. RY*(  13) C  53                  0.00000     2.85685   
  1096. RY*(  14) C  53                  0.00001     1.88318   
  1097. RY*(  15) C  53                  0.00000     3.22858   
  1098. RY*(  16) C  53                  0.00000    20.99338   
  1099. RY*(  17) C  53                  0.00000     3.12227   
  1100. RY*(  18) C  53                  0.00000     1.36614   
  1101. RY*(  19) C  53                  0.00000     2.85259   
  1102. RY*(  20) C  53                  0.00000     3.41513   
  1103. RY*(  21) C  53                  0.00000     3.50223   
  1104. RY*(  22) C  53                  0.00000     3.39635   
  1105. RY*(  23) C  53                  0.00000     3.55541   
  1106. RY*(  24) C  53                  0.00000     3.60191   
  1107. RY*(  25) C  53                  0.00000     3.53587   
  1108. RY*(  26) C  53                  0.00000     3.60201   
  1109. RY*(   1) H  54                  0.00068     1.04739   
  1110. RY*(   2) H  54                  0.00030     1.64616   
  1111. RY*(   3) H  54                  0.00019     2.17315   
  1112. RY*(   4) H  54                  0.00006     2.38493   
  1113. RY*(   5) H  54                  0.00001     3.10460   
  1114. RY*(   1) H  55                  0.00045     0.75145   
  1115. RY*(   2) H  55                  0.00030     1.78817   
  1116. RY*(   3) H  55                  0.00015     2.12429   
  1117. RY*(   4) H  55                  0.00005     2.50639   
  1118. RY*(   5) H  55                  0.00001     3.06615   
  1119. RY*(   1) C  56                  0.00146     1.25289   
  1120. RY*(   2) C  56                  0.00139     1.25190   
  1121. RY*(   3) C  56                  0.00076     1.37428   
  1122. RY*(   4) C  56                  0.00014     1.08598   
  1123. RY*(   5) C  56                  0.00005     2.00531   
  1124. RY*(   6) C  56                  0.00005     1.56173   
  1125. RY*(   7) C  56                  0.00003     2.08175   
  1126. RY*(   8) C  56                  0.00002     2.22527   
  1127. RY*(   9) C  56                  0.00000    21.15299   
  1128. RY*(  10) C  56                  0.00001     2.82157   
  1129. RY*(  11) C  56                  0.00001     2.71225   
  1130. RY*(  12) C  56                  0.00001     2.52650   
  1131. RY*(  13) C  56                  0.00000     2.31848   
  1132. RY*(  14) C  56                  0.00000     2.52954   
  1133. RY*(  15) C  56                  0.00000     2.42795   
  1134. RY*(  16) C  56                  0.00001     1.75229   
  1135. RY*(  17) C  56                  0.00000     3.25731   
  1136. RY*(  18) C  56                  0.00000     3.16515   
  1137. RY*(  19) C  56                  0.00000     2.45387   
  1138. RY*(  20) C  56                  0.00000     3.22587   
  1139. RY*(  21) C  56                  0.00000     3.88548   
  1140. RY*(  22) C  56                  0.00000     3.60145   
  1141. RY*(  23) C  56                  0.00000     3.37427   
  1142. RY*(  24) C  56                  0.00000     3.38060   
  1143. RY*(  25) C  56                  0.00000     3.65142   
  1144. RY*(  26) C  56                  0.00000     3.44294   
  1145. RY*(   1) H  57                  0.00087     0.93641   
  1146. RY*(   2) H  57                  0.00017     1.81650   
  1147. RY*(   3) H  57                  0.00007     2.12947   
  1148. RY*(   4) H  57                  0.00005     1.99596   
  1149. RY*(   5) H  57                  0.00001     2.96000   
  1150. RY*(   1) H  58                  0.00086     0.92515   
  1151. RY*(   2) H  58                  0.00018     1.83853   
  1152. RY*(   3) H  58                  0.00007     2.14425   
  1153. RY*(   4) H  58                  0.00005     1.96174   
  1154. RY*(   5) H  58                  0.00001     2.97659   
  1155. RY*(   1) H  59                  0.00072     0.85527   
  1156. RY*(   2) H  59                  0.00013     1.70234   
  1157. RY*(   3) H  59                  0.00011     2.15564   
  1158. RY*(   4) H  59                  0.00007     2.08007   
  1159. RY*(   5) H  59                  0.00001     2.99337   
  1160. RY*(   1) C  60                  0.00145     1.25066   
  1161. RY*(   2) C  60                  0.00141     1.25950   
  1162. RY*(   3) C  60                  0.00075     1.37219   
  1163. RY*(   4) C  60                  0.00014     1.08001   
  1164. RY*(   5) C  60                  0.00005     2.00260   
  1165. RY*(   6) C  60                  0.00005     1.53519   
  1166. RY*(   7) C  60                  0.00003     2.23784   
  1167. RY*(   8) C  60                  0.00003     2.26448   
  1168. RY*(   9) C  60                  0.00000    21.10831   
  1169. RY*(  10) C  60                  0.00001     1.79550   
  1170. RY*(  11) C  60                  0.00000     2.95579   
  1171. RY*(  12) C  60                  0.00000     3.09040   
  1172. RY*(  13) C  60                  0.00000     2.25435   
  1173. RY*(  14) C  60                  0.00000     1.98553   
  1174. RY*(  15) C  60                  0.00000     2.43801   
  1175. RY*(  16) C  60                  0.00001     3.22865   
  1176. RY*(  17) C  60                  0.00000     2.65993   
  1177. RY*(  18) C  60                  0.00000     3.21087   
  1178. RY*(  19) C  60                  0.00000     2.27478   
  1179. RY*(  20) C  60                  0.00000     3.22732   
  1180. RY*(  21) C  60                  0.00000     3.76642   
  1181. RY*(  22) C  60                  0.00000     3.61282   
  1182. RY*(  23) C  60                  0.00000     3.35581   
  1183. RY*(  24) C  60                  0.00000     3.39215   
  1184. RY*(  25) C  60                  0.00000     3.42361   
  1185. RY*(  26) C  60                  0.00000     3.71569   
  1186. RY*(   1) H  61                  0.00073     0.85250   
  1187. RY*(   2) H  61                  0.00013     1.70110   
  1188. RY*(   3) H  61                  0.00011     2.16036   
  1189. RY*(   4) H  61                  0.00007     2.07831   
  1190. RY*(   5) H  61                  0.00001     2.99274   
  1191. RY*(   1) H  62                  0.00091     0.90385   
  1192. RY*(   2) H  62                  0.00018     1.82371   
  1193. RY*(   3) H  62                  0.00006     2.10224   
  1194. RY*(   4) H  62                  0.00006     2.02121   
  1195. RY*(   5) H  62                  0.00001     2.97274   
  1196. RY*(   1) H  63                  0.00088     0.90582   
  1197. RY*(   2) H  63                  0.00018     1.82750   
  1198. RY*(   3) H  63                  0.00006     2.10463   
  1199. RY*(   4) H  63                  0.00006     2.03420   
  1200. RY*(   5) H  63                  0.00001     2.96085   
  1276. BD*(   1) N   2 - C   6          0.02625     0.49934   
  1277. BD*(   1) N   2 - C   9          0.02669     0.49255   
  1278. BD*(   2) N   2 - C   9          0.64817     0.00046  1298(v),1289(v),1291(v)
                                                    142(r),361(g),177(g),728(v)
                                                    138(r),1355(r),139(r)
                                                    1275(r),141(r),163(r)
  1279. BD*(   1) N   3 - C  10          0.02675     0.49444   
  1280. BD*(   1) N   3 - C  13          0.02580     0.49695   
  1281. BD*(   1) N   4 - C  14          0.02594     0.49590   
  1282. BD*(   1) N   4 - C  17          0.02574     0.50185   
  1283. BD*(   2) N   4 - C  17          0.61471     0.00354  1316(v),1309(v),148(v)
                                                    569(g),142(r),138(r),229(g)
                                                    790(v),139(r),141(r),1358(r)
                                                    1275(r)
  1284. BD*(   1) N   5 - C  18          0.02620     0.50154   
  1285. BD*(   1) N   5 - C  21          0.02626     0.49838   
  1286. BD*(   2) N   5 - C  21          0.62720     0.00483  1289(v),1318(v),1316(v)
                                                    673(g),142(r),255(g),697(v)
                                                    138(r),139(r),140(r)
  1287. BD*(   1) C   6 - C   7          0.03530     0.48957   
  1288. BD*(   1) C   6 - C  22          0.02120     0.57199   
  1289. BD*(   2) C   6 - C  22          0.41907     0.04229  1286(v),1291(v),1278(v)
                                                    1298(r),697(g),1316(r)
                                                    285(g),142(r)
  1290. BD*(   1) C   7 - C   8          0.02284     0.60464   
  1291. BD*(   2) C   7 - C   8          0.24982     0.06586  1289(v),1278(v),1328(v)
                                                    1330(v),1331(v),1329(v)
  1292. BD*(   1) C   7 - C  34          0.01722     0.41183   
  1293. BD*(   1) C   8 - C   9          0.03528     0.48784   
  1294. BD*(   1) C   8 - C  30          0.01723     0.41135   
  1295. BD*(   1) C   9 - C  24          0.02096     0.57675   
  1296. BD*(   1) C  10 - C  11          0.03429     0.49581   
  1297. BD*(   1) C  10 - C  24          0.02127     0.57152   
  1298. BD*(   2) C  10 - C  24          0.42477     0.04131  1278(v),1300(v),145(v)
                                                    1305(r),1289(r),728(g)
                                                    389(g),387(g),142(r)
  1299. BD*(   1) C  11 - C  12          0.02515     0.58893   
  1300. BD*(   2) C  11 - C  12          0.28911     0.06176  1338(v),1298(v),1305(v)
                                                    1335(v),1333(v),1336(v)
  1301. BD*(   1) C  11 - C  38          0.01639     0.41444   
  1302. BD*(   1) C  12 - C  13          0.03443     0.48620   
  1303. BD*(   1) C  12 - C  42          0.02671     0.49307   
  1304. BD*(   1) C  13 - C  26          0.02055     0.57396   
  1305. BD*(   2) C  13 - C  26          0.40482     0.04300  1300(v),148(v),145(v)
                                                    1298(r),759(g),1338(r)
                                                    467(g),142(r)
  1306. BD*(   1) C  14 - C  15          0.03490     0.49560   
  1307. BD*(   1) C  14 - C  26          0.02133     0.57122   
  1308. BD*(   1) C  15 - C  16          0.02501     0.59120   
  1309. BD*(   2) C  15 - C  16          0.28231     0.06369  1346(v),1283(v),148(v)
                                                    1341(v),1342(v),1344(v)
  1310. BD*(   1) C  15 - C  47          0.01639     0.41609   
  1311. BD*(   1) C  16 - C  17          0.03418     0.48250   
  1312. BD*(   1) C  16 - C  51          0.02664     0.49436   
  1313. BD*(   1) C  17 - C  28          0.02072     0.57279   
  1314. BD*(   1) C  18 - C  19          0.03516     0.48913   
  1315. BD*(   1) C  18 - C  28          0.02108     0.57827   
  1316. BD*(   2) C  18 - C  28          0.39521     0.04632  1283(v),1318(v),1286(v)
                                                    790(g),1289(r),597(g),142(r)
  1317. BD*(   1) C  19 - C  20          0.02261     0.60668   
  1318. BD*(   2) C  19 - C  20          0.24403     0.06783  1316(v),1286(v),1349(v)
                                                    1353(v),1354(v),1350(v)
  1319. BD*(   1) C  19 - C  56          0.01701     0.41446   
  1320. BD*(   1) C  20 - C  21          0.03519     0.48819   
  1321. BD*(   1) C  20 - C  60          0.01713     0.41309   
  1322. BD*(   1) C  21 - C  22          0.02078     0.57778   
  1323. BD*(   1) C  22 - H  23          0.01247     0.43032   
  1324. BD*(   1) C  24 - H  25          0.01282     0.42945   
  1325. BD*(   1) C  26 - H  27          0.01334     0.43146   
  1326. BD*(   1) C  28 - H  29          0.01268     0.43204   
  1327. BD*(   1) C  30 - H  31          0.00669     0.38689   
  1328. BD*(   1) C  30 - H  32          0.01170     0.37571   
  1329. BD*(   1) C  30 - H  33          0.00976     0.37611   
  1330. BD*(   1) C  34 - H  35          0.01088     0.37499   
  1331. BD*(   1) C  34 - H  36          0.01060     0.37712   
  1332. BD*(   1) C  34 - H  37          0.00663     0.38725   
  1333. BD*(   1) C  38 - H  39          0.01006     0.38306   
  1334. BD*(   1) C  38 - H  40          0.00806     0.39182   
  1335. BD*(   1) C  38 - H  41          0.01219     0.37429   
  1336. BD*(   1) C  42 - H  43          0.02107     0.42146   
  1337. BD*(   1) C  42 - C  44          0.00786     0.62859   
  1338. BD*(   2) C  42 - C  44          0.07419     0.05680   
  1339. BD*(   1) C  44 - H  45          0.01099     0.43218   
  1340. BD*(   1) C  44 - H  46          0.00856     0.43360   
  1341. BD*(   1) C  47 - H  48          0.01193     0.37718   
  1342. BD*(   1) C  47 - H  49          0.01027     0.38456   
  1343. BD*(   1) C  47 - H  50          0.00820     0.39263   
  1344. BD*(   1) C  51 - H  52          0.02111     0.42214   
  1345. BD*(   1) C  51 - C  53          0.00793     0.62948   
  1346. BD*(   2) C  51 - C  53          0.07409     0.05891   
  1347. BD*(   1) C  53 - H  54          0.01093     0.43406   
  1348. BD*(   1) C  53 - H  55          0.00855     0.43478   
  1349. BD*(   1) C  56 - H  57          0.01081     0.37905   
  1350. BD*(   1) C  56 - H  58          0.01030     0.37964   
  1351. BD*(   1) C  56 - H  59          0.00666     0.38945   
  1352. BD*(   1) C  60 - H  61          0.00664     0.38902   
  1353. BD*(   1) C  60 - H  62          0.01075     0.37796   
  1354. BD*(   1) C  60 - H  63          0.01071     0.37700   
       -------------------------------
              Total Lewis  230.19823  ( 97.2684%)
        Valence non-Lewis    5.97526  (  2.5248%)
        Rydberg non-Lewis    0.48942  (  0.2068%)
       -------------------------------
            Total unit  2  236.66291  (100.0000%)
           Charge unit  2   -0.66291
 Unable to Open any file for archive entry.
 1\1\GINC-BGN1028\SP\RAPFD\def2TZVP\C31H32Fe1N4S1\BECSLEIP\26-Aug-2024\
 0\\# apfd/def2TZVP int=(grid=ultrafine) geom=check guess=read pop=nbo 
 scf=qc\\2hi4_II_S_nbo\\0,1\Fe,0,4.9372331738,24.8867628936,23.87543259
 22\N,0,6.506163405,25.029519593,22.640716737\N,0,6.1829144335,24.21422
 527,25.3109058902\N,0,3.4017316402,24.3515131901,25.0390038345\N,0,3.7
 152894996,25.0156348417,22.310833863\C,0,6.4747301785,25.3160412629,21
 .3100810487\C,0,7.808432853,25.3710605652,20.7587288351\C,0,8.65756631
 53,25.1168331647,21.7894433329\C,0,7.8291786785,24.8957850083,22.95341
 63101\C,0,7.5461797964,24.1513624405,25.2671626851\C,0,8.0891265372,23
 .7658594681,26.5426062579\C,0,7.0186227238,23.5954991809,27.3795215554
 \C,0,5.8412879716,23.8904342027,26.59031781\C,0,3.4256258581,24.235320
 7178,26.3980547457\C,0,2.0924761559,24.1826736312,26.9384031098\C,0,1.
 2458741273,24.2340447184,25.8645813068\C,0,2.0870372879,24.345665128,2
 4.6876603217\C,0,2.355887669,24.944631931,22.3277769759\C,0,1.80507242
 11,25.2159166351,21.018854217\C,0,2.8639762942,25.4768734846,20.207735
 864\C,0,4.046525612,25.3347881612,21.0278379559\C,0,5.3297580445,25.54
 72388754,20.5690846555\H,0,5.4531863513,25.8112992943,19.5303260886\C,
 0,8.3192354921,24.4237323097,24.15294684\H,0,9.3891664671,24.326549319
 9,24.250913702\C,0,4.5740026444,23.9943477336,27.1296892905\H,0,4.4736
 961509,23.8463795868,28.1936920608\C,0,1.5891256274,24.7128701545,23.4
 518732127\H,0,0.5164231282,24.741744437,23.3377394618\C,0,10.145165659
 7,25.0383117495,21.7904028515\H,0,10.5480203214,25.3540255353,20.83136
 26214\H,0,10.4751418785,24.0163261312,21.9797211648\H,0,10.5636358283,
 25.6786478373,22.5667011306\C,0,8.1156436275,25.6505054909,19.32836764
 8\H,0,7.7420282758,26.6335578684,19.0398928108\H,0,7.6449417942,24.906
 9598242,18.6851174717\H,0,9.1881172492,25.6249550096,19.1523078812\C,0
 ,9.5310529133,23.5264524708,26.8223637494\H,0,10.0072508771,23.0210201
 902,25.9834578317\H,0,9.639384932,22.9063043963,27.7095746442\H,0,10.0
 567215818,24.4677091615,26.9934738508\C,0,6.9926547646,23.1834411203,2
 8.7662319129\H,0,6.1485501795,22.5669234304,29.0523113919\C,0,7.902842
 6435,23.503093647,29.6799647089\H,0,8.7339625655,24.1496610247,29.4580
 041346\H,0,7.8313038385,23.1485044219,30.6945511349\C,0,1.7536676841,2
 4.0134353815,28.3771968814\H,0,1.8165532319,24.9672754478,28.903182026
 1\H,0,2.4407529518,23.3190321114,28.8581332288\H,0,0.7414140964,23.628
 3277833,28.4793217097\C,0,-0.1986772875,24.1626442922,25.8299291952\H,
 0,-0.6178063069,23.6364004931,24.9800669097\C,0,-1.0154969128,24.68794
 58549,26.736531389\H,0,-0.6500420728,25.2599535227,27.5715102078\H,0,-
 2.0849852732,24.587065013,26.6571778815\C,0,0.350403129,25.1978333062,
 20.7017027975\H,0,-0.1766297814,25.9555658183,21.2818592788\H,0,-0.080
 4384615,24.2262529322,20.943002884\H,0,0.1824368872,25.3951380594,19.6
 4598224\C,0,2.8857009577,25.8102930357,18.7563066646\H,0,1.8766388725,
 25.8475661501,18.3540335811\H,0,3.4504954081,25.0621399708,18.19982017
 34\H,0,3.355995058,26.780222706,18.5935042033\C,0,6.3018244718,27.9815
 512643,23.8219829699\H,0,7.2061678285,27.3963060013,23.9490105293\H,0,
 6.3902436037,28.9547329879,24.2946905674\H,0,6.0824237165,28.095403966
 6,22.7653935588\S,0,4.8792872044,27.087708551,24.551981034\H,0,5.41612
 55262,27.0081988408,25.7785325885\\Version=ES64L-G16RevC.02\State=1-A\
 HF=-3080.7639074\RMSD=6.114e-10\Dipole=0.5864006,1.0139484,-0.3147008\
 Quadrupole=4.3182312,-8.8279198,4.5096885,3.4419052,0.3964666,-1.85954
 58\PG=C01 [X(C31H32Fe1N4S1)]\\@
 The archive entry for this job was punched.


 ANYONE WHO IS NOT SHOCKED BY QUANTUM THEORY HAS
 NOT UNDERSTOOD IT. -- NIELS BOHR(1885-1962)
 Job cpu time:       0 days  0 hours 31 minutes 45.4 seconds.
 Elapsed time:       0 days  0 hours  0 minutes 39.3 seconds.
 File lengths (MBytes):  RWF=    624 Int=      0 D2E=      0 Chk=    150 Scr=      1
 Normal termination of Gaussian 16 at Mon Aug 26 16:48:14 2024.
