 Entering Gaussian System, Link 0=g16
 Input=2j1812.com
 Output=2j1812.log
 Initial command:
 /sw/chem/gaussian/g16_C02/a100/g16/l1.exe "/local/becsleip_7997576/Gau-3630705.inp" -scrdir="/local/becsleip_7997576/"
 Entering Link 1 = /sw/chem/gaussian/g16_C02/a100/g16/l1.exe PID=   3630706.
  
 Copyright (c) 1988-2021, Gaussian, Inc.  All Rights Reserved.
  
 This is part of the Gaussian(R) 16 program.  It is based on
 the Gaussian(R) 09 system (copyright 2009, Gaussian, Inc.),
 the Gaussian(R) 03 system (copyright 2003, Gaussian, Inc.),
 the Gaussian(R) 98 system (copyright 1998, Gaussian, Inc.),
 the Gaussian(R) 94 system (copyright 1995, Gaussian, Inc.),
 the Gaussian 92(TM) system (copyright 1992, Gaussian, Inc.),
 the Gaussian 90(TM) system (copyright 1990, Gaussian, Inc.),
 the Gaussian 88(TM) system (copyright 1988, Gaussian, Inc.),
 the Gaussian 86(TM) system (copyright 1986, Carnegie Mellon
 University), and the Gaussian 82(TM) system (copyright 1983,
 Carnegie Mellon University). Gaussian is a federally registered
 trademark of Gaussian, Inc.
  
 This software contains proprietary and confidential information,
 including trade secrets, belonging to Gaussian, Inc.
  
 This software is provided under written license and may be
 used, copied, transmitted, or stored only in accord with that
 written license.
  
 The following legend is applicable only to US Government
 contracts under FAR:
  
                    RESTRICTED RIGHTS LEGEND
  
 Use, reproduction and disclosure by the US Government is
 subject to restrictions as set forth in subparagraphs (a)
 and (c) of the Commercial Computer Software - Restricted
 Rights clause in FAR 52.227-19.
  
 Gaussian, Inc.
 340 Quinnipiac St., Bldg. 40, Wallingford CT 06492
  
  
 ---------------------------------------------------------------
 Warning -- This program may not be used in any manner that
 competes with the business of Gaussian, Inc. or will provide
 assistance to any competitor of Gaussian, Inc.  The licensee
 of this program is prohibited from giving any competitor of
 Gaussian, Inc. access to this program.  By using this program,
 the user acknowledges that Gaussian, Inc. is engaged in the
 business of creating and licensing software in the field of
 computational chemistry and represents and warrants to the
 licensee that it is not a competitor of Gaussian, Inc. and that
 it will not use this program in any manner prohibited above.
 ---------------------------------------------------------------
  

 Cite this work as:
 Gaussian 16, Revision C.02,
 M. J. Frisch, G. W. Trucks, H. B. Schlegel, G. E. Scuseria, 
 M. A. Robb, J. R. Cheeseman, G. Scalmani, V. Barone, 
 G. A. Petersson, H. Nakatsuji, X. Li, M. Caricato, A. V. Marenich, 
 J. Bloino, B. G. Janesko, R. Gomperts, B. Mennucci, H. P. Hratchian, 
 J. V. Ortiz, A. F. Izmaylov, J. L. Sonnenberg, D. Williams-Young, 
 F. Ding, F. Lipparini, F. Egidi, J. Goings, B. Peng, A. Petrone, 
 T. Henderson, D. Ranasinghe, V. G. Zakrzewski, J. Gao, N. Rega, 
 G. Zheng, W. Liang, M. Hada, M. Ehara, K. Toyota, R. Fukuda, 
 J. Hasegawa, M. Ishida, T. Nakajima, Y. Honda, O. Kitao, H. Nakai, 
 T. Vreven, K. Throssell, J. A. Montgomery, Jr., J. E. Peralta, 
 F. Ogliaro, M. J. Bearpark, J. J. Heyd, E. N. Brothers, K. N. Kudin, 
 V. N. Staroverov, T. A. Keith, R. Kobayashi, J. Normand, 
 K. Raghavachari, A. P. Rendell, J. C. Burant, S. S. Iyengar, 
 J. Tomasi, M. Cossi, J. M. Millam, M. Klene, C. Adamo, R. Cammi, 
 J. W. Ochterski, R. L. Martin, K. Morokuma, O. Farkas, 
 J. B. Foresman, and D. J. Fox, Gaussian, Inc., Wallingford CT, 2019.
 
 ******************************************
 Gaussian 16:  ES64L-G16RevC.02  7-Dec-2021
                29-Aug-2024 
 ******************************************
 %mem=16GB
 %CPU=0-71
 SetSPE:  set environment variable "OMP_PROC_BIND" = "true"
 SetSPE:  set environment variable "OMP_PLACES" = "{0},{1},{2},{3},{4},{5},{6},{7},{8},{9},{10},{11},{12},{13},{14},{15},{16},{17},{18},{19},{20},{21},{22},{23},{24},{25},{26},{27},{28},{29},{30},{31},{32},{33},{34},{35},{36},{37},{38},{39},{40},{41},{42},{43},{44},{45},{46},{47},{48},{49},{50},{51},{52},{53},{54},{55},{56},{57},{58},{59},{60},{61},{62},{63},{64},{65},{66},{67},{68},{69},{70},{71}"
 Will use up to   72 processors via shared memory.
 %gpucpu=0,1,2,3=0,1,2,3
 Will use    4 GPUs:
 Thread  CPU   GPU
      0    0     0
      1    1     1
      2    2     2
      3    3     3
      4    4    -1
      5    5    -1
      6    6    -1
      7    7    -1
      8    8    -1
      9    9    -1
     10   10    -1
     11   11    -1
     12   12    -1
     13   13    -1
     14   14    -1
     15   15    -1
     16   16    -1
     17   17    -1
     18   18    -1
     19   19    -1
     20   20    -1
     21   21    -1
     22   22    -1
     23   23    -1
     24   24    -1
     25   25    -1
     26   26    -1
     27   27    -1
     28   28    -1
     29   29    -1
     30   30    -1
     31   31    -1
     32   32    -1
     33   33    -1
     34   34    -1
     35   35    -1
     36   36    -1
     37   37    -1
     38   38    -1
     39   39    -1
     40   40    -1
     41   41    -1
     42   42    -1
     43   43    -1
     44   44    -1
     45   45    -1
     46   46    -1
     47   47    -1
     48   48    -1
     49   49    -1
     50   50    -1
     51   51    -1
     52   52    -1
     53   53    -1
     54   54    -1
     55   55    -1
     56   56    -1
     57   57    -1
     58   58    -1
     59   59    -1
     60   60    -1
     61   61    -1
     62   62    -1
     63   63    -1
     64   64    -1
     65   65    -1
     66   66    -1
     67   67    -1
     68   68    -1
     69   69    -1
     70   70    -1
     71   71    -1
 SetGPE:  set environment variable "OMP_PROC_BIND" = "true"
 SetGPE:  set environment variable "OMP_PLACES" = "{0},{1},{2},{3},{4},{5},{6},{7},{8},{9},{10},{11},{12},{13},{14},{15},{16},{17},{18},{19},{20},{21},{22},{23},{24},{25},{26},{27},{28},{29},{30},{31},{32},{33},{34},{35},{36},{37},{38},{39},{40},{41},{42},{43},{44},{45},{46},{47},{48},{49},{50},{51},{52},{53},{54},{55},{56},{57},{58},{59},{60},{61},{62},{63},{64},{65},{66},{67},{68},{69},{70},{71}"
 %oldchk=2j18_II_Sre.chk
 %chk=2j18_III_Dn.chk
 Properties for Device   0
 Minimum vector length:                              32
 Maximum vector length:                            1024
 Number of SMPs:                                    108
 Maximum number of threads per SMP:                2048
 Number of ASync Engines:                             5
 Memory:                                           9207742464
 Properties for Device   1
 Minimum vector length:                              32
 Maximum vector length:                            1024
 Number of SMPs:                                    108
 Maximum number of threads per SMP:                2048
 Number of ASync Engines:                             5
 Memory:                                           9207742464
 Properties for Device   2
 Minimum vector length:                              32
 Maximum vector length:                            1024
 Number of SMPs:                                    108
 Maximum number of threads per SMP:                2048
 Number of ASync Engines:                             5
 Memory:                                           9207742464
 Properties for Device   3
 Minimum vector length:                              32
 Maximum vector length:                            1024
 Number of SMPs:                                    108
 Maximum number of threads per SMP:                2048
 Number of ASync Engines:                             5
 Memory:                                           9207742464
   8286968217 words of memory will be used on each GPU.
 Copying data from "2j18_II_Sre.chk" to current chk file "2j18_III_Dn.chk"
 IOpt=  2 FromEx=T IUOpen= 4 IOptOp= 5 NList=   0 IFRang= 0 IUIn= 4 IUOut= 2.
 --------------------------------------------------------------
 # apfd/def2TZVP guess=read scf=maxcycle=999 geom=check pop=nbo
 --------------------------------------------------------------
 1/29=2,38=1,172=1/1;
 2/12=2,40=1/2;
 3/5=44,7=101,11=2,14=-4,25=1,30=1,74=-44,116=-2/1,2,3;
 4/5=1/1;
 5/5=2,7=999,38=6/2;
 6/7=2,8=2,9=2,10=2,28=1,40=1/1,7;
 99/5=1,9=1/99;
 ----------
 2j18_III_D
 ----------
 Structure from the checkpoint file:  "2j18_III_Dn.chk"
 Charge =  1 Multiplicity = 2
 Z-Matrix found in chk file.
 Fe,0,8.944448042,18.5841026514,-2.5141327471
 N,0,10.5078696956,18.7318030351,-3.7982658226
 N,0,8.7069123397,16.6682054597,-3.0840120824
 N,0,7.2289896923,18.4980164946,-1.5113357684
 N,0,9.038970313,20.5670638833,-2.2188768457
 C,0,11.2348882975,19.8462923108,-4.0847987812
 C,0,12.3570771977,19.5232373369,-4.9335688996
 C,0,12.3001679598,18.1803015686,-5.1488495192
 C,0,11.1359261729,17.7047670139,-4.4381697841
 C,0,9.6063738572,15.9060825834,-3.7665443871
 C,0,9.2168299212,14.5197405606,-3.7592847923
 C,0,8.0450629791,14.4546102737,-3.0531893199
 C,0,7.7500876359,15.8123822961,-2.640760889
 C,0,6.3882525748,17.4339382194,-1.4007611645
 C,0,5.214570916,17.7805167768,-0.6390169004
 C,0,5.3648349447,19.0930689585,-0.2829532973
 C,0,6.6239050595,19.5227464817,-0.8617373385
 C,0,8.155602055,21.3175397295,-1.5152785467
 C,0,8.4488692958,22.7274889055,-1.652838534
 C,0,9.526306427,22.8109523109,-2.4767076973
 C,0,9.8762132995,21.45028351,-2.8255307357
 C,0,10.9378286358,21.1236519545,-3.6463533066
 H,0,11.5651015647,21.9284151235,-3.997075626
 C,0,10.7274449371,16.3859308384,-4.4221024734
 H,0,11.3395727547,15.6720584645,-4.9509123084
 C,0,6.6357449389,16.1711435523,-1.9072797661
 H,0,5.9132885694,15.3993457188,-1.6919345614
 C,0,7.088289619,20.8222697803,-0.7909090966
 H,0,6.4913280096,21.5343078897,-0.2422468354
 C,0,13.2042357995,17.3139725782,-5.9563308746
 H,0,14.0090134604,17.8985682391,-6.3949184457
 H,0,12.6523646396,16.8311951414,-6.7632962586
 H,0,13.6459379124,16.5337652291,-5.3358093633
 C,0,13.345389556,20.5192601454,-5.4340309059
 H,0,13.8374248447,21.0228447016,-4.6018031739
 H,0,12.8510616001,21.2772114397,-6.0423332849
 H,0,14.1070629822,20.0370992661,-6.0416649735
 C,0,9.9373938147,13.4235708897,-4.4628780836
 H,0,10.7982696659,13.0876734747,-3.8823592577
 H,0,10.2974003916,13.7599075489,-5.434253265
 H,0,9.2722179597,12.5761656492,-4.6134617343
 C,0,7.2184640224,13.3044093347,-2.759363638
 H,0,6.1504890028,13.4876553891,-2.7370154107
 C,0,7.6675815951,12.0784257677,-2.5136362159
 H,0,8.7187138049,11.8503454222,-2.4741764705
 H,0,6.9946859069,11.2614628759,-2.3129811293
 C,0,4.1232729517,16.8387835276,-0.2684071862
 H,0,4.5277205894,15.8579426057,-0.0230565017
 H,0,3.4167788042,16.7167767574,-1.0910726486
 H,0,3.5825462609,17.2181556569,0.5960815525
 C,0,4.4939829747,19.9353836043,0.5081537895
 H,0,4.9946128001,20.6623177336,1.1370973058
 C,0,3.1664230185,19.8821183214,0.5130126998
 H,0,2.6179067918,19.2109995538,-0.1247521611
 H,0,2.578959615,20.530069757,1.1419278168
 C,0,7.6709856859,23.8156281482,-0.9976945751
 H,0,7.7015822177,23.7060791222,0.0864507344
 H,0,6.627547075,23.7839123202,-1.31146054
 H,0,8.0775956265,24.7906666717,-1.2546343532
 C,0,10.2442286677,24.0180419243,-2.9747622425
 H,0,9.7521351544,24.9259927732,-2.6368086298
 H,0,10.2713922053,24.0278373988,-4.063752433
 H,0,11.2716283057,24.0302620162,-2.6106741088
 O,0,7.779,19.09,-4.377
 H,0,8.524,19.149,-4.975
 H,0,6.919,19.115,-4.603
 C,0,11.9727006598,18.2498078682,-1.0204948796
 H,0,12.5635925646,17.8637697791,-0.19562173
 H,0,12.1349854492,19.316412305,-1.1338774579
 H,0,12.2124743895,17.7414616899,-1.9475560823
 S,0,10.1964859772,18.0359136242,-0.6365717597
 H,0,10.221659142,16.6983629909,-0.7138501205
 Recover connectivity data from disk.
 Stoichiometry    C31H34FeN4OS(1+,2)
 Framework group  C1[X(C31H34FeN4OS)]
 Deg. of freedom   210
 Full point group                 C1      NOp   1
 Largest Abelian subgroup         C1      NOp   1
 Largest concise Abelian subgroup C1      NOp   1
                         Standard orientation:                         
 ---------------------------------------------------------------------
 Center     Atomic      Atomic             Coordinates (Angstroms)
 Number     Number       Type             X           Y           Z
 ---------------------------------------------------------------------
      1         26           0       -0.048900   -0.136795    0.057543
      2          7           0       -1.910312   -0.885834   -0.241092
      3          7           0       -0.780864    1.709457   -0.270224
      4          7           0        1.801274    0.592575    0.031296
      5          7           0        0.670087   -2.010601    0.069968
      6          6           0       -2.275088   -2.196917   -0.268355
      7          6           0       -3.709787   -2.329013   -0.359304
      8          6           0       -4.210445   -1.063276   -0.376989
      9          6           0       -3.072408   -0.176175   -0.309298
     10          6           0       -2.093269    2.074560   -0.272513
     11          6           0       -2.228751    3.508214   -0.267719
     12          6           0       -0.955730    4.013456   -0.266902
     13          6           0       -0.069700    2.866458   -0.266503
     14          6           0        2.177411    1.886709   -0.155959
     15          6           0        3.613559    2.010091   -0.168452
     16          6           0        4.106460    0.747775    0.020657
     17          6           0        2.949815   -0.122397    0.119876
     18          6           0        1.977393   -2.369282    0.100028
     19          6           0        2.126336   -3.798447   -0.067872
     20          6           0        0.870243   -4.294278   -0.219453
     21          6           0       -0.025806   -3.160306   -0.137381
     22          6           0       -1.399326   -3.266537   -0.235480
     23          1           0       -1.819507   -4.256369   -0.323802
     24          6           0       -3.166732    1.201321   -0.316565
     25          1           0       -4.156747    1.629168   -0.344304
     26          6           0        1.308824    2.956331   -0.273990
     27          1           0        1.741903    3.941244   -0.353844
     28          6           0        3.040517   -1.496660    0.232145
     29          1           0        4.028657   -1.927014    0.284737
     30          6           0       -5.626481   -0.608788   -0.467388
     31          1           0       -6.303049   -1.458788   -0.506572
     32          1           0       -5.779450   -0.007536   -1.364007
     33          1           0       -5.891471    0.000865    0.396889
     34          6           0       -4.431174   -3.631224   -0.415276
     35          1           0       -4.211220   -4.229839    0.468794
     36          1           0       -4.125601   -4.201114   -1.293190
     37          1           0       -5.506037   -3.476416   -0.465767
     38          6           0       -3.519390    4.247107   -0.331999
     39          1           0       -3.991480    4.293047    0.650832
     40          1           0       -4.211411    3.756018   -1.014813
     41          1           0       -3.350514    5.263646   -0.680364
     42          6           0       -0.520550    5.392953   -0.279731
     43          1           0        0.386222    5.593611   -0.838435
     44          6           0       -1.134070    6.397653    0.336139
     45          1           0       -2.009067    6.248075    0.944796
     46          1           0       -0.762102    7.406860    0.275965
     47          6           0        4.363733    3.290420   -0.283089
     48          1           0        3.863553    4.081109    0.274094
     49          1           0        4.439076    3.606802   -1.324734
     50          1           0        5.369634    3.168602    0.113109
     51          6           0        5.480064    0.303369    0.117833
     52          1           0        5.656476   -0.518037    0.802525
     53          6           0        6.504937    0.814722   -0.555539
     54          1           0        6.379200    1.600045   -1.280434
     55          1           0        7.507894    0.445291   -0.421053
     56          6           0        3.433443   -4.512457   -0.072925
     57          1           0        3.952478   -4.363464    0.874024
     58          1           0        4.072882   -4.136760   -0.871793
     59          1           0        3.290602   -5.580106   -0.220475
     60          6           0        0.429477   -5.700029   -0.443344
     61          1           0        1.285950   -6.361326   -0.542759
     62          1           0       -0.169333   -5.775952   -1.350204
     63          1           0       -0.176820   -6.049252    0.392543
     64          8           0        0.032340   -0.303569   -2.189691
     65          1           0       -0.850887   -0.649112   -2.318609
     66          1           0        0.593141   -0.040084   -2.827953
     67          6           0       -1.730424   -0.797298    2.929691
     68          1           0       -1.876916   -0.597755    3.986723
     69          1           0       -1.576085   -1.858234    2.764065
     70          1           0       -2.575410   -0.453466    2.343919
     71         16           0       -0.203650    0.040265    2.367965
     72          1           0       -0.693257    1.279706    2.508386
 ---------------------------------------------------------------------
 Rotational constants (GHZ):           0.1083811           0.1068769           0.0596032
 Standard basis: def2TZVP (5D, 7F)
 There are  1594 symmetry adapted cartesian basis functions of A   symmetry.
 There are  1402 symmetry adapted basis functions of A   symmetry.
  1402 basis functions,  2279 primitive gaussians,  1594 cartesian basis functions
   149 alpha electrons      148 beta electrons
       nuclear repulsion energy      5406.0015603494 Hartrees.
 NAtoms=   72 NActive=   72 NUniq=   72 SFac= 1.00D+00 NAtFMM=   60 NAOKFM=T Big=T
 Integral buffers will be    131072 words long.
 Raffenetti 2 integral format.
 Two-electron integral symmetry is turned on.
 R6APFD:  NTU= -4 IXU= 1 FactS= 1.050
 Nuclear repulsion after empirical dispersion term =     5405.8512439151 Hartrees.
 One-electron integrals computed using PRISM.
   1 Symmetry operations used in ECPInt.
 ECPInt:  NShTT=  157080 NPrTT=  488567 LenC2=  124599 LenP2D=  258467.
 LDataN:  DoStor=T MaxTD1= 6 Len=  172
 Number of processors reduced to  25 by ecpmxn.
 NBasis=  1402 RedAO= T EigKep=  3.21D-06  NBF=  1402
 NBsUse=  1402 1.00D-06 EigRej= -1.00D+00 NBFU=  1402
 Initial guess from the checkpoint file:  "2j18_III_Dn.chk"
 B after Tr=     0.000000    0.000000   -0.000000
         Rot=    1.000000   -0.000000   -0.000000    0.000000 Ang=   0.00 deg.
 Initial guess <Sx>= 0.0000 <Sy>= 0.0000 <Sz>= 0.5000 <S**2>= 0.7822 S= 0.5160
 Requested convergence on RMS density matrix=1.00D-08 within 999 cycles.
 Requested convergence on MAX density matrix=1.00D-06.
 Requested convergence on             energy=1.00D-06.
 No special actions if energy rises.
 EnCoef did   100 forward-backward iterations
 EnCoef did     5 forward-backward iterations
 EnCoef did     2 forward-backward iterations
 EnCoef did     9 forward-backward iterations
 EnCoef did     2 forward-backward iterations
 EnCoef did     6 forward-backward iterations
 EnCoef did     1 forward-backward iterations
 EnCoef did   100 forward-backward iterations
 EnCoef did   100 forward-backward iterations
 Restarting incremental Fock formation.
 Rare condition: small coef for last iteration:  0.000D+00
 Rare condition: small coef for last iteration:  0.000D+00
 Rare condition: small coef for last iteration:  0.000D+00
 Restarting incremental Fock formation.
 Restarting incremental Fock formation.
 Restarting incremental Fock formation.
 SCF Done:  E(UAPFD) =  -3156.98641298     A.U. after   96 cycles
            NFock= 96  Conv=0.26D-08     -V/T= 2.0031
 <Sx>= 0.0000 <Sy>= 0.0000 <Sz>= 0.5000 <S**2>= 1.1292 S= 0.6744
 <L.S>=  0.00000000000    
 Annihilation of the first spin contaminant:
 S**2 before annihilation     1.1292,   after     0.7605

 **********************************************************************

            Population analysis using the SCF Density.

 **********************************************************************

 Orbital symmetries:
 Alpha Orbitals:
       Occupied  (A) (A) (A) (A) (A) (A) (A) (A) (A) (A) (A) (A)
                 (A) (A) (A) (A) (A) (A) (A) (A) (A) (A) (A) (A)
                 (A) (A) (A) (A) (A) (A) (A) (A) (A) (A) (A) (A)
                 (A) (A) (A) (A) (A) (A) (A) (A) (A) (A) (A) (A)
                 (A) (A) (A) (A) (A) (A) (A) (A) (A) (A) (A) (A)
                 (A) (A) (A) (A) (A) (A) (A) (A) (A) (A) (A) (A)
                 (A) (A) (A) (A) (A) (A) (A) (A) (A) (A) (A) (A)
                 (A) (A) (A) (A) (A) (A) (A) (A) (A) (A) (A) (A)
                 (A) (A) (A) (A) (A) (A) (A) (A) (A) (A) (A) (A)
                 (A) (A) (A) (A) (A) (A) (A) (A) (A) (A) (A) (A)
                 (A) (A) (A) (A) (A) (A) (A) (A) (A) (A) (A) (A)
                 (A) (A) (A) (A) (A) (A) (A) (A) (A) (A) (A) (A)
                 (A) (A) (A) (A) (A)
       Virtual   (A) (A) (A) (A) (A) (A) (A) (A) (A) (A) (A) (A)
                 (A) (A) (A) (A) (A) (A) (A) (A) (A) (A) (A) (A)
                 (A) (A) (A) (A) (A) (A) (A) (A) (A) (A) (A) (A)
                 (A) (A) (A) (A) (A) (A) (A) (A) (A) (A) (A) (A)
                 (A) (A) (A) (A) (A) (A) (A) (A) (A) (A) (A) (A)
                 (A) (A) (A) (A) (A) (A) (A) (A) (A) (A) (A) (A)
                 (A) (A) (A) (A) (A) (A) (A) (A) (A) (A) (A) (A)
                 (A) (A) (A) (A) (A) (A) (A) (A) (A) (A) (A) (A)
                 (A) (A) (A) (A) (A) (A) (A) (A) (A) (A) (A) (A)
                 (A) (A) (A) (A) (A) (A) (A) (A) (A) (A) (A) (A)
                 (A) (A) (A) (A) (A) (A) (A) (A) (A) (A) (A) (A)
                 (A) (A) (A) (A) (A) (A) (A) (A) (A) (A) (A) (A)
                 (A) (A) (A) (A) (A) (A) (A) (A) (A) (A) (A) (A)
                 (A) (A) (A) (A) (A) (A) (A) (A) (A) (A) (A) (A)
                 (A) (A) (A) (A) (A) (A) (A) (A) (A) (A) (A) (A)
                 (A) (A) (A) (A) (A) (A) (A) (A) (A) (A) (A) (A)
                 (A) (A) (A) (A) (A) (A) (A) (A) (A) (A) (A) (A)
                 (A) (A) (A) (A) (A) (A) (A) (A) (A) (A) (A) (A)
                 (A) (A) (A) (A) (A) (A) (A) (A) (A) (A) (A) (A)
                 (A) (A) (A) (A) (A) (A) (A) (A) (A) (A) (A) (A)
                 (A) (A) (A) (A) (A) (A) (A) (A) (A) (A) (A) (A)
                 (A) (A) (A) (A) (A) (A) (A) (A) (A) (A) (A) (A)
                 (A) (A) (A) (A) (A) (A) (A) (A) (A) (A) (A) (A)
                 (A) (A) (A) (A) (A) (A) (A) (A) (A) (A) (A) (A)
                 (A) (A) (A) (A) (A) (A) (A) (A) (A) (A) (A) (A)
                 (A) (A) (A) (A) (A) (A) (A) (A) (A) (A) (A) (A)
                 (A) (A) (A) (A) (A) (A) (A) (A) (A) (A) (A) (A)
                 (A) (A) (A) (A) (A) (A) (A) (A) (A) (A) (A) (A)
                 (A) (A) (A) (A) (A) (A) (A) (A) (A) (A) (A) (A)
                 (A) (A) (A) (A) (A) (A) (A) (A) (A) (A) (A) (A)
                 (A) (A) (A) (A) (A) (A) (A) (A) (A) (A) (A) (A)
                 (A) (A) (A) (A) (A) (A) (A) (A) (A) (A) (A) (A)
                 (A) (A) (A) (A) (A) (A) (A) (A) (A) (A) (A) (A)
                 (A) (A) (A) (A) (A) (A) (A) (A) (A) (A) (A) (A)
                 (A) (A) (A) (A) (A) (A) (A) (A) (A) (A) (A) (A)
                 (A) (A) (A) (A) (A) (A) (A) (A) (A) (A) (A) (A)
                 (A) (A) (A) (A) (A) (A) (A) (A) (A) (A) (A) (A)
                 (A) (A) (A) (A) (A) (A) (A) (A) (A) (A) (A) (A)
                 (A) (A) (A) (A) (A) (A) (A) (A) (A) (A) (A) (A)
                 (A) (A) (A) (A) (A) (A) (A) (A) (A) (A) (A) (A)
                 (A) (A) (A) (A) (A) (A) (A) (A) (A) (A) (A) (A)
                 (A) (A) (A) (A) (A) (A) (A) (A) (A) (A) (A) (A)
                 (A) (A) (A) (A) (A) (A) (A) (A) (A) (A) (A) (A)
                 (A) (A) (A) (A) (A) (A) (A) (A) (A) (A) (A) (A)
                 (A) (A) (A) (A) (A) (A) (A) (A) (A) (A) (A) (A)
                 (A) (A) (A) (A) (A) (A) (A) (A) (A) (A) (A) (A)
                 (A) (A) (A) (A) (A) (A) (A) (A) (A) (A) (A) (A)
                 (A) (A) (A) (A) (A) (A) (A) (A) (A) (A) (A) (A)
                 (A) (A) (A) (A) (A) (A) (A) (A) (A) (A) (A) (A)
                 (A) (A) (A) (A) (A) (A) (A) (A) (A) (A) (A) (A)
                 (A) (A) (A) (A) (A) (A) (A) (A) (A) (A) (A) (A)
                 (A) (A) (A) (A) (A) (A) (A) (A) (A) (A) (A) (A)
                 (A) (A) (A) (A) (A) (A) (A) (A) (A) (A) (A) (A)
                 (A) (A) (A) (A) (A) (A) (A) (A) (A) (A) (A) (A)
                 (A) (A) (A) (A) (A) (A) (A) (A) (A) (A) (A) (A)
                 (A) (A) (A) (A) (A) (A) (A) (A) (A) (A) (A) (A)
                 (A) (A) (A) (A) (A) (A) (A) (A) (A) (A) (A) (A)
                 (A) (A) (A) (A) (A) (A) (A) (A) (A) (A) (A) (A)
                 (A) (A) (A) (A) (A) (A) (A) (A) (A) (A) (A) (A)
                 (A) (A) (A) (A) (A) (A) (A) (A) (A) (A) (A) (A)
                 (A) (A) (A) (A) (A) (A) (A) (A) (A) (A) (A) (A)
                 (A) (A) (A) (A) (A) (A) (A) (A) (A) (A) (A) (A)
                 (A) (A) (A) (A) (A) (A) (A) (A) (A) (A) (A) (A)
                 (A) (A) (A) (A) (A) (A) (A) (A) (A) (A) (A) (A)
                 (A) (A) (A) (A) (A) (A) (A) (A) (A) (A) (A) (A)
                 (A) (A) (A) (A) (A) (A) (A) (A) (A) (A) (A) (A)
                 (A) (A) (A) (A) (A) (A) (A) (A) (A) (A) (A) (A)
                 (A) (A) (A) (A) (A) (A) (A) (A) (A) (A) (A) (A)
                 (A) (A) (A) (A) (A) (A) (A) (A) (A) (A) (A) (A)
                 (A) (A) (A) (A) (A) (A) (A) (A) (A) (A) (A) (A)
                 (A) (A) (A) (A) (A) (A) (A) (A) (A) (A) (A) (A)
                 (A) (A) (A) (A) (A) (A) (A) (A) (A) (A) (A) (A)
                 (A) (A) (A) (A) (A) (A) (A) (A) (A) (A) (A) (A)
                 (A) (A) (A) (A) (A) (A) (A) (A) (A) (A) (A) (A)
                 (A) (A) (A) (A) (A) (A) (A) (A) (A) (A) (A) (A)
                 (A) (A) (A) (A) (A) (A) (A) (A) (A) (A) (A) (A)
                 (A) (A) (A) (A) (A) (A) (A) (A) (A) (A) (A) (A)
                 (A) (A) (A) (A) (A) (A) (A) (A) (A) (A) (A) (A)
                 (A) (A) (A) (A) (A) (A) (A) (A) (A) (A) (A) (A)
                 (A) (A) (A) (A) (A) (A) (A) (A) (A) (A) (A) (A)
                 (A) (A) (A) (A) (A) (A) (A) (A) (A) (A) (A) (A)
                 (A) (A) (A) (A) (A) (A) (A) (A) (A) (A) (A) (A)
                 (A) (A) (A) (A) (A) (A) (A) (A) (A) (A) (A) (A)
                 (A) (A) (A) (A) (A) (A) (A) (A) (A) (A) (A) (A)
                 (A) (A) (A) (A) (A) (A) (A) (A) (A) (A) (A) (A)
                 (A) (A) (A) (A) (A) (A) (A) (A) (A) (A) (A) (A)
                 (A) (A) (A) (A) (A) (A) (A) (A) (A) (A) (A) (A)
                 (A) (A) (A) (A) (A) (A) (A) (A) (A) (A) (A) (A)
                 (A) (A) (A) (A) (A) (A) (A) (A) (A) (A) (A) (A)
                 (A) (A) (A) (A) (A) (A) (A) (A) (A) (A) (A) (A)
                 (A) (A) (A) (A) (A) (A) (A) (A) (A) (A) (A) (A)
                 (A) (A) (A) (A) (A) (A) (A) (A) (A) (A) (A) (A)
                 (A) (A) (A) (A) (A) (A) (A) (A) (A) (A) (A) (A)
                 (A) (A) (A) (A) (A) (A) (A) (A) (A) (A) (A) (A)
                 (A) (A) (A) (A) (A) (A) (A) (A) (A) (A) (A) (A)
                 (A) (A) (A) (A) (A) (A) (A) (A) (A) (A) (A) (A)
                 (A) (A) (A) (A) (A) (A) (A) (A) (A) (A) (A) (A)
                 (A) (A) (A) (A) (A) (A) (A) (A) (A) (A) (A) (A)
                 (A) (A) (A) (A) (A) (A) (A) (A) (A) (A) (A) (A)
                 (A) (A) (A) (A) (A) (A) (A) (A) (A) (A) (A) (A)
                 (A) (A) (A) (A) (A) (A) (A) (A) (A) (A) (A) (A)
                 (A) (A) (A) (A) (A) (A) (A) (A) (A) (A) (A) (A)
                 (A) (A) (A) (A) (A) (A) (A) (A) (A) (A) (A) (A)
                 (A) (A) (A) (A) (A) (A) (A) (A) (A) (A) (A) (A)
                 (A) (A) (A) (A) (A)
 Beta  Orbitals:
       Occupied  (A) (A) (A) (A) (A) (A) (A) (A) (A) (A) (A) (A)
                 (A) (A) (A) (A) (A) (A) (A) (A) (A) (A) (A) (A)
                 (A) (A) (A) (A) (A) (A) (A) (A) (A) (A) (A) (A)
                 (A) (A) (A) (A) (A) (A) (A) (A) (A) (A) (A) (A)
                 (A) (A) (A) (A) (A) (A) (A) (A) (A) (A) (A) (A)
                 (A) (A) (A) (A) (A) (A) (A) (A) (A) (A) (A) (A)
                 (A) (A) (A) (A) (A) (A) (A) (A) (A) (A) (A) (A)
                 (A) (A) (A) (A) (A) (A) (A) (A) (A) (A) (A) (A)
                 (A) (A) (A) (A) (A) (A) (A) (A) (A) (A) (A) (A)
                 (A) (A) (A) (A) (A) (A) (A) (A) (A) (A) (A) (A)
                 (A) (A) (A) (A) (A) (A) (A) (A) (A) (A) (A) (A)
                 (A) (A) (A) (A) (A) (A) (A) (A) (A) (A) (A) (A)
                 (A) (A) (A) (A)
       Virtual   (A) (A) (A) (A) (A) (A) (A) (A) (A) (A) (A) (A)
                 (A) (A) (A) (A) (A) (A) (A) (A) (A) (A) (A) (A)
                 (A) (A) (A) (A) (A) (A) (A) (A) (A) (A) (A) (A)
                 (A) (A) (A) (A) (A) (A) (A) (A) (A) (A) (A) (A)
                 (A) (A) (A) (A) (A) (A) (A) (A) (A) (A) (A) (A)
                 (A) (A) (A) (A) (A) (A) (A) (A) (A) (A) (A) (A)
                 (A) (A) (A) (A) (A) (A) (A) (A) (A) (A) (A) (A)
                 (A) (A) (A) (A) (A) (A) (A) (A) (A) (A) (A) (A)
                 (A) (A) (A) (A) (A) (A) (A) (A) (A) (A) (A) (A)
                 (A) (A) (A) (A) (A) (A) (A) (A) (A) (A) (A) (A)
                 (A) (A) (A) (A) (A) (A) (A) (A) (A) (A) (A) (A)
                 (A) (A) (A) (A) (A) (A) (A) (A) (A) (A) (A) (A)
                 (A) (A) (A) (A) (A) (A) (A) (A) (A) (A) (A) (A)
                 (A) (A) (A) (A) (A) (A) (A) (A) (A) (A) (A) (A)
                 (A) (A) (A) (A) (A) (A) (A) (A) (A) (A) (A) (A)
                 (A) (A) (A) (A) (A) (A) (A) (A) (A) (A) (A) (A)
                 (A) (A) (A) (A) (A) (A) (A) (A) (A) (A) (A) (A)
                 (A) (A) (A) (A) (A) (A) (A) (A) (A) (A) (A) (A)
                 (A) (A) (A) (A) (A) (A) (A) (A) (A) (A) (A) (A)
                 (A) (A) (A) (A) (A) (A) (A) (A) (A) (A) (A) (A)
                 (A) (A) (A) (A) (A) (A) (A) (A) (A) (A) (A) (A)
                 (A) (A) (A) (A) (A) (A) (A) (A) (A) (A) (A) (A)
                 (A) (A) (A) (A) (A) (A) (A) (A) (A) (A) (A) (A)
                 (A) (A) (A) (A) (A) (A) (A) (A) (A) (A) (A) (A)
                 (A) (A) (A) (A) (A) (A) (A) (A) (A) (A) (A) (A)
                 (A) (A) (A) (A) (A) (A) (A) (A) (A) (A) (A) (A)
                 (A) (A) (A) (A) (A) (A) (A) (A) (A) (A) (A) (A)
                 (A) (A) (A) (A) (A) (A) (A) (A) (A) (A) (A) (A)
                 (A) (A) (A) (A) (A) (A) (A) (A) (A) (A) (A) (A)
                 (A) (A) (A) (A) (A) (A) (A) (A) (A) (A) (A) (A)
                 (A) (A) (A) (A) (A) (A) (A) (A) (A) (A) (A) (A)
                 (A) (A) (A) (A) (A) (A) (A) (A) (A) (A) (A) (A)
                 (A) (A) (A) (A) (A) (A) (A) (A) (A) (A) (A) (A)
                 (A) (A) (A) (A) (A) (A) (A) (A) (A) (A) (A) (A)
                 (A) (A) (A) (A) (A) (A) (A) (A) (A) (A) (A) (A)
                 (A) (A) (A) (A) (A) (A) (A) (A) (A) (A) (A) (A)
                 (A) (A) (A) (A) (A) (A) (A) (A) (A) (A) (A) (A)
                 (A) (A) (A) (A) (A) (A) (A) (A) (A) (A) (A) (A)
                 (A) (A) (A) (A) (A) (A) (A) (A) (A) (A) (A) (A)
                 (A) (A) (A) (A) (A) (A) (A) (A) (A) (A) (A) (A)
                 (A) (A) (A) (A) (A) (A) (A) (A) (A) (A) (A) (A)
                 (A) (A) (A) (A) (A) (A) (A) (A) (A) (A) (A) (A)
                 (A) (A) (A) (A) (A) (A) (A) (A) (A) (A) (A) (A)
                 (A) (A) (A) (A) (A) (A) (A) (A) (A) (A) (A) (A)
                 (A) (A) (A) (A) (A) (A) (A) (A) (A) (A) (A) (A)
                 (A) (A) (A) (A) (A) (A) (A) (A) (A) (A) (A) (A)
                 (A) (A) (A) (A) (A) (A) (A) (A) (A) (A) (A) (A)
                 (A) (A) (A) (A) (A) (A) (A) (A) (A) (A) (A) (A)
                 (A) (A) (A) (A) (A) (A) (A) (A) (A) (A) (A) (A)
                 (A) (A) (A) (A) (A) (A) (A) (A) (A) (A) (A) (A)
                 (A) (A) (A) (A) (A) (A) (A) (A) (A) (A) (A) (A)
                 (A) (A) (A) (A) (A) (A) (A) (A) (A) (A) (A) (A)
                 (A) (A) (A) (A) (A) (A) (A) (A) (A) (A) (A) (A)
                 (A) (A) (A) (A) (A) (A) (A) (A) (A) (A) (A) (A)
                 (A) (A) (A) (A) (A) (A) (A) (A) (A) (A) (A) (A)
                 (A) (A) (A) (A) (A) (A) (A) (A) (A) (A) (A) (A)
                 (A) (A) (A) (A) (A) (A) (A) (A) (A) (A) (A) (A)
                 (A) (A) (A) (A) (A) (A) (A) (A) (A) (A) (A) (A)
                 (A) (A) (A) (A) (A) (A) (A) (A) (A) (A) (A) (A)
                 (A) (A) (A) (A) (A) (A) (A) (A) (A) (A) (A) (A)
                 (A) (A) (A) (A) (A) (A) (A) (A) (A) (A) (A) (A)
                 (A) (A) (A) (A) (A) (A) (A) (A) (A) (A) (A) (A)
                 (A) (A) (A) (A) (A) (A) (A) (A) (A) (A) (A) (A)
                 (A) (A) (A) (A) (A) (A) (A) (A) (A) (A) (A) (A)
                 (A) (A) (A) (A) (A) (A) (A) (A) (A) (A) (A) (A)
                 (A) (A) (A) (A) (A) (A) (A) (A) (A) (A) (A) (A)
                 (A) (A) (A) (A) (A) (A) (A) (A) (A) (A) (A) (A)
                 (A) (A) (A) (A) (A) (A) (A) (A) (A) (A) (A) (A)
                 (A) (A) (A) (A) (A) (A) (A) (A) (A) (A) (A) (A)
                 (A) (A) (A) (A) (A) (A) (A) (A) (A) (A) (A) (A)
                 (A) (A) (A) (A) (A) (A) (A) (A) (A) (A) (A) (A)
                 (A) (A) (A) (A) (A) (A) (A) (A) (A) (A) (A) (A)
                 (A) (A) (A) (A) (A) (A) (A) (A) (A) (A) (A) (A)
                 (A) (A) (A) (A) (A) (A) (A) (A) (A) (A) (A) (A)
                 (A) (A) (A) (A) (A) (A) (A) (A) (A) (A) (A) (A)
                 (A) (A) (A) (A) (A) (A) (A) (A) (A) (A) (A) (A)
                 (A) (A) (A) (A) (A) (A) (A) (A) (A) (A) (A) (A)
                 (A) (A) (A) (A) (A) (A) (A) (A) (A) (A) (A) (A)
                 (A) (A) (A) (A) (A) (A) (A) (A) (A) (A) (A) (A)
                 (A) (A) (A) (A) (A) (A) (A) (A) (A) (A) (A) (A)
                 (A) (A) (A) (A) (A) (A) (A) (A) (A) (A) (A) (A)
                 (A) (A) (A) (A) (A) (A) (A) (A) (A) (A) (A) (A)
                 (A) (A) (A) (A) (A) (A) (A) (A) (A) (A) (A) (A)
                 (A) (A) (A) (A) (A) (A) (A) (A) (A) (A) (A) (A)
                 (A) (A) (A) (A) (A) (A) (A) (A) (A) (A) (A) (A)
                 (A) (A) (A) (A) (A) (A) (A) (A) (A) (A) (A) (A)
                 (A) (A) (A) (A) (A) (A) (A) (A) (A) (A) (A) (A)
                 (A) (A) (A) (A) (A) (A) (A) (A) (A) (A) (A) (A)
                 (A) (A) (A) (A) (A) (A) (A) (A) (A) (A) (A) (A)
                 (A) (A) (A) (A) (A) (A) (A) (A) (A) (A) (A) (A)
                 (A) (A) (A) (A) (A) (A) (A) (A) (A) (A) (A) (A)
                 (A) (A) (A) (A) (A) (A) (A) (A) (A) (A) (A) (A)
                 (A) (A) (A) (A) (A) (A) (A) (A) (A) (A) (A) (A)
                 (A) (A) (A) (A) (A) (A) (A) (A) (A) (A) (A) (A)
                 (A) (A) (A) (A) (A) (A) (A) (A) (A) (A) (A) (A)
                 (A) (A) (A) (A) (A) (A) (A) (A) (A) (A) (A) (A)
                 (A) (A) (A) (A) (A) (A) (A) (A) (A) (A) (A) (A)
                 (A) (A) (A) (A) (A) (A) (A) (A) (A) (A) (A) (A)
                 (A) (A) (A) (A) (A) (A) (A) (A) (A) (A) (A) (A)
                 (A) (A) (A) (A) (A) (A) (A) (A) (A) (A) (A) (A)
                 (A) (A) (A) (A) (A) (A) (A) (A) (A) (A) (A) (A)
                 (A) (A) (A) (A) (A) (A) (A) (A) (A) (A) (A) (A)
                 (A) (A) (A) (A) (A) (A) (A) (A) (A) (A) (A) (A)
                 (A) (A) (A) (A) (A) (A) (A) (A) (A) (A) (A) (A)
                 (A) (A) (A) (A) (A) (A)
 The electronic state is 2-A.
 Alpha  occ. eigenvalues -- -256.40135 -89.10825 -30.26841 -26.11099 -26.10605
 Alpha  occ. eigenvalues --  -26.09726 -19.29415 -14.47151 -14.47092 -14.46957
 Alpha  occ. eigenvalues --  -14.46905 -10.34580 -10.33696 -10.33605 -10.33593
 Alpha  occ. eigenvalues --  -10.33559 -10.33539 -10.33432 -10.33427 -10.33405
 Alpha  occ. eigenvalues --  -10.30618 -10.30591 -10.30582 -10.30578 -10.30540
 Alpha  occ. eigenvalues --  -10.30403 -10.30391 -10.30346 -10.30316 -10.30274
 Alpha  occ. eigenvalues --  -10.30161 -10.30120 -10.29397 -10.29214 -10.28717
 Alpha  occ. eigenvalues --  -10.28710 -10.28416 -10.28300 -10.28246 -10.28138
 Alpha  occ. eigenvalues --  -10.28065 -10.27903  -8.13594  -6.08114  -6.07856
 Alpha  occ. eigenvalues --   -6.07394  -3.65679  -2.43270  -2.41809  -2.40265
 Alpha  occ. eigenvalues --   -1.17242  -1.09934  -1.09027  -1.08849  -1.07955
 Alpha  occ. eigenvalues --   -0.94430  -0.93891  -0.92964  -0.92707  -0.92297
 Alpha  occ. eigenvalues --   -0.91940  -0.91592  -0.91558  -0.87498  -0.86220
 Alpha  occ. eigenvalues --   -0.86133  -0.85094  -0.83689  -0.81938  -0.80917
 Alpha  occ. eigenvalues --   -0.79548  -0.79301  -0.79185  -0.78845  -0.76027
 Alpha  occ. eigenvalues --   -0.75977  -0.72911  -0.71407  -0.70784  -0.69734
 Alpha  occ. eigenvalues --   -0.69109  -0.66065  -0.65335  -0.64382  -0.64224
 Alpha  occ. eigenvalues --   -0.62730  -0.62685  -0.62371  -0.60157  -0.59790
 Alpha  occ. eigenvalues --   -0.59144  -0.58939  -0.57901  -0.56728  -0.56252
 Alpha  occ. eigenvalues --   -0.55617  -0.55516  -0.54960  -0.54625  -0.54238
 Alpha  occ. eigenvalues --   -0.54220  -0.54062  -0.53871  -0.53429  -0.53006
 Alpha  occ. eigenvalues --   -0.52998  -0.52787  -0.51574  -0.51503  -0.51355
 Alpha  occ. eigenvalues --   -0.51284  -0.51081  -0.50985  -0.50855  -0.50678
 Alpha  occ. eigenvalues --   -0.50247  -0.49948  -0.49489  -0.49372  -0.49243
 Alpha  occ. eigenvalues --   -0.48831  -0.48720  -0.48443  -0.48118  -0.47674
 Alpha  occ. eigenvalues --   -0.47335  -0.47132  -0.46589  -0.46050  -0.45668
 Alpha  occ. eigenvalues --   -0.45092  -0.44347  -0.43777  -0.43690  -0.43290
 Alpha  occ. eigenvalues --   -0.43056  -0.42448  -0.42162  -0.41293  -0.40301
 Alpha  occ. eigenvalues --   -0.40008  -0.38405  -0.38125  -0.35114  -0.34383
 Alpha  occ. eigenvalues --   -0.33382  -0.32983  -0.30859  -0.29830
 Alpha virt. eigenvalues --   -0.21663  -0.18756  -0.18607  -0.16831  -0.12884
 Alpha virt. eigenvalues --   -0.11393  -0.09488  -0.08636  -0.07870  -0.06858
 Alpha virt. eigenvalues --   -0.06420  -0.04749  -0.04365  -0.03601  -0.03316
 Alpha virt. eigenvalues --   -0.02972  -0.02895  -0.02365  -0.01806  -0.01366
 Alpha virt. eigenvalues --   -0.00658  -0.00374  -0.00212  -0.00071   0.00453
 Alpha virt. eigenvalues --    0.01019   0.01190   0.01513   0.01985   0.02014
 Alpha virt. eigenvalues --    0.02352   0.02564   0.02719   0.02845   0.03011
 Alpha virt. eigenvalues --    0.03185   0.03525   0.03991   0.04132   0.04205
 Alpha virt. eigenvalues --    0.04509   0.04682   0.04805   0.05164   0.05529
 Alpha virt. eigenvalues --    0.05877   0.06000   0.06234   0.06436   0.06710
 Alpha virt. eigenvalues --    0.07091   0.07261   0.07366   0.07476   0.07679
 Alpha virt. eigenvalues --    0.08079   0.08196   0.08506   0.08899   0.09292
 Alpha virt. eigenvalues --    0.09694   0.09835   0.10270   0.10423   0.10707
 Alpha virt. eigenvalues --    0.11004   0.11022   0.11391   0.11521   0.11638
 Alpha virt. eigenvalues --    0.12061   0.12197   0.12611   0.12706   0.13127
 Alpha virt. eigenvalues --    0.13597   0.13992   0.14326   0.14689   0.14780
 Alpha virt. eigenvalues --    0.15594   0.15617   0.15964   0.16289   0.16524
 Alpha virt. eigenvalues --    0.16755   0.16890   0.17031   0.17372   0.17529
 Alpha virt. eigenvalues --    0.17735   0.17922   0.18741   0.18991   0.19072
 Alpha virt. eigenvalues --    0.19276   0.19618   0.19890   0.20390   0.20587
 Alpha virt. eigenvalues --    0.20818   0.20908   0.21240   0.21471   0.21782
 Alpha virt. eigenvalues --    0.22071   0.22540   0.22873   0.23095   0.23495
 Alpha virt. eigenvalues --    0.23762   0.24042   0.24055   0.24379   0.24601
 Alpha virt. eigenvalues --    0.24716   0.25325   0.25565   0.26050   0.26362
 Alpha virt. eigenvalues --    0.26734   0.27124   0.27794   0.27982   0.28143
 Alpha virt. eigenvalues --    0.28320   0.28563   0.28768   0.29267   0.29357
 Alpha virt. eigenvalues --    0.29530   0.29859   0.30105   0.30449   0.30519
 Alpha virt. eigenvalues --    0.30818   0.31208   0.31337   0.31423   0.31527
 Alpha virt. eigenvalues --    0.31653   0.32025   0.32472   0.32551   0.32898
 Alpha virt. eigenvalues --    0.32969   0.33204   0.33711   0.33885   0.34167
 Alpha virt. eigenvalues --    0.34453   0.34951   0.35066   0.35452   0.35578
 Alpha virt. eigenvalues --    0.35784   0.36077   0.36222   0.36729   0.36990
 Alpha virt. eigenvalues --    0.37106   0.37204   0.37386   0.37644   0.38115
 Alpha virt. eigenvalues --    0.38369   0.38537   0.38830   0.38880   0.38984
 Alpha virt. eigenvalues --    0.39343   0.39587   0.40044   0.40181   0.40564
 Alpha virt. eigenvalues --    0.40620   0.40894   0.41276   0.41488   0.41776
 Alpha virt. eigenvalues --    0.41836   0.42283   0.42341   0.42564   0.42685
 Alpha virt. eigenvalues --    0.43140   0.43350   0.43481   0.43581   0.43883
 Alpha virt. eigenvalues --    0.43980   0.44464   0.44780   0.44887   0.45094
 Alpha virt. eigenvalues --    0.45216   0.45489   0.45752   0.46082   0.46617
 Alpha virt. eigenvalues --    0.47083   0.47161   0.47456   0.47690   0.47993
 Alpha virt. eigenvalues --    0.48532   0.48709   0.49534   0.49638   0.49930
 Alpha virt. eigenvalues --    0.50087   0.50405   0.50836   0.51121   0.51802
 Alpha virt. eigenvalues --    0.52043   0.52239   0.52666   0.53250   0.53341
 Alpha virt. eigenvalues --    0.53698   0.53971   0.54208   0.54304   0.54526
 Alpha virt. eigenvalues --    0.54628   0.55025   0.55347   0.55807   0.56278
 Alpha virt. eigenvalues --    0.56531   0.56752   0.56909   0.57233   0.57473
 Alpha virt. eigenvalues --    0.57765   0.57974   0.58698   0.58809   0.58998
 Alpha virt. eigenvalues --    0.59635   0.59928   0.60423   0.60896   0.61002
 Alpha virt. eigenvalues --    0.61097   0.61503   0.61842   0.62123   0.62713
 Alpha virt. eigenvalues --    0.62749   0.63020   0.63531   0.63870   0.64085
 Alpha virt. eigenvalues --    0.64402   0.64737   0.65219   0.65516   0.65819
 Alpha virt. eigenvalues --    0.65912   0.66302   0.67249   0.67323   0.68077
 Alpha virt. eigenvalues --    0.68384   0.68656   0.69332   0.69698   0.69933
 Alpha virt. eigenvalues --    0.70188   0.70940   0.71479   0.71654   0.72176
 Alpha virt. eigenvalues --    0.72594   0.72972   0.73567   0.73809   0.74098
 Alpha virt. eigenvalues --    0.74341   0.74610   0.75397   0.75674   0.75913
 Alpha virt. eigenvalues --    0.76316   0.76776   0.77063   0.77404   0.77864
 Alpha virt. eigenvalues --    0.78299   0.79113   0.79252   0.79906   0.80248
 Alpha virt. eigenvalues --    0.80560   0.80997   0.81340   0.81674   0.81833
 Alpha virt. eigenvalues --    0.82430   0.83184   0.83705   0.84110   0.84251
 Alpha virt. eigenvalues --    0.84786   0.85044   0.85652   0.86030   0.86037
 Alpha virt. eigenvalues --    0.86520   0.86693   0.87227   0.87671   0.87921
 Alpha virt. eigenvalues --    0.88549   0.88826   0.89163   0.89567   0.89846
 Alpha virt. eigenvalues --    0.90216   0.90409   0.90934   0.91235   0.91518
 Alpha virt. eigenvalues --    0.91740   0.92157   0.92271   0.92648   0.92779
 Alpha virt. eigenvalues --    0.93121   0.93350   0.93775   0.94228   0.94392
 Alpha virt. eigenvalues --    0.95038   0.95186   0.95735   0.96131   0.96841
 Alpha virt. eigenvalues --    0.97276   0.97868   0.98098   0.98426   0.99245
 Alpha virt. eigenvalues --    0.99545   0.99866   1.00390   1.00601   1.01742
 Alpha virt. eigenvalues --    1.02163   1.02964   1.03715   1.04255   1.04337
 Alpha virt. eigenvalues --    1.05336   1.05745   1.05924   1.06392   1.07024
 Alpha virt. eigenvalues --    1.07489   1.07863   1.08295   1.08391   1.08966
 Alpha virt. eigenvalues --    1.09085   1.09851   1.10136   1.10406   1.10704
 Alpha virt. eigenvalues --    1.10876   1.11865   1.12237   1.12668   1.12949
 Alpha virt. eigenvalues --    1.13420   1.13851   1.14617   1.15207   1.15752
 Alpha virt. eigenvalues --    1.16136   1.16521   1.16781   1.17058   1.17272
 Alpha virt. eigenvalues --    1.17602   1.18020   1.18436   1.18743   1.19348
 Alpha virt. eigenvalues --    1.19898   1.20256   1.20638   1.21363   1.21522
 Alpha virt. eigenvalues --    1.22061   1.23049   1.23582   1.23816   1.24950
 Alpha virt. eigenvalues --    1.25882   1.26115   1.26830   1.27036   1.27442
 Alpha virt. eigenvalues --    1.28519   1.29317   1.30108   1.30770   1.30850
 Alpha virt. eigenvalues --    1.31688   1.32263   1.32797   1.33306   1.34180
 Alpha virt. eigenvalues --    1.34313   1.34614   1.35276   1.36097   1.36365
 Alpha virt. eigenvalues --    1.36510   1.36811   1.37612   1.37728   1.37984
 Alpha virt. eigenvalues --    1.38211   1.38844   1.39061   1.39087   1.39952
 Alpha virt. eigenvalues --    1.40202   1.40528   1.40762   1.41082   1.41555
 Alpha virt. eigenvalues --    1.41686   1.42120   1.42406   1.42697   1.42762
 Alpha virt. eigenvalues --    1.43729   1.43797   1.43850   1.44375   1.44467
 Alpha virt. eigenvalues --    1.44762   1.45131   1.45359   1.45848   1.46039
 Alpha virt. eigenvalues --    1.46248   1.46619   1.47133   1.47147   1.47593
 Alpha virt. eigenvalues --    1.47669   1.48133   1.48344   1.48629   1.49006
 Alpha virt. eigenvalues --    1.49534   1.49613   1.50032   1.50312   1.50770
 Alpha virt. eigenvalues --    1.50966   1.51511   1.51701   1.51994   1.52211
 Alpha virt. eigenvalues --    1.52534   1.52929   1.52973   1.53492   1.53535
 Alpha virt. eigenvalues --    1.53741   1.54059   1.54656   1.54997   1.55428
 Alpha virt. eigenvalues --    1.55921   1.56210   1.56668   1.56827   1.57109
 Alpha virt. eigenvalues --    1.57255   1.57455   1.57734   1.58471   1.59147
 Alpha virt. eigenvalues --    1.59497   1.59512   1.59708   1.60483   1.60803
 Alpha virt. eigenvalues --    1.61143   1.61316   1.61563   1.62147   1.62291
 Alpha virt. eigenvalues --    1.63242   1.63405   1.63636   1.63933   1.64244
 Alpha virt. eigenvalues --    1.65037   1.65884   1.66481   1.67817   1.67963
 Alpha virt. eigenvalues --    1.68475   1.68894   1.69204   1.70019   1.70182
 Alpha virt. eigenvalues --    1.71016   1.71593   1.71758   1.72384   1.72841
 Alpha virt. eigenvalues --    1.73062   1.73645   1.74103   1.74902   1.74983
 Alpha virt. eigenvalues --    1.75799   1.76136   1.76361   1.76949   1.77727
 Alpha virt. eigenvalues --    1.77884   1.78048   1.78245   1.78680   1.79432
 Alpha virt. eigenvalues --    1.79740   1.80795   1.81427   1.81446   1.82162
 Alpha virt. eigenvalues --    1.82746   1.83002   1.83835   1.84318   1.85055
 Alpha virt. eigenvalues --    1.85265   1.85599   1.85988   1.86875   1.87162
 Alpha virt. eigenvalues --    1.88026   1.88352   1.88766   1.89009   1.89265
 Alpha virt. eigenvalues --    1.90066   1.90335   1.90787   1.91093   1.91265
 Alpha virt. eigenvalues --    1.91384   1.91776   1.92095   1.92845   1.93524
 Alpha virt. eigenvalues --    1.94652   1.95237   1.96170   1.96520   1.97196
 Alpha virt. eigenvalues --    1.97590   1.97859   1.98505   1.98666   1.98802
 Alpha virt. eigenvalues --    1.99192   2.00424   2.00504   2.00846   2.01642
 Alpha virt. eigenvalues --    2.02000   2.02834   2.03068   2.03752   2.04280
 Alpha virt. eigenvalues --    2.04889   2.05555   2.05843   2.06276   2.06961
 Alpha virt. eigenvalues --    2.07070   2.07309   2.07976   2.08276   2.08403
 Alpha virt. eigenvalues --    2.09324   2.10132   2.10943   2.11058   2.11852
 Alpha virt. eigenvalues --    2.12217   2.12401   2.13807   2.14091   2.14709
 Alpha virt. eigenvalues --    2.15205   2.15413   2.15447   2.16506   2.16603
 Alpha virt. eigenvalues --    2.17065   2.17300   2.18045   2.18512   2.18630
 Alpha virt. eigenvalues --    2.19162   2.19700   2.20058   2.20124   2.20659
 Alpha virt. eigenvalues --    2.21278   2.21814   2.23226   2.23333   2.24299
 Alpha virt. eigenvalues --    2.24451   2.25494   2.26021   2.26213   2.26352
 Alpha virt. eigenvalues --    2.27089   2.27482   2.27668   2.27816   2.28040
 Alpha virt. eigenvalues --    2.28554   2.29282   2.29457   2.29697   2.30429
 Alpha virt. eigenvalues --    2.31031   2.31684   2.32014   2.32271   2.33129
 Alpha virt. eigenvalues --    2.33726   2.33927   2.34517   2.34802   2.35029
 Alpha virt. eigenvalues --    2.35632   2.36040   2.36186   2.36667   2.36845
 Alpha virt. eigenvalues --    2.37167   2.37907   2.38614   2.38919   2.38984
 Alpha virt. eigenvalues --    2.39964   2.41308   2.41825   2.42653   2.42942
 Alpha virt. eigenvalues --    2.42990   2.43619   2.43781   2.44174   2.44571
 Alpha virt. eigenvalues --    2.45329   2.46060   2.46324   2.46500   2.46573
 Alpha virt. eigenvalues --    2.46875   2.47074   2.47480   2.47685   2.48300
 Alpha virt. eigenvalues --    2.48570   2.49220   2.49755   2.49826   2.50399
 Alpha virt. eigenvalues --    2.51000   2.51395   2.51516   2.51856   2.52740
 Alpha virt. eigenvalues --    2.52959   2.53215   2.53961   2.54364   2.55265
 Alpha virt. eigenvalues --    2.55397   2.55594   2.56158   2.56497   2.56845
 Alpha virt. eigenvalues --    2.57185   2.57469   2.58103   2.58348   2.58538
 Alpha virt. eigenvalues --    2.58826   2.59430   2.59879   2.59919   2.60648
 Alpha virt. eigenvalues --    2.61355   2.62087   2.62346   2.62855   2.63389
 Alpha virt. eigenvalues --    2.63603   2.64170   2.64876   2.65209   2.65330
 Alpha virt. eigenvalues --    2.65902   2.66510   2.67037   2.67274   2.67665
 Alpha virt. eigenvalues --    2.68279   2.68635   2.69384   2.69742   2.69911
 Alpha virt. eigenvalues --    2.70304   2.70756   2.71298   2.71877   2.72404
 Alpha virt. eigenvalues --    2.72676   2.72881   2.72993   2.74310   2.74564
 Alpha virt. eigenvalues --    2.74958   2.75553   2.76101   2.76345   2.76844
 Alpha virt. eigenvalues --    2.77367   2.77683   2.77957   2.78643   2.79038
 Alpha virt. eigenvalues --    2.79654   2.79824   2.80239   2.80860   2.81261
 Alpha virt. eigenvalues --    2.81782   2.81914   2.82051   2.82760   2.83410
 Alpha virt. eigenvalues --    2.83547   2.84155   2.84534   2.84851   2.85417
 Alpha virt. eigenvalues --    2.85789   2.86156   2.86628   2.86925   2.87522
 Alpha virt. eigenvalues --    2.88221   2.88491   2.88655   2.88775   2.89781
 Alpha virt. eigenvalues --    2.89931   2.90763   2.90913   2.91255   2.91971
 Alpha virt. eigenvalues --    2.92526   2.92660   2.93576   2.94420   2.94551
 Alpha virt. eigenvalues --    2.95313   2.95606   2.95842   2.96261   2.96989
 Alpha virt. eigenvalues --    2.97252   2.97511   2.97595   2.97918   2.98232
 Alpha virt. eigenvalues --    2.98589   2.98949   2.99295   2.99856   3.00197
 Alpha virt. eigenvalues --    3.00306   3.01168   3.01577   3.01828   3.01978
 Alpha virt. eigenvalues --    3.02501   3.02812   3.02887   3.03124   3.03682
 Alpha virt. eigenvalues --    3.03935   3.04639   3.04797   3.05411   3.06055
 Alpha virt. eigenvalues --    3.06380   3.06915   3.07274   3.07714   3.08018
 Alpha virt. eigenvalues --    3.08492   3.08782   3.09065   3.09448   3.09644
 Alpha virt. eigenvalues --    3.10065   3.10162   3.10994   3.11318   3.11602
 Alpha virt. eigenvalues --    3.11870   3.12146   3.12498   3.12555   3.13422
 Alpha virt. eigenvalues --    3.13727   3.14155   3.14376   3.14778   3.14959
 Alpha virt. eigenvalues --    3.15174   3.15577   3.15659   3.15954   3.16208
 Alpha virt. eigenvalues --    3.16827   3.17211   3.17467   3.17866   3.18513
 Alpha virt. eigenvalues --    3.18628   3.18925   3.19164   3.19779   3.19878
 Alpha virt. eigenvalues --    3.20311   3.20373   3.20487   3.20675   3.20816
 Alpha virt. eigenvalues --    3.21522   3.21902   3.22436   3.22616   3.23016
 Alpha virt. eigenvalues --    3.23144   3.23346   3.23733   3.24028   3.24532
 Alpha virt. eigenvalues --    3.24824   3.25174   3.25334   3.25755   3.25826
 Alpha virt. eigenvalues --    3.26130   3.26362   3.26831   3.26855   3.27108
 Alpha virt. eigenvalues --    3.27503   3.27859   3.28137   3.28486   3.28881
 Alpha virt. eigenvalues --    3.28948   3.29276   3.29383   3.29872   3.30818
 Alpha virt. eigenvalues --    3.31012   3.31225   3.32165   3.32383   3.32621
 Alpha virt. eigenvalues --    3.32787   3.33307   3.33416   3.33719   3.34720
 Alpha virt. eigenvalues --    3.34843   3.35261   3.35719   3.36201   3.36417
 Alpha virt. eigenvalues --    3.37134   3.37575   3.38369   3.38657   3.39072
 Alpha virt. eigenvalues --    3.40084   3.40600   3.41297   3.41534   3.42333
 Alpha virt. eigenvalues --    3.42580   3.43136   3.43747   3.44472   3.44536
 Alpha virt. eigenvalues --    3.45111   3.45836   3.46013   3.46579   3.46948
 Alpha virt. eigenvalues --    3.47694   3.48102   3.48700   3.49175   3.49423
 Alpha virt. eigenvalues --    3.50037   3.50226   3.51209   3.51452   3.52110
 Alpha virt. eigenvalues --    3.52429   3.53120   3.53654   3.54429   3.54989
 Alpha virt. eigenvalues --    3.55727   3.55845   3.56834   3.57534   3.57957
 Alpha virt. eigenvalues --    3.58115   3.59529   3.59602   3.60063   3.60812
 Alpha virt. eigenvalues --    3.61170   3.61468   3.61974   3.62193   3.62452
 Alpha virt. eigenvalues --    3.63113   3.63559   3.63796   3.64054   3.64297
 Alpha virt. eigenvalues --    3.64435   3.64601   3.65639   3.66091   3.66994
 Alpha virt. eigenvalues --    3.67518   3.67886   3.69118   3.69749   3.69998
 Alpha virt. eigenvalues --    3.70643   3.71226   3.71593   3.72685   3.73617
 Alpha virt. eigenvalues --    3.74042   3.74658   3.75405   3.75926   3.76008
 Alpha virt. eigenvalues --    3.76832   3.77397   3.77944   3.78472   3.79359
 Alpha virt. eigenvalues --    3.79998   3.80607   3.81126   3.81784   3.82196
 Alpha virt. eigenvalues --    3.83749   3.84545   3.85145   3.86135   3.86591
 Alpha virt. eigenvalues --    3.86732   3.87681   3.88482   3.88748   3.89211
 Alpha virt. eigenvalues --    3.89582   3.90174   3.90914   3.92063   3.92133
 Alpha virt. eigenvalues --    3.92540   3.93497   3.94065   3.94456   3.95068
 Alpha virt. eigenvalues --    3.96299   3.96699   3.97722   3.98298   3.98609
 Alpha virt. eigenvalues --    3.98884   3.99720   3.99796   4.00195   4.02078
 Alpha virt. eigenvalues --    4.02539   4.02639   4.03033   4.03922   4.04536
 Alpha virt. eigenvalues --    4.05831   4.06419   4.06892   4.07267   4.08081
 Alpha virt. eigenvalues --    4.08469   4.09190   4.10074   4.10362   4.10851
 Alpha virt. eigenvalues --    4.11540   4.11805   4.12068   4.12990   4.13380
 Alpha virt. eigenvalues --    4.13621   4.14932   4.15056   4.16192   4.16251
 Alpha virt. eigenvalues --    4.17396   4.17935   4.18823   4.19190   4.20176
 Alpha virt. eigenvalues --    4.20749   4.21704   4.22385   4.23278   4.23562
 Alpha virt. eigenvalues --    4.23743   4.24450   4.24620   4.25366   4.26961
 Alpha virt. eigenvalues --    4.28152   4.28596   4.29330   4.30049   4.30255
 Alpha virt. eigenvalues --    4.30811   4.31826   4.32148   4.32602   4.33359
 Alpha virt. eigenvalues --    4.33532   4.34475   4.34988   4.35345   4.35746
 Alpha virt. eigenvalues --    4.36374   4.36926   4.37340   4.38643   4.39491
 Alpha virt. eigenvalues --    4.40458   4.40934   4.41675   4.42484   4.43216
 Alpha virt. eigenvalues --    4.43924   4.45304   4.45728   4.46069   4.46949
 Alpha virt. eigenvalues --    4.47479   4.50585   4.51920   4.53001   4.53957
 Alpha virt. eigenvalues --    4.54396   4.56575   4.56950   4.57275   4.57473
 Alpha virt. eigenvalues --    4.58652   4.60906   4.62463   4.62592   4.63256
 Alpha virt. eigenvalues --    4.63524   4.66156   4.66499   4.67633   4.68470
 Alpha virt. eigenvalues --    4.69574   4.70996   4.72270   4.72414   4.72885
 Alpha virt. eigenvalues --    4.73256   4.74092   4.74345   4.75174   4.76562
 Alpha virt. eigenvalues --    4.77066   4.78550   4.79661   4.79857   4.81832
 Alpha virt. eigenvalues --    4.82622   4.83002   4.83799   4.85280   4.87150
 Alpha virt. eigenvalues --    4.88085   4.89842   4.90186   4.90346   4.91563
 Alpha virt. eigenvalues --    4.92275   4.92916   4.93534   4.94930   4.96398
 Alpha virt. eigenvalues --    4.97363   4.98523   5.02327   5.02570   5.03768
 Alpha virt. eigenvalues --    5.05470   5.06273   5.07338   5.08259   5.09593
 Alpha virt. eigenvalues --    5.10870   5.11251   5.12536   5.12998   5.13606
 Alpha virt. eigenvalues --    5.14344   5.15495   5.16695   5.23465   5.23826
 Alpha virt. eigenvalues --    5.24786   5.26106   5.26209   5.26559   5.26888
 Alpha virt. eigenvalues --    5.28439   5.28894   5.30325   5.35502   5.35891
 Alpha virt. eigenvalues --    5.37468   5.37919   5.39785   5.39921   5.41261
 Alpha virt. eigenvalues --    5.42783   5.48901   5.49282   5.49631   5.50572
 Alpha virt. eigenvalues --    5.50788   5.53682   5.55239   5.55788   5.56464
 Alpha virt. eigenvalues --    5.58592   5.63668   5.64546   5.66044   5.67895
 Alpha virt. eigenvalues --    5.73562   5.74749   5.77474   5.78920   5.88188
 Alpha virt. eigenvalues --    5.89590   5.89963   5.97041   5.97957   5.98674
 Alpha virt. eigenvalues --    6.00477   6.05969   6.11860   6.13878   6.21351
 Alpha virt. eigenvalues --    6.21971   6.28920   6.31595   6.39459   6.42927
 Alpha virt. eigenvalues --    6.49436   6.84363   7.17380   8.93344   9.10019
 Alpha virt. eigenvalues --    9.27396  19.43180  22.18799  22.26060  22.27121
 Alpha virt. eigenvalues --   22.36376  22.37102  22.42691  22.43546  22.52476
 Alpha virt. eigenvalues --   22.53282  22.73758  22.76968  22.81013  22.82556
 Alpha virt. eigenvalues --   22.83728  22.84456  22.86039  22.92268  22.93639
 Alpha virt. eigenvalues --   23.03781  23.15727  23.19332  23.19842  23.28528
 Alpha virt. eigenvalues --   23.30565  23.39084  23.39787  23.44002  23.63227
 Alpha virt. eigenvalues --   23.67928  23.68339  23.77359  32.73370  32.77068
 Alpha virt. eigenvalues --   32.82255  32.91027  43.79835
  Beta  occ. eigenvalues -- -256.40099 -89.10892 -30.24568 -26.08951 -26.08850
  Beta  occ. eigenvalues --  -26.07944 -19.29427 -14.47216 -14.47160 -14.47032
  Beta  occ. eigenvalues --  -14.46971 -10.34566 -10.33680 -10.33598 -10.33588
  Beta  occ. eigenvalues --  -10.33554 -10.33530 -10.33426 -10.33424 -10.33389
  Beta  occ. eigenvalues --  -10.30608 -10.30597 -10.30581 -10.30563 -10.30533
  Beta  occ. eigenvalues --  -10.30414 -10.30408 -10.30323 -10.30288 -10.30285
  Beta  occ. eigenvalues --  -10.30161 -10.30127 -10.29405 -10.29213 -10.28718
  Beta  occ. eigenvalues --  -10.28711 -10.28417 -10.28301 -10.28247 -10.28139
  Beta  occ. eigenvalues --  -10.28050 -10.27906  -8.13657  -6.08158  -6.07932
  Beta  occ. eigenvalues --   -6.07565  -3.60137  -2.36452  -2.36333  -2.34731
  Beta  occ. eigenvalues --   -1.17262  -1.09968  -1.09062  -1.08880  -1.07987
  Beta  occ. eigenvalues --   -0.94438  -0.94069  -0.92968  -0.92700  -0.92296
  Beta  occ. eigenvalues --   -0.91926  -0.91604  -0.91572  -0.87491  -0.86217
  Beta  occ. eigenvalues --   -0.86165  -0.85090  -0.83688  -0.81941  -0.80925
  Beta  occ. eigenvalues --   -0.79619  -0.79341  -0.79194  -0.78861  -0.76018
  Beta  occ. eigenvalues --   -0.75981  -0.72892  -0.71407  -0.70790  -0.69726
  Beta  occ. eigenvalues --   -0.69107  -0.66071  -0.65341  -0.64387  -0.64229
  Beta  occ. eigenvalues --   -0.62756  -0.62708  -0.62381  -0.60128  -0.59721
  Beta  occ. eigenvalues --   -0.59161  -0.58923  -0.57954  -0.56727  -0.56263
  Beta  occ. eigenvalues --   -0.55548  -0.55399  -0.54919  -0.54578  -0.54214
  Beta  occ. eigenvalues --   -0.54202  -0.54090  -0.53877  -0.53261  -0.52955
  Beta  occ. eigenvalues --   -0.52932  -0.52773  -0.51509  -0.51415  -0.51270
  Beta  occ. eigenvalues --   -0.51163  -0.51041  -0.50958  -0.50675  -0.50470
  Beta  occ. eigenvalues --   -0.50210  -0.49904  -0.49489  -0.49350  -0.49159
  Beta  occ. eigenvalues --   -0.48842  -0.48561  -0.48319  -0.47976  -0.47544
  Beta  occ. eigenvalues --   -0.46990  -0.46858  -0.46231  -0.45711  -0.45030
  Beta  occ. eigenvalues --   -0.44451  -0.44256  -0.43770  -0.43533  -0.42963
  Beta  occ. eigenvalues --   -0.42535  -0.40788  -0.40214  -0.39639  -0.38813
  Beta  occ. eigenvalues --   -0.38277  -0.37909  -0.35515  -0.34279  -0.33607
  Beta  occ. eigenvalues --   -0.32792  -0.30838  -0.29727
  Beta virt. eigenvalues --   -0.22053  -0.19119  -0.17920  -0.17708  -0.14099
  Beta virt. eigenvalues --   -0.12829  -0.10938  -0.09431  -0.08578  -0.07890
  Beta virt. eigenvalues --   -0.06856  -0.06424  -0.04719  -0.04358  -0.03497
  Beta virt. eigenvalues --   -0.03292  -0.02944  -0.02693  -0.02353  -0.01785
  Beta virt. eigenvalues --   -0.01334  -0.00648  -0.00375  -0.00210  -0.00027
  Beta virt. eigenvalues --    0.00484   0.01028   0.01209   0.01529   0.01996
  Beta virt. eigenvalues --    0.02037   0.02335   0.02614   0.02761   0.02884
  Beta virt. eigenvalues --    0.03019   0.03195   0.03557   0.03989   0.04141
  Beta virt. eigenvalues --    0.04215   0.04516   0.04684   0.04822   0.05174
  Beta virt. eigenvalues --    0.05543   0.05865   0.06005   0.06244   0.06451
  Beta virt. eigenvalues --    0.06730   0.07121   0.07274   0.07366   0.07563
  Beta virt. eigenvalues --    0.07701   0.08085   0.08217   0.08524   0.08943
  Beta virt. eigenvalues --    0.09309   0.09739   0.09865   0.10276   0.10426
  Beta virt. eigenvalues --    0.10737   0.11023   0.11048   0.11423   0.11536
  Beta virt. eigenvalues --    0.11641   0.12082   0.12224   0.12611   0.12713
  Beta virt. eigenvalues --    0.13131   0.13678   0.14062   0.14338   0.14764
  Beta virt. eigenvalues --    0.14865   0.15606   0.15692   0.15988   0.16292
  Beta virt. eigenvalues --    0.16543   0.16763   0.16904   0.17061   0.17389
  Beta virt. eigenvalues --    0.17525   0.17773   0.18021   0.18794   0.19021
  Beta virt. eigenvalues --    0.19150   0.19328   0.19626   0.19907   0.20412
  Beta virt. eigenvalues --    0.20600   0.20866   0.20924   0.21324   0.21465
  Beta virt. eigenvalues --    0.21828   0.22084   0.22547   0.22889   0.23152
  Beta virt. eigenvalues --    0.23514   0.23757   0.24074   0.24192   0.24417
  Beta virt. eigenvalues --    0.24693   0.24789   0.25356   0.25580   0.26068
  Beta virt. eigenvalues --    0.26380   0.26745   0.27141   0.27825   0.27979
  Beta virt. eigenvalues --    0.28202   0.28331   0.28630   0.28801   0.29275
  Beta virt. eigenvalues --    0.29374   0.29543   0.29882   0.30123   0.30507
  Beta virt. eigenvalues --    0.30530   0.30861   0.31222   0.31348   0.31445
  Beta virt. eigenvalues --    0.31549   0.31680   0.32012   0.32490   0.32581
  Beta virt. eigenvalues --    0.32914   0.32969   0.33244   0.33705   0.33904
  Beta virt. eigenvalues --    0.34172   0.34479   0.34986   0.35076   0.35495
  Beta virt. eigenvalues --    0.35585   0.35806   0.36083   0.36228   0.36736
  Beta virt. eigenvalues --    0.36994   0.37118   0.37223   0.37409   0.37656
  Beta virt. eigenvalues --    0.38123   0.38370   0.38545   0.38847   0.38945
  Beta virt. eigenvalues --    0.38999   0.39358   0.39601   0.40055   0.40202
  Beta virt. eigenvalues --    0.40572   0.40642   0.40913   0.41276   0.41506
  Beta virt. eigenvalues --    0.41773   0.41850   0.42313   0.42353   0.42572
  Beta virt. eigenvalues --    0.42689   0.43156   0.43364   0.43492   0.43583
  Beta virt. eigenvalues --    0.43894   0.44009   0.44498   0.44811   0.44942
  Beta virt. eigenvalues --    0.45095   0.45282   0.45527   0.45770   0.46095
  Beta virt. eigenvalues --    0.46630   0.47085   0.47173   0.47471   0.47693
  Beta virt. eigenvalues --    0.48013   0.48555   0.48707   0.49497   0.49649
  Beta virt. eigenvalues --    0.49957   0.50139   0.50438   0.50844   0.51156
  Beta virt. eigenvalues --    0.51816   0.52046   0.52318   0.52690   0.53265
  Beta virt. eigenvalues --    0.53352   0.53696   0.54009   0.54231   0.54340
  Beta virt. eigenvalues --    0.54534   0.54674   0.55039   0.55355   0.55812
  Beta virt. eigenvalues --    0.56295   0.56593   0.56759   0.56914   0.57239
  Beta virt. eigenvalues --    0.57499   0.57783   0.58060   0.58778   0.58866
  Beta virt. eigenvalues --    0.59019   0.59665   0.59963   0.60444   0.60917
  Beta virt. eigenvalues --    0.61081   0.61155   0.61604   0.61917   0.62125
  Beta virt. eigenvalues --    0.62721   0.62780   0.63041   0.63605   0.63897
  Beta virt. eigenvalues --    0.64125   0.64411   0.64787   0.65300   0.65529
  Beta virt. eigenvalues --    0.65838   0.65928   0.66334   0.67261   0.67352
  Beta virt. eigenvalues --    0.68082   0.68392   0.68674   0.69363   0.69691
  Beta virt. eigenvalues --    0.70004   0.70211   0.70998   0.71501   0.71680
  Beta virt. eigenvalues --    0.72202   0.72612   0.73038   0.73576   0.73844
  Beta virt. eigenvalues --    0.74118   0.74381   0.74632   0.75412   0.75684
  Beta virt. eigenvalues --    0.75978   0.76389   0.76822   0.77125   0.77443
  Beta virt. eigenvalues --    0.77899   0.78308   0.79150   0.79289   0.79913
  Beta virt. eigenvalues --    0.80251   0.80586   0.81033   0.81388   0.81689
  Beta virt. eigenvalues --    0.81856   0.82452   0.83207   0.83738   0.84117
  Beta virt. eigenvalues --    0.84264   0.84789   0.85054   0.85756   0.86026
  Beta virt. eigenvalues --    0.86128   0.86571   0.86697   0.87256   0.87698
  Beta virt. eigenvalues --    0.88067   0.88648   0.88874   0.89172   0.89588
  Beta virt. eigenvalues --    0.89843   0.90229   0.90429   0.91096   0.91257
  Beta virt. eigenvalues --    0.91550   0.91945   0.92184   0.92337   0.92666
  Beta virt. eigenvalues --    0.92797   0.93154   0.93374   0.93800   0.94274
  Beta virt. eigenvalues --    0.94472   0.95049   0.95238   0.95807   0.96178
  Beta virt. eigenvalues --    0.96891   0.97304   0.98103   0.98247   0.98599
  Beta virt. eigenvalues --    0.99326   0.99558   0.99916   1.00481   1.00756
  Beta virt. eigenvalues --    1.01784   1.02197   1.02963   1.03834   1.04366
  Beta virt. eigenvalues --    1.04408   1.05441   1.05771   1.05957   1.06425
  Beta virt. eigenvalues --    1.07113   1.07494   1.07900   1.08321   1.08424
  Beta virt. eigenvalues --    1.09055   1.09136   1.09891   1.10168   1.10474
  Beta virt. eigenvalues --    1.10775   1.10914   1.11999   1.12301   1.12696
  Beta virt. eigenvalues --    1.12986   1.13513   1.13953   1.14655   1.15294
  Beta virt. eigenvalues --    1.15847   1.16200   1.16562   1.16812   1.17076
  Beta virt. eigenvalues --    1.17292   1.17651   1.18034   1.18481   1.18754
  Beta virt. eigenvalues --    1.19373   1.19986   1.20304   1.20695   1.21417
  Beta virt. eigenvalues --    1.21623   1.22098   1.23086   1.23611   1.23860
  Beta virt. eigenvalues --    1.24949   1.25947   1.26136   1.26868   1.27103
  Beta virt. eigenvalues --    1.27477   1.28542   1.29375   1.30134   1.30815
  Beta virt. eigenvalues --    1.30882   1.31765   1.32291   1.32815   1.33334
  Beta virt. eigenvalues --    1.34174   1.34342   1.34651   1.35288   1.36164
  Beta virt. eigenvalues --    1.36420   1.36559   1.36892   1.37666   1.37777
  Beta virt. eigenvalues --    1.37990   1.38226   1.38858   1.39094   1.39131
  Beta virt. eigenvalues --    1.39985   1.40214   1.40600   1.40792   1.41109
  Beta virt. eigenvalues --    1.41577   1.41699   1.42225   1.42408   1.42746
  Beta virt. eigenvalues --    1.42791   1.43781   1.43847   1.43849   1.44385
  Beta virt. eigenvalues --    1.44487   1.44772   1.45147   1.45378   1.45857
  Beta virt. eigenvalues --    1.46052   1.46268   1.46618   1.47145   1.47156
  Beta virt. eigenvalues --    1.47611   1.47680   1.48120   1.48350   1.48638
  Beta virt. eigenvalues --    1.49000   1.49548   1.49616   1.50047   1.50300
  Beta virt. eigenvalues --    1.50781   1.50950   1.51503   1.51688   1.51982
  Beta virt. eigenvalues --    1.52214   1.52544   1.52932   1.52996   1.53488
  Beta virt. eigenvalues --    1.53541   1.53741   1.54059   1.54669   1.55022
  Beta virt. eigenvalues --    1.55428   1.55927   1.56221   1.56684   1.56834
  Beta virt. eigenvalues --    1.57103   1.57245   1.57446   1.57738   1.58466
  Beta virt. eigenvalues --    1.59137   1.59455   1.59526   1.59695   1.60465
  Beta virt. eigenvalues --    1.60802   1.61150   1.61322   1.61551   1.62139
  Beta virt. eigenvalues --    1.62292   1.63240   1.63398   1.63610   1.63914
  Beta virt. eigenvalues --    1.64192   1.65037   1.65945   1.66448   1.67829
  Beta virt. eigenvalues --    1.67955   1.68473   1.68945   1.69196   1.70044
  Beta virt. eigenvalues --    1.70176   1.71023   1.71600   1.71740   1.72400
  Beta virt. eigenvalues --    1.72846   1.73068   1.73644   1.74094   1.74918
  Beta virt. eigenvalues --    1.74981   1.75826   1.76140   1.76415   1.76980
  Beta virt. eigenvalues --    1.77737   1.77923   1.78077   1.78258   1.78699
  Beta virt. eigenvalues --    1.79453   1.79743   1.80803   1.81445   1.81469
  Beta virt. eigenvalues --    1.82215   1.82743   1.83068   1.83875   1.84349
  Beta virt. eigenvalues --    1.85075   1.85271   1.85611   1.85990   1.86902
  Beta virt. eigenvalues --    1.87202   1.88036   1.88402   1.88768   1.89010
  Beta virt. eigenvalues --    1.89310   1.90078   1.90366   1.90795   1.91122
  Beta virt. eigenvalues --    1.91289   1.91396   1.91784   1.92139   1.92879
  Beta virt. eigenvalues --    1.93568   1.94798   1.95288   1.96221   1.96608
  Beta virt. eigenvalues --    1.97273   1.97599   1.97879   1.98585   1.98679
  Beta virt. eigenvalues --    1.98840   1.99225   2.00466   2.00578   2.00892
  Beta virt. eigenvalues --    2.01675   2.02042   2.02861   2.03102   2.03807
  Beta virt. eigenvalues --    2.04287   2.04910   2.05593   2.05860   2.06287
  Beta virt. eigenvalues --    2.06966   2.07156   2.07318   2.08054   2.08296
  Beta virt. eigenvalues --    2.08445   2.09395   2.10131   2.10970   2.11137
  Beta virt. eigenvalues --    2.11857   2.12254   2.12438   2.13813   2.14141
  Beta virt. eigenvalues --    2.14723   2.15223   2.15447   2.15510   2.16521
  Beta virt. eigenvalues --    2.16677   2.17103   2.17330   2.18078   2.18523
  Beta virt. eigenvalues --    2.18701   2.19177   2.19723   2.20130   2.20172
  Beta virt. eigenvalues --    2.20689   2.21354   2.21826   2.23261   2.23386
  Beta virt. eigenvalues --    2.24323   2.24476   2.25510   2.26026   2.26243
  Beta virt. eigenvalues --    2.26407   2.27180   2.27504   2.27715   2.27861
  Beta virt. eigenvalues --    2.28060   2.28597   2.29323   2.29495   2.29797
  Beta virt. eigenvalues --    2.30459   2.31106   2.31718   2.32034   2.32287
  Beta virt. eigenvalues --    2.33223   2.33890   2.33989   2.34655   2.34855
  Beta virt. eigenvalues --    2.35068   2.35657   2.36082   2.36250   2.36736
  Beta virt. eigenvalues --    2.37037   2.37233   2.38067   2.38666   2.38945
  Beta virt. eigenvalues --    2.39116   2.40008   2.41306   2.41846   2.42672
  Beta virt. eigenvalues --    2.42986   2.43038   2.43639   2.43820   2.44197
  Beta virt. eigenvalues --    2.44582   2.45376   2.46081   2.46348   2.46527
  Beta virt. eigenvalues --    2.46604   2.46892   2.47099   2.47497   2.47743
  Beta virt. eigenvalues --    2.48338   2.48603   2.49232   2.49772   2.49857
  Beta virt. eigenvalues --    2.50410   2.51025   2.51457   2.51540   2.51926
  Beta virt. eigenvalues --    2.52756   2.52977   2.53283   2.53998   2.54394
  Beta virt. eigenvalues --    2.55296   2.55449   2.55615   2.56187   2.56522
  Beta virt. eigenvalues --    2.56867   2.57224   2.57502   2.58130   2.58365
  Beta virt. eigenvalues --    2.58577   2.58839   2.59447   2.59924   2.59967
  Beta virt. eigenvalues --    2.60670   2.61362   2.62103   2.62390   2.62886
  Beta virt. eigenvalues --    2.63408   2.63660   2.64202   2.64952   2.65229
  Beta virt. eigenvalues --    2.65420   2.65975   2.66555   2.67049   2.67308
  Beta virt. eigenvalues --    2.67711   2.68331   2.68657   2.69423   2.69765
  Beta virt. eigenvalues --    2.69995   2.70358   2.70793   2.71321   2.71894
  Beta virt. eigenvalues --    2.72415   2.72688   2.72895   2.73027   2.74328
  Beta virt. eigenvalues --    2.74587   2.74973   2.75572   2.76145   2.76394
  Beta virt. eigenvalues --    2.76879   2.77411   2.77745   2.77988   2.78685
  Beta virt. eigenvalues --    2.79061   2.79683   2.79875   2.80343   2.80888
  Beta virt. eigenvalues --    2.81293   2.81839   2.81951   2.82060   2.82769
  Beta virt. eigenvalues --    2.83447   2.83587   2.84187   2.84553   2.84912
  Beta virt. eigenvalues --    2.85453   2.85868   2.86218   2.86690   2.86955
  Beta virt. eigenvalues --    2.87579   2.88261   2.88509   2.88670   2.88877
  Beta virt. eigenvalues --    2.89809   2.89980   2.90781   2.90962   2.91296
  Beta virt. eigenvalues --    2.92000   2.92596   2.92698   2.93601   2.94431
  Beta virt. eigenvalues --    2.94586   2.95332   2.95626   2.95861   2.96302
  Beta virt. eigenvalues --    2.97040   2.97285   2.97544   2.97615   2.97937
  Beta virt. eigenvalues --    2.98260   2.98609   2.98988   2.99329   2.99875
  Beta virt. eigenvalues --    3.00235   3.00331   3.01202   3.01596   3.01862
  Beta virt. eigenvalues --    3.02009   3.02522   3.02852   3.02913   3.03146
  Beta virt. eigenvalues --    3.03722   3.03957   3.04658   3.04829   3.05442
  Beta virt. eigenvalues --    3.06087   3.06401   3.06940   3.07297   3.07742
  Beta virt. eigenvalues --    3.08035   3.08519   3.08806   3.09083   3.09468
  Beta virt. eigenvalues --    3.09672   3.10079   3.10187   3.11015   3.11333
  Beta virt. eigenvalues --    3.11637   3.11882   3.12165   3.12515   3.12581
  Beta virt. eigenvalues --    3.13456   3.13762   3.14185   3.14416   3.14792
  Beta virt. eigenvalues --    3.14979   3.15186   3.15593   3.15680   3.15973
  Beta virt. eigenvalues --    3.16235   3.16846   3.17222   3.17479   3.17896
  Beta virt. eigenvalues --    3.18540   3.18639   3.18959   3.19180   3.19808
  Beta virt. eigenvalues --    3.19891   3.20329   3.20392   3.20492   3.20693
  Beta virt. eigenvalues --    3.20834   3.21558   3.21920   3.22462   3.22622
  Beta virt. eigenvalues --    3.23030   3.23162   3.23386   3.23752   3.24079
  Beta virt. eigenvalues --    3.24559   3.24843   3.25190   3.25379   3.25784
  Beta virt. eigenvalues --    3.25841   3.26176   3.26396   3.26859   3.26881
  Beta virt. eigenvalues --    3.27124   3.27531   3.27901   3.28184   3.28540
  Beta virt. eigenvalues --    3.28912   3.28986   3.29317   3.29414   3.29896
  Beta virt. eigenvalues --    3.30853   3.31031   3.31279   3.32219   3.32456
  Beta virt. eigenvalues --    3.32643   3.32803   3.33339   3.33441   3.33791
  Beta virt. eigenvalues --    3.34754   3.34891   3.35338   3.35750   3.36203
  Beta virt. eigenvalues --    3.36429   3.37170   3.37620   3.38400   3.38672
  Beta virt. eigenvalues --    3.39093   3.40145   3.40656   3.41321   3.41585
  Beta virt. eigenvalues --    3.42375   3.42607   3.43183   3.43768   3.44496
  Beta virt. eigenvalues --    3.44560   3.45200   3.45913   3.46095   3.46606
  Beta virt. eigenvalues --    3.47134   3.47782   3.48126   3.48763   3.49203
  Beta virt. eigenvalues --    3.49526   3.50086   3.50274   3.51246   3.51507
  Beta virt. eigenvalues --    3.52174   3.52704   3.53278   3.53713   3.54548
  Beta virt. eigenvalues --    3.55096   3.55756   3.55872   3.56876   3.57545
  Beta virt. eigenvalues --    3.57997   3.58216   3.59568   3.59839   3.60137
  Beta virt. eigenvalues --    3.60873   3.61225   3.61519   3.61985   3.62465
  Beta virt. eigenvalues --    3.62799   3.63150   3.63700   3.63904   3.64297
  Beta virt. eigenvalues --    3.64383   3.64474   3.64705   3.65743   3.66325
  Beta virt. eigenvalues --    3.67148   3.67539   3.68411   3.69662   3.69861
  Beta virt. eigenvalues --    3.70647   3.70888   3.71363   3.71864   3.72813
  Beta virt. eigenvalues --    3.73711   3.74459   3.74851   3.75453   3.76048
  Beta virt. eigenvalues --    3.76282   3.77044   3.77555   3.78107   3.78613
  Beta virt. eigenvalues --    3.79437   3.80225   3.80920   3.81385   3.82004
  Beta virt. eigenvalues --    3.82403   3.84204   3.85059   3.85491   3.86397
  Beta virt. eigenvalues --    3.86827   3.86988   3.87871   3.88783   3.89082
  Beta virt. eigenvalues --    3.89420   3.89709   3.90347   3.91785   3.92426
  Beta virt. eigenvalues --    3.92717   3.93165   3.94001   3.94741   3.94983
  Beta virt. eigenvalues --    3.95668   3.96428   3.96781   3.98072   3.98668
  Beta virt. eigenvalues --    3.99247   3.99570   4.00155   4.00724   4.01485
  Beta virt. eigenvalues --    4.02517   4.02829   4.03455   4.03683   4.04213
  Beta virt. eigenvalues --    4.04681   4.05956   4.06566   4.07261   4.07512
  Beta virt. eigenvalues --    4.08274   4.08571   4.09360   4.10226   4.10899
  Beta virt. eigenvalues --    4.11085   4.11784   4.12286   4.12501   4.13434
  Beta virt. eigenvalues --    4.13602   4.14985   4.15200   4.15770   4.16321
  Beta virt. eigenvalues --    4.17486   4.17534   4.17970   4.19262   4.19322
  Beta virt. eigenvalues --    4.20358   4.20855   4.21782   4.22848   4.23551
  Beta virt. eigenvalues --    4.23795   4.24422   4.24691   4.24920   4.26280
  Beta virt. eigenvalues --    4.27059   4.28265   4.28752   4.29456   4.30160
  Beta virt. eigenvalues --    4.30463   4.31164   4.31878   4.32340   4.33423
  Beta virt. eigenvalues --    4.33497   4.33852   4.34711   4.35055   4.35438
  Beta virt. eigenvalues --    4.36004   4.36426   4.37015   4.37456   4.38792
  Beta virt. eigenvalues --    4.39533   4.40562   4.41008   4.41751   4.42525
  Beta virt. eigenvalues --    4.43276   4.43962   4.45338   4.45775   4.46122
  Beta virt. eigenvalues --    4.46987   4.47495   4.50609   4.52063   4.52999
  Beta virt. eigenvalues --    4.54009   4.54500   4.56579   4.56967   4.57291
  Beta virt. eigenvalues --    4.57501   4.58670   4.60899   4.62512   4.62596
  Beta virt. eigenvalues --    4.63311   4.63544   4.66166   4.66545   4.67737
  Beta virt. eigenvalues --    4.68529   4.69601   4.71014   4.72282   4.72443
  Beta virt. eigenvalues --    4.72947   4.73278   4.74135   4.74358   4.75180
  Beta virt. eigenvalues --    4.76587   4.77067   4.78546   4.79659   4.79863
  Beta virt. eigenvalues --    4.81782   4.82584   4.82953   4.83769   4.85284
  Beta virt. eigenvalues --    4.87139   4.88062   4.89843   4.90154   4.90347
  Beta virt. eigenvalues --    4.91541   4.92283   4.92967   4.93524   4.94960
  Beta virt. eigenvalues --    4.96405   4.97370   4.98534   5.02330   5.02573
  Beta virt. eigenvalues --    5.03785   5.05475   5.06279   5.07334   5.08249
  Beta virt. eigenvalues --    5.09579   5.10873   5.11279   5.12569   5.12979
  Beta virt. eigenvalues --    5.13652   5.14242   5.15454   5.16738   5.23415
  Beta virt. eigenvalues --    5.23817   5.24776   5.26053   5.26142   5.26539
  Beta virt. eigenvalues --    5.26849   5.28435   5.28867   5.30347   5.35478
  Beta virt. eigenvalues --    5.35905   5.37412   5.37844   5.39734   5.39848
  Beta virt. eigenvalues --    5.41271   5.42745   5.48863   5.49254   5.49603
  Beta virt. eigenvalues --    5.50566   5.50777   5.53667   5.55209   5.55815
  Beta virt. eigenvalues --    5.56441   5.58543   5.63631   5.64510   5.66018
  Beta virt. eigenvalues --    5.67863   5.73556   5.74696   5.77478   5.78902
  Beta virt. eigenvalues --    5.88116   5.89500   5.89870   5.96997   5.97895
  Beta virt. eigenvalues --    5.98630   6.00468   6.05914   6.11851   6.13810
  Beta virt. eigenvalues --    6.21303   6.21919   6.28874   6.31583   6.39472
  Beta virt. eigenvalues --    6.42926   6.49435   6.84347   7.17354   8.93279
  Beta virt. eigenvalues --    9.09777   9.27276  19.43067  22.18813  22.26063
  Beta virt. eigenvalues --   22.27125  22.36375  22.37101  22.42690  22.43546
  Beta virt. eigenvalues --   22.52475  22.53281  22.73756  22.76968  22.81015
  Beta virt. eigenvalues --   22.82566  22.83736  22.84451  22.86047  22.92255
  Beta virt. eigenvalues --   22.93627  23.03766  23.15739  23.19344  23.19849
  Beta virt. eigenvalues --   23.28538  23.30576  23.39097  23.39797  23.44014
  Beta virt. eigenvalues --   23.63238  23.67937  23.68350  23.77369  32.73295
[...]
  1253. RY*(  16) C  67                  0.00001     1.95277   
  1254. RY*(  17) C  67                  0.00000     2.90409   
  1255. RY*(  18) C  67                  0.00001     1.13097   
  1256. RY*(  19) C  67                  0.00000     2.80444   
  1257. RY*(  20) C  67                  0.00000     3.46629   
  1258. RY*(  21) C  67                  0.00000     3.09055   
  1259. RY*(  22) C  67                  0.00000     3.22296   
  1260. RY*(  23) C  67                  0.00000     3.21205   
  1261. RY*(  24) C  67                  0.00000     3.10709   
  1262. RY*(  25) C  67                  0.00000     3.07057   
  1263. RY*(  26) C  67                  0.00000     3.29865   
  1264. RY*(   1) H  68                  0.00024     1.22203   
  1265. RY*(   2) H  68                  0.00006     1.13344   
  1266. RY*(   3) H  68                  0.00003     2.09078   
  1267. RY*(   4) H  68                  0.00003     2.03307   
  1268. RY*(   5) H  68                  0.00000     2.78537   
  1269. RY*(   1) H  69                  0.00024     1.51376   
  1270. RY*(   2) H  69                  0.00009     1.75769   
  1271. RY*(   3) H  69                  0.00003     2.12164   
  1272. RY*(   4) H  69                  0.00002     2.74419   
  1273. RY*(   5) H  69                  0.00002     1.50504   
  1274. RY*(   1) H  70                  0.00034     1.43505   
  1275. RY*(   2) H  70                  0.00009     1.96234   
  1276. RY*(   3) H  70                  0.00005     2.14907   
  1277. RY*(   4) H  70                  0.00002     2.54943   
  1278. RY*(   5) H  70                  0.00001     1.90424   
  1279. RY*(   1) S  71                  0.00248     0.40876   
  1280. RY*(   2) S  71                  0.00168     0.66876   
  1281. RY*(   3) S  71                  0.00110     0.64728   
  1282. RY*(   4) S  71                  0.00064     1.06858   
  1283. RY*(   5) S  71                  0.00044     0.87943   
  1284. RY*(   6) S  71                  0.00039     0.72702   
  1285. RY*(   7) S  71                  0.00019     1.80578   
  1286. RY*(   8) S  71                  0.00013     1.31836   
  1287. RY*(   9) S  71                  0.00008     1.57566   
  1288. RY*(  10) S  71                  0.00005     1.69619   
  1289. RY*(  11) S  71                  0.00004     1.63277   
  1290. RY*(  12) S  71                  0.00002     1.69261   
  1291. RY*(  13) S  71                  0.00000     1.70833   
  1292. RY*(  14) S  71                  0.00001     2.49653   
  1293. RY*(  15) S  71                  0.00000     8.07778   
  1294. RY*(  16) S  71                  0.00001     2.35196   
  1295. RY*(  17) S  71                  0.00001     1.53094   
  1296. RY*(  18) S  71                  0.00000     8.16042   
  1297. RY*(  19) S  71                  0.00000     8.51654   
  1298. RY*(  20) S  71                  0.00000    17.95455   
  1299. RY*(  21) S  71                  0.00000     2.07877   
  1300. RY*(  22) S  71                  0.00001     2.10431   
  1301. RY*(  23) S  71                  0.00000     1.96364   
  1302. RY*(  24) S  71                  0.00000     1.96056   
  1303. RY*(  25) S  71                  0.00000     1.76534   
  1304. RY*(  26) S  71                  0.00000     1.87306   
  1305. RY*(  27) S  71                  0.00000     2.11446   
  1306. RY*(  28) S  71                  0.00000     1.89060   
  1307. RY*(   1) H  72                  0.00065     0.83953   
  1308. RY*(   2) H  72                  0.00016     1.67658   
  1309. RY*(   3) H  72                  0.00012     2.01666   
  1310. RY*(   4) H  72                  0.00005     1.86341   
  1311. RY*(   5) H  72                  0.00002     2.49841   
  1312. BD*(   1)Fe   1 - N   2          0.03097     0.24817   
  1313. BD*(   1)Fe   1 - N   3          0.03219     0.23944   
  1314. BD*(   1)Fe   1 - N   4          0.03309     0.24276   
  1315. BD*(   1)Fe   1 - N   5          0.03410     0.24110   
  1316. BD*(   1)Fe   1 - S  71          0.01975     0.13111   
  1317. BD*(   1) N   2 - C   6          0.01371     0.38338   
  1318. BD*(   2) N   2 - C   6          0.33566    -0.11826  1363(v),1332(v),1337(v)
                                                    284(g),145(v),144(v),698(v)
                                                    179(g),183(g),1396(r)
  1319. BD*(   1) N   2 - C   9          0.01417     0.38040   
  1320. BD*(   1) N   3 - C  10          0.01404     0.38383   
  1321. BD*(   2) N   3 - C  10          0.33533    -0.11447  1337(v),1341(v),1346(v)
                                                    144(v),388(g),145(v),387(g)
                                                    729(v)
  1322. BD*(   1) N   3 - C  13          0.01316     0.38999   
  1323. BD*(   1) N   4 - C  14          0.01380     0.38555   
  1324. BD*(   2) N   4 - C  14          0.33137    -0.11223  1346(v),1350(v),146(v)
                                                    492(g),144(v),145(v),761(v)
                                                    231(g),234(g),230(g)
  1325. BD*(   1) N   4 - C  17          0.01361     0.39320   
  1326. BD*(   1) N   5 - C  18          0.01374     0.39540   
  1327. BD*(   2) N   5 - C  18          0.32427    -0.10785  1358(v),1363(v),144(v)
                                                    595(g),257(g),596(g),145(v)
                                                    597(g),260(g)
  1328. BD*(   1) N   5 - C  21          0.01348     0.38821   
  1329. BD*(   1) C   6 - C   7          0.01761     0.37728   
  1330. BD*(   1) C   6 - C  22          0.01058     0.45891   
  1331. BD*(   1) C   7 - C   8          0.01167     0.49377   
  1332. BD*(   2) C   7 - C   8          0.12287    -0.04301  1337(v),1318(v),1372(v)
                                                    1369(v),1371(v),1370(v)
  1333. BD*(   1) C   7 - C  34          0.00808     0.31141   
  1334. BD*(   1) C   8 - C   9          0.01753     0.37614   
  1335. BD*(   1) C   8 - C  30          0.00813     0.31108   
  1336. BD*(   1) C   9 - C  24          0.01042     0.46129   
  1337. BD*(   2) C   9 - C  24          0.19897    -0.07071  1321(v),1332(v),1318(v)
                                                    729(g),1363(r),1346(r)
                                                    364(g)
  1338. BD*(   1) C  10 - C  11          0.01718     0.38279   
  1339. BD*(   1) C  10 - C  24          0.01055     0.45589   
  1340. BD*(   1) C  11 - C  12          0.01261     0.48262   
  1341. BD*(   2) C  11 - C  12          0.13906    -0.04347  1379(v),1346(v),1321(v)
                                                    1374(v),1375(v)
  1342. BD*(   1) C  11 - C  38          0.00774     0.31505   
  1343. BD*(   1) C  12 - C  13          0.01701     0.37359   
  1344. BD*(   1) C  12 - C  42          0.01329     0.39385   
  1345. BD*(   1) C  13 - C  26          0.01027     0.46173   
  1346. BD*(   2) C  13 - C  26          0.19836    -0.06713  1324(v),1341(v),1321(v)
                                                    761(g),1337(r),468(g)
  1347. BD*(   1) C  14 - C  15          0.01690     0.38225   
  1348. BD*(   1) C  14 - C  26          0.01042     0.45964   
  1349. BD*(   1) C  15 - C  16          0.01262     0.48568   
  1350. BD*(   2) C  15 - C  16          0.13484    -0.04148  1387(v),1324(v),146(v)
                                                    1383(v),1382(v)
  1351. BD*(   1) C  15 - C  47          0.00762     0.31693   
  1352. BD*(   1) C  16 - C  17          0.01694     0.37228   
  1353. BD*(   1) C  16 - C  51          0.01333     0.39451   
  1354. BD*(   1) C  17 - C  28          0.01017     0.45983   
  1355. BD*(   1) C  18 - C  19          0.01741     0.37655   
  1356. BD*(   1) C  18 - C  28          0.01039     0.46170   
  1357. BD*(   1) C  19 - C  20          0.01148     0.50072   
  1358. BD*(   2) C  19 - C  20          0.11690    -0.03743  1363(v),1327(v),1395(v)
                                                    1391(v),1390(v),1394(v)
  1359. BD*(   1) C  19 - C  56          0.00803     0.31572   
  1360. BD*(   1) C  20 - C  21          0.01748     0.37504   
  1361. BD*(   1) C  20 - C  60          0.00803     0.31395   
  1362. BD*(   1) C  21 - C  22          0.01027     0.46186   
  1363. BD*(   2) C  21 - C  22          0.20171    -0.06819  1318(v),1358(v),1327(v)
                                                    698(g),1337(r),676(g)
  1364. BD*(   1) C  22 - H  23          0.00626     0.32453   
  1365. BD*(   1) C  24 - H  25          0.00630     0.32398   
  1366. BD*(   1) C  26 - H  27          0.00672     0.32561   
  1367. BD*(   1) C  28 - H  29          0.00630     0.32552   
  1368. BD*(   1) C  30 - H  31          0.00299     0.29813   
  1369. BD*(   1) C  30 - H  32          0.00458     0.28536   
  1370. BD*(   1) C  30 - H  33          0.00451     0.28388   
  1371. BD*(   1) C  34 - H  35          0.00444     0.28483   
  1372. BD*(   1) C  34 - H  36          0.00454     0.28494   
  1373. BD*(   1) C  34 - H  37          0.00298     0.29810   
  1374. BD*(   1) C  38 - H  39          0.00525     0.28536   
  1375. BD*(   1) C  38 - H  40          0.00445     0.29181   
  1376. BD*(   1) C  38 - H  41          0.00370     0.30268   
  1377. BD*(   1) C  42 - H  43          0.01032     0.32860   
  1378. BD*(   1) C  42 - C  44          0.00365     0.53712   
  1379. BD*(   2) C  42 - C  44          0.02825    -0.03261   
  1380. BD*(   1) C  44 - H  45          0.00512     0.34398   
  1381. BD*(   1) C  44 - H  46          0.00383     0.35009   
  1382. BD*(   1) C  47 - H  48          0.00435     0.29416   
  1383. BD*(   1) C  47 - H  49          0.00515     0.28802   
  1384. BD*(   1) C  47 - H  50          0.00366     0.30351   
  1385. BD*(   1) C  51 - H  52          0.01028     0.33045   
  1386. BD*(   1) C  51 - C  53          0.00366     0.54016   
  1387. BD*(   2) C  51 - C  53          0.02844    -0.03240   
  1388. BD*(   1) C  53 - H  54          0.00511     0.34622   
  1389. BD*(   1) C  53 - H  55          0.00385     0.35133   
  1390. BD*(   1) C  56 - H  57          0.00447     0.28979   
  1391. BD*(   1) C  56 - H  58          0.00449     0.29063   
  1392. BD*(   1) C  56 - H  59          0.00297     0.30215   
  1393. BD*(   1) C  60 - H  61          0.00299     0.30181   
  1394. BD*(   1) C  60 - H  62          0.00428     0.28926   
  1395. BD*(   1) C  60 - H  63          0.00461     0.28753   
  1398. BD*(   1) C  67 - H  68          0.00463     0.25071   
  1399. BD*(   1) C  67 - H  69          0.00359     0.24866   
  1400. BD*(   1) C  67 - H  70          0.00551     0.25702   
  1401. BD*(   1) C  67 - S  71          0.00586     0.00650   
  1402. BD*(   1) S  71 - H  72          0.00701     0.05444   
       -------------------------------
              Total Lewis  139.31348  ( 97.3597%)
        Valence non-Lewis    3.50494  (  2.4494%)
        Rydberg non-Lewis    0.27306  (  0.1908%)
       -------------------------------
            Total unit  1  143.09148  (100.0000%)
           Charge unit  1    0.90852
 
 Molecular unit  2  (H2O)
    85. BD (   1) O  64 - H  65          0.99403    -0.93311  145(r),152(r),1234(v),144(r)
                                                    1312(r),155(r),1316(r)
                                                    157(r),182(r),233(r),235(r)
                                                    1314(r),1283(r),153(r)
                                                    205(r),1285(r),159(r),232(r)
                                                    1318(r)
    86. BD (   1) O  64 - H  66          0.99775    -0.98983  145(r),152(r),1230(v),182(r)
                                                    144(r),181(r),155(r),1316(r)
                                                    159(r),261(r),179(r),1312(r)
                                                    1313(r)
   135. CR (   1) O  64                  0.99990   -19.08757  145(r),1234(v),1230(v)
                                                    155(r),1316(r)
   148. LP (   1) O  64                  0.99107    -0.45772  144(r),1315(r),1233(v)
                                                    1313(r),1229(v),145(r)
                                                    1228(v),209(r),1321(r)
                                                    158(r),261(r),1327(r)
   149. LP (   2) O  64                  0.91718    -0.62068  145(r),1396(g),1230(v)
                                                    1234(v),157(r),1312(r)
                                                    156(r),159(r),179(r),205(r)
                                                    1316(r),1313(r),259(r)
                                                    181(r),258(r),207(r),180(r)
                                                    206(r),232(r),204(r),1284(r)
                                                    1315(r),155(r),231(r),233(r)
                                                    1285(r),257(r),1320(r)
                                                    1325(r),1322(r),1323(r)
  1202. RY*(   1) O  64                  0.00146     0.70548   
  1203. RY*(   2) O  64                  0.00045     0.95691   
  1204. RY*(   3) O  64                  0.00028     1.09504   
  1205. RY*(   4) O  64                  0.00011     0.76926   
  1206. RY*(   5) O  64                  0.00002     4.31071   
  1207. RY*(   6) O  64                  0.00003     2.17987   
  1208. RY*(   7) O  64                  0.00002     2.04403   
  1209. RY*(   8) O  64                  0.00000     3.30003   
  1210. RY*(   9) O  64                  0.00000     3.35328   
  1211. RY*(  10) O  64                  0.00000     2.60941   
  1212. RY*(  11) O  64                  0.00000     6.18197   
  1213. RY*(  12) O  64                  0.00000    41.66821   
  1214. RY*(  13) O  64                  0.00000     6.43782   
  1215. RY*(  14) O  64                  0.00000     2.71270   
  1216. RY*(  15) O  64                  0.00000     6.32254   
  1217. RY*(  16) O  64                  0.00001     2.47123   
  1218. RY*(  17) O  64                  0.00000     6.18139   
  1219. RY*(  18) O  64                  0.00000     2.74822   
  1220. RY*(  19) O  64                  0.00000     6.42659   
  1221. RY*(  20) O  64                  0.00000     5.23998   
  1222. RY*(  21) O  64                  0.00000     5.61787   
  1223. RY*(  22) O  64                  0.00000     5.14011   
  1224. RY*(  23) O  64                  0.00000     5.32918   
  1225. RY*(  24) O  64                  0.00000     5.35808   
  1226. RY*(  25) O  64                  0.00000     5.26980   
  1227. RY*(  26) O  64                  0.00000     5.45348   
  1228. RY*(   1) H  65                  0.00044     0.94205   
  1229. RY*(   2) H  65                  0.00038     1.69009   
  1230. RY*(   3) H  65                  0.00031     2.31316   
  1231. RY*(   4) H  65                  0.00010     1.98929   
  1232. RY*(   5) H  65                  0.00001     2.76033   
  1233. RY*(   1) H  66                  0.00046     1.91058   
  1234. RY*(   2) H  66                  0.00042     1.96166   
  1235. RY*(   3) H  66                  0.00018     2.01409   
  1236. RY*(   4) H  66                  0.00010     1.06567   
  1237. RY*(   5) H  66                  0.00000     2.89225   
  1396. BD*(   1) O  64 - H  65          0.00260     0.31263   
  1397. BD*(   1) O  64 - H  66          0.00112     0.49307   
       -------------------------------
              Total Lewis    4.89993  ( 99.8267%)
        Valence non-Lewis    0.00372  (  0.0758%)
        Rydberg non-Lewis    0.00478  (  0.0975%)
       -------------------------------
            Total unit  2    4.90844  (100.0000%)
           Charge unit  2    0.09156
 Unable to Open any file for archive entry.
 1\1\GINC-BGN1038\SP\UAPFD\def2TZVP\C31H34Fe1N4O1S1(1+,2)\BECSLEIP\29-A
 ug-2024\0\\# apfd/def2TZVP guess=read scf=maxcycle=999 geom=check pop=
 nbo\\2j18_III_D\\1,2\Fe,0,8.944448042,18.5841026514,-2.5141327471\N,0,
 10.5078696956,18.7318030351,-3.7982658226\N,0,8.7069123397,16.66820545
 97,-3.0840120824\N,0,7.2289896923,18.4980164946,-1.5113357684\N,0,9.03
 8970313,20.5670638833,-2.2188768457\C,0,11.2348882975,19.8462923108,-4
 .0847987812\C,0,12.3570771977,19.5232373369,-4.9335688996\C,0,12.30016
 79598,18.1803015686,-5.1488495192\C,0,11.1359261729,17.7047670139,-4.4
 381697841\C,0,9.6063738572,15.9060825834,-3.7665443871\C,0,9.216829921
 2,14.5197405606,-3.7592847923\C,0,8.0450629791,14.4546102737,-3.053189
 3199\C,0,7.7500876359,15.8123822961,-2.640760889\C,0,6.3882525748,17.4
 339382194,-1.4007611645\C,0,5.214570916,17.7805167768,-0.6390169004\C,
 0,5.3648349447,19.0930689585,-0.2829532973\C,0,6.6239050595,19.5227464
 817,-0.8617373385\C,0,8.155602055,21.3175397295,-1.5152785467\C,0,8.44
 88692958,22.7274889055,-1.652838534\C,0,9.526306427,22.8109523109,-2.4
 767076973\C,0,9.8762132995,21.45028351,-2.8255307357\C,0,10.9378286358
 ,21.1236519545,-3.6463533066\H,0,11.5651015647,21.9284151235,-3.997075
 626\C,0,10.7274449371,16.3859308384,-4.4221024734\H,0,11.3395727547,15
 .6720584645,-4.9509123084\C,0,6.6357449389,16.1711435523,-1.9072797661
 \H,0,5.9132885694,15.3993457188,-1.6919345614\C,0,7.088289619,20.82226
 97803,-0.7909090966\H,0,6.4913280096,21.5343078897,-0.2422468354\C,0,1
 3.2042357995,17.3139725782,-5.9563308746\H,0,14.0090134604,17.89856823
 91,-6.3949184457\H,0,12.6523646396,16.8311951414,-6.7632962586\H,0,13.
 6459379124,16.5337652291,-5.3358093633\C,0,13.345389556,20.5192601454,
 -5.4340309059\H,0,13.8374248447,21.0228447016,-4.6018031739\H,0,12.851
 0616001,21.2772114397,-6.0423332849\H,0,14.1070629822,20.0370992661,-6
 .0416649735\C,0,9.9373938147,13.4235708897,-4.4628780836\H,0,10.798269
 6659,13.0876734747,-3.8823592577\H,0,10.2974003916,13.7599075489,-5.43
 4253265\H,0,9.2722179597,12.5761656492,-4.6134617343\C,0,7.2184640224,
 13.3044093347,-2.759363638\H,0,6.1504890028,13.4876553891,-2.737015410
 7\C,0,7.6675815951,12.0784257677,-2.5136362159\H,0,8.7187138049,11.850
 3454222,-2.4741764705\H,0,6.9946859069,11.2614628759,-2.3129811293\C,0
 ,4.1232729517,16.8387835276,-0.2684071862\H,0,4.5277205894,15.85794260
 57,-0.0230565017\H,0,3.4167788042,16.7167767574,-1.0910726486\H,0,3.58
 25462609,17.2181556569,0.5960815525\C,0,4.4939829747,19.9353836043,0.5
 081537895\H,0,4.9946128001,20.6623177336,1.1370973058\C,0,3.1664230185
 ,19.8821183214,0.5130126998\H,0,2.6179067918,19.2109995538,-0.12475216
 11\H,0,2.578959615,20.530069757,1.1419278168\C,0,7.6709856859,23.81562
 81482,-0.9976945751\H,0,7.7015822177,23.7060791222,0.0864507344\H,0,6.
 627547075,23.7839123202,-1.31146054\H,0,8.0775956265,24.7906666717,-1.
 2546343532\C,0,10.2442286677,24.0180419243,-2.9747622425\H,0,9.7521351
 544,24.9259927732,-2.6368086298\H,0,10.2713922053,24.0278373988,-4.063
 752433\H,0,11.2716283057,24.0302620162,-2.6106741088\O,0,7.779,19.09,-
 4.377\H,0,8.524,19.149,-4.975\H,0,6.919,19.115,-4.603\C,0,11.972700659
 8,18.2498078682,-1.0204948796\H,0,12.5635925646,17.8637697791,-0.19562
 173\H,0,12.1349854492,19.316412305,-1.1338774579\H,0,12.2124743895,17.
 7414616899,-1.9475560823\S,0,10.1964859772,18.0359136242,-0.6365717597
 \H,0,10.221659142,16.6983629909,-0.7138501205\\Version=ES64L-G16RevC.0
 2\State=2-A\HF=-3156.986413\S2=1.129227\S2-1=0.\S2A=0.760494\RMSD=2.58
 4e-09\Dipole=0.891481,0.0847818,-0.2346512\Quadrupole=7.8634039,10.026
 1341,-17.889538,1.0884988,-13.8684597,2.7259886\PG=C01 [X(C31H34Fe1N4O
 1S1)]\\@
 The archive entry for this job was punched.


 TRUST EVERYONE, BUT CUT THE CARDS.
 Job cpu time:       2 days  9 hours 29 minutes 53.7 seconds.
 Elapsed time:       0 days  0 hours 53 minutes  8.0 seconds.
 File lengths (MBytes):  RWF=   1815 Int=      0 D2E=      0 Chk=    164 Scr=      1
 Normal termination of Gaussian 16 at Thu Aug 29 10:27:49 2024.
