 Entering Gaussian System, Link 0=g16
 Input=2mgg16re.com
 Output=2mgg16re.log
 Initial command:
 /sw/chem/gaussian/g16_C02/a100/g16/l1.exe "/local/becsleip_8003056/Gau-46834.inp" -scrdir="/local/becsleip_8003056/"
 Entering Link 1 = /sw/chem/gaussian/g16_C02/a100/g16/l1.exe PID=     46835.
  
 Copyright (c) 1988-2021, Gaussian, Inc.  All Rights Reserved.
  
 This is part of the Gaussian(R) 16 program.  It is based on
 the Gaussian(R) 09 system (copyright 2009, Gaussian, Inc.),
 the Gaussian(R) 03 system (copyright 2003, Gaussian, Inc.),
 the Gaussian(R) 98 system (copyright 1998, Gaussian, Inc.),
 the Gaussian(R) 94 system (copyright 1995, Gaussian, Inc.),
 the Gaussian 92(TM) system (copyright 1992, Gaussian, Inc.),
 the Gaussian 90(TM) system (copyright 1990, Gaussian, Inc.),
 the Gaussian 88(TM) system (copyright 1988, Gaussian, Inc.),
 the Gaussian 86(TM) system (copyright 1986, Carnegie Mellon
 University), and the Gaussian 82(TM) system (copyright 1983,
 Carnegie Mellon University). Gaussian is a federally registered
 trademark of Gaussian, Inc.
  
 This software contains proprietary and confidential information,
 including trade secrets, belonging to Gaussian, Inc.
  
 This software is provided under written license and may be
 used, copied, transmitted, or stored only in accord with that
 written license.
  
 The following legend is applicable only to US Government
 contracts under FAR:
  
                    RESTRICTED RIGHTS LEGEND
  
 Use, reproduction and disclosure by the US Government is
 subject to restrictions as set forth in subparagraphs (a)
 and (c) of the Commercial Computer Software - Restricted
 Rights clause in FAR 52.227-19.
  
 Gaussian, Inc.
 340 Quinnipiac St., Bldg. 40, Wallingford CT 06492
  
  
 ---------------------------------------------------------------
 Warning -- This program may not be used in any manner that
 competes with the business of Gaussian, Inc. or will provide
 assistance to any competitor of Gaussian, Inc.  The licensee
 of this program is prohibited from giving any competitor of
 Gaussian, Inc. access to this program.  By using this program,
 the user acknowledges that Gaussian, Inc. is engaged in the
 business of creating and licensing software in the field of
 computational chemistry and represents and warrants to the
 licensee that it is not a competitor of Gaussian, Inc. and that
 it will not use this program in any manner prohibited above.
 ---------------------------------------------------------------
  

 Cite this work as:
 Gaussian 16, Revision C.02,
 M. J. Frisch, G. W. Trucks, H. B. Schlegel, G. E. Scuseria, 
 M. A. Robb, J. R. Cheeseman, G. Scalmani, V. Barone, 
 G. A. Petersson, H. Nakatsuji, X. Li, M. Caricato, A. V. Marenich, 
 J. Bloino, B. G. Janesko, R. Gomperts, B. Mennucci, H. P. Hratchian, 
 J. V. Ortiz, A. F. Izmaylov, J. L. Sonnenberg, D. Williams-Young, 
 F. Ding, F. Lipparini, F. Egidi, J. Goings, B. Peng, A. Petrone, 
 T. Henderson, D. Ranasinghe, V. G. Zakrzewski, J. Gao, N. Rega, 
 G. Zheng, W. Liang, M. Hada, M. Ehara, K. Toyota, R. Fukuda, 
 J. Hasegawa, M. Ishida, T. Nakajima, Y. Honda, O. Kitao, H. Nakai, 
 T. Vreven, K. Throssell, J. A. Montgomery, Jr., J. E. Peralta, 
 F. Ogliaro, M. J. Bearpark, J. J. Heyd, E. N. Brothers, K. N. Kudin, 
 V. N. Staroverov, T. A. Keith, R. Kobayashi, J. Normand, 
 K. Raghavachari, A. P. Rendell, J. C. Burant, S. S. Iyengar, 
 J. Tomasi, M. Cossi, J. M. Millam, M. Klene, C. Adamo, R. Cammi, 
 J. W. Ochterski, R. L. Martin, K. Morokuma, O. Farkas, 
 J. B. Foresman, and D. J. Fox, Gaussian, Inc., Wallingford CT, 2019.
 
 ******************************************
 Gaussian 16:  ES64L-G16RevC.02  7-Dec-2021
                 3-Sep-2024 
 ******************************************
 %mem=16GB
 %CPU=0-71
 SetSPE:  set environment variable "OMP_PROC_BIND" = "true"
 SetSPE:  set environment variable "OMP_PLACES" = "{0},{1},{2},{3},{4},{5},{6},{7},{8},{9},{10},{11},{12},{13},{14},{15},{16},{17},{18},{19},{20},{21},{22},{23},{24},{25},{26},{27},{28},{29},{30},{31},{32},{33},{34},{35},{36},{37},{38},{39},{40},{41},{42},{43},{44},{45},{46},{47},{48},{49},{50},{51},{52},{53},{54},{55},{56},{57},{58},{59},{60},{61},{62},{63},{64},{65},{66},{67},{68},{69},{70},{71}"
 Will use up to   72 processors via shared memory.
 %gpucpu=0,1,2,3=0,1,2,3
 Will use    4 GPUs:
 Thread  CPU   GPU
      0    0     0
      1    1     1
      2    2     2
      3    3     3
      4    4    -1
      5    5    -1
      6    6    -1
      7    7    -1
      8    8    -1
      9    9    -1
     10   10    -1
     11   11    -1
     12   12    -1
     13   13    -1
     14   14    -1
     15   15    -1
     16   16    -1
     17   17    -1
     18   18    -1
     19   19    -1
     20   20    -1
     21   21    -1
     22   22    -1
     23   23    -1
     24   24    -1
     25   25    -1
     26   26    -1
     27   27    -1
     28   28    -1
     29   29    -1
     30   30    -1
     31   31    -1
     32   32    -1
     33   33    -1
     34   34    -1
     35   35    -1
     36   36    -1
     37   37    -1
     38   38    -1
     39   39    -1
     40   40    -1
     41   41    -1
     42   42    -1
     43   43    -1
     44   44    -1
     45   45    -1
     46   46    -1
     47   47    -1
     48   48    -1
     49   49    -1
     50   50    -1
     51   51    -1
     52   52    -1
     53   53    -1
     54   54    -1
     55   55    -1
     56   56    -1
     57   57    -1
     58   58    -1
     59   59    -1
     60   60    -1
     61   61    -1
     62   62    -1
     63   63    -1
     64   64    -1
     65   65    -1
     66   66    -1
     67   67    -1
     68   68    -1
     69   69    -1
     70   70    -1
     71   71    -1
 SetGPE:  set environment variable "OMP_PROC_BIND" = "true"
 SetGPE:  set environment variable "OMP_PLACES" = "{0},{1},{2},{3},{4},{5},{6},{7},{8},{9},{10},{11},{12},{13},{14},{15},{16},{17},{18},{19},{20},{21},{22},{23},{24},{25},{26},{27},{28},{29},{30},{31},{32},{33},{34},{35},{36},{37},{38},{39},{40},{41},{42},{43},{44},{45},{46},{47},{48},{49},{50},{51},{52},{53},{54},{55},{56},{57},{58},{59},{60},{61},{62},{63},{64},{65},{66},{67},{68},{69},{70},{71}"
 %oldchk=2mgg_III_D.chk
 %chk=2mgg_III_Dre.chk
 Properties for Device   0
 Minimum vector length:                              32
 Maximum vector length:                            1024
 Number of SMPs:                                    108
 Maximum number of threads per SMP:                2048
 Number of ASync Engines:                             5
 Memory:                                           9207742464
 Properties for Device   1
 Minimum vector length:                              32
 Maximum vector length:                            1024
 Number of SMPs:                                    108
 Maximum number of threads per SMP:                2048
 Number of ASync Engines:                             5
 Memory:                                           9207742464
 Properties for Device   2
 Minimum vector length:                              32
 Maximum vector length:                            1024
 Number of SMPs:                                    108
 Maximum number of threads per SMP:                2048
 Number of ASync Engines:                             5
 Memory:                                           9207742464
 Properties for Device   3
 Minimum vector length:                              32
 Maximum vector length:                            1024
 Number of SMPs:                                    108
 Maximum number of threads per SMP:                2048
 Number of ASync Engines:                             5
 Memory:                                           9207742464
   8286968217 words of memory will be used on each GPU.
 Copying data from "2mgg_III_D.chk" to current chk file "2mgg_III_Dre.chk"
 IOpt=  2 FromEx=T IUOpen= 4 IOptOp= 5 NList=   0 IFRang= 0 IUIn= 4 IUOut= 2.
 --------------------------------------
 # apfd/gen scf=maxcycle=999 geom=check
 --------------------------------------
 1/29=2,38=1,172=1/1;
 2/12=2,40=1/2;
 3/5=7,11=2,14=-4,25=1,30=1,74=-44/1,2,3;
 4//1;
 5/5=2,7=999,38=5/2;
 6/7=2,8=2,9=2,10=2,28=1/1;
 99/5=1,9=1/99;
 ----------
 2mgg_III_H
 ----------
 Structure from the checkpoint file:  "2mgg_III_Dre.chk"
 Charge =  1 Multiplicity = 6
 Z-Matrix found in chk file.
 Fe,0,35.2940415982,4.2183847604,9.9532332198
 N,0,37.2180235184,4.0740207179,9.4772124616
 N,0,35.7209381988,3.1432149956,11.6527376132
 N,0,33.4984669631,4.6414662001,10.8203936165
 N,0,34.9711583216,5.5744716496,8.5805333053
 C,0,37.7835292265,4.6195681568,8.3594135012
 C,0,39.1182425546,4.1054171024,8.1548463617
 C,0,39.3892017842,3.3153424161,9.2285373745
 C,0,38.1968232907,3.3179241132,10.0453590819
 C,0,36.898252238,2.5243324257,11.957885436
 C,0,36.8027610175,1.8005952245,13.2048667293
 C,0,35.5450343554,2.0161964118,13.6714484848
 C,0,34.9045558403,2.8941395126,12.717013233
 C,0,32.9904266115,4.2343733408,12.0112270532
 C,0,31.7612602178,4.9291199584,12.3292777868
 C,0,31.5315462996,5.7798869679,11.2816659462
 C,0,32.6234924118,5.59056525,10.3610668757
 C,0,33.8612517056,6.3324081858,8.3738511542
 C,0,33.9923417258,7.1258781584,7.1683455955
 C,0,35.2312887711,6.8355880874,6.6607065062
 C,0,35.8324249728,5.8917573598,7.5679087828
 C,0,37.1521674358,5.4827043288,7.4843334026
 H,0,37.7299996904,5.8447686888,6.6474658189
 C,0,38.0532885864,2.5771829402,11.2014483652
 H,0,38.9110531969,2.0265516562,11.5559577922
 C,0,33.6095267213,3.3434722589,12.8664215474
 H,0,33.0916372193,3.0742085916,13.7739328848
 C,0,32.7513782943,6.3265881388,9.1949641035
 H,0,31.953879582,7.0141952156,8.9580311059
 C,0,39.9893127893,4.4588103543,6.998809954
 H,0,40.1929013758,5.5298058892,6.9862066374
 H,0,39.503578898,4.1958815396,6.0590031361
 H,0,40.9382588296,3.9310943201,7.0539298046
 C,0,40.6273400199,2.5525260017,9.5543177458
 H,0,40.4213727794,1.4827912821,9.6057030027
 H,0,41.0239907266,2.8664109361,10.5198334527
 H,0,41.3929359284,2.7183093729,8.8005101034
 C,0,35.8555454632,7.3226666633,5.4000538907
 H,0,35.0857632539,7.6570892981,4.7074438245
 H,0,36.4316899307,6.5295021636,4.9260068215
 H,0,36.5283404536,8.15911524,5.5960370787
 C,0,32.9731377435,8.0145042605,6.6560136718
 H,0,31.950521022,7.723237137,6.8662079676
 C,0,33.195111637,9.1345390713,5.9755394157
 H,0,34.1877610973,9.4999913137,5.7801216845
 H,0,32.3831376801,9.7426885923,5.6128409537
 C,0,30.3753182494,6.6933621856,11.0692611604
 H,0,30.0442754927,6.6635871973,10.031937544
 H,0,30.643558529,7.7235699975,11.3083313152
 H,0,29.5452940045,6.3965782488,11.7070106994
 C,0,30.9805180137,4.7146380074,13.5280823427
 H,0,30.9733562297,3.6988474598,13.9065161898
 C,0,30.3003055809,5.6513840561,14.180259043
 H,0,30.3133961771,6.6836434341,13.8767842433
 H,0,29.7263072961,5.4203536668,15.062270116
 C,0,34.9056481785,1.5240790467,14.9240264228
 H,0,33.9808502396,0.9926085146,14.6995626081
 H,0,34.6656137014,2.3576263633,15.5844865679
 H,0,35.5698874526,0.8474967121,15.4559482671
 C,0,37.9090932071,0.9996796927,13.8011826022
 H,0,37.5814060229,0.5107964829,14.7152262842
 H,0,38.7579264435,1.6405333535,14.0415037617
 H,0,38.249958017,0.2330357982,13.1047353975
 C,0,32.4715148208,0.7666869477,6.6001721305
 H,0,32.9270927973,0.4589712896,5.6592937661
 H,0,31.695793918,1.4959660721,6.3896743023
 H,0,32.012236426,-0.1087998958,7.0588088007
 N,0,34.5952271961,0.6793215267,7.9222886499
 H,0,34.8327389492,-0.2654272588,7.667846122
 C,0,33.4845260094,1.3645826983,7.5059543464
 C,0,35.3038921101,1.4979530263,8.733026406
 H,0,36.2250401457,1.2255333204,9.2077090131
 N,0,34.7093836791,2.6632193775,8.8564222659
 C,0,33.5747364949,2.5926073076,8.0962581507
 H,0,32.9054126398,3.426279121,8.0287571963
 Recover connectivity data from disk.
 Stoichiometry    C34H34FeN6(1+,6)
 Framework group  C1[X(C34H34FeN6)]
 Deg. of freedom   219
 Full point group                 C1      NOp   1
 Largest Abelian subgroup         C1      NOp   1
 Largest concise Abelian subgroup C1      NOp   1
                         Standard orientation:                         
 ---------------------------------------------------------------------
 Center     Atomic      Atomic             Coordinates (Angstroms)
 Number     Number       Type             X           Y           Z
 ---------------------------------------------------------------------
      1         26           0        0.140832   -0.118596   -0.206955
      2          7           0        0.858583   -1.911875   -0.673994
      3          7           0        2.059618    0.599935   -0.375833
      4          7           0       -0.456537    1.830274   -0.196491
      5          7           0       -1.709566   -0.703359   -0.455166
      6          6           0        0.101770   -3.043173   -0.793537
      7          6           0        0.939892   -4.218286   -0.859268
      8          6           0        2.223388   -3.768169   -0.881178
      9          6           0        2.150303   -2.328540   -0.775841
     10          6           0        3.198730   -0.133306   -0.540085
     11          6           0        4.370839    0.711698   -0.542685
     12          6           0        3.918532    1.985528   -0.405452
     13          6           0        2.475701    1.899004   -0.353529
     14          6           0        0.283560    2.966948   -0.242773
     15          6           0       -0.550784    4.136952   -0.414935
     16          6           0       -1.837577    3.673015   -0.469595
     17          6           0       -1.756036    2.240528   -0.339123
     18          6           0       -2.845636    0.043691   -0.473603
     19          6           0       -4.020157   -0.800783   -0.559570
     20          6           0       -3.554031   -2.088015   -0.611678
     21          6           0       -2.116510   -2.002673   -0.573654
     22          6           0       -1.279180   -3.086871   -0.772210
     23          1           0       -1.742819   -4.054498   -0.890805
     24          6           0        3.255326   -1.504382   -0.701475
     25          1           0        4.228990   -1.957452   -0.807956
     26          6           0        1.664336    3.006820   -0.228016
     27          1           0        2.140102    3.975216   -0.239989
     28          6           0       -2.871557    1.422010   -0.398475
     29          1           0       -3.832661    1.906462   -0.479280
     30          6           0        0.427642   -5.615083   -0.940682
     31          1           0       -0.166265   -5.752955   -1.844510
     32          1           0       -0.205215   -5.841400   -0.082441
     33          1           0        1.248527   -6.327706   -0.959047
     34          6           0        3.495703   -4.539092   -0.970067
     35          1           0        4.111187   -4.374786   -0.084867
     36          1           0        4.069317   -4.226281   -1.842531
     37          1           0        3.296814   -5.604389   -1.056283
     38          6           0       -4.332239   -3.356736   -0.642142
     39          1           0       -5.331170   -3.191417   -0.243499
     40          1           0       -3.840005   -4.123005   -0.045225
     41          1           0       -4.427159   -3.731437   -1.662582
     42          6           0       -5.381759   -0.314105   -0.569645
     43          1           0       -5.554522    0.602450   -0.017519
     44          6           0       -6.403074   -0.887933   -1.197683
     45          1           0       -6.282904   -1.770041   -1.801455
     46          1           0       -7.396624   -0.473984   -1.150752
     47          6           0       -3.098320    4.456271   -0.585584
     48          1           0       -3.865475    4.054551    0.075180
     49          1           0       -3.482927    4.426744   -1.606192
     50          1           0       -2.916859    5.494520   -0.315666
     51          6           0       -0.058273    5.494550   -0.498924
     52          1           0        0.815538    5.713620    0.104032
     53          6           0       -0.583541    6.457825   -1.248398
     54          1           0       -1.419597    6.282069   -1.902575
     55          1           0       -0.174279    7.454452   -1.253999
     56          6           0        4.687868    3.260707   -0.360878
     57          1           0        4.451279    3.820129    0.544202
     58          1           0        4.442603    3.886122   -1.219554
     59          1           0        5.757443    3.066438   -0.374548
     60          6           0        5.768819    0.213082   -0.677081
     61          1           0        6.478986    1.032853   -0.602921
     62          1           0        5.909166   -0.274727   -1.642126
     63          1           0        5.997516   -0.511389    0.105101
     64          6           0       -1.031795   -0.148097    5.247215
     65          1           0       -1.189439   -1.104288    5.745552
     66          1           0       -1.993101    0.337328    5.112478
     67          1           0       -0.413681    0.475064    5.893254
     68          7           0        0.834565   -0.955530    3.787582
     69          1           0        1.395681   -1.324704    4.537623
     70          6           0       -0.382628   -0.342521    3.926271
     71          6           0        1.140723   -0.969075    2.470106
     72          1           0        2.039931   -1.387894    2.065055
     73          7           0        0.189893   -0.401109    1.763106
     74          6           0       -0.765066   -0.006805    2.659118
     75          1           0       -1.655702    0.489583    2.330598
 ---------------------------------------------------------------------
 Rotational constants (GHZ):           0.0924645           0.0916008           0.0595738
 General basis read from cards:  (5D, 7F)
 There are   704 symmetry adapted cartesian basis functions of A   symmetry.
 There are   661 symmetry adapted basis functions of A   symmetry.
   661 basis functions,  1342 primitive gaussians,   704 cartesian basis functions
   155 alpha electrons      150 beta electrons
       nuclear repulsion energy      5551.0415622027 Hartrees.
 NAtoms=   75 NActive=   75 NUniq=   75 SFac= 1.00D+00 NAtFMM=   60 NAOKFM=T Big=T
 Integral buffers will be    131072 words long.
 Raffenetti 2 integral format.
 Two-electron integral symmetry is turned on.
 R6APFD:  NTU= -4 IXU= 1 FactS= 1.050
 Nuclear repulsion after empirical dispersion term =     5550.9087398722 Hartrees.
 One-electron integrals computed using PRISM.
 NBasis=   661 RedAO= T EigKep=  2.69D-04  NBF=   661
 NBsUse=   661 1.00D-06 EigRej= -1.00D+00 NBFU=   661
 ExpMin= 4.20D-02 ExpMax= 3.01D+05 ExpMxC= 2.91D+03 IAcc=3 IRadAn=         5 AccDes= 0.00D+00
 Harris functional with IExCor= 3731 and IRadAn=       5 diagonalized for initial guess.
 HarFok:  IExCor= 3731 AccDes= 0.00D+00 IRadAn=         5 IDoV= 1 UseB2=F ITyADJ=14
 ICtDFT=  3500011 ScaDFX=  1.000000  1.000000  1.000000  1.000000
 FoFCou: FMM=F IPFlag=           0 FMFlag=      100000 FMFlg1=        2001
         NFxFlg=           0 DoJE=T BraDBF=F KetDBF=T FulRan=T
         wScrn=  0.000000 ICntrl=       500 IOpCl=  0 I1Cent=   200000004 NGrid=           0
         NMat0=    1 NMatS0=      1 NMatT0=    0 NMatD0=    1 NMtDS0=    0 NMtDT0=    0
 Petite list used in FoFCou.
 Initial guess <Sx>= 0.0000 <Sy>= 0.0000 <Sz>= 2.5000 <S**2>= 8.7500 S= 2.5000
 Requested convergence on RMS density matrix=1.00D-08 within 999 cycles.
 Requested convergence on MAX density matrix=1.00D-06.
 Requested convergence on             energy=1.00D-06.
 No special actions if energy rises.
 EnCoef did   100 forward-backward iterations
 EnCoef did   100 forward-backward iterations
 EnCoef did   100 forward-backward iterations
 EnCoef did     5 forward-backward iterations
 EnCoef did     2 forward-backward iterations
 EnCoef did   100 forward-backward iterations
 EnCoef did     2 forward-backward iterations
 Restarting incremental Fock formation.
 SCF Done:  E(UAPFD) =  -2906.84179032     A.U. after   31 cycles
            NFock= 31  Conv=0.74D-08     -V/T= 2.0035
 <Sx>= 0.0000 <Sy>= 0.0000 <Sz>= 2.5000 <S**2>= 8.7605 S= 2.5018
 <L.S>=  0.00000000000    
 Annihilation of the first spin contaminant:
 S**2 before annihilation     8.7605,   after     8.7500

 **********************************************************************

            Population analysis using the SCF Density.

 **********************************************************************

 Orbital symmetries:
 Alpha Orbitals:
       Occupied  (A) (A) (A) (A) (A) (A) (A) (A) (A) (A) (A) (A)
                 (A) (A) (A) (A) (A) (A) (A) (A) (A) (A) (A) (A)
                 (A) (A) (A) (A) (A) (A) (A) (A) (A) (A) (A) (A)
                 (A) (A) (A) (A) (A) (A) (A) (A) (A) (A) (A) (A)
                 (A) (A) (A) (A) (A) (A) (A) (A) (A) (A) (A) (A)
                 (A) (A) (A) (A) (A) (A) (A) (A) (A) (A) (A) (A)
                 (A) (A) (A) (A) (A) (A) (A) (A) (A) (A) (A) (A)
                 (A) (A) (A) (A) (A) (A) (A) (A) (A) (A) (A) (A)
                 (A) (A) (A) (A) (A) (A) (A) (A) (A) (A) (A) (A)
                 (A) (A) (A) (A) (A) (A) (A) (A) (A) (A) (A) (A)
                 (A) (A) (A) (A) (A) (A) (A) (A) (A) (A) (A) (A)
                 (A) (A) (A) (A) (A) (A) (A) (A) (A) (A) (A) (A)
                 (A) (A) (A) (A) (A) (A) (A) (A) (A) (A) (A)
       Virtual   (A) (A) (A) (A) (A) (A) (A) (A) (A) (A) (A) (A)
                 (A) (A) (A) (A) (A) (A) (A) (A) (A) (A) (A) (A)
                 (A) (A) (A) (A) (A) (A) (A) (A) (A) (A) (A) (A)
                 (A) (A) (A) (A) (A) (A) (A) (A) (A) (A) (A) (A)
                 (A) (A) (A) (A) (A) (A) (A) (A) (A) (A) (A) (A)
                 (A) (A) (A) (A) (A) (A) (A) (A) (A) (A) (A) (A)
                 (A) (A) (A) (A) (A) (A) (A) (A) (A) (A) (A) (A)
                 (A) (A) (A) (A) (A) (A) (A) (A) (A) (A) (A) (A)
                 (A) (A) (A) (A) (A) (A) (A) (A) (A) (A) (A) (A)
                 (A) (A) (A) (A) (A) (A) (A) (A) (A) (A) (A) (A)
                 (A) (A) (A) (A) (A) (A) (A) (A) (A) (A) (A) (A)
                 (A) (A) (A) (A) (A) (A) (A) (A) (A) (A) (A) (A)
                 (A) (A) (A) (A) (A) (A) (A) (A) (A) (A) (A) (A)
                 (A) (A) (A) (A) (A) (A) (A) (A) (A) (A) (A) (A)
                 (A) (A) (A) (A) (A) (A) (A) (A) (A) (A) (A) (A)
                 (A) (A) (A) (A) (A) (A) (A) (A) (A) (A) (A) (A)
                 (A) (A) (A) (A) (A) (A) (A) (A) (A) (A) (A) (A)
                 (A) (A) (A) (A) (A) (A) (A) (A) (A) (A) (A) (A)
                 (A) (A) (A) (A) (A) (A) (A) (A) (A) (A) (A) (A)
                 (A) (A) (A) (A) (A) (A) (A) (A) (A) (A) (A) (A)
                 (A) (A) (A) (A) (A) (A) (A) (A) (A) (A) (A) (A)
                 (A) (A) (A) (A) (A) (A) (A) (A) (A) (A) (A) (A)
                 (A) (A) (A) (A) (A) (A) (A) (A) (A) (A) (A) (A)
                 (A) (A) (A) (A) (A) (A) (A) (A) (A) (A) (A) (A)
                 (A) (A) (A) (A) (A) (A) (A) (A) (A) (A) (A) (A)
                 (A) (A) (A) (A) (A) (A) (A) (A) (A) (A) (A) (A)
                 (A) (A) (A) (A) (A) (A) (A) (A) (A) (A) (A) (A)
                 (A) (A) (A) (A) (A) (A) (A) (A) (A) (A) (A) (A)
                 (A) (A) (A) (A) (A) (A) (A) (A) (A) (A) (A) (A)
                 (A) (A) (A) (A) (A) (A) (A) (A) (A) (A) (A) (A)
                 (A) (A) (A) (A) (A) (A) (A) (A) (A) (A) (A) (A)
                 (A) (A) (A) (A) (A) (A) (A) (A) (A) (A) (A) (A)
                 (A) (A) (A) (A) (A) (A) (A) (A) (A) (A) (A) (A)
                 (A) (A) (A) (A) (A) (A) (A) (A) (A) (A) (A) (A)
                 (A) (A) (A) (A) (A) (A) (A) (A) (A) (A) (A) (A)
                 (A) (A) (A) (A) (A) (A) (A) (A) (A) (A) (A) (A)
                 (A) (A) (A) (A) (A) (A) (A) (A) (A) (A) (A) (A)
                 (A) (A) (A) (A) (A) (A) (A) (A) (A) (A) (A) (A)
                 (A) (A) (A) (A) (A) (A) (A) (A) (A) (A) (A) (A)
                 (A) (A) (A) (A) (A) (A) (A) (A) (A) (A) (A) (A)
                 (A) (A) (A) (A) (A) (A) (A) (A) (A) (A) (A) (A)
                 (A) (A) (A) (A) (A) (A) (A) (A) (A) (A) (A) (A)
                 (A) (A)
 Beta  Orbitals:
       Occupied  (A) (A) (A) (A) (A) (A) (A) (A) (A) (A) (A) (A)
                 (A) (A) (A) (A) (A) (A) (A) (A) (A) (A) (A) (A)
                 (A) (A) (A) (A) (A) (A) (A) (A) (A) (A) (A) (A)
                 (A) (A) (A) (A) (A) (A) (A) (A) (A) (A) (A) (A)
                 (A) (A) (A) (A) (A) (A) (A) (A) (A) (A) (A) (A)
                 (A) (A) (A) (A) (A) (A) (A) (A) (A) (A) (A) (A)
                 (A) (A) (A) (A) (A) (A) (A) (A) (A) (A) (A) (A)
                 (A) (A) (A) (A) (A) (A) (A) (A) (A) (A) (A) (A)
                 (A) (A) (A) (A) (A) (A) (A) (A) (A) (A) (A) (A)
                 (A) (A) (A) (A) (A) (A) (A) (A) (A) (A) (A) (A)
                 (A) (A) (A) (A) (A) (A) (A) (A) (A) (A) (A) (A)
                 (A) (A) (A) (A) (A) (A) (A) (A) (A) (A) (A) (A)
                 (A) (A) (A) (A) (A) (A)
       Virtual   (A) (A) (A) (A) (A) (A) (A) (A) (A) (A) (A) (A)
                 (A) (A) (A) (A) (A) (A) (A) (A) (A) (A) (A) (A)
                 (A) (A) (A) (A) (A) (A) (A) (A) (A) (A) (A) (A)
                 (A) (A) (A) (A) (A) (A) (A) (A) (A) (A) (A) (A)
                 (A) (A) (A) (A) (A) (A) (A) (A) (A) (A) (A) (A)
                 (A) (A) (A) (A) (A) (A) (A) (A) (A) (A) (A) (A)
                 (A) (A) (A) (A) (A) (A) (A) (A) (A) (A) (A) (A)
                 (A) (A) (A) (A) (A) (A) (A) (A) (A) (A) (A) (A)
                 (A) (A) (A) (A) (A) (A) (A) (A) (A) (A) (A) (A)
                 (A) (A) (A) (A) (A) (A) (A) (A) (A) (A) (A) (A)
                 (A) (A) (A) (A) (A) (A) (A) (A) (A) (A) (A) (A)
                 (A) (A) (A) (A) (A) (A) (A) (A) (A) (A) (A) (A)
                 (A) (A) (A) (A) (A) (A) (A) (A) (A) (A) (A) (A)
                 (A) (A) (A) (A) (A) (A) (A) (A) (A) (A) (A) (A)
                 (A) (A) (A) (A) (A) (A) (A) (A) (A) (A) (A) (A)
                 (A) (A) (A) (A) (A) (A) (A) (A) (A) (A) (A) (A)
                 (A) (A) (A) (A) (A) (A) (A) (A) (A) (A) (A) (A)
                 (A) (A) (A) (A) (A) (A) (A) (A) (A) (A) (A) (A)
                 (A) (A) (A) (A) (A) (A) (A) (A) (A) (A) (A) (A)
                 (A) (A) (A) (A) (A) (A) (A) (A) (A) (A) (A) (A)
                 (A) (A) (A) (A) (A) (A) (A) (A) (A) (A) (A) (A)
                 (A) (A) (A) (A) (A) (A) (A) (A) (A) (A) (A) (A)
                 (A) (A) (A) (A) (A) (A) (A) (A) (A) (A) (A) (A)
                 (A) (A) (A) (A) (A) (A) (A) (A) (A) (A) (A) (A)
                 (A) (A) (A) (A) (A) (A) (A) (A) (A) (A) (A) (A)
                 (A) (A) (A) (A) (A) (A) (A) (A) (A) (A) (A) (A)
                 (A) (A) (A) (A) (A) (A) (A) (A) (A) (A) (A) (A)
                 (A) (A) (A) (A) (A) (A) (A) (A) (A) (A) (A) (A)
                 (A) (A) (A) (A) (A) (A) (A) (A) (A) (A) (A) (A)
                 (A) (A) (A) (A) (A) (A) (A) (A) (A) (A) (A) (A)
                 (A) (A) (A) (A) (A) (A) (A) (A) (A) (A) (A) (A)
                 (A) (A) (A) (A) (A) (A) (A) (A) (A) (A) (A) (A)
                 (A) (A) (A) (A) (A) (A) (A) (A) (A) (A) (A) (A)
                 (A) (A) (A) (A) (A) (A) (A) (A) (A) (A) (A) (A)
                 (A) (A) (A) (A) (A) (A) (A) (A) (A) (A) (A) (A)
                 (A) (A) (A) (A) (A) (A) (A) (A) (A) (A) (A) (A)
                 (A) (A) (A) (A) (A) (A) (A) (A) (A) (A) (A) (A)
                 (A) (A) (A) (A) (A) (A) (A) (A) (A) (A) (A) (A)
                 (A) (A) (A) (A) (A) (A) (A) (A) (A) (A) (A) (A)
                 (A) (A) (A) (A) (A) (A) (A) (A) (A) (A) (A) (A)
                 (A) (A) (A) (A) (A) (A) (A) (A) (A) (A) (A) (A)
                 (A) (A) (A) (A) (A) (A) (A) (A) (A) (A) (A) (A)
                 (A) (A) (A) (A) (A) (A) (A)
 The electronic state is 6-A.
 Alpha  occ. eigenvalues -- -256.42435 -30.33406 -26.16430 -26.16332 -26.16265
 Alpha  occ. eigenvalues --  -14.54882 -14.50622 -14.47279 -14.47056 -14.46881
 Alpha  occ. eigenvalues --  -14.46635 -10.39126 -10.36070 -10.33863 -10.33746
 Alpha  occ. eigenvalues --  -10.33612 -10.33590 -10.33586 -10.33504 -10.33501
 Alpha  occ. eigenvalues --  -10.33411 -10.33240 -10.30967 -10.30860 -10.30612
 Alpha  occ. eigenvalues --  -10.30578 -10.30547 -10.30522 -10.30521 -10.30508
 Alpha  occ. eigenvalues --  -10.30384 -10.30237 -10.30171 -10.30152 -10.30149
 Alpha  occ. eigenvalues --  -10.29606 -10.29306 -10.28570 -10.28491 -10.28344
 Alpha  occ. eigenvalues --  -10.28329 -10.28286 -10.28182 -10.27994 -10.27988
 Alpha  occ. eigenvalues --   -3.78733  -2.55381  -2.55322  -2.55212  -1.17626
 Alpha  occ. eigenvalues --   -1.09316  -1.08286  -1.08129  -1.07115  -1.03560
 Alpha  occ. eigenvalues --   -0.93672  -0.92546  -0.92065  -0.91717  -0.91323
 Alpha  occ. eigenvalues --   -0.91233  -0.90911  -0.90812  -0.86868  -0.85607
 Alpha  occ. eigenvalues --   -0.85385  -0.84421  -0.83072  -0.82824  -0.81396
 Alpha  occ. eigenvalues --   -0.80458  -0.78834  -0.78570  -0.78334  -0.76932
 Alpha  occ. eigenvalues --   -0.75221  -0.75185  -0.73124  -0.70978  -0.70224
 Alpha  occ. eigenvalues --   -0.68968  -0.68481  -0.67685  -0.65294  -0.64542
 Alpha  occ. eigenvalues --   -0.64147  -0.63879  -0.62467  -0.62033  -0.61669
 Alpha  occ. eigenvalues --   -0.61442  -0.60553  -0.59112  -0.58765  -0.58549
 Alpha  occ. eigenvalues --   -0.58063  -0.56614  -0.56519  -0.56183  -0.56127
 Alpha  occ. eigenvalues --   -0.55350  -0.55210  -0.54899  -0.54603  -0.54118
 Alpha  occ. eigenvalues --   -0.53830  -0.53566  -0.53433  -0.53218  -0.53066
 Alpha  occ. eigenvalues --   -0.52737  -0.52544  -0.52209  -0.52180  -0.51796
 Alpha  occ. eigenvalues --   -0.51577  -0.50824  -0.50583  -0.50486  -0.50220
 Alpha  occ. eigenvalues --   -0.50111  -0.49795  -0.49713  -0.49353  -0.49141
 Alpha  occ. eigenvalues --   -0.48973  -0.48752  -0.48416  -0.47915  -0.47712
 Alpha  occ. eigenvalues --   -0.47055  -0.46989  -0.46470  -0.45908  -0.45423
 Alpha  occ. eigenvalues --   -0.44882  -0.43868  -0.43747  -0.43302  -0.42669
 Alpha  occ. eigenvalues --   -0.42526  -0.41747  -0.41360  -0.39619  -0.39255
 Alpha  occ. eigenvalues --   -0.37408  -0.37338  -0.35332  -0.34062  -0.33541
 Alpha  occ. eigenvalues --   -0.33258  -0.32544  -0.32175  -0.29636  -0.28645
 Alpha virt. eigenvalues --   -0.17584  -0.17453  -0.11682  -0.09812  -0.08075
 Alpha virt. eigenvalues --   -0.06819  -0.05564  -0.05007  -0.02936  -0.02116
 Alpha virt. eigenvalues --   -0.01946  -0.01133   0.00797   0.00945   0.01952
 Alpha virt. eigenvalues --    0.02371   0.02592   0.03115   0.03527   0.03887
 Alpha virt. eigenvalues --    0.04175   0.04547   0.04707   0.04854   0.05495
 Alpha virt. eigenvalues --    0.05609   0.05960   0.06095   0.06983   0.07232
 Alpha virt. eigenvalues --    0.07430   0.07514   0.07962   0.08313   0.08609
 Alpha virt. eigenvalues --    0.08860   0.09071   0.09307   0.09499   0.09813
 Alpha virt. eigenvalues --    0.10071   0.10451   0.10576   0.11070   0.11422
 Alpha virt. eigenvalues --    0.11870   0.12139   0.12196   0.12301   0.12732
 Alpha virt. eigenvalues --    0.13226   0.13666   0.14310   0.14659   0.14793
 Alpha virt. eigenvalues --    0.14992   0.15581   0.15889   0.16124   0.16656
 Alpha virt. eigenvalues --    0.16933   0.17615   0.18013   0.18473   0.19275
 Alpha virt. eigenvalues --    0.19942   0.20495   0.21527   0.21751   0.22320
 Alpha virt. eigenvalues --    0.23287   0.24185   0.25052   0.25396   0.25966
 Alpha virt. eigenvalues --    0.26085   0.26435   0.27036   0.28603   0.29329
 Alpha virt. eigenvalues --    0.30346   0.31180   0.31237   0.32928   0.33865
 Alpha virt. eigenvalues --    0.34029   0.34145   0.34469   0.36921   0.37189
 Alpha virt. eigenvalues --    0.38089   0.38533   0.39028   0.39679   0.40107
 Alpha virt. eigenvalues --    0.40262   0.40813   0.41124   0.41822   0.42126
 Alpha virt. eigenvalues --    0.42238   0.42502   0.43047   0.43416   0.43845
 Alpha virt. eigenvalues --    0.44066   0.44097   0.44755   0.45068   0.45289
 Alpha virt. eigenvalues --    0.45908   0.46399   0.47360   0.47459   0.47683
 Alpha virt. eigenvalues --    0.47888   0.48460   0.49044   0.49455   0.49813
 Alpha virt. eigenvalues --    0.50297   0.50632   0.50899   0.51422   0.52020
 Alpha virt. eigenvalues --    0.52501   0.52780   0.53153   0.53485   0.54280
 Alpha virt. eigenvalues --    0.54336   0.54527   0.54688   0.55525   0.55658
 Alpha virt. eigenvalues --    0.55922   0.56497   0.56720   0.57160   0.57535
 Alpha virt. eigenvalues --    0.57784   0.57897   0.58339   0.59074   0.59212
 Alpha virt. eigenvalues --    0.59903   0.60405   0.60733   0.61393   0.61712
 Alpha virt. eigenvalues --    0.62335   0.63141   0.63220   0.63945   0.64522
 Alpha virt. eigenvalues --    0.65317   0.65786   0.66148   0.66576   0.66723
 Alpha virt. eigenvalues --    0.67395   0.67508   0.67873   0.67935   0.68492
 Alpha virt. eigenvalues --    0.68865   0.68889   0.69559   0.69992   0.70473
 Alpha virt. eigenvalues --    0.70676   0.70773   0.71379   0.72233   0.72931
 Alpha virt. eigenvalues --    0.73412   0.73709   0.73868   0.75538   0.76627
 Alpha virt. eigenvalues --    0.76925   0.77265   0.77527   0.77688   0.78047
 Alpha virt. eigenvalues --    0.78569   0.78754   0.79046   0.79548   0.79665
 Alpha virt. eigenvalues --    0.80805   0.81201   0.81580   0.81983   0.82453
 Alpha virt. eigenvalues --    0.82586   0.82894   0.83115   0.83164   0.83404
 Alpha virt. eigenvalues --    0.83789   0.84455   0.84623   0.84747   0.85295
 Alpha virt. eigenvalues --    0.85712   0.86279   0.86803   0.87172   0.87802
 Alpha virt. eigenvalues --    0.87956   0.88077   0.89201   0.89677   0.90210
 Alpha virt. eigenvalues --    0.90453   0.90479   0.90840   0.91070   0.91486
 Alpha virt. eigenvalues --    0.92340   0.92524   0.92967   0.93601   0.94140
 Alpha virt. eigenvalues --    0.94677   0.94992   0.95269   0.95872   0.96287
 Alpha virt. eigenvalues --    0.97026   0.97623   0.98076   0.98535   1.00517
 Alpha virt. eigenvalues --    1.01156   1.01873   1.02552   1.04400   1.04621
 Alpha virt. eigenvalues --    1.04778   1.05285   1.06636   1.07242   1.07503
 Alpha virt. eigenvalues --    1.08104   1.08295   1.09005   1.09480   1.09824
 Alpha virt. eigenvalues --    1.10827   1.11154   1.11537   1.11821   1.12661
 Alpha virt. eigenvalues --    1.13067   1.14580   1.14726   1.17048   1.17885
 Alpha virt. eigenvalues --    1.18151   1.19307   1.19764   1.19980   1.20359
 Alpha virt. eigenvalues --    1.21308   1.22067   1.22126   1.22754   1.23057
 Alpha virt. eigenvalues --    1.23581   1.25413   1.25590   1.25753   1.26369
 Alpha virt. eigenvalues --    1.27288   1.27465   1.27654   1.28175   1.28698
 Alpha virt. eigenvalues --    1.29063   1.29717   1.30713   1.31673   1.32316
 Alpha virt. eigenvalues --    1.33158   1.33799   1.34106   1.35543   1.36016
 Alpha virt. eigenvalues --    1.37237   1.38439   1.38638   1.38955   1.40740
 Alpha virt. eigenvalues --    1.40955   1.43008   1.43776   1.44175   1.44665
 Alpha virt. eigenvalues --    1.45497   1.46396   1.46842   1.47996   1.48999
 Alpha virt. eigenvalues --    1.49651   1.50365   1.50884   1.51805   1.53011
 Alpha virt. eigenvalues --    1.54477   1.54876   1.55380   1.56422   1.57877
 Alpha virt. eigenvalues --    1.59475   1.60040   1.60825   1.61058   1.62461
 Alpha virt. eigenvalues --    1.64831   1.67011   1.67931   1.68338   1.69366
 Alpha virt. eigenvalues --    1.69672   1.69903   1.70411   1.70538   1.70732
 Alpha virt. eigenvalues --    1.71981   1.72152   1.72794   1.73229   1.73640
 Alpha virt. eigenvalues --    1.73813   1.74377   1.75481   1.76136   1.76737
 Alpha virt. eigenvalues --    1.77335   1.77668   1.78778   1.78835   1.79678
 Alpha virt. eigenvalues --    1.79937   1.80437   1.81738   1.82104   1.82382
 Alpha virt. eigenvalues --    1.82913   1.83328   1.84042   1.85113   1.85357
 Alpha virt. eigenvalues --    1.86116   1.86498   1.87583   1.89599   1.90064
 Alpha virt. eigenvalues --    1.90500   1.90842   1.91718   1.91946   1.92353
 Alpha virt. eigenvalues --    1.93330   1.93614   1.94788   1.95118   1.95656
 Alpha virt. eigenvalues --    1.96166   1.97037   1.97521   1.98513   1.98935
 Alpha virt. eigenvalues --    1.99684   2.00731   2.01331   2.02631   2.02959
 Alpha virt. eigenvalues --    2.03917   2.04310   2.05448   2.05697   2.06036
 Alpha virt. eigenvalues --    2.06161   2.07461   2.08561   2.08783   2.09746
 Alpha virt. eigenvalues --    2.10379   2.11007   2.12573   2.12690   2.13294
 Alpha virt. eigenvalues --    2.13800   2.14509   2.15293   2.15500   2.16399
 Alpha virt. eigenvalues --    2.17023   2.17380   2.17709   2.18136   2.18406
 Alpha virt. eigenvalues --    2.18957   2.19776   2.20029   2.20430   2.20692
 Alpha virt. eigenvalues --    2.21493   2.22032   2.23016   2.24298   2.24742
 Alpha virt. eigenvalues --    2.25231   2.25693   2.26104   2.27176   2.27482
 Alpha virt. eigenvalues --    2.27613   2.28001   2.28535   2.30107   2.30666
 Alpha virt. eigenvalues --    2.30761   2.31685   2.32090   2.32682   2.33182
 Alpha virt. eigenvalues --    2.33662   2.34529   2.35152   2.35273   2.37537
 Alpha virt. eigenvalues --    2.38117   2.38874   2.39807   2.41473   2.42079
 Alpha virt. eigenvalues --    2.42328   2.42850   2.43435   2.45123   2.45336
 Alpha virt. eigenvalues --    2.46161   2.46420   2.47011   2.48427   2.50003
 Alpha virt. eigenvalues --    2.50524   2.50879   2.52978   2.54883   2.56024
 Alpha virt. eigenvalues --    2.56377   2.57682   2.58215   2.59178   2.60329
 Alpha virt. eigenvalues --    2.61117   2.61604   2.63162   2.65286   2.66856
 Alpha virt. eigenvalues --    2.68048   2.69655   2.70316   2.71141   2.75548
 Alpha virt. eigenvalues --    2.75744   2.77390   2.77841   2.80168   2.80605
 Alpha virt. eigenvalues --    2.82482   2.84269   2.85563   2.85926   2.86748
 Alpha virt. eigenvalues --    2.87476   2.88226   2.88539   2.89481   2.93098
 Alpha virt. eigenvalues --    2.94322   2.94860   3.01565   3.03127   3.03989
 Alpha virt. eigenvalues --    3.10137   3.12270   3.13165   3.19821   3.20098
 Alpha virt. eigenvalues --    3.21648   3.28186   3.28950   3.29237   3.34024
 Alpha virt. eigenvalues --    3.35110   3.37023   3.40959   3.63739   3.80480
 Alpha virt. eigenvalues --    3.92343
  Beta  occ. eigenvalues -- -256.42269 -30.23924 -26.08578 -26.08345 -26.08316
  Beta  occ. eigenvalues --  -14.54864 -14.50299 -14.46947 -14.46715 -14.46562
  Beta  occ. eigenvalues --  -14.46309 -10.39099 -10.36057 -10.33852 -10.33725
  Beta  occ. eigenvalues --  -10.33601 -10.33580 -10.33570 -10.33494 -10.33492
  Beta  occ. eigenvalues --  -10.33402 -10.33233 -10.30965 -10.30823 -10.30575
  Beta  occ. eigenvalues --  -10.30530 -10.30513 -10.30510 -10.30507 -10.30475
  Beta  occ. eigenvalues --  -10.30368 -10.30207 -10.30141 -10.30129 -10.30116
  Beta  occ. eigenvalues --  -10.29617 -10.29313 -10.28571 -10.28491 -10.28344
  Beta  occ. eigenvalues --  -10.28304 -10.28286 -10.28181 -10.27994 -10.27972
  Beta  occ. eigenvalues --   -3.56397  -2.31876  -2.31248  -2.31225  -1.17430
  Beta  occ. eigenvalues --   -1.08876  -1.07852  -1.07729  -1.06695  -1.03206
  Beta  occ. eigenvalues --   -0.93597  -0.92339  -0.91890  -0.91521  -0.91252
  Beta  occ. eigenvalues --   -0.91064  -0.90795  -0.90675  -0.86803  -0.85523
  Beta  occ. eigenvalues --   -0.85286  -0.84358  -0.83035  -0.82729  -0.81277
  Beta  occ. eigenvalues --   -0.80311  -0.78650  -0.78454  -0.78139  -0.76564
  Beta  occ. eigenvalues --   -0.75126  -0.75094  -0.73013  -0.70766  -0.70055
  Beta  occ. eigenvalues --   -0.68817  -0.68053  -0.67496  -0.65153  -0.64354
  Beta  occ. eigenvalues --   -0.63677  -0.63371  -0.61835  -0.61778  -0.61279
  Beta  occ. eigenvalues --   -0.59497  -0.59242  -0.58582  -0.58275  -0.57893
  Beta  occ. eigenvalues --   -0.56017  -0.55115  -0.54857  -0.54594  -0.54379
  Beta  occ. eigenvalues --   -0.54026  -0.53974  -0.53702  -0.53516  -0.53217
  Beta  occ. eigenvalues --   -0.53031  -0.52576  -0.52459  -0.52209  -0.51983
  Beta  occ. eigenvalues --   -0.51910  -0.50797  -0.50587  -0.50519  -0.50312
  Beta  occ. eigenvalues --   -0.50124  -0.50039  -0.49626  -0.49540  -0.49338
  Beta  occ. eigenvalues --   -0.49012  -0.48675  -0.48434  -0.48084  -0.47832
  Beta  occ. eigenvalues --   -0.47613  -0.47340  -0.46984  -0.46640  -0.46204
  Beta  occ. eigenvalues --   -0.45701  -0.44801  -0.44635  -0.43738  -0.43444
  Beta  occ. eigenvalues --   -0.42831  -0.42506  -0.41838  -0.41603  -0.39623
  Beta  occ. eigenvalues --   -0.39071  -0.37397  -0.37342  -0.35372  -0.34431
  Beta  occ. eigenvalues --   -0.33502  -0.32921  -0.31973  -0.29741  -0.28577
  Beta virt. eigenvalues --   -0.21377  -0.21320  -0.20017  -0.17412  -0.16426
  Beta virt. eigenvalues --   -0.16368  -0.12209  -0.11483  -0.09254  -0.07878
  Beta virt. eigenvalues --   -0.06607  -0.05175  -0.04599  -0.02328  -0.01703
  Beta virt. eigenvalues --   -0.01276  -0.00701   0.00984   0.01197   0.01972
  Beta virt. eigenvalues --    0.02469   0.02775   0.03186   0.03845   0.03967
  Beta virt. eigenvalues --    0.04305   0.04675   0.04884   0.05046   0.05538
  Beta virt. eigenvalues --    0.05731   0.06122   0.06252   0.07046   0.07419
  Beta virt. eigenvalues --    0.07532   0.07552   0.08044   0.08451   0.08728
  Beta virt. eigenvalues --    0.08969   0.09085   0.09469   0.09614   0.10043
  Beta virt. eigenvalues --    0.10133   0.10532   0.10825   0.11360   0.11899
  Beta virt. eigenvalues --    0.12149   0.12307   0.12370   0.12722   0.12853
  Beta virt. eigenvalues --    0.13445   0.13848   0.14694   0.14986   0.15280
  Beta virt. eigenvalues --    0.15469   0.16010   0.16309   0.16419   0.16813
  Beta virt. eigenvalues --    0.17210   0.17749   0.18078   0.19503   0.19737
  Beta virt. eigenvalues --    0.20476   0.20833   0.21819   0.22276   0.22780
  Beta virt. eigenvalues --    0.23609   0.24477   0.25317   0.25636   0.26247
  Beta virt. eigenvalues --    0.26621   0.26678   0.27252   0.28759   0.29551
  Beta virt. eigenvalues --    0.30791   0.31578   0.31781   0.33076   0.33998
  Beta virt. eigenvalues --    0.34169   0.34425   0.34880   0.37444   0.37665
  Beta virt. eigenvalues --    0.38430   0.38745   0.39261   0.40013   0.40296
  Beta virt. eigenvalues --    0.40618   0.41165   0.41407   0.41964   0.42322
  Beta virt. eigenvalues --    0.42470   0.42652   0.43147   0.43505   0.43922
  Beta virt. eigenvalues --    0.44173   0.44595   0.44907   0.45239   0.45426
  Beta virt. eigenvalues --    0.46052   0.46726   0.47443   0.47620   0.47904
  Beta virt. eigenvalues --    0.47958   0.48555   0.49197   0.49705   0.49961
  Beta virt. eigenvalues --    0.50436   0.50852   0.50972   0.51534   0.52192
  Beta virt. eigenvalues --    0.52626   0.52978   0.53257   0.53560   0.54370
  Beta virt. eigenvalues --    0.54466   0.54792   0.55524   0.55724   0.55912
  Beta virt. eigenvalues --    0.56177   0.56646   0.56991   0.57364   0.57787
  Beta virt. eigenvalues --    0.57862   0.58162   0.58426   0.59433   0.59472
  Beta virt. eigenvalues --    0.60178   0.60924   0.61113   0.61677   0.62093
  Beta virt. eigenvalues --    0.62623   0.63305   0.63689   0.64233   0.64675
  Beta virt. eigenvalues --    0.65517   0.65875   0.66411   0.66739   0.66821
  Beta virt. eigenvalues --    0.67654   0.67866   0.67981   0.68258   0.68757
  Beta virt. eigenvalues --    0.69007   0.69217   0.69700   0.70382   0.70618
  Beta virt. eigenvalues --    0.70868   0.71097   0.71582   0.72454   0.73515
  Beta virt. eigenvalues --    0.73748   0.73993   0.74036   0.75773   0.76702
  Beta virt. eigenvalues --    0.77085   0.77440   0.77622   0.77921   0.78261
  Beta virt. eigenvalues --    0.78735   0.78827   0.79100   0.79772   0.80038
  Beta virt. eigenvalues --    0.80912   0.81475   0.81707   0.82127   0.82564
  Beta virt. eigenvalues --    0.82854   0.83192   0.83384   0.83576   0.83678
  Beta virt. eigenvalues --    0.84032   0.84585   0.84684   0.85048   0.85511
  Beta virt. eigenvalues --    0.85875   0.86545   0.86862   0.87306   0.87916
  Beta virt. eigenvalues --    0.88170   0.88329   0.89272   0.89820   0.90360
  Beta virt. eigenvalues --    0.90725   0.90832   0.91175   0.91321   0.91732
  Beta virt. eigenvalues --    0.92659   0.92851   0.93231   0.93837   0.94268
  Beta virt. eigenvalues --    0.95111   0.95367   0.95630   0.96200   0.96362
  Beta virt. eigenvalues --    0.97681   0.97748   0.98556   0.99196   1.01366
  Beta virt. eigenvalues --    1.01575   1.02679   1.03449   1.04754   1.05304
  Beta virt. eigenvalues --    1.06368   1.06569   1.07032   1.07472   1.07608
  Beta virt. eigenvalues --    1.08202   1.08578   1.09356   1.09788   1.10184
  Beta virt. eigenvalues --    1.11071   1.11358   1.11720   1.12594   1.12898
  Beta virt. eigenvalues --    1.13345   1.14745   1.14949   1.17317   1.18077
  Beta virt. eigenvalues --    1.18457   1.19584   1.19924   1.20136   1.20468
  Beta virt. eigenvalues --    1.21453   1.22212   1.22343   1.22944   1.23292
  Beta virt. eigenvalues --    1.23900   1.25532   1.25818   1.26061   1.26526
  Beta virt. eigenvalues --    1.27423   1.27590   1.27796   1.28371   1.28840
  Beta virt. eigenvalues --    1.29261   1.30347   1.30880   1.31953   1.32629
  Beta virt. eigenvalues --    1.33473   1.34049   1.34455   1.35861   1.36294
  Beta virt. eigenvalues --    1.37488   1.38609   1.39048   1.39223   1.41085
  Beta virt. eigenvalues --    1.41254   1.43193   1.43949   1.44456   1.44816
  Beta virt. eigenvalues --    1.45770   1.46648   1.47431   1.48493   1.49206
  Beta virt. eigenvalues --    1.49955   1.50947   1.51299   1.52037   1.53302
  Beta virt. eigenvalues --    1.54739   1.55358   1.55914   1.57020   1.58342
  Beta virt. eigenvalues --    1.59640   1.60261   1.60964   1.61282   1.62679
  Beta virt. eigenvalues --    1.65040   1.67706   1.68274   1.69001   1.69609
  Beta virt. eigenvalues --    1.69796   1.70072   1.70621   1.70643   1.70974
  Beta virt. eigenvalues --    1.72235   1.72413   1.73063   1.73445   1.73814
  Beta virt. eigenvalues --    1.74088   1.74682   1.75778   1.76392   1.76873
  Beta virt. eigenvalues --    1.77504   1.77810   1.78932   1.79251   1.79896
  Beta virt. eigenvalues --    1.80103   1.80924   1.82069   1.82370   1.82753
  Beta virt. eigenvalues --    1.83202   1.83870   1.84279   1.85407   1.85632
  Beta virt. eigenvalues --    1.86633   1.88029   1.88656   1.89777   1.90235
  Beta virt. eigenvalues --    1.90635   1.90959   1.91940   1.92217   1.92871
  Beta virt. eigenvalues --    1.93541   1.93815   1.95358   1.95640   1.96090
  Beta virt. eigenvalues --    1.96351   1.97279   1.97922   1.98687   1.99287
  Beta virt. eigenvalues --    2.00116   2.01093   2.01546   2.03131   2.03645
  Beta virt. eigenvalues --    2.04035   2.05501   2.05836   2.06232   2.06442
  Beta virt. eigenvalues --    2.06973   2.07967   2.08830   2.09975   2.10401
  Beta virt. eigenvalues --    2.10951   2.12148   2.13122   2.13379   2.13985
  Beta virt. eigenvalues --    2.14803   2.15540   2.15606   2.16192   2.16622
  Beta virt. eigenvalues --    2.17220   2.17672   2.17876   2.18601   2.19034
  Beta virt. eigenvalues --    2.19450   2.20096   2.20485   2.20668   2.21007
  Beta virt. eigenvalues --    2.21774   2.22490   2.23170   2.24519   2.24869
  Beta virt. eigenvalues --    2.25498   2.25851   2.26224   2.27323   2.27666
  Beta virt. eigenvalues --    2.27860   2.28270   2.28781   2.30216   2.30792
  Beta virt. eigenvalues --    2.30970   2.31803   2.32371   2.32879   2.33300
  Beta virt. eigenvalues --    2.33757   2.34687   2.35283   2.35686   2.37630
  Beta virt. eigenvalues --    2.38538   2.39567   2.40254   2.41725   2.42395
  Beta virt. eigenvalues --    2.42507   2.43056   2.43569   2.45387   2.45585
  Beta virt. eigenvalues --    2.46323   2.46552   2.47172   2.48830   2.50179
  Beta virt. eigenvalues --    2.50859   2.51097   2.53120   2.55012   2.56360
  Beta virt. eigenvalues --    2.56547   2.58049   2.58520   2.59442   2.60532
  Beta virt. eigenvalues --    2.61402   2.61857   2.63516   2.65499   2.67456
  Beta virt. eigenvalues --    2.68189   2.69737   2.70484   2.71202   2.75843
  Beta virt. eigenvalues --    2.75952   2.77644   2.78037   2.80391   2.80886
  Beta virt. eigenvalues --    2.82745   2.84468   2.85795   2.86677   2.87170
  Beta virt. eigenvalues --    2.87797   2.88505   2.88825   2.89650   2.93561
  Beta virt. eigenvalues --    2.94538   2.95044   3.01808   3.03387   3.04082
  Beta virt. eigenvalues --    3.10275   3.12739   3.13423   3.19963   3.20172
  Beta virt. eigenvalues --    3.28274   3.29166   3.29792   3.30868   3.35580
  Beta virt. eigenvalues --    3.35799   3.48784   3.53461   3.75746   3.91460
  Beta virt. eigenvalues --    4.02990
          Condensed to atoms (all electrons):
          Atomic-Atomic Spin Densities.
 Mulliken charges and spin densities:
               1          2
     1  Fe   1.177972   4.264427
     2  N   -0.756432   0.102989
     3  N   -0.729274   0.094462
     4  N   -0.748168   0.092759
     5  N   -0.785611   0.101735
     6  C    0.333411   0.004966
     7  C    0.044356   0.016844
     8  C    0.039992   0.025388
     9  C    0.326615  -0.002216
    10  C    0.321935  -0.001085
    11  C    0.045145   0.016978
    12  C    0.041341   0.016841
    13  C    0.334433  -0.002968
    14  C    0.334268  -0.003502
    15  C    0.008480   0.021563
    16  C    0.049953   0.018427
    17  C    0.324652   0.000095
    18  C    0.332634  -0.002424
    19  C    0.016959   0.029009
    20  C    0.044088   0.020306
    21  C    0.331032   0.004455
    22  C   -0.285841   0.007129
    23  H    0.192927  -0.000134
    24  C   -0.315775   0.012925
    25  H    0.192897  -0.000397
    26  C   -0.290397   0.015245
    27  H    0.192915  -0.000527
    28  C   -0.301997   0.011853
    29  H    0.194904  -0.000297
    30  C   -0.612557  -0.000626
    31  H    0.211526   0.000818
    32  H    0.201323   0.000740
    33  H    0.204379   0.000395
    34  C   -0.611187  -0.001236
    35  H    0.197839   0.001144
    36  H    0.210935   0.001017
    37  H    0.205371   0.000443
    38  C   -0.617060  -0.000927
    39  H    0.212595   0.000450
    40  H    0.196164   0.000710
    41  H    0.211555   0.001238
    42  C   -0.152791  -0.009676
    43  H    0.178165   0.000823
    44  C   -0.386906   0.017602
    45  H    0.191722  -0.000861
    46  H    0.196092  -0.000705
    47  C   -0.615576  -0.000781
    48  H    0.194521   0.000734
    49  H    0.211721   0.001031
    50  H    0.212450   0.000362
    51  C   -0.153811  -0.006010
    52  H    0.181271   0.000616
    53  C   -0.387893   0.010965
    54  H    0.191013  -0.000539
    55  H    0.194747  -0.000349
    56  C   -0.614133  -0.000661
    57  H    0.201892   0.000708
    58  H    0.211954   0.000749
    59  H    0.203654   0.000383
    60  C   -0.611734  -0.000625
    61  H    0.205178   0.000363
    62  H    0.210081   0.000692
    63  H    0.196938   0.000753
    64  C   -0.602943   0.000833
    65  H    0.215500   0.000239
    66  H    0.223940   0.000041
    67  H    0.217376   0.000258
    68  N   -0.626293   0.005867
    69  H    0.389740   0.001325
    70  C    0.285854   0.006050
    71  C    0.267894   0.009442
    72  H    0.237746   0.000104
    73  N   -0.523037   0.092479
    74  C   -0.038514  -0.002260
    75  H    0.215881   0.001033
 Sum of Mulliken charges =   1.00000   5.00000
 Mulliken charges and spin densities with hydrogens summed into heavy atoms:
               1          2
     1  Fe   1.177972   4.264427
     2  N   -0.756432   0.102989
     3  N   -0.729274   0.094462
     4  N   -0.748168   0.092759
     5  N   -0.785611   0.101735
     6  C    0.333411   0.004966
     7  C    0.044356   0.016844
     8  C    0.039992   0.025388
     9  C    0.326615  -0.002216
    10  C    0.321935  -0.001085
    11  C    0.045145   0.016978
    12  C    0.041341   0.016841
    13  C    0.334433  -0.002968
    14  C    0.334268  -0.003502
    15  C    0.008480   0.021563
    16  C    0.049953   0.018427
    17  C    0.324652   0.000095
    18  C    0.332634  -0.002424
    19  C    0.016959   0.029009
    20  C    0.044088   0.020306
    21  C    0.331032   0.004455
    22  C   -0.092914   0.006996
    24  C   -0.122878   0.012528
    26  C   -0.097482   0.014718
    28  C   -0.107093   0.011556
    30  C    0.004671   0.001326
    34  C    0.002958   0.001368
    38  C    0.003254   0.001472
    42  C    0.025374  -0.008853
    44  C    0.000909   0.016036
    47  C    0.003116   0.001346
    51  C    0.027459  -0.005394
    53  C   -0.002134   0.010078
    56  C    0.003367   0.001179
    60  C    0.000463   0.001183
    64  C    0.053873   0.001372
    68  N   -0.236553   0.007191
    70  C    0.285854   0.006050
    71  C    0.505640   0.009546
    73  N   -0.523037   0.092479
    74  C    0.177367  -0.001227
 Electronic spatial extent (au):  <R**2>=          19856.0143
 Charge=              1.0000 electrons
 Dipole moment (field-independent basis, Debye):
    X=              1.3300    Y=             -2.0328    Z=              5.8806  Tot=              6.3626
 Quadrupole moment (field-independent basis, Debye-Ang):
   XX=           -171.9641   YY=           -176.3870   ZZ=           -203.0940
   XY=             -3.5628   XZ=              6.3968   YZ=             -5.1800
 Traceless Quadrupole moment (field-independent basis, Debye-Ang):
   XX=             11.8510   YY=              7.4280   ZZ=            -19.2790
   XY=             -3.5628   XZ=              6.3968   YZ=             -5.1800
 Octapole moment (field-independent basis, Debye-Ang**2):
  XXX=             -2.9950  YYY=             18.4456  ZZZ=            223.9706  XYY=             18.5624
  XXY=            -11.9937  XXZ=            -33.5748  XZZ=             16.6780  YZZ=            -45.2561
  YYZ=            -55.1361  XYZ=            -11.8662
 Hexadecapole moment (field-independent basis, Debye-Ang**3):
 XXXX=          -9777.3786 YYYY=          -9699.6546 ZZZZ=          -2503.3063 XXXY=            108.0216
 XXXZ=            106.3020 YYYX=            -76.0864 YYYZ=            -78.1466 ZZZX=             71.3037
 ZZZY=           -173.4049 XXYY=          -3402.8520 XXZZ=          -2452.3005 YYZZ=          -2451.2159
 XXYZ=             54.6794 YYXZ=             79.0564 ZZXY=            -69.6317
 N-N= 5.550908739872D+03 E-N=-1.789510358799D+04  KE= 2.896724627511D+03
                          Isotropic Fermi Contact Couplings
        Atom                 a.u.       MegaHertz       Gauss      10(-4) cm-1
     1  Fe(57)             0.56212      16.30597       5.81837       5.43909
     2  N(14)              0.13289       8.58777       3.06433       2.86457
     3  N(14)              0.13649       8.81987       3.14715       2.94199
     4  N(14)              0.13164       8.50679       3.03543       2.83756
     5  N(14)              0.12346       7.97824       2.84683       2.66125
     6  C(13)              0.00479       1.07680       0.38423       0.35918
     7  C(13)              0.00544       1.22285       0.43634       0.40790
     8  C(13)              0.00677       1.52111       0.54277       0.50739
     9  C(13)              0.00495       1.11368       0.39739       0.37148
    10  C(13)              0.00394       0.88525       0.31588       0.29529
    11  C(13)              0.00531       1.19337       0.42582       0.39806
    12  C(13)              0.00543       1.21996       0.43531       0.40694
    13  C(13)              0.00370       0.83179       0.29680       0.27746
    14  C(13)              0.00469       1.05529       0.37655       0.35201
    15  C(13)              0.00606       1.36322       0.48643       0.45472
    16  C(13)              0.00539       1.21103       0.43213       0.40396
    17  C(13)              0.00363       0.81671       0.29142       0.27243
    18  C(13)              0.00486       1.09333       0.39013       0.36470
    19  C(13)              0.00728       1.63676       0.58404       0.54596
    20  C(13)              0.00577       1.29842       0.46331       0.43310
    21  C(13)              0.00516       1.15945       0.41372       0.38675
    22  C(13)             -0.00007      -0.01581      -0.00564      -0.00527
    23  H(1)              -0.00004      -0.03385      -0.01208      -0.01129
    24  C(13)              0.00130       0.29157       0.10404       0.09726
    25  H(1)              -0.00012      -0.10899      -0.03889      -0.03635
    26  C(13)              0.00166       0.37256       0.13294       0.12427
    27  H(1)              -0.00016      -0.14515      -0.05179      -0.04842
    28  C(13)              0.00113       0.25501       0.09099       0.08506
    29  H(1)              -0.00009      -0.08029      -0.02865      -0.02678
    30  C(13)             -0.00011      -0.02565      -0.00915      -0.00856
    31  H(1)               0.00042       0.37835       0.13500       0.12620
    32  H(1)               0.00040       0.35518       0.12674       0.11848
    33  H(1)               0.00016       0.13871       0.04950       0.04627
    34  C(13)             -0.00027      -0.06160      -0.02198      -0.02055
    35  H(1)               0.00061       0.54158       0.19325       0.18065
    36  H(1)               0.00054       0.48082       0.17157       0.16038
    37  H(1)               0.00017       0.15636       0.05579       0.05216
    38  C(13)             -0.00021      -0.04825      -0.01722      -0.01610
    39  H(1)               0.00015       0.13706       0.04890       0.04572
    40  H(1)               0.00035       0.31455       0.11224       0.10492
    41  H(1)               0.00065       0.58535       0.20887       0.19525
    42  C(13)             -0.00153      -0.34404      -0.12276      -0.11476
    43  H(1)               0.00032       0.28737       0.10254       0.09586
    44  C(13)              0.00275       0.61796       0.22050       0.20613
    45  H(1)              -0.00026      -0.23431      -0.08361      -0.07816
    46  H(1)              -0.00021      -0.18403      -0.06567      -0.06139
    47  C(13)             -0.00017      -0.03807      -0.01359      -0.01270
    48  H(1)               0.00035       0.30938       0.11039       0.10320
    49  H(1)               0.00054       0.47900       0.17092       0.15978
    50  H(1)               0.00012       0.10591       0.03779       0.03533
    51  C(13)             -0.00090      -0.20331      -0.07255      -0.06782
    52  H(1)               0.00024       0.21764       0.07766       0.07260
    53  C(13)              0.00192       0.43103       0.15380       0.14378
    54  H(1)              -0.00016      -0.14379      -0.05131      -0.04796
    55  H(1)              -0.00010      -0.08616      -0.03075      -0.02874
    56  C(13)             -0.00008      -0.01799      -0.00642      -0.00600
    57  H(1)               0.00036       0.31761       0.11333       0.10594
    58  H(1)               0.00038       0.34118       0.12174       0.11380
    59  H(1)               0.00015       0.12994       0.04637       0.04334
    60  C(13)             -0.00008      -0.01711      -0.00611      -0.00571
    61  H(1)               0.00014       0.12518       0.04467       0.04176
    62  H(1)               0.00036       0.32019       0.11425       0.10680
    63  H(1)               0.00039       0.35218       0.12567       0.11748
    64  C(13)              0.00050       0.11208       0.03999       0.03739
    65  H(1)               0.00014       0.12843       0.04583       0.04284
    66  H(1)               0.00004       0.03708       0.01323       0.01237
    67  H(1)               0.00015       0.13342       0.04761       0.04451
    68  N(14)              0.00827       0.53471       0.19080       0.17836
    69  H(1)               0.00054       0.48665       0.17365       0.16233
    70  C(13)              0.00445       1.00118       0.35725       0.33396
    71  C(13)              0.00767       1.72412       0.61521       0.57510
    72  H(1)               0.00011       0.09693       0.03459       0.03233
    73  N(14)              0.16294      10.52930       3.75712       3.51220
    74  C(13)              0.00151       0.33969       0.12121       0.11331
    75  H(1)               0.00041       0.36608       0.13063       0.12211
 --------------------------------------------------------
       Center         ----  Spin Dipole Couplings  ----
                      3XX-RR        3YY-RR        3ZZ-RR
 --------------------------------------------------------
     1   Atom        0.067489      0.118504     -0.185994
     2   Atom       -0.147221      0.181652     -0.034430
     3   Atom        0.188497     -0.133255     -0.055241
     4   Atom       -0.141112      0.193608     -0.052497
     5   Atom        0.193094     -0.155750     -0.037343
     6   Atom       -0.028366      0.052742     -0.024376
     7   Atom       -0.015824      0.012515      0.003310
     8   Atom       -0.015976      0.005229      0.010747
     9   Atom        0.021562      0.009445     -0.031008
    10   Atom        0.052554     -0.022793     -0.029761
    11   Atom        0.011745     -0.014212      0.002467
    12   Atom        0.008642     -0.011479      0.002837
    13   Atom        0.012288      0.019272     -0.031560
    14   Atom       -0.021229      0.053057     -0.031829
    15   Atom       -0.017632      0.009923      0.007709
    16   Atom       -0.013302      0.007625      0.005677
    17   Atom        0.015131      0.014446     -0.029576
    18   Atom        0.057922     -0.023675     -0.034246
    19   Atom        0.007876     -0.021606      0.013730
    20   Atom        0.007660     -0.014839      0.007179
    21   Atom        0.010899      0.016477     -0.027376
    22   Atom       -0.008253      0.021713     -0.013459
    23   Atom       -0.003382      0.011565     -0.008183
    24   Atom        0.018886     -0.011921     -0.006965
    25   Atom        0.011588     -0.003828     -0.007760
    26   Atom       -0.011013      0.016702     -0.005690
    27   Atom       -0.003221      0.011208     -0.007987
    28   Atom        0.018388     -0.008544     -0.009844
    29   Atom        0.011283     -0.002908     -0.008375
    30   Atom       -0.004934      0.009284     -0.004350
    31   Atom       -0.003447      0.006358     -0.002911
    32   Atom       -0.003669      0.007739     -0.004070
    33   Atom       -0.002726      0.005853     -0.003127
    34   Atom        0.000942      0.003140     -0.004082
    35   Atom        0.001944      0.001950     -0.003894
    36   Atom        0.001603      0.001289     -0.002892
    37   Atom       -0.000600      0.003661     -0.003061
    38   Atom        0.003696      0.000934     -0.004630
    39   Atom        0.003954     -0.000557     -0.003397
    40   Atom        0.001723      0.002660     -0.004383
    41   Atom        0.002187      0.000625     -0.002812
    42   Atom        0.013232     -0.004655     -0.008577
    43   Atom        0.007901     -0.003611     -0.004289
    44   Atom       -0.001305     -0.002870      0.004175
    45   Atom        0.003148     -0.001200     -0.001948
    46   Atom        0.004232     -0.002113     -0.002119
    47   Atom        0.000658      0.003710     -0.004369
    48   Atom        0.002130      0.001909     -0.004038
    49   Atom        0.000586      0.002249     -0.002835
    50   Atom       -0.000668      0.003843     -0.003175
    51   Atom       -0.004875      0.010991     -0.006116
    52   Atom       -0.003358      0.007266     -0.003908
    53   Atom       -0.001761      0.001770     -0.000009
    54   Atom       -0.001556      0.003436     -0.001879
    55   Atom       -0.001870      0.003827     -0.001957
    56   Atom        0.003392      0.000899     -0.004292
    57   Atom        0.001996      0.001541     -0.003537
    58   Atom        0.001725      0.001589     -0.003314
    59   Atom        0.003609     -0.000574     -0.003035
    60   Atom        0.008789     -0.004610     -0.004179
    61   Atom        0.005569     -0.002559     -0.003010
    62   Atom        0.006327     -0.003408     -0.002919
    63   Atom        0.007180     -0.003379     -0.003800
    64   Atom       -0.004197     -0.004979      0.009176
    65   Atom       -0.002716     -0.002811      0.005527
    66   Atom       -0.002007     -0.003810      0.005817
    67   Atom       -0.003073     -0.003060      0.006132
    68   Atom       -0.013682     -0.006556      0.020239
    69   Atom       -0.004424     -0.004937      0.009361
    70   Atom       -0.011198     -0.009711      0.020909
    71   Atom       -0.011498     -0.014872      0.026370
    72   Atom        0.002320     -0.011021      0.008701
    73   Atom       -0.172493     -0.144123      0.316616
    74   Atom       -0.014013     -0.031897      0.045909
    75   Atom        0.000287     -0.019028      0.018741
 --------------------------------------------------------
                        XY            XZ            YZ
 --------------------------------------------------------
     1   Atom        0.022530      0.022434      0.055564
     2   Atom       -0.140360     -0.021621      0.057125
     3   Atom        0.136735     -0.023587     -0.020903
     4   Atom       -0.126435     -0.000224     -0.018065
     5   Atom        0.132502      0.039746      0.007388
     6   Atom        0.011444      0.000828      0.016185
     7   Atom       -0.008631     -0.000920      0.004416
     8   Atom       -0.012322     -0.000836      0.003219
     9   Atom       -0.040909     -0.010306      0.010798
    10   Atom       -0.009062     -0.009267      0.000892
    11   Atom        0.008097     -0.003580     -0.004379
    12   Atom        0.011822     -0.001823     -0.002425
    13   Atom        0.039034     -0.005075     -0.004219
    14   Atom        0.012634     -0.000788     -0.004759
    15   Atom       -0.007042      0.000185     -0.002379
    16   Atom       -0.011591     -0.000108     -0.003806
    17   Atom       -0.040282      0.004638     -0.004238
    18   Atom       -0.015572      0.009190     -0.001318
    19   Atom        0.007961      0.001937     -0.000843
    20   Atom        0.012473      0.006171      0.000682
    21   Atom        0.043628      0.009405      0.007012
    22   Atom        0.018679      0.003810      0.008268
    23   Atom        0.009328      0.001731      0.003694
    24   Atom       -0.016288     -0.006964      0.002477
    25   Atom       -0.008690     -0.002968      0.001372
    26   Atom        0.017801     -0.000408     -0.002038
    27   Atom        0.009266     -0.000159     -0.000369
    28   Atom       -0.019637      0.003684     -0.002141
    29   Atom       -0.009748      0.001519     -0.000731
    30   Atom        0.000127     -0.000057      0.001752
    31   Atom        0.000871      0.000451      0.003148
    32   Atom        0.001050     -0.000274     -0.000500
    33   Atom       -0.001375     -0.000170      0.001026
    34   Atom       -0.006944     -0.001073      0.001394
    35   Atom       -0.005630      0.000559     -0.000201
    36   Atom       -0.004909     -0.002387      0.002060
    37   Atom       -0.003947     -0.000599      0.001020
    38   Atom        0.007092      0.001097      0.000591
    39   Atom        0.004080     -0.000057     -0.000100
    40   Atom        0.005967     -0.000264     -0.000517
    41   Atom        0.004783      0.001963      0.001910
    42   Atom       -0.001408      0.003164      0.005044
    43   Atom       -0.001582     -0.000266      0.000173
    44   Atom        0.004418     -0.003773     -0.010895
    45   Atom        0.001528      0.001504      0.000955
    46   Atom       -0.000536      0.000367     -0.000378
    47   Atom       -0.006655      0.000630     -0.000982
    48   Atom       -0.005564     -0.000576      0.000395
    49   Atom       -0.004750      0.001855     -0.001894
    50   Atom       -0.003780      0.000042     -0.000114
    51   Atom        0.001311      0.003077     -0.002640
    52   Atom        0.001390      0.000166      0.000464
    53   Atom       -0.004017     -0.006587      0.002298
    54   Atom       -0.001444      0.000794     -0.001681
    55   Atom        0.000263     -0.000260     -0.000599
    56   Atom        0.006613     -0.000209     -0.000161
    57   Atom        0.005271      0.001029      0.001244
    58   Atom        0.005004     -0.001301     -0.001486
    59   Atom        0.003759     -0.000180     -0.000083
    60   Atom        0.000099     -0.001267     -0.000096
    61   Atom        0.001397     -0.000539     -0.000055
    62   Atom       -0.000460     -0.002708      0.000333
    63   Atom       -0.001012      0.000742     -0.000214
    64   Atom       -0.000035     -0.003285      0.000112
    65   Atom        0.000358     -0.002081     -0.001489
    66   Atom       -0.000518     -0.004040      0.000922
    67   Atom       -0.000025     -0.000865      0.001088
    68   Atom        0.004081      0.004537     -0.005534
    69   Atom       -0.001438      0.004658     -0.004209
    70   Atom        0.001277     -0.002293     -0.002279
    71   Atom       -0.008766      0.029600     -0.021510
    72   Atom       -0.015093      0.024378     -0.016143
    73   Atom        0.013130      0.011218     -0.059303
    74   Atom       -0.006817     -0.030685      0.005665
    75   Atom       -0.007822     -0.028564      0.009798
 --------------------------------------------------------


 ---------------------------------------------------------------------------------
              Anisotropic Spin Dipole Couplings in Principal Axis System
 ---------------------------------------------------------------------------------

       Atom             a.u.   MegaHertz   Gauss  10(-4) cm-1        Axes

              Baa    -0.1971    -3.412    -1.217    -1.138 -0.0691 -0.1682  0.9833
     1 Fe(57) Bbb     0.0590     1.021     0.364     0.341  0.9339 -0.3575  0.0044
              Bcc     0.1381     2.391     0.853     0.798  0.3508  0.9186  0.1818
 
              Baa    -0.1990    -7.674    -2.738    -2.560  0.9384  0.3455  0.0033
     2 N(14)  Bbb    -0.0477    -1.840    -0.656    -0.614  0.0703 -0.2004  0.9772
              Bcc     0.2467     9.514     3.395     3.174 -0.3383  0.9168  0.2123
 
              Baa    -0.1845    -7.118    -2.540    -2.374 -0.3377  0.9369  0.0899
     3 N(14)  Bbb    -0.0571    -2.203    -0.786    -0.735  0.1233 -0.0506  0.9911
              Bcc     0.2417     9.320     3.326     3.109  0.9331  0.3458 -0.0985
 
              Baa    -0.1838    -7.088    -2.529    -2.364  0.9466  0.3193  0.0456
     4 N(14)  Bbb    -0.0532    -2.053    -0.733    -0.685 -0.0619  0.0413  0.9972
              Bcc     0.2370     9.141     3.262     3.049 -0.3165  0.9468 -0.0588
 
              Baa    -0.2006    -7.736    -2.760    -2.580 -0.3220  0.9461  0.0356
     5 N(14)  Bbb    -0.0428    -1.653    -0.590    -0.551 -0.1224 -0.0789  0.9893
              Bcc     0.2434     9.388     3.350     3.132  0.9388  0.3142  0.1412
 
              Baa    -0.0306    -4.103    -1.464    -1.369  0.8910 -0.2014  0.4069
     6 C(13)  Bbb    -0.0269    -3.614    -1.290    -1.206 -0.4346 -0.1189  0.8928
              Bcc     0.0575     7.717     2.754     2.574  0.1314  0.9723  0.1935
 
              Baa    -0.0183    -2.449    -0.874    -0.817  0.9622  0.2720 -0.0147
     7 C(13)  Bbb     0.0018     0.238     0.085     0.079  0.1014 -0.3076  0.9461
              Bcc     0.0165     2.211     0.789     0.737 -0.2529  0.9118  0.3235
 
              Baa    -0.0216    -2.904    -1.036    -0.969  0.9080  0.4186 -0.0182
     8 C(13)  Bbb     0.0075     1.012     0.361     0.338  0.3050 -0.6306  0.7137
              Bcc     0.0141     1.891     0.675     0.631 -0.2873  0.6535  0.7003
 
              Baa    -0.0337    -4.524    -1.614    -1.509  0.0041 -0.2390  0.9710
     9 C(13)  Bbb    -0.0256    -3.434    -1.226    -1.146  0.6667  0.7244  0.1755
              Bcc     0.0593     7.958     2.840     2.655  0.7453 -0.6467 -0.1624
 
              Baa    -0.0308    -4.132    -1.474    -1.378  0.1122  0.0164  0.9935
    10 C(13)  Bbb    -0.0239    -3.202    -1.143    -1.068  0.1142  0.9930 -0.0293
              Bcc     0.0547     7.334     2.617     2.446  0.9871 -0.1168 -0.1096
 
              Baa    -0.0171    -2.292    -0.818    -0.765 -0.2471  0.9542  0.1685
    11 C(13)  Bbb     0.0014     0.181     0.065     0.060  0.3714 -0.0674  0.9260
              Bcc     0.0157     2.111     0.753     0.704  0.8950  0.2914 -0.3377
 
              Baa    -0.0170    -2.288    -0.816    -0.763 -0.4127  0.9080  0.0729
    12 C(13)  Bbb     0.0023     0.314     0.112     0.105  0.2309  0.0268  0.9726
              Bcc     0.0147     1.974     0.704     0.658  0.8811  0.4182 -0.2207
 
              Baa    -0.0321    -4.313    -1.539    -1.439  0.1255 -0.0139  0.9920
    13 C(13)  Bbb    -0.0233    -3.129    -1.117    -1.044  0.7284 -0.6776 -0.1016
              Bcc     0.0555     7.442     2.656     2.482  0.6736  0.7353 -0.0749
 
              Baa    -0.0321    -4.307    -1.537    -1.437  0.0091  0.0544  0.9985
    14 C(13)  Bbb    -0.0233    -3.129    -1.117    -1.044  0.9866 -0.1632 -0.0001
              Bcc     0.0554     7.436     2.653     2.480  0.1629  0.9851 -0.0552
 
              Baa    -0.0193    -2.594    -0.926    -0.865  0.9719  0.2351  0.0140
    15 C(13)  Bbb     0.0066     0.886     0.316     0.296 -0.1124  0.4105  0.9049
              Bcc     0.0127     1.708     0.609     0.570 -0.2070  0.8810 -0.4254
 
              Baa    -0.0186    -2.492    -0.889    -0.831  0.9086  0.4121  0.0687
    16 C(13)  Bbb     0.0044     0.589     0.210     0.196 -0.2143  0.3185  0.9234
              Bcc     0.0142     1.903     0.679     0.635 -0.3586  0.8537 -0.3777
 
              Baa    -0.0301    -4.033    -1.439    -1.345 -0.0915  0.0120  0.9957
    17 C(13)  Bbb    -0.0255    -3.419    -1.220    -1.141  0.6999  0.7121  0.0557
              Bcc     0.0555     7.452     2.659     2.486  0.7083 -0.7020  0.0736
 
              Baa    -0.0352    -4.718    -1.683    -1.574 -0.1023 -0.0245  0.9945
    18 C(13)  Bbb    -0.0265    -3.560    -1.270    -1.188  0.1767  0.9833  0.0424
              Bcc     0.0617     8.278     2.954     2.761  0.9789 -0.1801  0.0962
 
              Baa    -0.0237    -3.175    -1.133    -1.059 -0.2466  0.9685  0.0346
    19 C(13)  Bbb     0.0093     1.244     0.444     0.415  0.9057  0.2430 -0.3473
              Bcc     0.0144     1.932     0.689     0.644  0.3448  0.0543  0.9371
 
              Baa    -0.0205    -2.754    -0.983    -0.918 -0.4166  0.9064  0.0705
    20 C(13)  Bbb     0.0037     0.491     0.175     0.164 -0.4532 -0.2743  0.8481
              Bcc     0.0169     2.262     0.807     0.755  0.7880  0.3214  0.5251
 
              Baa    -0.0316    -4.240    -1.513    -1.414  0.6328 -0.4865 -0.6024
    21 C(13)  Bbb    -0.0274    -3.671    -1.310    -1.225  0.3697 -0.4938  0.7871
              Bcc     0.0590     7.911     2.823     2.639  0.6804  0.7208  0.1327
 
              Baa    -0.0172    -2.312    -0.825    -0.771  0.8937 -0.4434  0.0692
    22 C(13)  Bbb    -0.0153    -2.047    -0.730    -0.683 -0.1474 -0.1443  0.9785
              Bcc     0.0325     4.358     1.555     1.454  0.4239  0.8846  0.1944
 
              Baa    -0.0089    -4.723    -1.685    -1.576 -0.0349 -0.1625  0.9861
    23 H(1)   Bbb    -0.0079    -4.194    -1.496    -1.399  0.9036 -0.4267 -0.0383
              Bcc     0.0167     8.917     3.182     2.974  0.4270  0.8897  0.1617
 
              Baa    -0.0190    -2.544    -0.908    -0.849  0.4018  0.9146  0.0444
    24 C(13)  Bbb    -0.0085    -1.144    -0.408    -0.381  0.1744 -0.1241  0.9768
              Bcc     0.0275     3.688     1.316     1.230  0.8989 -0.3848 -0.2094
 
              Baa    -0.0082    -4.382    -1.564    -1.462  0.0952 -0.1205  0.9881
    25 H(1)   Bbb    -0.0077    -4.126    -1.472    -1.376  0.4181  0.9057  0.0702
              Bcc     0.0159     8.509     3.036     2.838  0.9034 -0.4065 -0.1366
 
              Baa    -0.0197    -2.648    -0.945    -0.883  0.8970 -0.4404 -0.0378
    26 C(13)  Bbb    -0.0058    -0.778    -0.278    -0.260  0.0622  0.0411  0.9972
              Bcc     0.0255     3.426     1.223     1.143  0.4376  0.8969 -0.0643
 
              Baa    -0.0080    -4.266    -1.522    -1.423 -0.0640  0.0500  0.9967
    27 H(1)   Bbb    -0.0077    -4.134    -1.475    -1.379  0.8962 -0.4365  0.0795
              Bcc     0.0157     8.400     2.997     2.802  0.4390  0.8983 -0.0169
 
              Baa    -0.0189    -2.535    -0.905    -0.846  0.4644  0.8854  0.0205
    28 C(13)  Bbb    -0.0103    -1.383    -0.493    -0.461 -0.1055  0.0323  0.9939
              Bcc     0.0292     3.918     1.398     1.307  0.8793 -0.4637  0.1084
 
              Baa    -0.0085    -4.531    -1.617    -1.511 -0.0880 -0.0234  0.9958
    29 H(1)   Bbb    -0.0079    -4.197    -1.498    -1.400  0.4490  0.8915  0.0606
              Bcc     0.0164     8.729     3.115     2.912  0.8892 -0.4524  0.0680
 
              Baa    -0.0049    -0.664    -0.237    -0.222  0.9819 -0.0317  0.1867
    30 C(13)  Bbb    -0.0046    -0.612    -0.218    -0.204 -0.1892 -0.1216  0.9744
              Bcc     0.0095     1.276     0.455     0.426  0.0082  0.9921  0.1254
 
              Baa    -0.0040    -2.108    -0.752    -0.703 -0.3836 -0.2399  0.8918
    31 H(1)   Bbb    -0.0035    -1.846    -0.659    -0.616  0.9193 -0.1918  0.3438
              Bcc     0.0074     3.954     1.411     1.319  0.0886  0.9517  0.2941
 
              Baa    -0.0042    -2.246    -0.801    -0.749  0.4577 -0.0031  0.8891
    32 H(1)   Bbb    -0.0036    -1.947    -0.695    -0.649  0.8844 -0.1016 -0.4556
              Bcc     0.0079     4.192     1.496     1.398  0.0917  0.9948 -0.0438
 
              Baa    -0.0032    -1.731    -0.618    -0.577  0.0494 -0.1045  0.9933
    33 H(1)   Bbb    -0.0029    -1.569    -0.560    -0.523  0.9869  0.1581 -0.0324
              Bcc     0.0062     3.300     1.177     1.101 -0.1537  0.9819  0.1110
 
              Baa    -0.0050    -0.671    -0.239    -0.224  0.7438  0.6562 -0.1270
    34 C(13)  Bbb    -0.0043    -0.577    -0.206    -0.193  0.1812 -0.0151  0.9833
              Bcc     0.0093     1.248     0.445     0.416 -0.6434  0.7544  0.1301
 
              Baa    -0.0041    -2.177    -0.777    -0.726 -0.4075 -0.3523  0.8425
    35 H(1)   Bbb    -0.0035    -1.879    -0.670    -0.627  0.5782  0.6146  0.5367
              Bcc     0.0076     4.056     1.447     1.353  0.7069 -0.7058  0.0467
 
              Baa    -0.0039    -2.095    -0.748    -0.699  0.4418  0.0624  0.8950
    36 H(1)   Bbb    -0.0034    -1.815    -0.647    -0.605  0.5735  0.7475 -0.3352
              Bcc     0.0073     3.910     1.395     1.304  0.6899 -0.6613 -0.2945
 
              Baa    -0.0032    -1.714    -0.612    -0.572  0.0376 -0.1256  0.9914
    37 H(1)   Bbb    -0.0030    -1.577    -0.563    -0.526  0.8605  0.5085  0.0318
              Bcc     0.0062     3.291     1.174     1.098 -0.5081  0.8518  0.1272
 
              Baa    -0.0051    -0.681    -0.243    -0.227 -0.5577  0.6015  0.5720
    38 C(13)  Bbb    -0.0046    -0.613    -0.219    -0.204  0.3105 -0.4879  0.8158
              Bcc     0.0096     1.294     0.462     0.432  0.7698  0.6325  0.0853
 
              Baa    -0.0034    -1.817    -0.648    -0.606 -0.0564  0.1156  0.9917
    39 H(1)   Bbb    -0.0030    -1.577    -0.563    -0.526 -0.5050  0.8535 -0.1282
              Bcc     0.0064     3.394     1.211     1.132  0.8613  0.5080 -0.0103
 
              Baa    -0.0044    -2.372    -0.846    -0.791 -0.1427  0.1905  0.9713
    40 H(1)   Bbb    -0.0038    -2.004    -0.715    -0.669  0.7213 -0.6520  0.2338
              Bcc     0.0082     4.376     1.562     1.460  0.6778  0.7339 -0.0444
 
              Baa    -0.0037    -1.972    -0.704    -0.658  0.2041 -0.5759  0.7916
    41 H(1)   Bbb    -0.0033    -1.770    -0.632    -0.590  0.6511 -0.5239 -0.5491
              Bcc     0.0070     3.742     1.335     1.248  0.7310  0.6275  0.2680
 
              Baa    -0.0125    -1.675    -0.598    -0.559 -0.1315 -0.5537  0.8222
    42 C(13)  Bbb    -0.0012    -0.165    -0.059    -0.055 -0.0402  0.8318  0.5537
              Bcc     0.0137     1.840     0.656     0.614  0.9905 -0.0398  0.1316
 
              Baa    -0.0043    -2.311    -0.825    -0.771 -0.0125 -0.2586  0.9659
    43 H(1)   Bbb    -0.0038    -2.021    -0.721    -0.674  0.1353  0.9567  0.2578
              Bcc     0.0081     4.333     1.546     1.445  0.9907 -0.1339 -0.0231
 
              Baa    -0.0110    -1.478    -0.528    -0.493 -0.1601  0.8205  0.5487
    44 C(13)  Bbb    -0.0032    -0.424    -0.151    -0.141  0.9251 -0.0691  0.3734
              Bcc     0.0142     1.902     0.679     0.634 -0.3443 -0.5674  0.7480
 
              Baa    -0.0026    -1.408    -0.503    -0.470 -0.1030 -0.4716  0.8758
    45 H(1)   Bbb    -0.0015    -0.791    -0.282    -0.264 -0.4013  0.8253  0.3973
              Bcc     0.0041     2.200     0.785     0.734  0.9101  0.3105  0.2743
 
              Baa    -0.0025    -1.332    -0.475    -0.444  0.0190  0.7155  0.6983
    46 H(1)   Bbb    -0.0018    -0.963    -0.344    -0.321 -0.1049 -0.6932  0.7131
              Bcc     0.0043     2.295     0.819     0.766  0.9943 -0.0868  0.0619
 
              Baa    -0.0047    -0.631    -0.225    -0.211  0.6745  0.5859  0.4491
    47 C(13)  Bbb    -0.0044    -0.592    -0.211    -0.197 -0.4004 -0.2207  0.8893
              Bcc     0.0091     1.223     0.436     0.408 -0.6202  0.7797 -0.0858
 
              Baa    -0.0041    -2.190    -0.782    -0.731  0.1888  0.1105  0.9758
    48 H(1)   Bbb    -0.0035    -1.878    -0.670    -0.627  0.6750  0.7071 -0.2107
              Bcc     0.0076     4.069     1.452     1.357  0.7133 -0.6984 -0.0589
 
              Baa    -0.0037    -1.966    -0.701    -0.656 -0.5738 -0.2063  0.7926
    49 H(1)   Bbb    -0.0033    -1.744    -0.622    -0.582  0.5295  0.6450  0.5511
              Bcc     0.0070     3.710     1.324     1.238 -0.6249  0.7359 -0.2608
 
              Baa    -0.0032    -1.695    -0.605    -0.565  0.0411  0.0384  0.9984
    50 H(1)   Bbb    -0.0028    -1.501    -0.536    -0.501  0.8687  0.4924 -0.0547
              Bcc     0.0060     3.196     1.140     1.066 -0.4937  0.8695 -0.0131
 
              Baa    -0.0090    -1.214    -0.433    -0.405 -0.6160  0.1424  0.7748
    51 C(13)  Bbb    -0.0024    -0.320    -0.114    -0.107  0.7860  0.0447  0.6167
              Bcc     0.0114     1.534     0.547     0.512  0.0532  0.9888 -0.1394
 
              Baa    -0.0040    -2.110    -0.753    -0.704 -0.2472 -0.0095  0.9689
    52 H(1)   Bbb    -0.0035    -1.873    -0.668    -0.625  0.9605 -0.1344  0.2437
              Bcc     0.0075     3.983     1.421     1.329  0.1279  0.9909  0.0423
 
              Baa    -0.0078    -1.048    -0.374    -0.350  0.7770  0.1813  0.6028
    53 C(13)  Bbb    -0.0008    -0.108    -0.039    -0.036  0.2210  0.8181 -0.5309
              Bcc     0.0086     1.156     0.413     0.386 -0.5894  0.5458  0.5956
 
              Baa    -0.0026    -1.374    -0.490    -0.458 -0.4982  0.1204  0.8587
    54 H(1)   Bbb    -0.0018    -0.953    -0.340    -0.318  0.8262  0.3663  0.4280
              Bcc     0.0044     2.327     0.830     0.776 -0.2630  0.9227 -0.2820
 
              Baa    -0.0022    -1.170    -0.417    -0.390  0.6005  0.0531  0.7979
    55 H(1)   Bbb    -0.0017    -0.913    -0.326    -0.304  0.7981 -0.1021 -0.5938
              Bcc     0.0039     2.082     0.743     0.695  0.0499  0.9934 -0.1037
 
              Baa    -0.0046    -0.615    -0.219    -0.205 -0.6384  0.7690 -0.0321
    56 C(13)  Bbb    -0.0043    -0.577    -0.206    -0.192 -0.0051  0.0375  0.9993
              Bcc     0.0089     1.192     0.425     0.398  0.7697  0.6381 -0.0200
 
              Baa    -0.0039    -2.064    -0.737    -0.689  0.2209 -0.4178  0.8813
    57 H(1)   Bbb    -0.0034    -1.821    -0.650    -0.608  0.6659 -0.5956 -0.4493
              Bcc     0.0073     3.886     1.386     1.296  0.7126  0.6860  0.1467
 
              Baa    -0.0037    -1.996    -0.712    -0.666 -0.1134  0.3643  0.9243
    58 H(1)   Bbb    -0.0033    -1.759    -0.628    -0.587  0.7075 -0.6235  0.3326
              Bcc     0.0070     3.754     1.340     1.252  0.6975  0.6917 -0.1870
 
              Baa    -0.0030    -1.623    -0.579    -0.541  0.0582 -0.0550  0.9968
    59 H(1)   Bbb    -0.0028    -1.485    -0.530    -0.495 -0.5038  0.8604  0.0769
              Bcc     0.0058     3.107     1.109     1.036  0.8619  0.5067 -0.0223
 
              Baa    -0.0046    -0.622    -0.222    -0.207  0.0166  0.9677  0.2515
    60 C(13)  Bbb    -0.0043    -0.574    -0.205    -0.192  0.0953 -0.2519  0.9631
              Bcc     0.0089     1.196     0.427     0.399  0.9953  0.0080 -0.0964
 
              Baa    -0.0030    -1.626    -0.580    -0.542  0.0816 -0.1213  0.9893
    61 H(1)   Bbb    -0.0028    -1.487    -0.531    -0.496 -0.1551  0.9789  0.1328
              Bcc     0.0058     3.114     1.111     1.039  0.9845  0.1642 -0.0610
 
              Baa    -0.0038    -2.013    -0.718    -0.672  0.2010 -0.5100  0.8364
    62 H(1)   Bbb    -0.0033    -1.769    -0.631    -0.590  0.1761  0.8587  0.4813
              Bcc     0.0071     3.782     1.350     1.262  0.9636 -0.0506 -0.2624
 
              Baa    -0.0039    -2.081    -0.743    -0.694 -0.0338  0.3230  0.9458
    63 H(1)   Bbb    -0.0034    -1.829    -0.653    -0.610  0.1120  0.9416 -0.3175
              Bcc     0.0073     3.910     1.395     1.304  0.9931 -0.0952  0.0681
 
              Baa    -0.0050    -0.669    -0.239    -0.223  0.3658  0.9275  0.0775
    64 C(13)  Bbb    -0.0050    -0.665    -0.237    -0.222  0.9027 -0.3739  0.2128
              Bcc     0.0099     1.334     0.476     0.445 -0.2264  0.0079  0.9740
 
              Baa    -0.0032    -1.714    -0.611    -0.572  0.9734 -0.0242  0.2277
    65 H(1)   Bbb    -0.0031    -1.637    -0.584    -0.546 -0.0146  0.9858  0.1673
              Bcc     0.0063     3.351     1.196     1.118 -0.2285 -0.1661  0.9593
 
              Baa    -0.0040    -2.114    -0.754    -0.705  0.4292  0.8985  0.0926
    66 H(1)   Bbb    -0.0037    -1.954    -0.697    -0.652  0.8150 -0.4294  0.3890
              Bcc     0.0076     4.069     1.452     1.357 -0.3893  0.0915  0.9166
 
              Baa    -0.0032    -1.732    -0.618    -0.578 -0.6179  0.7724 -0.1466
    67 H(1)   Bbb    -0.0031    -1.650    -0.589    -0.550  0.7809  0.6246 -0.0005
              Bcc     0.0063     3.382     1.207     1.128 -0.0912  0.1148  0.9892
 
              Baa    -0.0167    -0.643    -0.230    -0.215  0.8763 -0.4489 -0.1750
    68 N(14)  Bbb    -0.0050    -0.195    -0.069    -0.065  0.4702  0.8760  0.1074
              Bcc     0.0217     0.838     0.299     0.279  0.1051 -0.1763  0.9787
 
              Baa    -0.0062    -3.290    -1.174    -1.098  0.4507  0.8865  0.1051
    69 H(1)   Bbb    -0.0058    -3.089    -1.102    -1.030  0.8459 -0.3865 -0.3674
              Bcc     0.0120     6.380     2.276     2.128  0.2851 -0.2545  0.9241
 
              Baa    -0.0120    -1.604    -0.573    -0.535  0.8811 -0.4721  0.0287
    70 C(13)  Bbb    -0.0093    -1.247    -0.445    -0.416  0.4672  0.8783  0.1017
              Bcc     0.0213     2.852     1.018     0.951 -0.0733 -0.0762  0.9944
 
              Baa    -0.0288    -3.862    -1.378    -1.288  0.7473 -0.3761 -0.5478
    71 C(13)  Bbb    -0.0219    -2.942    -1.050    -0.981  0.4952  0.8649  0.0817
              Bcc     0.0507     6.804     2.428     2.270  0.4430 -0.3323  0.8326
 
              Baa    -0.0209   -11.133    -3.972    -3.713  0.4995  0.8643  0.0601
    72 H(1)   Bbb    -0.0188   -10.057    -3.589    -3.355 -0.6168  0.3061  0.7251
              Bcc     0.0397    21.190     7.561     7.068  0.6083 -0.3992  0.6860
 
              Baa    -0.1800    -6.943    -2.477    -2.316  0.8912 -0.4476 -0.0736
    73 N(14)  Bbb    -0.1443    -5.565    -1.986    -1.856  0.4532  0.8854  0.1029
              Bcc     0.3243    12.508     4.463     4.172  0.0191 -0.1250  0.9920
 
              Baa    -0.0347    -4.657    -1.662    -1.553  0.4565  0.8827  0.1117
    74 C(13)  Bbb    -0.0248    -3.329    -1.188    -1.110  0.7995 -0.4620  0.3839
              Bcc     0.0595     7.986     2.850     2.664 -0.3905  0.0859  0.9166
 
              Baa    -0.0218   -11.643    -4.155    -3.884  0.4187  0.9049  0.0763
    75 H(1)   Bbb    -0.0203   -10.819    -3.860    -3.609  0.7005 -0.3753  0.6070
              Bcc     0.0421    22.462     8.015     7.492 -0.5779  0.2007  0.7910
 

 ---------------------------------------------------------------------------------

 Unable to Open any file for archive entry.
 1\1\GINC-BGN1017\SP\UAPFD\Gen\C34H34Fe1N6(1+,6)\BECSLEIP\03-Sep-2024\0
 \\# apfd/gen scf=maxcycle=999 geom=check\\2mgg_III_H\\1,6\Fe,0,35.2940
 415982,4.2183847604,9.9532332198\N,0,37.2180235184,4.0740207179,9.4772
 124616\N,0,35.7209381988,3.1432149956,11.6527376132\N,0,33.4984669631,
 4.6414662001,10.8203936165\N,0,34.9711583216,5.5744716496,8.5805333053
 \C,0,37.7835292265,4.6195681568,8.3594135012\C,0,39.1182425546,4.10541
 71024,8.1548463617\C,0,39.3892017842,3.3153424161,9.2285373745\C,0,38.
 1968232907,3.3179241132,10.0453590819\C,0,36.898252238,2.5243324257,11
 .957885436\C,0,36.8027610175,1.8005952245,13.2048667293\C,0,35.5450343
 554,2.0161964118,13.6714484848\C,0,34.9045558403,2.8941395126,12.71701
 3233\C,0,32.9904266115,4.2343733408,12.0112270532\C,0,31.7612602178,4.
 9291199584,12.3292777868\C,0,31.5315462996,5.7798869679,11.2816659462\
 C,0,32.6234924118,5.59056525,10.3610668757\C,0,33.8612517056,6.3324081
 858,8.3738511542\C,0,33.9923417258,7.1258781584,7.1683455955\C,0,35.23
 12887711,6.8355880874,6.6607065062\C,0,35.8324249728,5.8917573598,7.56
 79087828\C,0,37.1521674358,5.4827043288,7.4843334026\H,0,37.7299996904
 ,5.8447686888,6.6474658189\C,0,38.0532885864,2.5771829402,11.201448365
 2\H,0,38.9110531969,2.0265516562,11.5559577922\C,0,33.6095267213,3.343
 4722589,12.8664215474\H,0,33.0916372193,3.0742085916,13.7739328848\C,0
 ,32.7513782943,6.3265881388,9.1949641035\H,0,31.953879582,7.0141952156
 ,8.9580311059\C,0,39.9893127893,4.4588103543,6.998809954\H,0,40.192901
 3758,5.5298058892,6.9862066374\H,0,39.503578898,4.1958815396,6.0590031
 361\H,0,40.9382588296,3.9310943201,7.0539298046\C,0,40.6273400199,2.55
 25260017,9.5543177458\H,0,40.4213727794,1.4827912821,9.6057030027\H,0,
 41.0239907266,2.8664109361,10.5198334527\H,0,41.3929359284,2.718309372
 9,8.8005101034\C,0,35.8555454632,7.3226666633,5.4000538907\H,0,35.0857
 632539,7.6570892981,4.7074438245\H,0,36.4316899307,6.5295021636,4.9260
 068215\H,0,36.5283404536,8.15911524,5.5960370787\C,0,32.9731377435,8.0
 145042605,6.6560136718\H,0,31.950521022,7.723237137,6.8662079676\C,0,3
 3.195111637,9.1345390713,5.9755394157\H,0,34.1877610973,9.4999913137,5
 .7801216845\H,0,32.3831376801,9.7426885923,5.6128409537\C,0,30.3753182
 494,6.6933621856,11.0692611604\H,0,30.0442754927,6.6635871973,10.03193
 7544\H,0,30.643558529,7.7235699975,11.3083313152\H,0,29.5452940045,6.3
 965782488,11.7070106994\C,0,30.9805180137,4.7146380074,13.5280823427\H
 ,0,30.9733562297,3.6988474598,13.9065161898\C,0,30.3003055809,5.651384
 0561,14.180259043\H,0,30.3133961771,6.6836434341,13.8767842433\H,0,29.
 7263072961,5.4203536668,15.062270116\C,0,34.9056481785,1.5240790467,14
 .9240264228\H,0,33.9808502396,0.9926085146,14.6995626081\H,0,34.665613
 7014,2.3576263633,15.5844865679\H,0,35.5698874526,0.8474967121,15.4559
 482671\C,0,37.9090932071,0.9996796927,13.8011826022\H,0,37.5814060229,
 0.5107964829,14.7152262842\H,0,38.7579264435,1.6405333535,14.041503761
 7\H,0,38.249958017,0.2330357982,13.1047353975\C,0,32.4715148208,0.7666
 869477,6.6001721305\H,0,32.9270927973,0.4589712896,5.6592937661\H,0,31
 .695793918,1.4959660721,6.3896743023\H,0,32.012236426,-0.1087998958,7.
 0588088007\N,0,34.5952271961,0.6793215267,7.9222886499\H,0,34.83273894
 92,-0.2654272588,7.667846122\C,0,33.4845260094,1.3645826983,7.50595434
 64\C,0,35.3038921101,1.4979530263,8.733026406\H,0,36.2250401457,1.2255
 333204,9.2077090131\N,0,34.7093836791,2.6632193775,8.8564222659\C,0,33
 .5747364949,2.5926073076,8.0962581507\H,0,32.9054126398,3.426279121,8.
 0287571963\\Version=ES64L-G16RevC.02\State=6-A\HF=-2906.8417903\S2=8.7
 60521\S2-1=0.\S2A=8.750033\RMSD=7.404e-09\Dipole=-0.1033629,-2.1353724
 ,-1.3021931\Quadrupole=0.3221838,0.0020016,-0.3241853,-11.4668591,-5.3
 208559,-6.4304531\PG=C01 [X(C34H34Fe1N6)]\\@
 The archive entry for this job was punched.


 "MATHEMATICS IS THE ART OF GIVING THE SAME NAME
 TO DIFFERENT THINGS."
                    - H. POINCARE
 Job cpu time:       0 days  1 hours 44 minutes 41.7 seconds.
 Elapsed time:       0 days  0 hours  1 minutes 52.7 seconds.
 File lengths (MBytes):  RWF=    408 Int=      0 D2E=      0 Chk=    150 Scr=      1
 Normal termination of Gaussian 16 at Tue Sep  3 12:18:49 2024.
