 Entering Gaussian System, Link 0=g16
 Input=2mgl05re.com
 Output=2mgl05re.log
 Initial command:
 /sw/chem/gaussian/g16_C02/a100/g16/l1.exe "/local/becsleip_7999768/Gau-3037840.inp" -scrdir="/local/becsleip_7999768/"
 Entering Link 1 = /sw/chem/gaussian/g16_C02/a100/g16/l1.exe PID=   3037841.
  
 Copyright (c) 1988-2021, Gaussian, Inc.  All Rights Reserved.
  
 This is part of the Gaussian(R) 16 program.  It is based on
 the Gaussian(R) 09 system (copyright 2009, Gaussian, Inc.),
 the Gaussian(R) 03 system (copyright 2003, Gaussian, Inc.),
 the Gaussian(R) 98 system (copyright 1998, Gaussian, Inc.),
 the Gaussian(R) 94 system (copyright 1995, Gaussian, Inc.),
 the Gaussian 92(TM) system (copyright 1992, Gaussian, Inc.),
 the Gaussian 90(TM) system (copyright 1990, Gaussian, Inc.),
 the Gaussian 88(TM) system (copyright 1988, Gaussian, Inc.),
 the Gaussian 86(TM) system (copyright 1986, Carnegie Mellon
 University), and the Gaussian 82(TM) system (copyright 1983,
 Carnegie Mellon University). Gaussian is a federally registered
 trademark of Gaussian, Inc.
  
 This software contains proprietary and confidential information,
 including trade secrets, belonging to Gaussian, Inc.
  
 This software is provided under written license and may be
 used, copied, transmitted, or stored only in accord with that
 written license.
  
 The following legend is applicable only to US Government
 contracts under FAR:
  
                    RESTRICTED RIGHTS LEGEND
  
 Use, reproduction and disclosure by the US Government is
 subject to restrictions as set forth in subparagraphs (a)
 and (c) of the Commercial Computer Software - Restricted
 Rights clause in FAR 52.227-19.
  
 Gaussian, Inc.
 340 Quinnipiac St., Bldg. 40, Wallingford CT 06492
  
  
 ---------------------------------------------------------------
 Warning -- This program may not be used in any manner that
 competes with the business of Gaussian, Inc. or will provide
 assistance to any competitor of Gaussian, Inc.  The licensee
 of this program is prohibited from giving any competitor of
 Gaussian, Inc. access to this program.  By using this program,
 the user acknowledges that Gaussian, Inc. is engaged in the
 business of creating and licensing software in the field of
 computational chemistry and represents and warrants to the
 licensee that it is not a competitor of Gaussian, Inc. and that
 it will not use this program in any manner prohibited above.
 ---------------------------------------------------------------
  

 Cite this work as:
 Gaussian 16, Revision C.02,
 M. J. Frisch, G. W. Trucks, H. B. Schlegel, G. E. Scuseria, 
 M. A. Robb, J. R. Cheeseman, G. Scalmani, V. Barone, 
 G. A. Petersson, H. Nakatsuji, X. Li, M. Caricato, A. V. Marenich, 
 J. Bloino, B. G. Janesko, R. Gomperts, B. Mennucci, H. P. Hratchian, 
 J. V. Ortiz, A. F. Izmaylov, J. L. Sonnenberg, D. Williams-Young, 
 F. Ding, F. Lipparini, F. Egidi, J. Goings, B. Peng, A. Petrone, 
 T. Henderson, D. Ranasinghe, V. G. Zakrzewski, J. Gao, N. Rega, 
 G. Zheng, W. Liang, M. Hada, M. Ehara, K. Toyota, R. Fukuda, 
 J. Hasegawa, M. Ishida, T. Nakajima, Y. Honda, O. Kitao, H. Nakai, 
 T. Vreven, K. Throssell, J. A. Montgomery, Jr., J. E. Peralta, 
 F. Ogliaro, M. J. Bearpark, J. J. Heyd, E. N. Brothers, K. N. Kudin, 
 V. N. Staroverov, T. A. Keith, R. Kobayashi, J. Normand, 
 K. Raghavachari, A. P. Rendell, J. C. Burant, S. S. Iyengar, 
 J. Tomasi, M. Cossi, J. M. Millam, M. Klene, C. Adamo, R. Cammi, 
 J. W. Ochterski, R. L. Martin, K. Morokuma, O. Farkas, 
 J. B. Foresman, and D. J. Fox, Gaussian, Inc., Wallingford CT, 2019.
 
 ******************************************
 Gaussian 16:  ES64L-G16RevC.02  7-Dec-2021
                31-Aug-2024 
 ******************************************
 %mem=16GB
 %CPU=0-71
 SetSPE:  set environment variable "OMP_PROC_BIND" = "true"
 SetSPE:  set environment variable "OMP_PLACES" = "{0},{1},{2},{3},{4},{5},{6},{7},{8},{9},{10},{11},{12},{13},{14},{15},{16},{17},{18},{19},{20},{21},{22},{23},{24},{25},{26},{27},{28},{29},{30},{31},{32},{33},{34},{35},{36},{37},{38},{39},{40},{41},{42},{43},{44},{45},{46},{47},{48},{49},{50},{51},{52},{53},{54},{55},{56},{57},{58},{59},{60},{61},{62},{63},{64},{65},{66},{67},{68},{69},{70},{71}"
 Will use up to   72 processors via shared memory.
 %gpucpu=0,1,2,3=0,1,2,3
 Will use    4 GPUs:
 Thread  CPU   GPU
      0    0     0
      1    1     1
      2    2     2
      3    3     3
      4    4    -1
      5    5    -1
      6    6    -1
      7    7    -1
      8    8    -1
      9    9    -1
     10   10    -1
     11   11    -1
     12   12    -1
     13   13    -1
     14   14    -1
     15   15    -1
     16   16    -1
     17   17    -1
     18   18    -1
     19   19    -1
     20   20    -1
     21   21    -1
     22   22    -1
     23   23    -1
     24   24    -1
     25   25    -1
     26   26    -1
     27   27    -1
     28   28    -1
     29   29    -1
     30   30    -1
     31   31    -1
     32   32    -1
     33   33    -1
     34   34    -1
     35   35    -1
     36   36    -1
     37   37    -1
     38   38    -1
     39   39    -1
     40   40    -1
     41   41    -1
     42   42    -1
     43   43    -1
     44   44    -1
     45   45    -1
     46   46    -1
     47   47    -1
     48   48    -1
     49   49    -1
     50   50    -1
     51   51    -1
     52   52    -1
     53   53    -1
     54   54    -1
     55   55    -1
     56   56    -1
     57   57    -1
     58   58    -1
     59   59    -1
     60   60    -1
     61   61    -1
     62   62    -1
     63   63    -1
     64   64    -1
     65   65    -1
     66   66    -1
     67   67    -1
     68   68    -1
     69   69    -1
     70   70    -1
     71   71    -1
 SetGPE:  set environment variable "OMP_PROC_BIND" = "true"
 SetGPE:  set environment variable "OMP_PLACES" = "{0},{1},{2},{3},{4},{5},{6},{7},{8},{9},{10},{11},{12},{13},{14},{15},{16},{17},{18},{19},{20},{21},{22},{23},{24},{25},{26},{27},{28},{29},{30},{31},{32},{33},{34},{35},{36},{37},{38},{39},{40},{41},{42},{43},{44},{45},{46},{47},{48},{49},{50},{51},{52},{53},{54},{55},{56},{57},{58},{59},{60},{61},{62},{63},{64},{65},{66},{67},{68},{69},{70},{71}"
 %oldchk=2mgl_II_S.chk
 %chk=2mgl_II_Sre.chk
 Properties for Device   0
 Minimum vector length:                              32
 Maximum vector length:                            1024
 Number of SMPs:                                    108
 Maximum number of threads per SMP:                2048
 Number of ASync Engines:                             5
 Memory:                                           9207742464
 Properties for Device   1
 Minimum vector length:                              32
 Maximum vector length:                            1024
 Number of SMPs:                                    108
 Maximum number of threads per SMP:                2048
 Number of ASync Engines:                             5
 Memory:                                           9207742464
 Properties for Device   2
 Minimum vector length:                              32
 Maximum vector length:                            1024
 Number of SMPs:                                    108
 Maximum number of threads per SMP:                2048
 Number of ASync Engines:                             5
 Memory:                                           9207742464
 Properties for Device   3
 Minimum vector length:                              32
 Maximum vector length:                            1024
 Number of SMPs:                                    108
 Maximum number of threads per SMP:                2048
 Number of ASync Engines:                             5
 Memory:                                           9207742464
   8286968217 words of memory will be used on each GPU.
 Copying data from "2mgl_II_S.chk" to current chk file "2mgl_II_Sre.chk"
 IOpt=  2 FromEx=T IUOpen= 4 IOptOp= 5 NList=   0 IFRang= 0 IUIn= 4 IUOut= 2.
 --------------------------------------
 # apfd/gen scf=maxcycle=999 geom=check
 --------------------------------------
 1/29=2,38=1,172=1/1;
 2/12=2,40=1/2;
 3/5=7,11=2,14=-4,25=1,30=1,74=-44/1,2,3;
 4//1;
 5/5=2,7=999,38=5/2;
 6/7=2,8=2,9=2,10=2,28=1/1;
 99/5=1,9=1/99;
 ---------
 2mgl_II_Q
 ---------
 Structure from the checkpoint file:  "2mgl_II_Sre.chk"
 Charge =  0 Multiplicity = 5
 Z-Matrix found in chk file.
 Fe,0,35.1963933743,4.1836118687,9.9716619939
 N,0,37.137834686,4.0168950162,9.5249389577
 N,0,35.641494358,3.1688606861,11.7223177542
 N,0,33.4186087621,4.6356036797,10.8320240138
 N,0,34.94108849,5.5698924672,8.6134677365
 C,0,37.7124545582,4.5289225044,8.3944525979
 C,0,39.0590627286,4.0305161668,8.2296023144
 C,0,39.3176210107,3.2659193604,9.3239560603
 C,0,38.1133756369,3.280510364,10.1236552002
 C,0,36.8018361027,2.5276538332,12.0408110899
 C,0,36.6849437555,1.8137461169,13.2911012075
 C,0,35.4277637655,2.0550788378,13.7459926738
 C,0,34.8160616378,2.951723696,12.7888027039
 C,0,32.890561732,4.2402546695,12.0173683346
 C,0,31.6351962484,4.9087765124,12.2873779418
 C,0,31.4025250389,5.7175532526,11.2074341675
 C,0,32.533837294,5.5546346129,10.3301911622
 C,0,33.8198892675,6.3020561329,8.3706901643
 C,0,33.9474125533,7.0452511791,7.1335815963
 C,0,35.2067340945,6.7792094403,6.6622920481
 C,0,35.8037590822,5.8599714904,7.5956354936
 C,0,37.1007756162,5.3849567723,7.4988008067
 H,0,37.685884697,5.7110174862,6.6522354256
 C,0,37.9553776266,2.5448526282,11.2813097709
 H,0,38.805097063,1.9869718644,11.6435427374
 C,0,33.5068939252,3.3720755219,12.8980006367
 H,0,32.975370722,3.108956418,13.7994707442
 C,0,32.692294473,6.2924079764,9.1688130414
 H,0,31.88667562,6.957089329,8.8956136195
 C,0,39.9475287944,4.3651029598,7.0811648945
 H,0,40.1417273053,5.4373306858,7.0471812465
 H,0,39.4815944541,4.0755744041,6.1391566234
 H,0,40.9000749772,3.8479358281,7.1659910719
 C,0,40.5592610149,2.5286648831,9.6924520586
 H,0,40.3645648567,1.4585735297,9.7720129768
 H,0,40.9363093114,2.8754741354,10.6545509542
 H,0,41.3351940694,2.6809831413,8.9464402018
 C,0,35.8400213951,7.2446558128,5.3978622556
 H,0,36.4284781317,6.4479595075,4.9454097515
 H,0,36.5034989692,8.0905581105,5.584768453
 H,0,35.0751107006,7.5584557881,4.6905397048
 C,0,32.9137098693,7.8865406804,6.5714240747
 H,0,31.8964453479,7.561173476,6.7570944253
 C,0,33.1149942501,8.9973305089,5.8700186788
 H,0,34.0990442908,9.3958646706,5.6964216581
 H,0,32.2925871209,9.5653145747,5.4676561759
 C,0,30.2248979565,6.5884925534,10.9413519426
 H,0,29.93782535,6.5407748983,9.8917126698
 H,0,30.4468068285,7.6290428741,11.1833774847
 H,0,29.3806441117,6.266783911,11.5477058132
 C,0,30.8303207802,4.698515255,13.4706931903
 H,0,30.8568935428,3.6963713267,13.8831549376
 C,0,30.0938672927,5.6249000579,14.0748438362
 H,0,30.0706851281,6.6469219166,13.7391007151
 H,0,29.509008996,5.3966835191,14.9503934705
 C,0,34.7694544182,1.5799766145,14.9952273718
 H,0,33.8540795178,1.0354263081,14.7629115232
 H,0,34.5091104851,2.4225020986,15.6359640234
 H,0,35.4291395865,0.9184068824,15.5512332756
 C,0,37.7695811724,0.9882031403,13.8934169047
 H,0,38.0761605499,0.1955809913,13.2103107272
 H,0,37.4362014431,0.5308234763,14.8216324256
 H,0,38.6422100868,1.6047124549,14.1099610641
 C,0,32.2821308525,0.75748407,6.6745297605
 H,0,32.6938587842,0.5183286161,5.6940742023
 H,0,31.4699101453,1.4660456162,6.546823085
 H,0,31.8824311739,-0.1584926025,7.1090403657
 N,0,34.4477260211,0.6595437967,7.9269660736
 H,0,34.6804057428,-0.281100936,7.6535896896
 C,0,33.3229019686,1.3464697643,7.554400133
 C,0,35.1811156095,1.4715189712,8.7229961537
 H,0,36.1174599577,1.1957050918,9.1649080854
 N,0,34.5883278768,2.6339920344,8.8783955333
 C,0,33.4301035983,2.568802073,8.153774575
 H,0,32.7577722442,3.4021226456,8.116223767
 Recover connectivity data from disk.
 Stoichiometry    C34H34FeN6(5)
 Framework group  C1[X(C34H34FeN6)]
 Deg. of freedom   219
 Full point group                 C1      NOp   1
 Largest Abelian subgroup         C1      NOp   1
 Largest concise Abelian subgroup C1      NOp   1
                         Standard orientation:                         
 ---------------------------------------------------------------------
 Center     Atomic      Atomic             Coordinates (Angstroms)
 Number     Number       Type             X           Y           Z
 ---------------------------------------------------------------------
      1         26           0        0.157491   -0.105013   -0.200848
      2          7           0        1.119114   -1.804424   -0.629606
      3          7           0        1.990288    0.837665   -0.412604
      4          7           0       -0.661883    1.747133   -0.257580
      5          7           0       -1.582986   -0.933006   -0.542633
      6          6           0        0.513365   -3.026997   -0.723107
      7          6           0        1.495577   -4.085239   -0.788858
      8          6           0        2.710494   -3.474869   -0.811135
      9          6           0        2.453585   -2.054909   -0.723663
     10          6           0        3.218247    0.255273   -0.521759
     11          6           0        4.273708    1.241368   -0.508634
     12          6           0        3.658945    2.449196   -0.414364
     13          6           0        2.236800    2.181185   -0.420512
     14          6           0       -0.071806    2.967856   -0.300253
     15          6           0       -1.049899    4.023971   -0.454277
     16          6           0       -2.269531    3.402555   -0.483821
     17          6           0       -2.004746    1.989450   -0.389017
     18          6           0       -2.803596   -0.331332   -0.556410
     19          6           0       -3.863913   -1.317534   -0.603015
     20          6           0       -3.241621   -2.536928   -0.670949
     21          6           0       -1.826860   -2.273617   -0.629903
     22          6           0       -0.850175   -3.250348   -0.726608
     23          1           0       -1.180504   -4.274427   -0.813127
     24          6           0        3.448657   -1.102042   -0.633123
     25          1           0        4.472688   -1.434703   -0.704984
     26          6           0        1.293686    3.178117   -0.281933
     27          1           0        1.645511    4.198171   -0.292209
     28          6           0       -3.002891    1.033567   -0.479632
     29          1           0       -4.019280    1.390300   -0.551439
     30          6           0        1.167716   -5.537056   -0.859295
     31          1           0        0.597770   -5.757375   -1.762157
     32          1           0        0.568587   -5.836777    0.000655
     33          1           0        2.073842   -6.137697   -0.872242
     34          6           0        4.071122   -4.076222   -0.900953
     35          1           0        4.664302   -3.824162   -0.021217
     36          1           0        4.595389   -3.701578   -1.780079
     37          1           0        4.011131   -5.159167   -0.974688
     38          6           0       -3.858303   -3.891883   -0.687586
     39          1           0       -3.279128   -4.586513   -0.081151
     40          1           0       -3.901814   -4.285858   -1.704236
     41          1           0       -4.871600   -3.845885   -0.293913
     42          6           0       -5.276220   -1.005420   -0.585560
     43          1           0       -5.551766   -0.126540   -0.013888
     44          6           0       -6.229609   -1.694097   -1.204520
     45          1           0       -6.011492   -2.544569   -1.826165
     46          1           0       -7.266236   -1.409391   -1.132390
     47          6           0       -3.620513    4.021447   -0.573049
     48          1           0       -4.325971    3.505593    0.077070
     49          1           0       -4.004787    3.973561   -1.593150
     50          1           0       -3.570874    5.066116   -0.272835
     51          6           0       -0.732301    5.433041   -0.531245
     52          1           0        0.125956    5.752033    0.049068
     53          6           0       -1.392867    6.332312   -1.252711
     54          1           0       -2.219663    6.062837   -1.886416
     55          1           0       -1.106983    7.371053   -1.256876
     56          6           0        4.259101    3.812201   -0.372983
     57          1           0        3.948901    4.340410    0.528787
     58          1           0        3.940507    4.397980   -1.235265
     59          1           0        5.344821    3.755931   -0.379923
     60          6           0        5.727095    0.919452   -0.577774
     61          1           0        6.018055    0.268418    0.247072
     62          1           0        6.325858    1.825448   -0.527013
     63          1           0        5.960027    0.407344   -1.511554
     64          6           0       -1.179220   -0.100953    5.213535
     65          1           0       -1.332135   -1.062603    5.703284
     66          1           0       -2.147158    0.358753    5.040800
     67          1           0       -0.604118    0.536000    5.885191
     68          7           0        0.793061   -0.791434    3.834646
     69          1           0        1.356669   -1.098214    4.610480
     70          6           0       -0.472411   -0.274436    3.919470
     71          6           0        1.142079   -0.813088    2.527533
     72          1           0        2.084638   -1.168088    2.161941
     73          7           0        0.172862   -0.339997    1.776737
     74          6           0       -0.839268   -0.002330    2.632530
     75          1           0       -1.755656    0.412218    2.263415
 ---------------------------------------------------------------------
 Rotational constants (GHZ):           0.0924101           0.0914923           0.0594707
 General basis read from cards:  (5D, 7F)
 There are   704 symmetry adapted cartesian basis functions of A   symmetry.
 There are   661 symmetry adapted basis functions of A   symmetry.
   661 basis functions,  1342 primitive gaussians,   704 cartesian basis functions
   155 alpha electrons      151 beta electrons
       nuclear repulsion energy      5546.8172570612 Hartrees.
 NAtoms=   75 NActive=   75 NUniq=   75 SFac= 1.00D+00 NAtFMM=   60 NAOKFM=T Big=T
 Integral buffers will be    131072 words long.
 Raffenetti 2 integral format.
 Two-electron integral symmetry is turned on.
 R6APFD:  NTU= -4 IXU= 1 FactS= 1.050
 Nuclear repulsion after empirical dispersion term =     5546.6848779095 Hartrees.
 One-electron integrals computed using PRISM.
 NBasis=   661 RedAO= T EigKep=  2.70D-04  NBF=   661
 NBsUse=   661 1.00D-06 EigRej= -1.00D+00 NBFU=   661
 ExpMin= 4.20D-02 ExpMax= 3.01D+05 ExpMxC= 2.91D+03 IAcc=3 IRadAn=         5 AccDes= 0.00D+00
 Harris functional with IExCor= 3731 and IRadAn=       5 diagonalized for initial guess.
 HarFok:  IExCor= 3731 AccDes= 0.00D+00 IRadAn=         5 IDoV= 1 UseB2=F ITyADJ=14
 ICtDFT=  3500011 ScaDFX=  1.000000  1.000000  1.000000  1.000000
 FoFCou: FMM=F IPFlag=           0 FMFlag=      100000 FMFlg1=        2001
         NFxFlg=           0 DoJE=T BraDBF=F KetDBF=T FulRan=T
         wScrn=  0.000000 ICntrl=       500 IOpCl=  0 I1Cent=   200000004 NGrid=           0
         NMat0=    1 NMatS0=      1 NMatT0=    0 NMatD0=    1 NMtDS0=    0 NMtDT0=    0
 Petite list used in FoFCou.
 Initial guess <Sx>= 0.0000 <Sy>= 0.0000 <Sz>= 2.0000 <S**2>= 6.0000 S= 2.0000
 Requested convergence on RMS density matrix=1.00D-08 within 999 cycles.
 Requested convergence on MAX density matrix=1.00D-06.
 Requested convergence on             energy=1.00D-06.
 No special actions if energy rises.
 EnCoef did   100 forward-backward iterations
 EnCoef did   100 forward-backward iterations
 EnCoef did   100 forward-backward iterations
 EnCoef did     5 forward-backward iterations
 EnCoef did     4 forward-backward iterations
 EnCoef did     2 forward-backward iterations
 EnCoef did     5 forward-backward iterations
 Restarting incremental Fock formation.
 Rare condition: small coef for last iteration:  0.000D+00
 EnCoef did   100 forward-backward iterations
 Rare condition: small coef for last iteration:  0.000D+00
 EnCoef did   100 forward-backward iterations
 Rare condition: small coef for last iteration:  0.000D+00
 Restarting incremental Fock formation.
 Rare condition: small coef for last iteration:  0.000D+00
 Rare condition: small coef for last iteration:  0.000D+00
 Rare condition: small coef for last iteration:  0.000D+00
 Rare condition: small coef for last iteration:  0.000D+00
 Rare condition: small coef for last iteration:  0.000D+00
 Rare condition: small coef for last iteration:  0.000D+00
 Rare condition: small coef for last iteration:  0.000D+00
 Rare condition: small coef for last iteration:  0.000D+00
 Rare condition: small coef for last iteration:  0.000D+00
 Rare condition: small coef for last iteration:  0.000D+00
 Rare condition: small coef for last iteration:  0.000D+00
 Rare condition: small coef for last iteration:  0.000D+00
 Rare condition: small coef for last iteration:  0.000D+00
 Restarting incremental Fock formation.
 Rare condition: small coef for last iteration:  0.000D+00
 Rare condition: small coef for last iteration:  0.000D+00
 Rare condition: small coef for last iteration:  0.000D+00
 Rare condition: small coef for last iteration:  0.000D+00
 Rare condition: small coef for last iteration:  0.000D+00
 Rare condition: small coef for last iteration:  0.000D+00
 Rare condition: small coef for last iteration:  0.000D+00
 Rare condition: small coef for last iteration:  0.000D+00
 Rare condition: small coef for last iteration:  0.000D+00
 Rare condition: small coef for last iteration:  0.000D+00
 Rare condition: small coef for last iteration:  0.000D+00
 Restarting incremental Fock formation.
 Rare condition: small coef for last iteration:  0.000D+00
 Rare condition: small coef for last iteration:  0.000D+00
 Rare condition: small coef for last iteration:  0.000D+00
 Rare condition: small coef for last iteration:  0.000D+00
 Rare condition: small coef for last iteration:  0.000D+00
 Rare condition: small coef for last iteration:  0.000D+00
 Rare condition: small coef for last iteration:  0.000D+00
 Rare condition: small coef for last iteration:  0.000D+00
 Restarting incremental Fock formation.
 Rare condition: small coef for last iteration:  0.000D+00
 Rare condition: small coef for last iteration:  0.000D+00
 Rare condition: small coef for last iteration:  0.000D+00
 Rare condition: small coef for last iteration:  0.000D+00
 Rare condition: small coef for last iteration:  0.000D+00
 Rare condition: small coef for last iteration:  0.000D+00
 Rare condition: small coef for last iteration:  0.000D+00
 Restarting incremental Fock formation.
 Restarting incremental Fock formation.
 SCF Done:  E(UAPFD) =  -2907.02312865     A.U. after  158 cycles
            NFock=158  Conv=0.46D-08     -V/T= 2.0034
 <Sx>= 0.0000 <Sy>= 0.0000 <Sz>= 2.0000 <S**2>= 6.0820 S= 2.0163
 <L.S>=  0.00000000000    
 Annihilation of the first spin contaminant:
 S**2 before annihilation     6.0820,   after     6.0004

 **********************************************************************

            Population analysis using the SCF Density.

 **********************************************************************

 Orbital symmetries:
 Alpha Orbitals:
       Occupied  (A) (A) (A) (A) (A) (A) (A) (A) (A) (A) (A) (A)
                 (A) (A) (A) (A) (A) (A) (A) (A) (A) (A) (A) (A)
                 (A) (A) (A) (A) (A) (A) (A) (A) (A) (A) (A) (A)
                 (A) (A) (A) (A) (A) (A) (A) (A) (A) (A) (A) (A)
                 (A) (A) (A) (A) (A) (A) (A) (A) (A) (A) (A) (A)
                 (A) (A) (A) (A) (A) (A) (A) (A) (A) (A) (A) (A)
                 (A) (A) (A) (A) (A) (A) (A) (A) (A) (A) (A) (A)
                 (A) (A) (A) (A) (A) (A) (A) (A) (A) (A) (A) (A)
                 (A) (A) (A) (A) (A) (A) (A) (A) (A) (A) (A) (A)
                 (A) (A) (A) (A) (A) (A) (A) (A) (A) (A) (A) (A)
                 (A) (A) (A) (A) (A) (A) (A) (A) (A) (A) (A) (A)
                 (A) (A) (A) (A) (A) (A) (A) (A) (A) (A) (A) (A)
                 (A) (A) (A) (A) (A) (A) (A) (A) (A) (A) (A)
       Virtual   (A) (A) (A) (A) (A) (A) (A) (A) (A) (A) (A) (A)
                 (A) (A) (A) (A) (A) (A) (A) (A) (A) (A) (A) (A)
                 (A) (A) (A) (A) (A) (A) (A) (A) (A) (A) (A) (A)
                 (A) (A) (A) (A) (A) (A) (A) (A) (A) (A) (A) (A)
                 (A) (A) (A) (A) (A) (A) (A) (A) (A) (A) (A) (A)
                 (A) (A) (A) (A) (A) (A) (A) (A) (A) (A) (A) (A)
                 (A) (A) (A) (A) (A) (A) (A) (A) (A) (A) (A) (A)
                 (A) (A) (A) (A) (A) (A) (A) (A) (A) (A) (A) (A)
                 (A) (A) (A) (A) (A) (A) (A) (A) (A) (A) (A) (A)
                 (A) (A) (A) (A) (A) (A) (A) (A) (A) (A) (A) (A)
                 (A) (A) (A) (A) (A) (A) (A) (A) (A) (A) (A) (A)
                 (A) (A) (A) (A) (A) (A) (A) (A) (A) (A) (A) (A)
                 (A) (A) (A) (A) (A) (A) (A) (A) (A) (A) (A) (A)
                 (A) (A) (A) (A) (A) (A) (A) (A) (A) (A) (A) (A)
                 (A) (A) (A) (A) (A) (A) (A) (A) (A) (A) (A) (A)
                 (A) (A) (A) (A) (A) (A) (A) (A) (A) (A) (A) (A)
                 (A) (A) (A) (A) (A) (A) (A) (A) (A) (A) (A) (A)
                 (A) (A) (A) (A) (A) (A) (A) (A) (A) (A) (A) (A)
                 (A) (A) (A) (A) (A) (A) (A) (A) (A) (A) (A) (A)
                 (A) (A) (A) (A) (A) (A) (A) (A) (A) (A) (A) (A)
                 (A) (A) (A) (A) (A) (A) (A) (A) (A) (A) (A) (A)
                 (A) (A) (A) (A) (A) (A) (A) (A) (A) (A) (A) (A)
                 (A) (A) (A) (A) (A) (A) (A) (A) (A) (A) (A) (A)
                 (A) (A) (A) (A) (A) (A) (A) (A) (A) (A) (A) (A)
                 (A) (A) (A) (A) (A) (A) (A) (A) (A) (A) (A) (A)
                 (A) (A) (A) (A) (A) (A) (A) (A) (A) (A) (A) (A)
                 (A) (A) (A) (A) (A) (A) (A) (A) (A) (A) (A) (A)
                 (A) (A) (A) (A) (A) (A) (A) (A) (A) (A) (A) (A)
                 (A) (A) (A) (A) (A) (A) (A) (A) (A) (A) (A) (A)
                 (A) (A) (A) (A) (A) (A) (A) (A) (A) (A) (A) (A)
                 (A) (A) (A) (A) (A) (A) (A) (A) (A) (A) (A) (A)
                 (A) (A) (A) (A) (A) (A) (A) (A) (A) (A) (A) (A)
                 (A) (A) (A) (A) (A) (A) (A) (A) (A) (A) (A) (A)
                 (A) (A) (A) (A) (A) (A) (A) (A) (A) (A) (A) (A)
                 (A) (A) (A) (A) (A) (A) (A) (A) (A) (A) (A) (A)
                 (A) (A) (A) (A) (A) (A) (A) (A) (A) (A) (A) (A)
                 (A) (A) (A) (A) (A) (A) (A) (A) (A) (A) (A) (A)
                 (A) (A) (A) (A) (A) (A) (A) (A) (A) (A) (A) (A)
                 (A) (A) (A) (A) (A) (A) (A) (A) (A) (A) (A) (A)
                 (A) (A) (A) (A) (A) (A) (A) (A) (A) (A) (A) (A)
                 (A) (A) (A) (A) (A) (A) (A) (A) (A) (A) (A) (A)
                 (A) (A) (A) (A) (A) (A) (A) (A) (A) (A) (A) (A)
                 (A) (A)
 Beta  Orbitals:
       Occupied  (A) (A) (A) (A) (A) (A) (A) (A) (A) (A) (A) (A)
                 (A) (A) (A) (A) (A) (A) (A) (A) (A) (A) (A) (A)
                 (A) (A) (A) (A) (A) (A) (A) (A) (A) (A) (A) (A)
                 (A) (A) (A) (A) (A) (A) (A) (A) (A) (A) (A) (A)
                 (A) (A) (A) (A) (A) (A) (A) (A) (A) (A) (A) (A)
                 (A) (A) (A) (A) (A) (A) (A) (A) (A) (A) (A) (A)
                 (A) (A) (A) (A) (A) (A) (A) (A) (A) (A) (A) (A)
                 (A) (A) (A) (A) (A) (A) (A) (A) (A) (A) (A) (A)
                 (A) (A) (A) (A) (A) (A) (A) (A) (A) (A) (A) (A)
                 (A) (A) (A) (A) (A) (A) (A) (A) (A) (A) (A) (A)
                 (A) (A) (A) (A) (A) (A) (A) (A) (A) (A) (A) (A)
                 (A) (A) (A) (A) (A) (A) (A) (A) (A) (A) (A) (A)
                 (A) (A) (A) (A) (A) (A) (A)
       Virtual   (A) (A) (A) (A) (A) (A) (A) (A) (A) (A) (A) (A)
                 (A) (A) (A) (A) (A) (A) (A) (A) (A) (A) (A) (A)
                 (A) (A) (A) (A) (A) (A) (A) (A) (A) (A) (A) (A)
                 (A) (A) (A) (A) (A) (A) (A) (A) (A) (A) (A) (A)
                 (A) (A) (A) (A) (A) (A) (A) (A) (A) (A) (A) (A)
                 (A) (A) (A) (A) (A) (A) (A) (A) (A) (A) (A) (A)
                 (A) (A) (A) (A) (A) (A) (A) (A) (A) (A) (A) (A)
                 (A) (A) (A) (A) (A) (A) (A) (A) (A) (A) (A) (A)
                 (A) (A) (A) (A) (A) (A) (A) (A) (A) (A) (A) (A)
                 (A) (A) (A) (A) (A) (A) (A) (A) (A) (A) (A) (A)
                 (A) (A) (A) (A) (A) (A) (A) (A) (A) (A) (A) (A)
                 (A) (A) (A) (A) (A) (A) (A) (A) (A) (A) (A) (A)
                 (A) (A) (A) (A) (A) (A) (A) (A) (A) (A) (A) (A)
                 (A) (A) (A) (A) (A) (A) (A) (A) (A) (A) (A) (A)
                 (A) (A) (A) (A) (A) (A) (A) (A) (A) (A) (A) (A)
                 (A) (A) (A) (A) (A) (A) (A) (A) (A) (A) (A) (A)
                 (A) (A) (A) (A) (A) (A) (A) (A) (A) (A) (A) (A)
                 (A) (A) (A) (A) (A) (A) (A) (A) (A) (A) (A) (A)
                 (A) (A) (A) (A) (A) (A) (A) (A) (A) (A) (A) (A)
                 (A) (A) (A) (A) (A) (A) (A) (A) (A) (A) (A) (A)
                 (A) (A) (A) (A) (A) (A) (A) (A) (A) (A) (A) (A)
                 (A) (A) (A) (A) (A) (A) (A) (A) (A) (A) (A) (A)
                 (A) (A) (A) (A) (A) (A) (A) (A) (A) (A) (A) (A)
                 (A) (A) (A) (A) (A) (A) (A) (A) (A) (A) (A) (A)
                 (A) (A) (A) (A) (A) (A) (A) (A) (A) (A) (A) (A)
                 (A) (A) (A) (A) (A) (A) (A) (A) (A) (A) (A) (A)
                 (A) (A) (A) (A) (A) (A) (A) (A) (A) (A) (A) (A)
                 (A) (A) (A) (A) (A) (A) (A) (A) (A) (A) (A) (A)
                 (A) (A) (A) (A) (A) (A) (A) (A) (A) (A) (A) (A)
                 (A) (A) (A) (A) (A) (A) (A) (A) (A) (A) (A) (A)
                 (A) (A) (A) (A) (A) (A) (A) (A) (A) (A) (A) (A)
                 (A) (A) (A) (A) (A) (A) (A) (A) (A) (A) (A) (A)
                 (A) (A) (A) (A) (A) (A) (A) (A) (A) (A) (A) (A)
                 (A) (A) (A) (A) (A) (A) (A) (A) (A) (A) (A) (A)
                 (A) (A) (A) (A) (A) (A) (A) (A) (A) (A) (A) (A)
                 (A) (A) (A) (A) (A) (A) (A) (A) (A) (A) (A) (A)
                 (A) (A) (A) (A) (A) (A) (A) (A) (A) (A) (A) (A)
                 (A) (A) (A) (A) (A) (A) (A) (A) (A) (A) (A) (A)
                 (A) (A) (A) (A) (A) (A) (A) (A) (A) (A) (A) (A)
                 (A) (A) (A) (A) (A) (A) (A) (A) (A) (A) (A) (A)
                 (A) (A) (A) (A) (A) (A) (A) (A) (A) (A) (A) (A)
                 (A) (A) (A) (A) (A) (A) (A) (A) (A) (A) (A) (A)
                 (A) (A) (A) (A) (A) (A)
 The electronic state is 5-A.
 Alpha  occ. eigenvalues -- -256.17633 -30.06865 -25.91581 -25.89611 -25.88881
 Alpha  occ. eigenvalues --  -14.43778 -14.37530 -14.33773 -14.33649 -14.33549
 Alpha  occ. eigenvalues --  -14.33314 -10.27190 -10.25058 -10.22100 -10.21952
 Alpha  occ. eigenvalues --  -10.21740 -10.21430 -10.21343 -10.21284 -10.21196
 Alpha  occ. eigenvalues --  -10.21038 -10.20995 -10.20849 -10.19917 -10.19794
 Alpha  occ. eigenvalues --  -10.19477 -10.19057 -10.19047 -10.18951 -10.18941
 Alpha  occ. eigenvalues --  -10.18906 -10.18876 -10.18870 -10.18845 -10.18764
 Alpha  occ. eigenvalues --  -10.18760 -10.18749 -10.18724 -10.18723 -10.18605
 Alpha  occ. eigenvalues --  -10.18516 -10.18513 -10.18438 -10.18427 -10.18398
 Alpha  occ. eigenvalues --   -3.52592  -2.32688  -2.28406  -2.27003  -1.05957
 Alpha  occ. eigenvalues --   -0.96482  -0.95499  -0.95431  -0.94424  -0.91518
 Alpha  occ. eigenvalues --   -0.81763  -0.81444  -0.81105  -0.80799  -0.80361
 Alpha  occ. eigenvalues --   -0.80020  -0.79156  -0.79065  -0.76335  -0.75248
 Alpha  occ. eigenvalues --   -0.73906  -0.73455  -0.72854  -0.72327  -0.70626
 Alpha  occ. eigenvalues --   -0.69825  -0.67989  -0.67643  -0.67421  -0.65324
 Alpha  occ. eigenvalues --   -0.63619  -0.63564  -0.61854  -0.60244  -0.59636
 Alpha  occ. eigenvalues --   -0.57264  -0.56444  -0.56100  -0.54009  -0.53147
 Alpha  occ. eigenvalues --   -0.52908  -0.52230  -0.50607  -0.50544  -0.49971
 Alpha  occ. eigenvalues --   -0.48469  -0.48343  -0.47761  -0.47341  -0.46944
 Alpha  occ. eigenvalues --   -0.44862  -0.44379  -0.44182  -0.44055  -0.43806
 Alpha  occ. eigenvalues --   -0.43587  -0.43350  -0.43110  -0.43053  -0.42842
 Alpha  occ. eigenvalues --   -0.42653  -0.42539  -0.42272  -0.42229  -0.41917
 Alpha  occ. eigenvalues --   -0.41201  -0.41137  -0.41069  -0.40369  -0.40062
 Alpha  occ. eigenvalues --   -0.39784  -0.39573  -0.39141  -0.38913  -0.38626
 Alpha  occ. eigenvalues --   -0.38216  -0.38143  -0.37932  -0.37874  -0.37513
 Alpha  occ. eigenvalues --   -0.37241  -0.36547  -0.36315  -0.36084  -0.35742
 Alpha  occ. eigenvalues --   -0.35149  -0.34240  -0.33872  -0.33493  -0.33232
 Alpha  occ. eigenvalues --   -0.32711  -0.31268  -0.30952  -0.30876  -0.29799
 Alpha  occ. eigenvalues --   -0.29172  -0.28828  -0.27654  -0.26751  -0.25611
 Alpha  occ. eigenvalues --   -0.25411  -0.24217  -0.24119  -0.21657  -0.21268
 Alpha  occ. eigenvalues --   -0.20899  -0.20401  -0.17043  -0.16905  -0.15932
 Alpha virt. eigenvalues --   -0.05753  -0.05629  -0.00790   0.01712   0.02036
 Alpha virt. eigenvalues --    0.03866   0.05900   0.07098   0.07189   0.09248
 Alpha virt. eigenvalues --    0.09502   0.10080   0.10758   0.11091   0.11568
 Alpha virt. eigenvalues --    0.11884   0.12010   0.12459   0.13184   0.14200
 Alpha virt. eigenvalues --    0.14325   0.14385   0.14868   0.15451   0.15757
 Alpha virt. eigenvalues --    0.15971   0.16075   0.16337   0.16651   0.16748
 Alpha virt. eigenvalues --    0.17507   0.17636   0.17847   0.17987   0.18200
 Alpha virt. eigenvalues --    0.18300   0.18710   0.19068   0.19293   0.19425
 Alpha virt. eigenvalues --    0.19609   0.20012   0.20702   0.21348   0.21646
 Alpha virt. eigenvalues --    0.21805   0.21966   0.22185   0.22895   0.22943
 Alpha virt. eigenvalues --    0.23327   0.23798   0.24823   0.25342   0.25814
 Alpha virt. eigenvalues --    0.26041   0.26289   0.26858   0.27225   0.27357
 Alpha virt. eigenvalues --    0.27766   0.27941   0.28060   0.30152   0.30506
 Alpha virt. eigenvalues --    0.31174   0.31714   0.32354   0.33298   0.33679
 Alpha virt. eigenvalues --    0.34103   0.34686   0.36032   0.36472   0.37098
 Alpha virt. eigenvalues --    0.37431   0.37517   0.38037   0.39108   0.40171
 Alpha virt. eigenvalues --    0.41915   0.42342   0.42872   0.44300   0.45037
 Alpha virt. eigenvalues --    0.45276   0.45597   0.45804   0.48300   0.48436
 Alpha virt. eigenvalues --    0.49015   0.49296   0.49752   0.50723   0.50969
 Alpha virt. eigenvalues --    0.51345   0.52105   0.52249   0.52985   0.53105
 Alpha virt. eigenvalues --    0.53218   0.53475   0.53722   0.53869   0.54425
 Alpha virt. eigenvalues --    0.54866   0.55123   0.55536   0.56069   0.56285
 Alpha virt. eigenvalues --    0.56519   0.57532   0.58271   0.58409   0.58640
 Alpha virt. eigenvalues --    0.58851   0.59575   0.59934   0.60575   0.60752
 Alpha virt. eigenvalues --    0.60808   0.61482   0.61901   0.62162   0.62596
 Alpha virt. eigenvalues --    0.63598   0.63735   0.64197   0.64252   0.64776
 Alpha virt. eigenvalues --    0.65232   0.65574   0.66050   0.66525   0.66685
 Alpha virt. eigenvalues --    0.67054   0.67195   0.67330   0.67859   0.68292
 Alpha virt. eigenvalues --    0.68589   0.68904   0.69228   0.70052   0.70412
 Alpha virt. eigenvalues --    0.70995   0.71496   0.71630   0.72152   0.72266
 Alpha virt. eigenvalues --    0.73506   0.73917   0.74571   0.75008   0.75232
 Alpha virt. eigenvalues --    0.76224   0.76485   0.77173   0.77537   0.77602
 Alpha virt. eigenvalues --    0.77995   0.78296   0.78596   0.78904   0.79442
 Alpha virt. eigenvalues --    0.79645   0.80049   0.80285   0.81100   0.81446
 Alpha virt. eigenvalues --    0.81814   0.82211   0.82495   0.83431   0.84241
 Alpha virt. eigenvalues --    0.84526   0.84750   0.85447   0.86229   0.87034
 Alpha virt. eigenvalues --    0.87437   0.87560   0.87715   0.87850   0.88297
 Alpha virt. eigenvalues --    0.88485   0.88700   0.89008   0.89637   0.90186
 Alpha virt. eigenvalues --    0.90657   0.91044   0.91603   0.91896   0.92073
 Alpha virt. eigenvalues --    0.92849   0.92964   0.93196   0.93853   0.94200
 Alpha virt. eigenvalues --    0.94378   0.94419   0.95130   0.95521   0.95599
 Alpha virt. eigenvalues --    0.96270   0.96537   0.97169   0.97731   0.98032
 Alpha virt. eigenvalues --    0.98416   0.99166   0.99393   0.99816   1.00415
 Alpha virt. eigenvalues --    1.00884   1.00950   1.01169   1.01348   1.01702
 Alpha virt. eigenvalues --    1.02795   1.03254   1.03907   1.04371   1.04734
 Alpha virt. eigenvalues --    1.05608   1.06025   1.06462   1.07125   1.07328
 Alpha virt. eigenvalues --    1.07956   1.08639   1.09564   1.09845   1.11656
 Alpha virt. eigenvalues --    1.11972   1.13453   1.13887   1.14939   1.15711
 Alpha virt. eigenvalues --    1.16858   1.17592   1.17862   1.18319   1.18843
 Alpha virt. eigenvalues --    1.19132   1.19510   1.20189   1.20242   1.21130
 Alpha virt. eigenvalues --    1.21755   1.22094   1.22880   1.23913   1.24287
 Alpha virt. eigenvalues --    1.24756   1.25460   1.26340   1.28257   1.28957
 Alpha virt. eigenvalues --    1.29446   1.30327   1.31275   1.31449   1.31789
 Alpha virt. eigenvalues --    1.32497   1.32978   1.33938   1.34143   1.34457
 Alpha virt. eigenvalues --    1.35027   1.36697   1.36980   1.37519   1.38191
 Alpha virt. eigenvalues --    1.38722   1.39231   1.39543   1.39914   1.40121
 Alpha virt. eigenvalues --    1.41083   1.41335   1.41859   1.43454   1.43943
 Alpha virt. eigenvalues --    1.45328   1.45597   1.45980   1.46998   1.47228
 Alpha virt. eigenvalues --    1.48127   1.49406   1.50294   1.50762   1.52330
 Alpha virt. eigenvalues --    1.52815   1.54911   1.54964   1.55667   1.56127
 Alpha virt. eigenvalues --    1.56714   1.57401   1.58224   1.59845   1.60410
 Alpha virt. eigenvalues --    1.61286   1.61822   1.62425   1.62785   1.64391
 Alpha virt. eigenvalues --    1.65882   1.66476   1.66917   1.68519   1.69106
 Alpha virt. eigenvalues --    1.70326   1.70545   1.71883   1.72601   1.73916
 Alpha virt. eigenvalues --    1.76174   1.78863   1.79726   1.80278   1.80570
 Alpha virt. eigenvalues --    1.80827   1.81146   1.81436   1.81694   1.81992
 Alpha virt. eigenvalues --    1.83141   1.83610   1.84219   1.84522   1.84958
 Alpha virt. eigenvalues --    1.85532   1.85995   1.87536   1.87928   1.88518
 Alpha virt. eigenvalues --    1.88644   1.88892   1.89804   1.90830   1.91190
 Alpha virt. eigenvalues --    1.91467   1.92014   1.93432   1.93604   1.94144
 Alpha virt. eigenvalues --    1.94510   1.94773   1.95411   1.96532   1.96712
 Alpha virt. eigenvalues --    1.97728   1.99245   1.99703   2.00673   2.00987
 Alpha virt. eigenvalues --    2.01028   2.01692   2.02967   2.03226   2.03991
 Alpha virt. eigenvalues --    2.04668   2.05150   2.06450   2.06488   2.07029
 Alpha virt. eigenvalues --    2.07327   2.08222   2.08892   2.10000   2.10638
 Alpha virt. eigenvalues --    2.11294   2.12211   2.12610   2.13879   2.14465
 Alpha virt. eigenvalues --    2.14799   2.16195   2.16693   2.16789   2.17062
 Alpha virt. eigenvalues --    2.17773   2.18909   2.19835   2.20999   2.21142
 Alpha virt. eigenvalues --    2.22070   2.23105   2.23782   2.24425   2.24723
 Alpha virt. eigenvalues --    2.25831   2.26361   2.26559   2.26683   2.27274
 Alpha virt. eigenvalues --    2.28101   2.28272   2.29000   2.29395   2.29905
 Alpha virt. eigenvalues --    2.30206   2.30790   2.31650   2.31733   2.31861
 Alpha virt. eigenvalues --    2.32737   2.33807   2.34078   2.35119   2.36148
 Alpha virt. eigenvalues --    2.36341   2.36764   2.37145   2.38251   2.38432
 Alpha virt. eigenvalues --    2.38973   2.39545   2.39974   2.40916   2.41307
 Alpha virt. eigenvalues --    2.41666   2.42638   2.42811   2.43626   2.44479
 Alpha virt. eigenvalues --    2.44792   2.45406   2.45967   2.46326   2.48110
 Alpha virt. eigenvalues --    2.49515   2.50431   2.51913   2.52506   2.53368
 Alpha virt. eigenvalues --    2.53658   2.54259   2.54926   2.56340   2.56705
 Alpha virt. eigenvalues --    2.57698   2.58134   2.58469   2.60220   2.61810
 Alpha virt. eigenvalues --    2.62125   2.62458   2.64261   2.66266   2.67528
 Alpha virt. eigenvalues --    2.68668   2.69403   2.70293   2.71697   2.72236
 Alpha virt. eigenvalues --    2.73017   2.73238   2.75018   2.76663   2.78603
 Alpha virt. eigenvalues --    2.79442   2.80546   2.81424   2.82119   2.87446
 Alpha virt. eigenvalues --    2.87598   2.89308   2.89872   2.92240   2.92937
 Alpha virt. eigenvalues --    2.94281   2.96403   2.97279   2.98099   2.98919
 Alpha virt. eigenvalues --    2.99710   3.00057   3.00764   3.01409   3.05313
 Alpha virt. eigenvalues --    3.06360   3.06841   3.13795   3.15017   3.15099
 Alpha virt. eigenvalues --    3.21652   3.24094   3.24531   3.31223   3.31507
 Alpha virt. eigenvalues --    3.38182   3.40625   3.40869   3.41934   3.47313
 Alpha virt. eigenvalues --    3.47442   3.57627   3.64766   3.82393   3.99867
 Alpha virt. eigenvalues --    4.09338
  Beta  occ. eigenvalues -- -256.17494 -29.98780 -25.83883 -25.83205 -25.82718
  Beta  occ. eigenvalues --  -14.43765 -14.37373 -14.33622 -14.33466 -14.33352
  Beta  occ. eigenvalues --  -14.33130 -10.27167 -10.25055 -10.22099 -10.21950
  Beta  occ. eigenvalues --  -10.21701 -10.21403 -10.21329 -10.21269 -10.21223
  Beta  occ. eigenvalues --  -10.21082 -10.21030 -10.20889 -10.19909 -10.19802
  Beta  occ. eigenvalues --  -10.19438 -10.19089 -10.19022 -10.18937 -10.18923
  Beta  occ. eigenvalues --  -10.18906 -10.18890 -10.18873 -10.18865 -10.18787
  Beta  occ. eigenvalues --  -10.18782 -10.18750 -10.18707 -10.18689 -10.18606
  Beta  occ. eigenvalues --  -10.18526 -10.18519 -10.18424 -10.18401 -10.18394
  Beta  occ. eigenvalues --   -3.33193  -2.08994  -2.08817  -2.08171  -1.05864
  Beta  occ. eigenvalues --   -0.96283  -0.95313  -0.95240  -0.94232  -0.91352
  Beta  occ. eigenvalues --   -0.81760  -0.81378  -0.81051  -0.80777  -0.80288
  Beta  occ. eigenvalues --   -0.79946  -0.79140  -0.79046  -0.76318  -0.75223
  Beta  occ. eigenvalues --   -0.73887  -0.73434  -0.72848  -0.72282  -0.70579
  Beta  occ. eigenvalues --   -0.69759  -0.67901  -0.67548  -0.67395  -0.65172
  Beta  occ. eigenvalues --   -0.63606  -0.63549  -0.61802  -0.60189  -0.59575
  Beta  occ. eigenvalues --   -0.57233  -0.56374  -0.55922  -0.53964  -0.53090
  Beta  occ. eigenvalues --   -0.52831  -0.52027  -0.50491  -0.50433  -0.49882
  Beta  occ. eigenvalues --   -0.48236  -0.48168  -0.47675  -0.47277  -0.46643
  Beta  occ. eigenvalues --   -0.44578  -0.44222  -0.44014  -0.43972  -0.43550
  Beta  occ. eigenvalues --   -0.43518  -0.43274  -0.43024  -0.42980  -0.42727
  Beta  occ. eigenvalues --   -0.42580  -0.42515  -0.42221  -0.42055  -0.41886
  Beta  occ. eigenvalues --   -0.41198  -0.41096  -0.41067  -0.39949  -0.39742
  Beta  occ. eigenvalues --   -0.39728  -0.39344  -0.39101  -0.38485  -0.38363
  Beta  occ. eigenvalues --   -0.38035  -0.37792  -0.37291  -0.37119  -0.36520
  Beta  occ. eigenvalues --   -0.36296  -0.35998  -0.35541  -0.35241  -0.34536
  Beta  occ. eigenvalues --   -0.33835  -0.33613  -0.33540  -0.33087  -0.31844
  Beta  occ. eigenvalues --   -0.31014  -0.30366  -0.29647  -0.28862  -0.28658
  Beta  occ. eigenvalues --   -0.28212  -0.25919  -0.25723  -0.24221  -0.22964
  Beta  occ. eigenvalues --   -0.21971  -0.21937  -0.21115  -0.17766  -0.17094
  Beta  occ. eigenvalues --   -0.14027
  Beta virt. eigenvalues --   -0.06269  -0.05202  -0.00858  -0.00242   0.00547
  Beta virt. eigenvalues --    0.01999   0.03071   0.03844   0.04291   0.06643
  Beta virt. eigenvalues --    0.07150   0.07498   0.09303   0.09700   0.09932
  Beta virt. eigenvalues --    0.10328   0.11137   0.11361   0.11757   0.11910
  Beta virt. eigenvalues --    0.12304   0.12586   0.13202   0.14217   0.14364
  Beta virt. eigenvalues --    0.14525   0.15267   0.15695   0.15794   0.16089
  Beta virt. eigenvalues --    0.16152   0.16424   0.16685   0.16861   0.17629
  Beta virt. eigenvalues --    0.17696   0.17904   0.18037   0.18269   0.18425
  Beta virt. eigenvalues --    0.18762   0.19161   0.19411   0.19477   0.19692
  Beta virt. eigenvalues --    0.20059   0.20720   0.21371   0.21684   0.21869
  Beta virt. eigenvalues --    0.21990   0.22187   0.23025   0.23099   0.23452
  Beta virt. eigenvalues --    0.24087   0.24934   0.25490   0.26132   0.26279
  Beta virt. eigenvalues --    0.26416   0.26984   0.27438   0.27850   0.28033
  Beta virt. eigenvalues --    0.28192   0.29341   0.30242   0.31212   0.31538
  Beta virt. eigenvalues --    0.32392   0.32825   0.33558   0.34053   0.34821
  Beta virt. eigenvalues --    0.35105   0.36274   0.36694   0.37224   0.37584
  Beta virt. eigenvalues --    0.37708   0.38763   0.39359   0.40339   0.42087
  Beta virt. eigenvalues --    0.42589   0.43416   0.44376   0.45151   0.45327
  Beta virt. eigenvalues --    0.45796   0.46464   0.48537   0.48791   0.49273
  Beta virt. eigenvalues --    0.49581   0.49911   0.50908   0.51098   0.51675
  Beta virt. eigenvalues --    0.52306   0.52428   0.53060   0.53150   0.53293
  Beta virt. eigenvalues --    0.53741   0.53789   0.53958   0.54474   0.55050
  Beta virt. eigenvalues --    0.55182   0.55595   0.56107   0.56385   0.56714
  Beta virt. eigenvalues --    0.57843   0.58335   0.58462   0.58729   0.58889
  Beta virt. eigenvalues --    0.59620   0.59991   0.60673   0.60807   0.60908
  Beta virt. eigenvalues --    0.61614   0.61947   0.62265   0.62632   0.63664
  Beta virt. eigenvalues --    0.63756   0.64175   0.64308   0.64797   0.65264
  Beta virt. eigenvalues --    0.65692   0.66106   0.66684   0.66805   0.67191
  Beta virt. eigenvalues --    0.67325   0.67429   0.68115   0.68337   0.68862
  Beta virt. eigenvalues --    0.69021   0.69329   0.70353   0.70633   0.71179
  Beta virt. eigenvalues --    0.71561   0.71800   0.72230   0.72406   0.73650
  Beta virt. eigenvalues --    0.74497   0.74691   0.75192   0.75640   0.76456
  Beta virt. eigenvalues --    0.76668   0.77238   0.77629   0.77671   0.78133
  Beta virt. eigenvalues --    0.78423   0.78682   0.79017   0.79563   0.79813
  Beta virt. eigenvalues --    0.80351   0.80759   0.81337   0.81495   0.82016
  Beta virt. eigenvalues --    0.82623   0.82869   0.83705   0.84284   0.84647
  Beta virt. eigenvalues --    0.84900   0.85849   0.86373   0.87045   0.87515
  Beta virt. eigenvalues --    0.87588   0.87838   0.87998   0.88324   0.88538
  Beta virt. eigenvalues --    0.88896   0.89108   0.89691   0.90329   0.90705
  Beta virt. eigenvalues --    0.91207   0.91796   0.91983   0.92191   0.92954
  Beta virt. eigenvalues --    0.93028   0.93241   0.93906   0.94326   0.94428
  Beta virt. eigenvalues --    0.94770   0.95316   0.95730   0.95872   0.96608
  Beta virt. eigenvalues --    0.96712   0.97309   0.97919   0.98146   0.98643
  Beta virt. eigenvalues --    0.99275   0.99482   0.99941   1.00447   1.00952
  Beta virt. eigenvalues --    1.01096   1.01323   1.01449   1.01839   1.03019
  Beta virt. eigenvalues --    1.03409   1.04146   1.04614   1.04852   1.05698
  Beta virt. eigenvalues --    1.06357   1.06773   1.07444   1.07925   1.08147
  Beta virt. eigenvalues --    1.09041   1.09742   1.10172   1.11792   1.12079
  Beta virt. eigenvalues --    1.14141   1.15039   1.15296   1.16060   1.17242
  Beta virt. eigenvalues --    1.17955   1.18205   1.18936   1.19255   1.19545
  Beta virt. eigenvalues --    1.20169   1.20488   1.21142   1.21825   1.22010
  Beta virt. eigenvalues --    1.22460   1.23061   1.24380   1.25057   1.25084
  Beta virt. eigenvalues --    1.26068   1.26507   1.28503   1.29154   1.29594
  Beta virt. eigenvalues --    1.30516   1.31508   1.31750   1.31932   1.32749
  Beta virt. eigenvalues --    1.33048   1.34056   1.34254   1.34585   1.35418
  Beta virt. eigenvalues --    1.36779   1.37004   1.37662   1.38298   1.38818
  Beta virt. eigenvalues --    1.39245   1.39703   1.39962   1.40230   1.41309
  Beta virt. eigenvalues --    1.41585   1.42113   1.43569   1.44121   1.45590
  Beta virt. eigenvalues --    1.45827   1.46132   1.47169   1.47671   1.48178
  Beta virt. eigenvalues --    1.49769   1.50538   1.50898   1.52567   1.53070
  Beta virt. eigenvalues --    1.54970   1.55080   1.55849   1.56171   1.56920
  Beta virt. eigenvalues --    1.57548   1.58833   1.59970   1.60649   1.61465
  Beta virt. eigenvalues --    1.62366   1.62646   1.62984   1.64501   1.66029
  Beta virt. eigenvalues --    1.66634   1.67545   1.68944   1.69626   1.70447
  Beta virt. eigenvalues --    1.70673   1.72019   1.72696   1.74037   1.76315
  Beta virt. eigenvalues --    1.79168   1.79996   1.80460   1.80832   1.80927
  Beta virt. eigenvalues --    1.81200   1.81671   1.81741   1.82164   1.83200
  Beta virt. eigenvalues --    1.83809   1.84344   1.84698   1.85072   1.85635
  Beta virt. eigenvalues --    1.86219   1.87752   1.88073   1.88624   1.88745
  Beta virt. eigenvalues --    1.88977   1.89916   1.91021   1.91371   1.91634
  Beta virt. eigenvalues --    1.92421   1.93630   1.93793   1.94331   1.94804
  Beta virt. eigenvalues --    1.95025   1.95560   1.96592   1.96939   1.97842
  Beta virt. eigenvalues --    1.99913   2.00339   2.00725   2.01106   2.01429
  Beta virt. eigenvalues --    2.02256   2.03207   2.03472   2.04480   2.04784
  Beta virt. eigenvalues --    2.05247   2.06614   2.06786   2.07213   2.07475
  Beta virt. eigenvalues --    2.08429   2.09156   2.10071   2.10791   2.11506
  Beta virt. eigenvalues --    2.12427   2.12823   2.14132   2.14604   2.15089
  Beta virt. eigenvalues --    2.16327   2.16826   2.16849   2.17254   2.18681
  Beta virt. eigenvalues --    2.19254   2.20340   2.21147   2.21765   2.22373
  Beta virt. eigenvalues --    2.23819   2.24124   2.24598   2.25254   2.26020
  Beta virt. eigenvalues --    2.26691   2.27036   2.27639   2.28158   2.28639
  Beta virt. eigenvalues --    2.28919   2.29096   2.29957   2.30307   2.31134
  Beta virt. eigenvalues --    2.31577   2.31833   2.32212   2.32215   2.32935
  Beta virt. eigenvalues --    2.34018   2.35083   2.35574   2.36181   2.36523
  Beta virt. eigenvalues --    2.36901   2.37333   2.38336   2.38586   2.39196
  Beta virt. eigenvalues --    2.39805   2.40265   2.40961   2.41399   2.41816
  Beta virt. eigenvalues --    2.42689   2.43060   2.43814   2.44470   2.44920
  Beta virt. eigenvalues --    2.45428   2.46064   2.46725   2.48152   2.50036
  Beta virt. eigenvalues --    2.51234   2.52390   2.52651   2.53574   2.53849
  Beta virt. eigenvalues --    2.54496   2.55006   2.56552   2.56908   2.57831
  Beta virt. eigenvalues --    2.58170   2.58564   2.60508   2.61858   2.62278
  Beta virt. eigenvalues --    2.62667   2.64299   2.66321   2.67562   2.68899
  Beta virt. eigenvalues --    2.69636   2.70434   2.71844   2.72327   2.73143
  Beta virt. eigenvalues --    2.73408   2.75295   2.76746   2.78726   2.79765
  Beta virt. eigenvalues --    2.80693   2.81464   2.82192   2.87589   2.87713
  Beta virt. eigenvalues --    2.89459   2.89960   2.92323   2.93103   2.94414
  Beta virt. eigenvalues --    2.96507   2.97353   2.98266   2.99634   2.99780
  Beta virt. eigenvalues --    3.00242   3.01083   3.01563   3.05508   3.06480
  Beta virt. eigenvalues --    3.06951   3.13971   3.15054   3.15282   3.21725
  Beta virt. eigenvalues --    3.24307   3.24776   3.31265   3.31543   3.40611
  Beta virt. eigenvalues --    3.40917   3.42536   3.45842   3.47617   3.48592
  Beta virt. eigenvalues --    3.69632   3.72270   3.93804   4.11600   4.20141
          Condensed to atoms (all electrons):
          Atomic-Atomic Spin Densities.
 Mulliken charges and spin densities:
               1          2
     1  Fe   1.004254   3.832067
     2  N   -0.707661   0.050878
     3  N   -0.699641   0.039706
     4  N   -0.710306   0.042761
     5  N   -0.759452   0.030721
     6  C    0.315998  -0.028966
     7  C    0.036862   0.017455
     8  C    0.022282  -0.016607
     9  C    0.319601   0.004528
    10  C    0.318878   0.005593
    11  C    0.033008  -0.016642
    12  C    0.030190   0.019595
    13  C    0.318823  -0.031822
    14  C    0.319362  -0.035594
    15  C   -0.008063   0.024116
    16  C    0.035163  -0.024045
    17  C    0.315578   0.015046
    18  C    0.329080   0.019927
    19  C   -0.007033  -0.016793
    20  C    0.036819   0.025486
    21  C    0.323348  -0.025484
    22  C   -0.306753   0.013679
    23  H    0.161504  -0.000357
    24  C   -0.338935  -0.002552
    25  H    0.161086   0.000294
    26  C   -0.308632   0.020200
    27  H    0.161589  -0.000630
    28  C   -0.324656  -0.018535
    29  H    0.165880   0.001004
    30  C   -0.609063  -0.000671
    31  H    0.192662   0.000327
    32  H    0.185446   0.000255
    33  H    0.182002   0.000332
    34  C   -0.607310   0.002105
    35  H    0.180547  -0.001176
    36  H    0.191812  -0.000995
    37  H    0.182363   0.000272
    38  C   -0.612884  -0.001534
    39  H    0.182568   0.000618
    40  H    0.190554   0.001062
    41  H    0.193770   0.000446
    42  C   -0.145966   0.005784
    43  H    0.160833  -0.000638
    44  C   -0.403001  -0.007811
    45  H    0.174407   0.000390
    46  H    0.164671   0.000495
    47  C   -0.610625   0.002625
    48  H    0.179015  -0.000839
    49  H    0.191561  -0.001403
    50  H    0.192928   0.000005
    51  C   -0.145327  -0.006248
    52  H    0.164304   0.000473
    53  C   -0.402195   0.009373
    54  H    0.175499  -0.000470
    55  H    0.164413  -0.000418
    56  C   -0.611250  -0.001019
    57  H    0.186777   0.000590
    58  H    0.194995   0.000647
    59  H    0.181651   0.000350
    60  C   -0.607665   0.001885
    61  H    0.181915  -0.000763
    62  H    0.182728   0.000234
    63  H    0.191359  -0.000894
    64  C   -0.601381   0.000717
    65  H    0.196224  -0.000017
    66  H    0.212515   0.000034
    67  H    0.194952   0.000011
    68  N   -0.633538   0.003756
    69  H    0.365685   0.001677
    70  C    0.275539   0.000618
    71  C    0.246778   0.010849
    72  H    0.223261   0.000235
    73  N   -0.494371   0.032333
    74  C   -0.038593   0.000322
    75  H    0.201263   0.001046
 Sum of Mulliken charges =  -0.00000   4.00000
 Mulliken charges and spin densities with hydrogens summed into heavy atoms:
               1          2
     1  Fe   1.004254   3.832067
     2  N   -0.707661   0.050878
     3  N   -0.699641   0.039706
     4  N   -0.710306   0.042761
     5  N   -0.759452   0.030721
     6  C    0.315998  -0.028966
     7  C    0.036862   0.017455
     8  C    0.022282  -0.016607
     9  C    0.319601   0.004528
    10  C    0.318878   0.005593
    11  C    0.033008  -0.016642
    12  C    0.030190   0.019595
    13  C    0.318823  -0.031822
    14  C    0.319362  -0.035594
    15  C   -0.008063   0.024116
    16  C    0.035163  -0.024045
    17  C    0.315578   0.015046
    18  C    0.329080   0.019927
    19  C   -0.007033  -0.016793
    20  C    0.036819   0.025486
    21  C    0.323348  -0.025484
    22  C   -0.145249   0.013322
    24  C   -0.177849  -0.002258
    26  C   -0.147042   0.019570
    28  C   -0.158776  -0.017531
    30  C   -0.048953   0.000243
    34  C   -0.052587   0.000206
    38  C   -0.045994   0.000592
    42  C    0.014867   0.005146
    44  C   -0.063924  -0.006926
    47  C   -0.047121   0.000388
    51  C    0.018977  -0.005775
    53  C   -0.062283   0.008485
    56  C   -0.047827   0.000567
    60  C   -0.051662   0.000462
    64  C    0.002310   0.000745
    68  N   -0.267853   0.005433
    70  C    0.275539   0.000618
    71  C    0.470039   0.011084
    73  N   -0.494371   0.032333
    74  C    0.162670   0.001368
 Electronic spatial extent (au):  <R**2>=          19971.5170
 Charge=             -0.0000 electrons
 Dipole moment (field-independent basis, Debye):
    X=              1.6159    Y=             -1.7006    Z=              6.5451  Tot=              6.9528
 Quadrupole moment (field-independent basis, Debye-Ang):
   XX=           -225.1418   YY=           -229.4223   ZZ=           -220.3608
   XY=             -2.7170   XZ=              4.9630   YZ=             -3.7456
 Traceless Quadrupole moment (field-independent basis, Debye-Ang):
   XX=             -0.1669   YY=             -4.4473   ZZ=              4.6142
   XY=             -2.7170   XZ=              4.9630   YZ=             -3.7456
 Octapole moment (field-independent basis, Debye-Ang**2):
  XXX=             32.2237  YYY=            -20.4600  ZZZ=            177.0098  XYY=             18.4009
  XXY=              2.0940  XXZ=              6.9687  XZZ=             22.5076  YZZ=            -34.2872
  YYZ=            -15.0073  XYZ=            -10.8900
 Hexadecapole moment (field-independent basis, Debye-Ang**3):
 XXXX=         -11462.9472 YYYY=         -11297.8617 ZZZZ=          -2828.7226 XXXY=            -31.7026
 XXXZ=             13.9691 YYYX=             55.9027 YYYZ=             -5.3459 ZZZX=             88.0713
 ZZZY=           -126.3692 XXYY=          -3823.5252 XXZZ=          -2559.1251 YYZZ=          -2579.4852
 XXYZ=             13.9424 YYXZ=             78.4328 ZZXY=            -54.8313
 N-N= 5.546684877910D+03 E-N=-1.792437827511D+04  KE= 2.897087640227D+03
                          Isotropic Fermi Contact Couplings
        Atom                 a.u.       MegaHertz       Gauss      10(-4) cm-1
     1  Fe(57)             0.44282      16.05668       5.72942       5.35593
     2  N(14)              0.09538       7.70471       2.74923       2.57002
     3  N(14)              0.09841       7.94883       2.83634       2.65144
     4  N(14)              0.09077       7.33184       2.61618       2.44564
     5  N(14)              0.07984       6.44887       2.30112       2.15111
     6  C(13)              0.00032       0.08921       0.03183       0.02976
     7  C(13)              0.00590       1.65693       0.59123       0.55269
     8  C(13)              0.00085       0.23994       0.08562       0.08003
     9  C(13)              0.00686       1.92935       0.68844       0.64356
    10  C(13)              0.00534       1.50165       0.53582       0.50090
    11  C(13)              0.00032       0.08875       0.03167       0.02960
    12  C(13)              0.00612       1.71905       0.61340       0.57341
    13  C(13)             -0.00067      -0.18884      -0.06738      -0.06299
    14  C(13)              0.00063       0.17665       0.06303       0.05892
    15  C(13)              0.00684       1.92238       0.68595       0.64124
    16  C(13)             -0.00078      -0.21829      -0.07789      -0.07281
    17  C(13)              0.00654       1.83783       0.65578       0.61304
    18  C(13)              0.00946       2.65986       0.94910       0.88723
    19  C(13)              0.00043       0.12024       0.04291       0.04011
    20  C(13)              0.00716       2.01363       0.71851       0.67167
    21  C(13)              0.00124       0.34954       0.12473       0.11660
    22  C(13)              0.00219       0.61597       0.21979       0.20546
    23  H(1)              -0.00012      -0.12984      -0.04633      -0.04331
    24  C(13)             -0.00074      -0.20789      -0.07418      -0.06934
    25  H(1)               0.00010       0.11086       0.03956       0.03698
    26  C(13)              0.00340       0.95658       0.34133       0.31908
    27  H(1)              -0.00019      -0.21375      -0.07627      -0.07130
    28  C(13)             -0.00293      -0.82324      -0.29375      -0.27460
    29  H(1)               0.00029       0.32581       0.11626       0.10868
    30  C(13)              0.00015       0.04270       0.01524       0.01424
    31  H(1)               0.00026       0.29166       0.10407       0.09729
    32  H(1)               0.00022       0.24957       0.08905       0.08325
    33  H(1)               0.00011       0.11769       0.04199       0.03926
    34  C(13)              0.00125       0.35040       0.12503       0.11688
    35  H(1)              -0.00042      -0.46503      -0.16593      -0.15512
    36  H(1)              -0.00032      -0.35856      -0.12794      -0.11960
    37  H(1)               0.00007       0.08199       0.02926       0.02735
    38  C(13)             -0.00014      -0.03900      -0.01392      -0.01301
    39  H(1)               0.00027       0.30479       0.10876       0.10167
    40  H(1)               0.00051       0.57484       0.20512       0.19175
    41  H(1)               0.00012       0.13206       0.04712       0.04405
    42  C(13)              0.00157       0.44142       0.15751       0.14724
    43  H(1)              -0.00020      -0.22155      -0.07905      -0.07390
    44  C(13)             -0.00106      -0.29870      -0.10658      -0.09964
    45  H(1)               0.00013       0.14405       0.05140       0.04805
    46  H(1)               0.00016       0.17386       0.06204       0.05799
    47  C(13)              0.00129       0.36241       0.12932       0.12089
    48  H(1)              -0.00027      -0.29863      -0.10656      -0.09961
    49  H(1)              -0.00060      -0.67327      -0.24024      -0.22458
    50  H(1)              -0.00005      -0.05714      -0.02039      -0.01906
    51  C(13)             -0.00078      -0.21910      -0.07818      -0.07308
    52  H(1)               0.00021       0.23438       0.08363       0.07818
    53  C(13)              0.00160       0.44885       0.16016       0.14972
    54  H(1)              -0.00015      -0.16896      -0.06029      -0.05636
    55  H(1)              -0.00012      -0.13647      -0.04870      -0.04552
    56  C(13)              0.00001       0.00198       0.00070       0.00066
    57  H(1)               0.00025       0.28194       0.10060       0.09404
    58  H(1)               0.00029       0.32468       0.11585       0.10830
    59  H(1)               0.00011       0.11772       0.04200       0.03927
    60  C(13)              0.00103       0.28933       0.10324       0.09651
    61  H(1)              -0.00035      -0.39037      -0.13929      -0.13021
    62  H(1)               0.00006       0.07102       0.02534       0.02369
    63  H(1)              -0.00040      -0.44340      -0.15822      -0.14790
    64  C(13)              0.00036       0.10198       0.03639       0.03402
    65  H(1)               0.00001       0.01568       0.00559       0.00523
    66  H(1)               0.00003       0.03321       0.01185       0.01108
    67  H(1)               0.00003       0.03624       0.01293       0.01209
    68  N(14)              0.00740       0.59812       0.21342       0.19951
    69  H(1)               0.00046       0.51176       0.18261       0.17070
    70  C(13)              0.00258       0.72630       0.25916       0.24227
    71  C(13)              0.00201       0.56541       0.20175       0.18860
    72  H(1)               0.00003       0.03706       0.01322       0.01236
    73  N(14)              0.09931       8.02155       2.86229       2.67570
    74  C(13)             -0.00197      -0.55386      -0.19763      -0.18475
    75  H(1)               0.00034       0.37628       0.13427       0.12551
 --------------------------------------------------------
       Center         ----  Spin Dipole Couplings  ----
                      3XX-RR        3YY-RR        3ZZ-RR
 --------------------------------------------------------
     1   Atom        0.130608      0.936085     -1.066693
     2   Atom       -0.059009      0.109993     -0.050984
     3   Atom        0.120753     -0.054344     -0.066410
     4   Atom       -0.064540      0.119644     -0.055103
     5   Atom        0.140139     -0.056315     -0.083824
     6   Atom       -0.006419      0.062607     -0.056188
     7   Atom       -0.010554      0.008656      0.001897
     8   Atom        0.009351      0.019946     -0.029298
     9   Atom        0.023928     -0.000417     -0.023511
    10   Atom        0.041465     -0.021403     -0.020062
    11   Atom        0.022321      0.005021     -0.027342
    12   Atom        0.002393     -0.007737      0.005344
    13   Atom        0.018700      0.038238     -0.056938
    14   Atom       -0.002275      0.064231     -0.061956
    15   Atom       -0.013726      0.006176      0.007550
    16   Atom        0.012069      0.022726     -0.034795
    17   Atom        0.015261     -0.000269     -0.014992
    18   Atom        0.041802     -0.030622     -0.011180
    19   Atom        0.023614      0.004062     -0.027677
    20   Atom       -0.000356     -0.011135      0.011491
    21   Atom        0.016315      0.037767     -0.054082
    22   Atom       -0.014444      0.022117     -0.007673
    23   Atom       -0.005296      0.011718     -0.006423
    24   Atom        0.025871     -0.007306     -0.018565
    25   Atom        0.010569     -0.004498     -0.006071
    26   Atom       -0.015810      0.017311     -0.001501
    27   Atom       -0.004977      0.011128     -0.006152
    28   Atom        0.033321      0.001254     -0.034575
    29   Atom        0.010070     -0.003478     -0.006592
    30   Atom       -0.003616      0.006960     -0.003344
    31   Atom       -0.002879      0.005172     -0.002293
    32   Atom       -0.003057      0.006157     -0.003099
    33   Atom       -0.001631      0.003920     -0.002289
    34   Atom        0.002071      0.001405     -0.003476
    35   Atom        0.002205      0.000665     -0.002870
    36   Atom        0.001866      0.000334     -0.002200
    37   Atom        0.000251      0.001936     -0.002187
    38   Atom        0.001456      0.002270     -0.003725
    39   Atom        0.000182      0.003196     -0.003378
    40   Atom        0.000795      0.001405     -0.002200
    41   Atom        0.002304      0.000205     -0.002509
    42   Atom        0.005512     -0.003564     -0.001947
    43   Atom        0.006118     -0.002989     -0.003128
    44   Atom        0.006814     -0.002906     -0.003908
    45   Atom        0.003215     -0.001617     -0.001599
    46   Atom        0.002141     -0.001054     -0.001088
    47   Atom        0.001755      0.001975     -0.003730
    48   Atom        0.002394      0.000593     -0.002987
    49   Atom        0.001126      0.001128     -0.002254
    50   Atom        0.000137      0.002144     -0.002281
    51   Atom       -0.003459      0.009106     -0.005647
    52   Atom       -0.003033      0.006045     -0.003012
    53   Atom       -0.000555     -0.000184      0.000739
    54   Atom       -0.000785      0.002186     -0.001401
    55   Atom       -0.001476      0.002985     -0.001509
    56   Atom        0.001479      0.002039     -0.003518
    57   Atom        0.000624      0.002169     -0.002793
    58   Atom        0.000459      0.002105     -0.002564
    59   Atom        0.002131      0.000150     -0.002281
    60   Atom        0.006700     -0.003031     -0.003669
    61   Atom        0.005627     -0.002824     -0.002803
    62   Atom        0.003762     -0.001546     -0.002216
    63   Atom        0.005033     -0.002673     -0.002360
    64   Atom       -0.002979     -0.003847      0.006826
    65   Atom       -0.002083     -0.002353      0.004437
    66   Atom       -0.001493     -0.003106      0.004600
    67   Atom       -0.002408     -0.002472      0.004880
    68   Atom       -0.009809     -0.003239      0.013047
    69   Atom       -0.003802     -0.004304      0.008106
    70   Atom       -0.007307     -0.009368      0.016676
    71   Atom       -0.015136     -0.004982      0.020117
    72   Atom        0.001989     -0.011183      0.009194
    73   Atom       -0.109320     -0.104239      0.213559
    74   Atom       -0.012930     -0.018704      0.031634
    75   Atom        0.001958     -0.016429      0.014471
 --------------------------------------------------------
                        XY            XZ            YZ
 --------------------------------------------------------
     1   Atom        1.629707     -0.280837      0.312585
     2   Atom       -0.127241     -0.009273      0.016022
     3   Atom        0.120598     -0.026790     -0.016120
     4   Atom       -0.115085      0.005748     -0.013846
     5   Atom        0.122742      0.037514      0.015125
     6   Atom       -0.001268     -0.001956      0.010842
     7   Atom       -0.009207     -0.000381      0.001720
     8   Atom       -0.011660     -0.002862      0.000165
     9   Atom       -0.031532     -0.003219      0.004963
    10   Atom        0.001045     -0.006680     -0.000163
    11   Atom        0.008201     -0.002698      0.000565
    12   Atom        0.011115      0.000431     -0.001845
    13   Atom        0.030661     -0.007331     -0.002501
    14   Atom        0.002075      0.005681     -0.001326
    15   Atom       -0.008350     -0.000800      0.000723
    16   Atom       -0.011256      0.002138     -0.006081
    17   Atom       -0.032998      0.002173     -0.003086
    18   Atom       -0.002663      0.008497     -0.000718
    19   Atom        0.008708      0.000551     -0.000133
    20   Atom        0.012058      0.004851      0.000853
    21   Atom        0.034514      0.003460      0.003332
    22   Atom        0.012877      0.000668      0.007115
    23   Atom        0.005886      0.000835      0.002681
    24   Atom       -0.010931     -0.003951      0.004367
    25   Atom       -0.005380     -0.001863      0.000646
    26   Atom        0.012717      0.000376     -0.002793
    27   Atom        0.006018     -0.000072     -0.000539
    28   Atom       -0.013824      0.004551      0.002040
    29   Atom       -0.005874      0.001704     -0.000463
    30   Atom       -0.001554     -0.000190      0.001281
    31   Atom       -0.000554     -0.000068      0.002293
    32   Atom       -0.000568     -0.000071     -0.000424
    33   Atom       -0.002082     -0.000218      0.000690
    34   Atom       -0.005297     -0.000921      0.000857
    35   Atom       -0.004310      0.000241     -0.000142
    36   Atom       -0.003860     -0.001701      0.001345
    37   Atom       -0.003069     -0.000480      0.000638
    38   Atom        0.005659      0.000761      0.000709
    39   Atom        0.004666     -0.000143     -0.000296
    40   Atom        0.003950      0.001396      0.001587
    41   Atom        0.003760     -0.000003      0.000046
    42   Atom        0.000935      0.000420     -0.002297
    43   Atom       -0.000162     -0.000441      0.000057
    44   Atom       -0.000242      0.002919      0.005674
    45   Atom        0.001899      0.001433      0.000265
    46   Atom        0.000871      0.000632      0.000291
    47   Atom       -0.005272      0.000398     -0.000623
    48   Atom       -0.004463     -0.000349      0.000239
    49   Atom       -0.003783      0.001267     -0.001222
    50   Atom       -0.003003      0.000023     -0.000060
    51   Atom       -0.000513      0.003278     -0.002300
    52   Atom       -0.000084      0.000016      0.000272
    53   Atom       -0.003260     -0.005919      0.001106
    54   Atom       -0.001657      0.000768     -0.000969
    55   Atom       -0.000405     -0.000159     -0.000415
    56   Atom        0.005207     -0.000151     -0.000110
    57   Atom        0.004209      0.000683      0.000925
    58   Atom        0.003950     -0.000909     -0.001206
    59   Atom        0.003266     -0.000148     -0.000103
    60   Atom        0.001380     -0.000607     -0.000084
    61   Atom        0.000590      0.000647      0.000039
    62   Atom        0.001734     -0.000320     -0.000088
    63   Atom        0.000731     -0.001756     -0.000152
    64   Atom       -0.000098     -0.002889      0.000174
    65   Atom        0.000307     -0.001879     -0.001161
    66   Atom       -0.000388     -0.003492      0.000729
    67   Atom       -0.000092     -0.000993      0.000889
    68   Atom        0.004610      0.002744     -0.004790
    69   Atom       -0.000740      0.003591     -0.002878
    70   Atom       -0.000337     -0.003173     -0.001058
    71   Atom       -0.002526      0.019740     -0.016039
    72   Atom       -0.010690      0.021318     -0.011757
    73   Atom       -0.000423      0.003384     -0.033530
    74   Atom       -0.002630     -0.020353      0.005921
    75   Atom       -0.005742     -0.025236      0.006955
 --------------------------------------------------------


 ---------------------------------------------------------------------------------
              Anisotropic Spin Dipole Couplings in Principal Axis System
 ---------------------------------------------------------------------------------

       Atom             a.u.   MegaHertz   Gauss  10(-4) cm-1        Axes

              Baa    -1.5224   -26.357    -9.405    -8.792  0.5739 -0.4660  0.6734
     1 Fe(57) Bbb    -0.6914   -11.969    -4.271    -3.993 -0.5418  0.4006  0.7389
              Bcc     2.2137    38.326    13.676    12.784  0.6141  0.7889  0.0226
 
              Baa    -0.1273    -4.908    -1.751    -1.637  0.8815  0.4722  0.0080
     2 N(14)  Bbb    -0.0525    -2.023    -0.722    -0.675  0.0307 -0.0742  0.9968
              Bcc     0.1797     6.931     2.473     2.312 -0.4713  0.8784  0.0799
 
              Baa    -0.1159    -4.471    -1.595    -1.491 -0.4492  0.8922  0.0474
     3 N(14)  Bbb    -0.0702    -2.706    -0.966    -0.903  0.1308  0.0132  0.9913
              Bcc     0.1861     7.177     2.561     2.394  0.8838  0.4515 -0.1226
 
              Baa    -0.1199    -4.623    -1.649    -1.542  0.9010  0.4337  0.0128
     4 N(14)  Bbb    -0.0561    -2.162    -0.772    -0.721 -0.0395  0.0527  0.9978
              Bcc     0.1759     6.785     2.421     2.263 -0.4321  0.8995 -0.0647
 
              Baa    -0.1156    -4.457    -1.590    -1.487 -0.4423  0.8915  0.0980
     5 N(14)  Bbb    -0.0892    -3.441    -1.228    -1.148 -0.0816 -0.1488  0.9855
              Bcc     0.2048     7.897     2.818     2.634  0.8931  0.4279  0.1385
 
              Baa    -0.0572    -7.680    -2.741    -2.562  0.0361 -0.0897  0.9953
     6 C(13)  Bbb    -0.0064    -0.856    -0.306    -0.286  0.9991  0.0237 -0.0341
              Bcc     0.0636     8.537     3.046     2.848 -0.0206  0.9957  0.0904
 
              Baa    -0.0143    -1.913    -0.683    -0.638  0.9273  0.3739 -0.0179
     7 C(13)  Bbb     0.0016     0.218     0.078     0.073  0.0762 -0.1416  0.9870
              Bcc     0.0126     1.696     0.605     0.566 -0.3665  0.9166  0.1598
 
              Baa    -0.0295    -3.961    -1.413    -1.321  0.0779  0.0150  0.9968
     8 C(13)  Bbb     0.0020     0.270     0.096     0.090  0.8358  0.5441 -0.0735
              Bcc     0.0275     3.691     1.317     1.231 -0.5435  0.8389  0.0298
 
              Baa    -0.0254    -3.415    -1.219    -1.139 -0.2607 -0.4930  0.8300
     9 C(13)  Bbb    -0.0205    -2.756    -0.983    -0.919  0.5085  0.6607  0.5522
              Bcc     0.0460     6.171     2.202     2.058  0.8206 -0.5660 -0.0784
 
              Baa    -0.0214    -2.875    -1.026    -0.959 -0.0082  0.9969  0.0787
    10 C(13)  Bbb    -0.0208    -2.788    -0.995    -0.930  0.1077 -0.0774  0.9912
              Bcc     0.0422     5.663     2.021     1.889  0.9942  0.0166 -0.1067
 
              Baa    -0.0275    -3.693    -1.318    -1.232  0.0593 -0.0323  0.9977
    11 C(13)  Bbb     0.0018     0.246     0.088     0.082 -0.3652  0.9295  0.0518
              Bcc     0.0257     3.447     1.230     1.150  0.9290  0.3674 -0.0434
 
              Baa    -0.0150    -2.019    -0.720    -0.673 -0.5370  0.8390  0.0873
    12 C(13)  Bbb     0.0054     0.725     0.259     0.242  0.1740  0.0090  0.9847
              Bcc     0.0096     1.294     0.462     0.431  0.8254  0.5440 -0.1509
 
              Baa    -0.0576    -7.735    -2.760    -2.580  0.0977 -0.0053  0.9952
    13 C(13)  Bbb    -0.0033    -0.449    -0.160    -0.150  0.7998 -0.5946 -0.0817
              Bcc     0.0610     8.184     2.920     2.730  0.5922  0.8040 -0.0539
 
              Baa    -0.0625    -8.388    -2.993    -2.798 -0.0943  0.0120  0.9955
    14 C(13)  Bbb    -0.0018    -0.241    -0.086    -0.080  0.9951 -0.0294  0.0946
              Bcc     0.0643     8.629     3.079     2.878  0.0304  0.9995 -0.0091
 
              Baa    -0.0168    -2.251    -0.803    -0.751  0.9397  0.3412  0.0208
    15 C(13)  Bbb     0.0071     0.956     0.341     0.319  0.1239 -0.3965  0.9096
              Bcc     0.0097     1.295     0.462     0.432 -0.3186  0.8523  0.4149
 
              Baa    -0.0355    -4.757    -1.698    -1.587 -0.0211  0.0999  0.9948
    16 C(13)  Bbb     0.0050     0.670     0.239     0.224  0.8491  0.5270 -0.0349
              Bcc     0.0305     4.087     1.458     1.363 -0.5278  0.8439 -0.0959
 
              Baa    -0.0265    -3.557    -1.269    -1.186  0.6142  0.7835  0.0941
    17 C(13)  Bbb    -0.0151    -2.029    -0.724    -0.677 -0.1084 -0.0344  0.9935
              Bcc     0.0416     5.586     1.993     1.863  0.7817 -0.6204  0.0638
 
              Baa    -0.0307    -4.123    -1.471    -1.375  0.0341  0.9992  0.0218
    18 C(13)  Bbb    -0.0125    -1.678    -0.599    -0.560 -0.1553 -0.0163  0.9877
              Bcc     0.0432     5.801     2.070     1.935  0.9873 -0.0371  0.1547
 
              Baa    -0.0277    -3.715    -1.326    -1.239 -0.0120  0.0075  0.9999
    19 C(13)  Bbb     0.0007     0.101     0.036     0.034 -0.3557  0.9345 -0.0113
              Bcc     0.0269     3.614     1.290     1.206  0.9345  0.3558  0.0086
 
              Baa    -0.0191    -2.560    -0.913    -0.854 -0.5521  0.8313  0.0644
    20 C(13)  Bbb     0.0046     0.612     0.218     0.204  0.6821  0.4948 -0.5384
              Bcc     0.0145     1.948     0.695     0.650  0.4795  0.2533  0.8402
 
              Baa    -0.0543    -7.285    -2.599    -2.430 -0.0383 -0.0218  0.9990
    21 C(13)  Bbb    -0.0091    -1.219    -0.435    -0.407  0.8044 -0.5938  0.0179
              Bcc     0.0634     8.504     3.035     2.837  0.5929  0.8043  0.0403
 
              Baa    -0.0188    -2.516    -0.898    -0.839  0.9353 -0.3207  0.1495
    22 C(13)  Bbb    -0.0088    -1.185    -0.423    -0.395 -0.2025 -0.1386  0.9694
              Bcc     0.0276     3.701     1.321     1.235  0.2902  0.9370  0.1946
 
              Baa    -0.0071    -3.806    -1.358    -1.270  0.9542 -0.2990  0.0072
    23 H(1)   Bbb    -0.0068    -3.633    -1.296    -1.212 -0.0476 -0.1282  0.9906
              Bcc     0.0139     7.439     2.655     2.482  0.2952  0.9456  0.1366
 
              Baa    -0.0201    -2.692    -0.961    -0.898  0.0054 -0.3198  0.9475
    24 C(13)  Bbb    -0.0096    -1.290    -0.460    -0.430  0.3112  0.9010  0.3023
              Bcc     0.0297     3.982     1.421     1.328  0.9503 -0.2932 -0.1044
 
              Baa    -0.0063    -3.364    -1.201    -1.122 -0.0601 -0.4896  0.8699
    25 H(1)   Bbb    -0.0062    -3.306    -1.180    -1.103  0.3158  0.8173  0.4819
              Bcc     0.0125     6.670     2.380     2.225  0.9469 -0.3037 -0.1056
 
              Baa    -0.0202    -2.713    -0.968    -0.905  0.9434 -0.3247 -0.0674
    26 C(13)  Bbb    -0.0017    -0.227    -0.081    -0.076  0.0984  0.0799  0.9919
              Bcc     0.0219     2.939     1.049     0.980  0.3167  0.9424 -0.1074
 
              Baa    -0.0070    -3.729    -1.331    -1.244  0.9408 -0.3161 -0.1224
    27 H(1)   Bbb    -0.0062    -3.283    -1.172    -1.095  0.1248 -0.0125  0.9921
              Bcc     0.0131     7.013     2.502     2.339  0.3152  0.9486 -0.0277
 
              Baa    -0.0351    -4.715    -1.682    -1.573 -0.0836 -0.0874  0.9927
    28 C(13)  Bbb    -0.0035    -0.469    -0.167    -0.156  0.3373  0.9348  0.1108
              Bcc     0.0386     5.184     1.850     1.729  0.9377 -0.3441  0.0487
 
              Baa    -0.0068    -3.616    -1.290    -1.206 -0.1355 -0.1028  0.9854
    29 H(1)   Bbb    -0.0056    -3.013    -1.075    -1.005  0.3329  0.9321  0.1430
              Bcc     0.0124     6.629     2.365     2.211  0.9332 -0.3474  0.0921
 
              Baa    -0.0038    -0.515    -0.184    -0.172  0.9899  0.1407  0.0148
    30 C(13)  Bbb    -0.0035    -0.470    -0.168    -0.157  0.0024 -0.1212  0.9926
              Bcc     0.0073     0.985     0.351     0.329 -0.1415  0.9826  0.1203
 
              Baa    -0.0030    -1.608    -0.574    -0.536 -0.6474 -0.2459  0.7214
    31 H(1)   Bbb    -0.0028    -1.516    -0.541    -0.506  0.7595 -0.1299  0.6374
              Bcc     0.0059     3.124     1.115     1.042 -0.0631  0.9605  0.2709
 
              Baa    -0.0032    -1.709    -0.610    -0.570  0.6553  0.0738  0.7518
    32 H(1)   Bbb    -0.0030    -1.605    -0.573    -0.535  0.7529  0.0162 -0.6579
              Bcc     0.0062     3.314     1.182     1.105 -0.0607  0.9971 -0.0450
 
              Baa    -0.0024    -1.263    -0.451    -0.421 -0.2119 -0.1757  0.9614
    33 H(1)   Bbb    -0.0023    -1.239    -0.442    -0.413  0.9253  0.2805  0.2553
              Bcc     0.0047     2.502     0.893     0.835 -0.3145  0.9436  0.1031
 
              Baa    -0.0036    -0.486    -0.174    -0.162  0.1555 -0.0046  0.9878
    34 C(13)  Bbb    -0.0036    -0.479    -0.171    -0.160  0.6721  0.7334 -0.1024
              Bcc     0.0072     0.965     0.344     0.322  0.7240 -0.6798 -0.1171
 
              Baa    -0.0030    -1.583    -0.565    -0.528  0.5811  0.6716 -0.4596
    35 H(1)   Bbb    -0.0029    -1.524    -0.544    -0.508  0.2735  0.3707  0.8876
              Bcc     0.0058     3.106     1.108     1.036  0.7665 -0.6415  0.0317
 
              Baa    -0.0029    -1.526    -0.545    -0.509  0.6452  0.5617  0.5179
    36 H(1)   Bbb    -0.0028    -1.481    -0.528    -0.494 -0.1665 -0.5583  0.8128
              Bcc     0.0056     3.007     1.073     1.003  0.7457 -0.6106 -0.2667
 
              Baa    -0.0023    -1.219    -0.435    -0.407  0.0498 -0.1139  0.9922
    37 H(1)   Bbb    -0.0021    -1.115    -0.398    -0.372  0.7971  0.6031  0.0292
              Bcc     0.0044     2.333     0.833     0.778 -0.6018  0.7895  0.1208
 
              Baa    -0.0039    -0.522    -0.186    -0.174 -0.5474  0.4196  0.7241
    38 C(13)  Bbb    -0.0037    -0.502    -0.179    -0.167  0.4894 -0.5414  0.6837
              Bcc     0.0076     1.024     0.365     0.342  0.6789  0.7286  0.0910
 
              Baa    -0.0034    -1.817    -0.648    -0.606 -0.2184  0.1972  0.9557
    39 H(1)   Bbb    -0.0032    -1.706    -0.609    -0.569  0.7788 -0.5549  0.2925
              Bcc     0.0066     3.523     1.257     1.175  0.5880  0.8082 -0.0324
 
              Baa    -0.0029    -1.539    -0.549    -0.514 -0.5972  0.6968 -0.3974
    40 H(1)   Bbb    -0.0027    -1.465    -0.523    -0.489 -0.4635  0.1046  0.8799
              Bcc     0.0056     3.005     1.072     1.002  0.6547  0.7096  0.2605
 
              Baa    -0.0027    -1.419    -0.506    -0.473 -0.5854  0.7724 -0.2464
    41 H(1)   Bbb    -0.0025    -1.333    -0.476    -0.445 -0.1515  0.1943  0.9692
              Bcc     0.0052     2.752     0.982     0.918  0.7965  0.6047  0.0033
 
              Baa    -0.0053    -0.709    -0.253    -0.237 -0.0928  0.8147  0.5724
    42 C(13)  Bbb    -0.0003    -0.044    -0.016    -0.015  0.0326 -0.5721  0.8196
              Bcc     0.0056     0.753     0.269     0.251  0.9951  0.0947  0.0265
 
              Baa    -0.0032    -1.688    -0.602    -0.563  0.0408 -0.2747  0.9607
    43 H(1)   Bbb    -0.0030    -1.589    -0.567    -0.530  0.0304  0.9614  0.2736
              Bcc     0.0061     3.277     1.169     1.093  0.9987 -0.0181 -0.0476
 
              Baa    -0.0094    -1.267    -0.452    -0.422 -0.1434 -0.6520  0.7445
    44 C(13)  Bbb     0.0017     0.230     0.082     0.077 -0.3045  0.7449  0.5937
              Bcc     0.0077     1.037     0.370     0.346  0.9417  0.1416  0.3053
 
              Baa    -0.0024    -1.270    -0.453    -0.423 -0.3873  0.8131  0.4346
    45 H(1)   Bbb    -0.0018    -0.987    -0.352    -0.329 -0.0607 -0.4928  0.8680
              Bcc     0.0042     2.256     0.805     0.753  0.9200  0.3098  0.2402
 
              Baa    -0.0014    -0.733    -0.262    -0.244 -0.0851  0.7868 -0.6112
    46 H(1)   Bbb    -0.0011    -0.598    -0.213    -0.199 -0.2999  0.5648  0.7688
              Bcc     0.0025     1.331     0.475     0.444  0.9502  0.2488  0.1879
 
              Baa    -0.0038    -0.514    -0.183    -0.172  0.1971  0.2798  0.9396
    47 C(13)  Bbb    -0.0034    -0.450    -0.161    -0.150  0.6890  0.6423 -0.3358
              Bcc     0.0072     0.964     0.344     0.322 -0.6975  0.7136 -0.0661
 
              Baa    -0.0031    -1.642    -0.586    -0.548  0.5796  0.6749  0.4567
    48 H(1)   Bbb    -0.0030    -1.594    -0.569    -0.532 -0.2575 -0.3800  0.8884
              Bcc     0.0061     3.236     1.155     1.080  0.7731 -0.6325 -0.0465
 
              Baa    -0.0027    -1.436    -0.512    -0.479 -0.5883 -0.3494  0.7293
    49 H(1)   Bbb    -0.0026    -1.402    -0.500    -0.468  0.4228  0.6359  0.6457
              Bcc     0.0053     2.838     1.013     0.947  0.6893 -0.6882  0.2263
 
              Baa    -0.0023    -1.218    -0.435    -0.406  0.0448  0.0438  0.9980
    50 H(1)   Bbb    -0.0020    -1.080    -0.385    -0.360  0.8102  0.5828 -0.0619
              Bcc     0.0043     2.298     0.820     0.767 -0.5844  0.8114 -0.0094
 
              Baa    -0.0082    -1.094    -0.390    -0.365 -0.5631  0.0927  0.8212
    51 C(13)  Bbb    -0.0014    -0.186    -0.066    -0.062  0.8224  0.1599  0.5459
              Bcc     0.0095     1.280     0.457     0.427 -0.0807  0.9828 -0.1663
 
              Baa    -0.0030    -1.625    -0.580    -0.542  0.8208  0.0247 -0.5706
    52 H(1)   Bbb    -0.0030    -1.605    -0.573    -0.535  0.5711 -0.0193  0.8207
              Bcc     0.0061     3.230     1.152     1.077 -0.0092  0.9995  0.0300
 
              Baa    -0.0064    -0.857    -0.306    -0.286  0.7570  0.2939  0.5835
    53 C(13)  Bbb    -0.0009    -0.121    -0.043    -0.040  0.0304  0.8763 -0.4808
              Bcc     0.0073     0.978     0.349     0.326 -0.6527  0.3817  0.6545
 
              Baa    -0.0019    -1.029    -0.367    -0.343 -0.6202 -0.0657  0.7817
    54 H(1)   Bbb    -0.0013    -0.698    -0.249    -0.233  0.6692  0.4757  0.5708
              Bcc     0.0032     1.727     0.616     0.576 -0.4094  0.8771 -0.2511
 
              Baa    -0.0017    -0.920    -0.328    -0.307  0.6697  0.1222  0.7325
    55 H(1)   Bbb    -0.0013    -0.711    -0.254    -0.237  0.7377  0.0043 -0.6751
              Bcc     0.0031     1.631     0.582     0.544 -0.0856  0.9925 -0.0872
 
              Baa    -0.0035    -0.474    -0.169    -0.158  0.2964 -0.2587  0.9194
    56 C(13)  Bbb    -0.0034    -0.462    -0.165    -0.154  0.6626 -0.6375 -0.3930
              Bcc     0.0070     0.936     0.334     0.312  0.6878  0.7257 -0.0175
 
              Baa    -0.0030    -1.594    -0.569    -0.532  0.3379 -0.4262  0.8391
    57 H(1)   Bbb    -0.0028    -1.515    -0.541    -0.505  0.6958 -0.4872 -0.5277
              Bcc     0.0058     3.110     1.110     1.037  0.6337  0.7622  0.1320
 
              Baa    -0.0029    -1.530    -0.546    -0.511 -0.2276  0.3964  0.8894
    58 H(1)   Bbb    -0.0027    -1.455    -0.519    -0.485  0.7513 -0.5096  0.4193
              Bcc     0.0056     2.986     1.065     0.996  0.6194  0.7637 -0.1819
 
              Baa    -0.0023    -1.220    -0.435    -0.407  0.2234 -0.2598  0.9395
    59 H(1)   Bbb    -0.0023    -1.211    -0.432    -0.404 -0.5526  0.7602  0.3417
              Bcc     0.0046     2.432     0.868     0.811  0.8029  0.5955 -0.0263
 
              Baa    -0.0037    -0.497    -0.177    -0.166  0.0572  0.0075  0.9983
    60 C(13)  Bbb    -0.0032    -0.432    -0.154    -0.144 -0.1377  0.9905  0.0005
              Bcc     0.0069     0.930     0.332     0.310  0.9888  0.1375 -0.0577
 
              Baa    -0.0029    -1.530    -0.546    -0.510 -0.0926  0.9228  0.3739
    61 H(1)   Bbb    -0.0029    -1.521    -0.543    -0.507 -0.0442 -0.3790  0.9243
              Bcc     0.0057     3.050     1.088     1.017  0.9947  0.0690  0.0759
 
              Baa    -0.0022    -1.192    -0.425    -0.398  0.0601 -0.0237  0.9979
    62 H(1)   Bbb    -0.0021    -1.100    -0.393    -0.367 -0.2831  0.9583  0.0398
              Bcc     0.0043     2.292     0.818     0.764  0.9572  0.2849 -0.0509
 
              Baa    -0.0028    -1.474    -0.526    -0.492  0.2345 -0.5025  0.8321
    63 H(1)   Bbb    -0.0027    -1.459    -0.521    -0.487  0.0343  0.8598  0.5095
              Bcc     0.0055     2.933     1.047     0.978  0.9715  0.0910 -0.2189
 
              Baa    -0.0039    -0.520    -0.185    -0.173  0.4093  0.9074  0.0958
    64 C(13)  Bbb    -0.0037    -0.502    -0.179    -0.168  0.8736 -0.4200  0.2457
              Bcc     0.0076     1.022     0.365     0.341 -0.2632  0.0169  0.9646
 
              Baa    -0.0026    -1.380    -0.492    -0.460  0.9596  0.0797  0.2699
    65 H(1)   Bbb    -0.0025    -1.358    -0.485    -0.453 -0.1188  0.9842  0.1317
              Bcc     0.0051     2.738     0.977     0.913 -0.2551 -0.1584  0.9538
 
              Baa    -0.0032    -1.708    -0.609    -0.570  0.3910  0.9160  0.0894
    66 H(1)   Bbb    -0.0031    -1.632    -0.582    -0.544  0.8227 -0.3914  0.4124
              Bcc     0.0063     3.340     1.192     1.114 -0.4127  0.0877  0.9066
 
              Baa    -0.0026    -1.383    -0.493    -0.461 -0.4491  0.8783 -0.1641
    67 H(1)   Bbb    -0.0025    -1.348    -0.481    -0.450  0.8838  0.4637  0.0628
              Bcc     0.0051     2.731     0.974     0.911 -0.1313  0.1168  0.9844
 
              Baa    -0.0130    -0.503    -0.179    -0.168  0.8533 -0.4896 -0.1797
    68 N(14)  Bbb    -0.0014    -0.054    -0.019    -0.018  0.5177  0.8366  0.1789
              Bcc     0.0144     0.557     0.199     0.186  0.0628 -0.2457  0.9673
 
              Baa    -0.0050    -2.643    -0.943    -0.882 -0.2861  0.9162  0.2806
    69 H(1)   Bbb    -0.0048    -2.550    -0.910    -0.851  0.9219  0.3430 -0.1803
              Bcc     0.0097     5.193     1.853     1.732  0.2614 -0.2071  0.9427
 
              Baa    -0.0095    -1.279    -0.456    -0.427  0.2450  0.9671  0.0687
    70 C(13)  Bbb    -0.0076    -1.020    -0.364    -0.340  0.9610 -0.2516  0.1147
              Bcc     0.0171     2.298     0.820     0.767 -0.1282 -0.0379  0.9910
 
              Baa    -0.0251    -3.372    -1.203    -1.125  0.8471 -0.2619 -0.4624
    71 C(13)  Bbb    -0.0100    -1.341    -0.479    -0.447  0.3945  0.8929  0.2170
              Bcc     0.0351     4.714     1.682     1.572  0.3561 -0.3662  0.8597
 
              Baa    -0.0172    -9.155    -3.267    -3.054  0.5260  0.8492 -0.0467
    72 H(1)   Bbb    -0.0158    -8.414    -3.002    -2.807 -0.5922  0.4051  0.6965
              Bcc     0.0329    17.569     6.269     5.860  0.6104 -0.3388  0.7160
 
              Baa    -0.1094    -4.218    -1.505    -1.407  0.9990  0.0437 -0.0059
    73 N(14)  Bbb    -0.1077    -4.155    -1.483    -1.386 -0.0428  0.9936  0.1041
              Bcc     0.2171     8.373     2.988     2.793  0.0104 -0.1038  0.9945
 
              Baa    -0.0209    -2.803    -1.000    -0.935  0.9205  0.2034  0.3337
    74 C(13)  Bbb    -0.0193    -2.597    -0.927    -0.866 -0.1521  0.9730 -0.1737
              Bcc     0.0402     5.400     1.927     1.801 -0.3601  0.1091  0.9265
 
              Baa    -0.0181    -9.679    -3.454    -3.228  0.5208  0.8228  0.2275
    75 H(1)   Bbb    -0.0176    -9.408    -3.357    -3.138  0.5995 -0.5423  0.5887
              Bcc     0.0358    19.086     6.810     6.366 -0.6078  0.1702  0.7756
 

 ---------------------------------------------------------------------------------

 Unable to Open any file for archive entry.
 1\1\GINC-BGN1032\SP\UAPFD\Gen\C34H34Fe1N6(5)\BECSLEIP\31-Aug-2024\0\\#
  apfd/gen scf=maxcycle=999 geom=check\\2mgl_II_Q\\0,5\Fe,0,35.19639337
 43,4.1836118687,9.9716619939\N,0,37.137834686,4.0168950162,9.524938957
 7\N,0,35.641494358,3.1688606861,11.7223177542\N,0,33.4186087621,4.6356
 036797,10.8320240138\N,0,34.94108849,5.5698924672,8.6134677365\C,0,37.
 7124545582,4.5289225044,8.3944525979\C,0,39.0590627286,4.0305161668,8.
 2296023144\C,0,39.3176210107,3.2659193604,9.3239560603\C,0,38.11337563
 69,3.280510364,10.1236552002\C,0,36.8018361027,2.5276538332,12.0408110
 899\C,0,36.6849437555,1.8137461169,13.2911012075\C,0,35.4277637655,2.0
 550788378,13.7459926738\C,0,34.8160616378,2.951723696,12.7888027039\C,
 0,32.890561732,4.2402546695,12.0173683346\C,0,31.6351962484,4.90877651
 24,12.2873779418\C,0,31.4025250389,5.7175532526,11.2074341675\C,0,32.5
 33837294,5.5546346129,10.3301911622\C,0,33.8198892675,6.3020561329,8.3
 706901643\C,0,33.9474125533,7.0452511791,7.1335815963\C,0,35.206734094
 5,6.7792094403,6.6622920481\C,0,35.8037590822,5.8599714904,7.595635493
 6\C,0,37.1007756162,5.3849567723,7.4988008067\H,0,37.685884697,5.71101
 74862,6.6522354256\C,0,37.9553776266,2.5448526282,11.2813097709\H,0,38
 .805097063,1.9869718644,11.6435427374\C,0,33.5068939252,3.3720755219,1
 2.8980006367\H,0,32.975370722,3.108956418,13.7994707442\C,0,32.6922944
 73,6.2924079764,9.1688130414\H,0,31.88667562,6.957089329,8.8956136195\
 C,0,39.9475287944,4.3651029598,7.0811648945\H,0,40.1417273053,5.437330
 6858,7.0471812465\H,0,39.4815944541,4.0755744041,6.1391566234\H,0,40.9
 000749772,3.8479358281,7.1659910719\C,0,40.5592610149,2.5286648831,9.6
 924520586\H,0,40.3645648567,1.4585735297,9.7720129768\H,0,40.936309311
 4,2.8754741354,10.6545509542\H,0,41.3351940694,2.6809831413,8.94644020
 18\C,0,35.8400213951,7.2446558128,5.3978622556\H,0,36.4284781317,6.447
 9595075,4.9454097515\H,0,36.5034989692,8.0905581105,5.584768453\H,0,35
 .0751107006,7.5584557881,4.6905397048\C,0,32.9137098693,7.8865406804,6
 .5714240747\H,0,31.8964453479,7.561173476,6.7570944253\C,0,33.11499425
 01,8.9973305089,5.8700186788\H,0,34.0990442908,9.3958646706,5.69642165
 81\H,0,32.2925871209,9.5653145747,5.4676561759\C,0,30.2248979565,6.588
 4925534,10.9413519426\H,0,29.93782535,6.5407748983,9.8917126698\H,0,30
 .4468068285,7.6290428741,11.1833774847\H,0,29.3806441117,6.266783911,1
 1.5477058132\C,0,30.8303207802,4.698515255,13.4706931903\H,0,30.856893
 5428,3.6963713267,13.8831549376\C,0,30.0938672927,5.6249000579,14.0748
 438362\H,0,30.0706851281,6.6469219166,13.7391007151\H,0,29.509008996,5
 .3966835191,14.9503934705\C,0,34.7694544182,1.5799766145,14.9952273718
 \H,0,33.8540795178,1.0354263081,14.7629115232\H,0,34.5091104851,2.4225
 020986,15.6359640234\H,0,35.4291395865,0.9184068824,15.5512332756\C,0,
 37.7695811724,0.9882031403,13.8934169047\H,0,38.0761605499,0.195580991
 3,13.2103107272\H,0,37.4362014431,0.5308234763,14.8216324256\H,0,38.64
 22100868,1.6047124549,14.1099610641\C,0,32.2821308525,0.75748407,6.674
 5297605\H,0,32.6938587842,0.5183286161,5.6940742023\H,0,31.4699101453,
 1.4660456162,6.546823085\H,0,31.8824311739,-0.1584926025,7.1090403657\
 N,0,34.4477260211,0.6595437967,7.9269660736\H,0,34.6804057428,-0.28110
 0936,7.6535896896\C,0,33.3229019686,1.3464697643,7.554400133\C,0,35.18
 11156095,1.4715189712,8.7229961537\H,0,36.1174599577,1.1957050918,9.16
 49080854\N,0,34.5883278768,2.6339920344,8.8783955333\C,0,33.4301035983
 ,2.568802073,8.153774575\H,0,32.7577722442,3.4021226456,8.116223767\\V
 ersion=ES64L-G16RevC.02\State=5-A\HF=-2907.0231286\S2=6.081953\S2-1=0.
 \S2A=6.000411\RMSD=4.647e-09\Dipole=-0.1804759,-2.3785139,-1.33894\Qua
 drupole=-2.8244074,5.2693755,-2.4449681,-2.2240761,0.2748574,3.3054466
 \PG=C01 [X(C34H34Fe1N6)]\\@
 The archive entry for this job was punched.


 TO ERR IS HUMAN - AND TO BLAME IT ON A COMPUTER IS EVEN MORE SO.
 Job cpu time:       0 days  7 hours 53 minutes 10.9 seconds.
 Elapsed time:       0 days  0 hours  8 minutes  5.9 seconds.
 File lengths (MBytes):  RWF=    408 Int=      0 D2E=      0 Chk=    150 Scr=      1
 Normal termination of Gaussian 16 at Sat Aug 31 23:31:02 2024.
