 Entering Gaussian System, Link 0=g16
 Input=2oh805re.com
 Output=2oh805re.log
 Initial command:
 /sw/chem/gaussian/g16_C02/a100/g16/l1.exe "/local/becsleip_8001139/Gau-2393711.inp" -scrdir="/local/becsleip_8001139/"
 Entering Link 1 = /sw/chem/gaussian/g16_C02/a100/g16/l1.exe PID=   2393712.
  
 Copyright (c) 1988-2021, Gaussian, Inc.  All Rights Reserved.
  
 This is part of the Gaussian(R) 16 program.  It is based on
 the Gaussian(R) 09 system (copyright 2009, Gaussian, Inc.),
 the Gaussian(R) 03 system (copyright 2003, Gaussian, Inc.),
 the Gaussian(R) 98 system (copyright 1998, Gaussian, Inc.),
 the Gaussian(R) 94 system (copyright 1995, Gaussian, Inc.),
 the Gaussian 92(TM) system (copyright 1992, Gaussian, Inc.),
 the Gaussian 90(TM) system (copyright 1990, Gaussian, Inc.),
 the Gaussian 88(TM) system (copyright 1988, Gaussian, Inc.),
 the Gaussian 86(TM) system (copyright 1986, Carnegie Mellon
 University), and the Gaussian 82(TM) system (copyright 1983,
 Carnegie Mellon University). Gaussian is a federally registered
 trademark of Gaussian, Inc.
  
 This software contains proprietary and confidential information,
 including trade secrets, belonging to Gaussian, Inc.
  
 This software is provided under written license and may be
 used, copied, transmitted, or stored only in accord with that
 written license.
  
 The following legend is applicable only to US Government
 contracts under FAR:
  
                    RESTRICTED RIGHTS LEGEND
  
 Use, reproduction and disclosure by the US Government is
 subject to restrictions as set forth in subparagraphs (a)
 and (c) of the Commercial Computer Software - Restricted
 Rights clause in FAR 52.227-19.
  
 Gaussian, Inc.
 340 Quinnipiac St., Bldg. 40, Wallingford CT 06492
  
  
 ---------------------------------------------------------------
 Warning -- This program may not be used in any manner that
 competes with the business of Gaussian, Inc. or will provide
 assistance to any competitor of Gaussian, Inc.  The licensee
 of this program is prohibited from giving any competitor of
 Gaussian, Inc. access to this program.  By using this program,
 the user acknowledges that Gaussian, Inc. is engaged in the
 business of creating and licensing software in the field of
 computational chemistry and represents and warrants to the
 licensee that it is not a competitor of Gaussian, Inc. and that
 it will not use this program in any manner prohibited above.
 ---------------------------------------------------------------
  

 Cite this work as:
 Gaussian 16, Revision C.02,
 M. J. Frisch, G. W. Trucks, H. B. Schlegel, G. E. Scuseria, 
 M. A. Robb, J. R. Cheeseman, G. Scalmani, V. Barone, 
 G. A. Petersson, H. Nakatsuji, X. Li, M. Caricato, A. V. Marenich, 
 J. Bloino, B. G. Janesko, R. Gomperts, B. Mennucci, H. P. Hratchian, 
 J. V. Ortiz, A. F. Izmaylov, J. L. Sonnenberg, D. Williams-Young, 
 F. Ding, F. Lipparini, F. Egidi, J. Goings, B. Peng, A. Petrone, 
 T. Henderson, D. Ranasinghe, V. G. Zakrzewski, J. Gao, N. Rega, 
 G. Zheng, W. Liang, M. Hada, M. Ehara, K. Toyota, R. Fukuda, 
 J. Hasegawa, M. Ishida, T. Nakajima, Y. Honda, O. Kitao, H. Nakai, 
 T. Vreven, K. Throssell, J. A. Montgomery, Jr., J. E. Peralta, 
 F. Ogliaro, M. J. Bearpark, J. J. Heyd, E. N. Brothers, K. N. Kudin, 
 V. N. Staroverov, T. A. Keith, R. Kobayashi, J. Normand, 
 K. Raghavachari, A. P. Rendell, J. C. Burant, S. S. Iyengar, 
 J. Tomasi, M. Cossi, J. M. Millam, M. Klene, C. Adamo, R. Cammi, 
 J. W. Ochterski, R. L. Martin, K. Morokuma, O. Farkas, 
 J. B. Foresman, and D. J. Fox, Gaussian, Inc., Wallingford CT, 2019.
 
 ******************************************
 Gaussian 16:  ES64L-G16RevC.02  7-Dec-2021
                 2-Sep-2024 
 ******************************************
 %mem=16GB
 %CPU=0-71
 SetSPE:  set environment variable "OMP_PROC_BIND" = "true"
 SetSPE:  set environment variable "OMP_PLACES" = "{0},{1},{2},{3},{4},{5},{6},{7},{8},{9},{10},{11},{12},{13},{14},{15},{16},{17},{18},{19},{20},{21},{22},{23},{24},{25},{26},{27},{28},{29},{30},{31},{32},{33},{34},{35},{36},{37},{38},{39},{40},{41},{42},{43},{44},{45},{46},{47},{48},{49},{50},{51},{52},{53},{54},{55},{56},{57},{58},{59},{60},{61},{62},{63},{64},{65},{66},{67},{68},{69},{70},{71}"
 Will use up to   72 processors via shared memory.
 %gpucpu=0,1,2,3=0,1,2,3
 Will use    4 GPUs:
 Thread  CPU   GPU
      0    0     0
      1    1     1
      2    2     2
      3    3     3
      4    4    -1
      5    5    -1
      6    6    -1
      7    7    -1
      8    8    -1
      9    9    -1
     10   10    -1
     11   11    -1
     12   12    -1
     13   13    -1
     14   14    -1
     15   15    -1
     16   16    -1
     17   17    -1
     18   18    -1
     19   19    -1
     20   20    -1
     21   21    -1
     22   22    -1
     23   23    -1
     24   24    -1
     25   25    -1
     26   26    -1
     27   27    -1
     28   28    -1
     29   29    -1
     30   30    -1
     31   31    -1
     32   32    -1
     33   33    -1
     34   34    -1
     35   35    -1
     36   36    -1
     37   37    -1
     38   38    -1
     39   39    -1
     40   40    -1
     41   41    -1
     42   42    -1
     43   43    -1
     44   44    -1
     45   45    -1
     46   46    -1
     47   47    -1
     48   48    -1
     49   49    -1
     50   50    -1
     51   51    -1
     52   52    -1
     53   53    -1
     54   54    -1
     55   55    -1
     56   56    -1
     57   57    -1
     58   58    -1
     59   59    -1
     60   60    -1
     61   61    -1
     62   62    -1
     63   63    -1
     64   64    -1
     65   65    -1
     66   66    -1
     67   67    -1
     68   68    -1
     69   69    -1
     70   70    -1
     71   71    -1
 SetGPE:  set environment variable "OMP_PROC_BIND" = "true"
 SetGPE:  set environment variable "OMP_PLACES" = "{0},{1},{2},{3},{4},{5},{6},{7},{8},{9},{10},{11},{12},{13},{14},{15},{16},{17},{18},{19},{20},{21},{22},{23},{24},{25},{26},{27},{28},{29},{30},{31},{32},{33},{34},{35},{36},{37},{38},{39},{40},{41},{42},{43},{44},{45},{46},{47},{48},{49},{50},{51},{52},{53},{54},{55},{56},{57},{58},{59},{60},{61},{62},{63},{64},{65},{66},{67},{68},{69},{70},{71}"
 %oldchk=2oh8_II_S.chk
 %chk=2oh8_II_Sre.chk
 Properties for Device   0
 Minimum vector length:                              32
 Maximum vector length:                            1024
 Number of SMPs:                                    108
 Maximum number of threads per SMP:                2048
 Number of ASync Engines:                             5
 Memory:                                           9207742464
 Properties for Device   1
 Minimum vector length:                              32
 Maximum vector length:                            1024
 Number of SMPs:                                    108
 Maximum number of threads per SMP:                2048
 Number of ASync Engines:                             5
 Memory:                                           9207742464
 Properties for Device   2
 Minimum vector length:                              32
 Maximum vector length:                            1024
 Number of SMPs:                                    108
 Maximum number of threads per SMP:                2048
 Number of ASync Engines:                             5
 Memory:                                           9207742464
 Properties for Device   3
 Minimum vector length:                              32
 Maximum vector length:                            1024
 Number of SMPs:                                    108
 Maximum number of threads per SMP:                2048
 Number of ASync Engines:                             5
 Memory:                                           9207742464
   8286968217 words of memory will be used on each GPU.
 Copying data from "2oh8_II_S.chk" to current chk file "2oh8_II_Sre.chk"
 IOpt=  2 FromEx=T IUOpen= 4 IOptOp= 5 NList=   0 IFRang= 0 IUIn= 4 IUOut= 2.
 --------------------------------------
 # apfd/gen scf=maxcycle=999 geom=check
 --------------------------------------
 1/29=2,38=1,172=1/1;
 2/12=2,40=1/2;
 3/5=7,11=2,14=-4,25=1,30=1,74=-44/1,2,3;
 4//1;
 5/5=2,7=999,38=5/2;
 6/7=2,8=2,9=2,10=2,28=1/1;
 99/5=1,9=1/99;
 ---------
 2oh8_II_Q
 ---------
 Structure from the checkpoint file:  "2oh8_II_Sre.chk"
 Charge =  0 Multiplicity = 5
 Z-Matrix found in chk file.
 Fe,0,35.0991800535,3.8440867552,10.4577422504
 N,0,36.9813423358,3.5518423558,9.8244683078
 N,0,34.8015239571,5.0899983604,8.9007796607
 N,0,33.2313697424,4.195612022,11.0867433565
 N,0,35.4261614542,2.6381153602,12.0037756896
 C,0,37.9208482555,2.7670986367,10.416730466
 C,0,39.17075821,2.8250968304,9.6905506441
 C,0,38.9655267497,3.6728353014,8.6477374941
 C,0,37.5992708992,4.1347475267,8.7639974796
 C,0,35.7080375152,5.4682940706,7.9606859695
 C,0,35.1285372139,6.4025868242,7.0290181954
 C,0,33.8325856681,6.5885956716,7.4280187951
 C,0,33.652889282,5.7503725989,8.5990605131
 C,0,32.3115239169,5.0280915057,10.5250232573
 C,0,31.142637142,5.1371795918,11.3572220245
 C,0,31.3674947918,4.3313145591,12.4435701379
 C,0,32.6771954125,3.7440413803,12.2416809546
 C,0,34.5444539094,2.3371559066,12.9935807606
 C,0,35.1676544345,1.4976048912,13.9942666709
 C,0,36.4513292882,1.3081130448,13.5876764282
 C,0,36.5887899809,2.0187547375,12.3352102166
 C,0,37.7527970003,2.0545849441,11.5906244138
 H,0,38.6011907381,1.5006922123,11.9634509356
 C,0,37.0176526185,5.0288580713,7.8889221159
 H,0,37.6355016122,5.4231162036,7.0967510145
 C,0,32.49536502,5.7420923237,9.3529959661
 H,0,31.6795011664,6.3646436051,9.0186653568
 C,0,33.2596836741,2.8338084936,13.1052236203
 H,0,32.6897120397,2.5335738739,13.9711284498
 C,0,39.9117399719,4.1049933276,7.5804254852
 H,0,40.8753224214,3.6143518204,7.6950029203
 H,0,40.0695363681,5.1830900405,7.6208338064
 H,0,39.5157938095,3.8585668719,6.594974106
 C,0,40.3999238145,2.0699299442,10.0664536606
 H,0,40.1983610274,0.9991039732,10.1042904739
 H,0,40.7553297179,2.380978214,11.049292677
 H,0,41.195586338,2.2431800721,9.3459709321
 C,0,35.8232958581,6.97042211,5.840658694
 H,0,36.4497424533,6.2171634478,5.3650809579
 H,0,36.4610770113,7.8084901435,6.1264499561
 H,0,35.0939007663,7.3250226369,5.1153967501
 C,0,32.7996099887,7.4094624214,6.8358240498
 H,0,31.7914969377,7.0162204583,6.9028099477
 C,0,32.9938683909,8.5819192338,6.2404993104
 H,0,33.9647030286,9.0426946103,6.1874454484
 H,0,32.1779788919,9.1362195693,5.8066999612
 C,0,29.9230649392,5.9238665619,11.0239605905
 H,0,29.7109618477,5.8719145542,9.9570948444
 H,0,30.0501758922,6.9745939435,11.2905220148
 H,0,29.0662079984,5.5329687399,11.5690531944
 C,0,30.5100709391,4.071887849,13.5785468041
 H,0,30.5743361869,3.0737741892,13.99620494
 C,0,29.6810277762,4.9489779101,14.1355448046
 H,0,29.6104969863,5.9673402508,13.7950839635
 H,0,29.0595055006,4.6824294285,14.9743181929
 C,0,34.4804364032,0.9923235586,15.2163071854
 H,0,33.5919831524,0.4206891851,14.9475854005
 H,0,34.1686176183,1.821836169,15.8517498087
 H,0,35.1400544298,0.3489827217,15.7937046272
 C,0,37.5465360677,0.5358235986,14.2408592589
 H,0,37.8861189382,-0.2735857116,13.593593139
 H,0,37.2086473791,0.1038403624,15.1796115073
 H,0,38.399727103,1.1818956377,14.4482747794
 O,0,35.683,5.637,11.716
 H,0,34.859,6.028,12.005
 H,0,36.499,5.885,11.967
 C,0,32.2602714851,0.4396593841,7.0731042775
 H,0,32.739515829,0.1052897118,6.1530941258
 H,0,31.519403057,1.19309208,6.8253842318
 H,0,31.7534413962,-0.4137699785,7.523095733
 N,0,34.3202946777,0.2944373917,8.4910417892
 H,0,34.5278742998,-0.6657240353,8.270669867
 C,0,33.2588558625,1.0150103975,8.0095026149
 C,0,35.0283939502,1.1054949584,9.30963804
 H,0,35.9152417422,0.8078901307,9.82986631
 N,0,34.4799772074,2.2941729853,9.375509366
 C,0,33.3787205887,2.2534580724,8.5717932045
 H,0,32.750569659,3.1115350201,8.4528095919
 Recover connectivity data from disk.
 Stoichiometry    C34H36FeN6O(5)
 Framework group  C1[X(C34H36FeN6O)]
 Deg. of freedom   228
 Full point group                 C1      NOp   1
 Largest Abelian subgroup         C1      NOp   1
 Largest concise Abelian subgroup C1      NOp   1
                         Standard orientation:                         
 ---------------------------------------------------------------------
 Center     Atomic      Atomic             Coordinates (Angstroms)
 Number     Number       Type             X           Y           Z
 ---------------------------------------------------------------------
      1         26           0        0.220250   -0.036777   -0.302813
      2          7           0        1.477709   -1.598217   -0.401200
      3          7           0       -1.331608   -1.323126   -0.348320
      4          7           0       -1.063395    1.498711   -0.253203
      5          7           0        1.765247    1.213978   -0.292810
      6          6           0        2.836070   -1.541551   -0.431397
      7          6           0        3.403558   -2.868515   -0.531903
      8          6           0        2.352241   -3.729604   -0.570622
      9          6           0        1.158384   -2.914196   -0.512744
     10          6           0       -1.279189   -2.676737   -0.465107
     11          6           0       -2.603001   -3.245182   -0.498574
     12          6           0       -3.474464   -2.194447   -0.399579
     13          6           0       -2.651414   -1.003174   -0.301065
     14          6           0       -2.423744    1.441846   -0.282956
     15          6           0       -2.989875    2.759968   -0.396091
     16          6           0       -1.932035    3.632066   -0.419582
     17          6           0       -0.738582    2.816105   -0.315455
     18          6           0        1.704701    2.571751   -0.270808
     19          6           0        3.031189    3.143277   -0.362371
     20          6           0        3.892999    2.095145   -0.450389
     21          6           0        3.082655    0.898251   -0.392386
     22          6           0        3.594942   -0.384816   -0.436009
     23          1           0        4.667380   -0.492351   -0.498324
     24          6           0       -0.121186   -3.429167   -0.543998
     25          1           0       -0.224779   -4.498162   -0.649968
     26          6           0       -3.171551    0.276506   -0.285996
     27          1           0       -4.245964    0.377047   -0.308541
     28          6           0        0.546508    3.325627   -0.265939
     29          1           0        0.658014    4.398876   -0.288377
     30          6           0        2.351329   -5.216234   -0.676293
     31          1           0        3.367019   -5.604130   -0.692364
     32          1           0        1.848291   -5.535849   -1.589323
     33          1           0        1.827508   -5.659962    0.170662
     34          6           0        4.865105   -3.159455   -0.572678
     35          1           0        5.363578   -2.755685    0.308923
     36          1           0        5.321325   -2.708083   -1.454247
     37          1           0        5.045141   -4.231186   -0.606897
     38          6           0       -2.909244   -4.701202   -0.558128
     39          1           0       -2.210890   -5.266560    0.057241
     40          1           0       -2.834923   -5.072890   -1.581418
     41          1           0       -3.919098   -4.885730   -0.197700
     42          6           0       -4.920245   -2.202346   -0.364791
     43          1           0       -5.378990   -1.442243    0.257476
     44          6           0       -5.702376   -3.046459   -1.030033
     45          1           0       -5.304121   -3.789107   -1.698999
     46          1           0       -6.775946   -3.004951   -0.947381
     47          6           0       -4.446308    3.069819   -0.405517
     48          1           0       -4.985490    2.406360    0.269016
     49          1           0       -4.866256    2.946172   -1.405315
     50          1           0       -4.611300    4.097768   -0.088926
     51          6           0       -1.942627    5.074816   -0.514512
     52          1           0       -1.148910    5.585550    0.018370
     53          6           0       -2.825181    5.796532   -1.197938
     54          1           0       -3.604866    5.343156   -1.784874
     55          1           0       -2.780617    6.872927   -1.214263
     56          6           0        3.319409    4.605400   -0.371681
     57          1           0        2.918059    5.080750    0.523466
     58          1           0        2.862437    5.080949   -1.240093
     59          1           0        4.390632    4.788902   -0.406016
     60          6           0        5.378461    2.099576   -0.576639
     61          1           0        5.838721    1.593379    0.272677
     62          1           0        5.760320    3.116756   -0.616169
     63          1           0        5.687155    1.582017   -1.485048
     64          8           0        0.079585    0.134237   -2.558819
     65          1           0       -0.620234    0.764839   -2.726068
     66          1           0        0.611951   -0.234035   -3.168182
     67          6           0       -1.131223   -0.053961    5.108151
     68          1           0       -0.957004   -0.963285    5.683194
     69          1           0       -2.194995    0.035290    4.912358
     70          1           0       -0.814608    0.796716    5.711322
     71          7           0        0.972190   -0.210143    3.756635
     72          1           0        1.594721   -0.277778    4.544952
     73          6           0       -0.391626   -0.093486    3.821110
     74          6           0        1.321510   -0.216243    2.450015
     75          1           0        2.329165   -0.296295    2.097980
     76          7           0        0.262772   -0.110379    1.684559
     77          6           0       -0.810384   -0.033565    2.522903
     78          1           0       -1.804853    0.059282    2.138926
 ---------------------------------------------------------------------
 Rotational constants (GHZ):           0.0924685           0.0912706           0.0594232
 General basis read from cards:  (5D, 7F)
 There are   723 symmetry adapted cartesian basis functions of A   symmetry.
 There are   679 symmetry adapted basis functions of A   symmetry.
   679 basis functions,  1378 primitive gaussians,   723 cartesian basis functions
   160 alpha electrons      156 beta electrons
       nuclear repulsion energy      5965.1724686214 Hartrees.
 NAtoms=   78 NActive=   78 NUniq=   78 SFac= 1.00D+00 NAtFMM=   60 NAOKFM=T Big=T
 Integral buffers will be    131072 words long.
 Raffenetti 2 integral format.
 Two-electron integral symmetry is turned on.
 R6APFD:  NTU= -4 IXU= 1 FactS= 1.050
 Nuclear repulsion after empirical dispersion term =     5965.0198123665 Hartrees.
 One-electron integrals computed using PRISM.
 NBasis=   679 RedAO= T EigKep=  2.55D-04  NBF=   679
 NBsUse=   679 1.00D-06 EigRej= -1.00D+00 NBFU=   679
 ExpMin= 4.20D-02 ExpMax= 3.01D+05 ExpMxC= 2.91D+03 IAcc=3 IRadAn=         5 AccDes= 0.00D+00
 Harris functional with IExCor= 3731 and IRadAn=       5 diagonalized for initial guess.
 HarFok:  IExCor= 3731 AccDes= 0.00D+00 IRadAn=         5 IDoV= 1 UseB2=F ITyADJ=14
 ICtDFT=  3500011 ScaDFX=  1.000000  1.000000  1.000000  1.000000
 FoFCou: FMM=F IPFlag=           0 FMFlag=      100000 FMFlg1=        2001
         NFxFlg=           0 DoJE=T BraDBF=F KetDBF=T FulRan=T
         wScrn=  0.000000 ICntrl=       500 IOpCl=  0 I1Cent=   200000004 NGrid=           0
         NMat0=    1 NMatS0=      1 NMatT0=    0 NMatD0=    1 NMtDS0=    0 NMtDT0=    0
 Petite list used in FoFCou.
 Initial guess <Sx>= 0.0000 <Sy>= 0.0000 <Sz>= 2.0000 <S**2>= 6.0000 S= 2.0000
 Requested convergence on RMS density matrix=1.00D-08 within 999 cycles.
 Requested convergence on MAX density matrix=1.00D-06.
 Requested convergence on             energy=1.00D-06.
 No special actions if energy rises.
 EnCoef did   100 forward-backward iterations
 EnCoef did   100 forward-backward iterations
 EnCoef did   100 forward-backward iterations
 EnCoef did   100 forward-backward iterations
 EnCoef did     4 forward-backward iterations
 EnCoef did     9 forward-backward iterations
 EnCoef did   100 forward-backward iterations
 EnCoef did     2 forward-backward iterations
 EnCoef did     9 forward-backward iterations
 Restarting incremental Fock formation.
 Restarting incremental Fock formation.
 SCF Done:  E(UAPFD) =  -2983.37764152     A.U. after   57 cycles
            NFock= 57  Conv=0.30D-08     -V/T= 2.0033
 <Sx>= 0.0000 <Sy>= 0.0000 <Sz>= 2.0000 <S**2>= 6.1559 S= 2.0310
 <L.S>=  0.00000000000    
 Annihilation of the first spin contaminant:
 S**2 before annihilation     6.1559,   after     6.0008

 **********************************************************************

            Population analysis using the SCF Density.

 **********************************************************************

 Orbital symmetries:
 Alpha Orbitals:
       Occupied  (A) (A) (A) (A) (A) (A) (A) (A) (A) (A) (A) (A)
                 (A) (A) (A) (A) (A) (A) (A) (A) (A) (A) (A) (A)
                 (A) (A) (A) (A) (A) (A) (A) (A) (A) (A) (A) (A)
                 (A) (A) (A) (A) (A) (A) (A) (A) (A) (A) (A) (A)
                 (A) (A) (A) (A) (A) (A) (A) (A) (A) (A) (A) (A)
                 (A) (A) (A) (A) (A) (A) (A) (A) (A) (A) (A) (A)
                 (A) (A) (A) (A) (A) (A) (A) (A) (A) (A) (A) (A)
                 (A) (A) (A) (A) (A) (A) (A) (A) (A) (A) (A) (A)
                 (A) (A) (A) (A) (A) (A) (A) (A) (A) (A) (A) (A)
                 (A) (A) (A) (A) (A) (A) (A) (A) (A) (A) (A) (A)
                 (A) (A) (A) (A) (A) (A) (A) (A) (A) (A) (A) (A)
                 (A) (A) (A) (A) (A) (A) (A) (A) (A) (A) (A) (A)
                 (A) (A) (A) (A) (A) (A) (A) (A) (A) (A) (A) (A)
                 (A) (A) (A) (A)
       Virtual   (A) (A) (A) (A) (A) (A) (A) (A) (A) (A) (A) (A)
                 (A) (A) (A) (A) (A) (A) (A) (A) (A) (A) (A) (A)
                 (A) (A) (A) (A) (A) (A) (A) (A) (A) (A) (A) (A)
                 (A) (A) (A) (A) (A) (A) (A) (A) (A) (A) (A) (A)
                 (A) (A) (A) (A) (A) (A) (A) (A) (A) (A) (A) (A)
                 (A) (A) (A) (A) (A) (A) (A) (A) (A) (A) (A) (A)
                 (A) (A) (A) (A) (A) (A) (A) (A) (A) (A) (A) (A)
                 (A) (A) (A) (A) (A) (A) (A) (A) (A) (A) (A) (A)
                 (A) (A) (A) (A) (A) (A) (A) (A) (A) (A) (A) (A)
                 (A) (A) (A) (A) (A) (A) (A) (A) (A) (A) (A) (A)
                 (A) (A) (A) (A) (A) (A) (A) (A) (A) (A) (A) (A)
                 (A) (A) (A) (A) (A) (A) (A) (A) (A) (A) (A) (A)
                 (A) (A) (A) (A) (A) (A) (A) (A) (A) (A) (A) (A)
                 (A) (A) (A) (A) (A) (A) (A) (A) (A) (A) (A) (A)
                 (A) (A) (A) (A) (A) (A) (A) (A) (A) (A) (A) (A)
                 (A) (A) (A) (A) (A) (A) (A) (A) (A) (A) (A) (A)
                 (A) (A) (A) (A) (A) (A) (A) (A) (A) (A) (A) (A)
                 (A) (A) (A) (A) (A) (A) (A) (A) (A) (A) (A) (A)
                 (A) (A) (A) (A) (A) (A) (A) (A) (A) (A) (A) (A)
                 (A) (A) (A) (A) (A) (A) (A) (A) (A) (A) (A) (A)
                 (A) (A) (A) (A) (A) (A) (A) (A) (A) (A) (A) (A)
                 (A) (A) (A) (A) (A) (A) (A) (A) (A) (A) (A) (A)
                 (A) (A) (A) (A) (A) (A) (A) (A) (A) (A) (A) (A)
                 (A) (A) (A) (A) (A) (A) (A) (A) (A) (A) (A) (A)
                 (A) (A) (A) (A) (A) (A) (A) (A) (A) (A) (A) (A)
                 (A) (A) (A) (A) (A) (A) (A) (A) (A) (A) (A) (A)
                 (A) (A) (A) (A) (A) (A) (A) (A) (A) (A) (A) (A)
                 (A) (A) (A) (A) (A) (A) (A) (A) (A) (A) (A) (A)
                 (A) (A) (A) (A) (A) (A) (A) (A) (A) (A) (A) (A)
                 (A) (A) (A) (A) (A) (A) (A) (A) (A) (A) (A) (A)
                 (A) (A) (A) (A) (A) (A) (A) (A) (A) (A) (A) (A)
                 (A) (A) (A) (A) (A) (A) (A) (A) (A) (A) (A) (A)
                 (A) (A) (A) (A) (A) (A) (A) (A) (A) (A) (A) (A)
                 (A) (A) (A) (A) (A) (A) (A) (A) (A) (A) (A) (A)
                 (A) (A) (A) (A) (A) (A) (A) (A) (A) (A) (A) (A)
                 (A) (A) (A) (A) (A) (A) (A) (A) (A) (A) (A) (A)
                 (A) (A) (A) (A) (A) (A) (A) (A) (A) (A) (A) (A)
                 (A) (A) (A) (A) (A) (A) (A) (A) (A) (A) (A) (A)
                 (A) (A) (A) (A) (A) (A) (A) (A) (A) (A) (A) (A)
                 (A) (A) (A) (A) (A) (A) (A) (A) (A) (A) (A) (A)
                 (A) (A) (A) (A) (A) (A) (A) (A) (A) (A) (A) (A)
                 (A) (A) (A) (A) (A) (A) (A) (A) (A) (A) (A) (A)
                 (A) (A) (A) (A) (A) (A) (A) (A) (A) (A) (A) (A)
                 (A) (A) (A)
 Beta  Orbitals:
       Occupied  (A) (A) (A) (A) (A) (A) (A) (A) (A) (A) (A) (A)
                 (A) (A) (A) (A) (A) (A) (A) (A) (A) (A) (A) (A)
                 (A) (A) (A) (A) (A) (A) (A) (A) (A) (A) (A) (A)
                 (A) (A) (A) (A) (A) (A) (A) (A) (A) (A) (A) (A)
                 (A) (A) (A) (A) (A) (A) (A) (A) (A) (A) (A) (A)
                 (A) (A) (A) (A) (A) (A) (A) (A) (A) (A) (A) (A)
                 (A) (A) (A) (A) (A) (A) (A) (A) (A) (A) (A) (A)
                 (A) (A) (A) (A) (A) (A) (A) (A) (A) (A) (A) (A)
                 (A) (A) (A) (A) (A) (A) (A) (A) (A) (A) (A) (A)
                 (A) (A) (A) (A) (A) (A) (A) (A) (A) (A) (A) (A)
                 (A) (A) (A) (A) (A) (A) (A) (A) (A) (A) (A) (A)
                 (A) (A) (A) (A) (A) (A) (A) (A) (A) (A) (A) (A)
                 (A) (A) (A) (A) (A) (A) (A) (A) (A) (A) (A) (A)
       Virtual   (A) (A) (A) (A) (A) (A) (A) (A) (A) (A) (A) (A)
                 (A) (A) (A) (A) (A) (A) (A) (A) (A) (A) (A) (A)
                 (A) (A) (A) (A) (A) (A) (A) (A) (A) (A) (A) (A)
                 (A) (A) (A) (A) (A) (A) (A) (A) (A) (A) (A) (A)
                 (A) (A) (A) (A) (A) (A) (A) (A) (A) (A) (A) (A)
                 (A) (A) (A) (A) (A) (A) (A) (A) (A) (A) (A) (A)
                 (A) (A) (A) (A) (A) (A) (A) (A) (A) (A) (A) (A)
                 (A) (A) (A) (A) (A) (A) (A) (A) (A) (A) (A) (A)
                 (A) (A) (A) (A) (A) (A) (A) (A) (A) (A) (A) (A)
                 (A) (A) (A) (A) (A) (A) (A) (A) (A) (A) (A) (A)
                 (A) (A) (A) (A) (A) (A) (A) (A) (A) (A) (A) (A)
                 (A) (A) (A) (A) (A) (A) (A) (A) (A) (A) (A) (A)
                 (A) (A) (A) (A) (A) (A) (A) (A) (A) (A) (A) (A)
                 (A) (A) (A) (A) (A) (A) (A) (A) (A) (A) (A) (A)
                 (A) (A) (A) (A) (A) (A) (A) (A) (A) (A) (A) (A)
                 (A) (A) (A) (A) (A) (A) (A) (A) (A) (A) (A) (A)
                 (A) (A) (A) (A) (A) (A) (A) (A) (A) (A) (A) (A)
                 (A) (A) (A) (A) (A) (A) (A) (A) (A) (A) (A) (A)
                 (A) (A) (A) (A) (A) (A) (A) (A) (A) (A) (A) (A)
                 (A) (A) (A) (A) (A) (A) (A) (A) (A) (A) (A) (A)
                 (A) (A) (A) (A) (A) (A) (A) (A) (A) (A) (A) (A)
                 (A) (A) (A) (A) (A) (A) (A) (A) (A) (A) (A) (A)
                 (A) (A) (A) (A) (A) (A) (A) (A) (A) (A) (A) (A)
                 (A) (A) (A) (A) (A) (A) (A) (A) (A) (A) (A) (A)
                 (A) (A) (A) (A) (A) (A) (A) (A) (A) (A) (A) (A)
                 (A) (A) (A) (A) (A) (A) (A) (A) (A) (A) (A) (A)
                 (A) (A) (A) (A) (A) (A) (A) (A) (A) (A) (A) (A)
                 (A) (A) (A) (A) (A) (A) (A) (A) (A) (A) (A) (A)
                 (A) (A) (A) (A) (A) (A) (A) (A) (A) (A) (A) (A)
                 (A) (A) (A) (A) (A) (A) (A) (A) (A) (A) (A) (A)
                 (A) (A) (A) (A) (A) (A) (A) (A) (A) (A) (A) (A)
                 (A) (A) (A) (A) (A) (A) (A) (A) (A) (A) (A) (A)
                 (A) (A) (A) (A) (A) (A) (A) (A) (A) (A) (A) (A)
                 (A) (A) (A) (A) (A) (A) (A) (A) (A) (A) (A) (A)
                 (A) (A) (A) (A) (A) (A) (A) (A) (A) (A) (A) (A)
                 (A) (A) (A) (A) (A) (A) (A) (A) (A) (A) (A) (A)
                 (A) (A) (A) (A) (A) (A) (A) (A) (A) (A) (A) (A)
                 (A) (A) (A) (A) (A) (A) (A) (A) (A) (A) (A) (A)
                 (A) (A) (A) (A) (A) (A) (A) (A) (A) (A) (A) (A)
                 (A) (A) (A) (A) (A) (A) (A) (A) (A) (A) (A) (A)
                 (A) (A) (A) (A) (A) (A) (A) (A) (A) (A) (A) (A)
                 (A) (A) (A) (A) (A) (A) (A) (A) (A) (A) (A) (A)
                 (A) (A) (A) (A) (A) (A) (A) (A) (A) (A) (A) (A)
                 (A) (A) (A) (A) (A) (A) (A)
 The electronic state is 5-A.
 Alpha  occ. eigenvalues -- -256.17079 -30.06519 -25.91067 -25.89058 -25.88803
 Alpha  occ. eigenvalues --  -19.17224 -14.42389 -14.35641 -14.33169 -14.32867
 Alpha  occ. eigenvalues --  -14.32814 -14.32728 -10.25578 -10.23693 -10.21142
 Alpha  occ. eigenvalues --  -10.21099 -10.21052 -10.21046 -10.21000 -10.20771
 Alpha  occ. eigenvalues --  -10.20632 -10.20483 -10.20478 -10.20426 -10.19714
 Alpha  occ. eigenvalues --  -10.19572 -10.18865 -10.18836 -10.18747 -10.18734
 Alpha  occ. eigenvalues --  -10.18720 -10.18690 -10.18650 -10.18647 -10.18590
 Alpha  occ. eigenvalues --  -10.18495 -10.18475 -10.18365 -10.18308 -10.18301
 Alpha  occ. eigenvalues --  -10.18299 -10.18262 -10.18248 -10.18197 -10.18187
 Alpha  occ. eigenvalues --  -10.18152  -3.52475  -2.32310  -2.27886  -2.27572
 Alpha  occ. eigenvalues --   -1.04610  -1.04002  -0.96211  -0.95303  -0.95155
 Alpha  occ. eigenvalues --   -0.94264  -0.90148  -0.81444  -0.81117  -0.80783
 Alpha  occ. eigenvalues --   -0.80097  -0.79767  -0.79577  -0.78816  -0.78728
 Alpha  occ. eigenvalues --   -0.76038  -0.74978  -0.73649  -0.73117  -0.72641
 Alpha  occ. eigenvalues --   -0.71160  -0.70317  -0.69460  -0.67719  -0.67410
 Alpha  occ. eigenvalues --   -0.67130  -0.64002  -0.63370  -0.63236  -0.60543
 Alpha  occ. eigenvalues --   -0.60008  -0.59698  -0.59337  -0.56916  -0.55959
 Alpha  occ. eigenvalues --   -0.55235  -0.53717  -0.52889  -0.52628  -0.51985
 Alpha  occ. eigenvalues --   -0.50336  -0.50260  -0.49772  -0.48218  -0.47226
 Alpha  occ. eigenvalues --   -0.47051  -0.46854  -0.46533  -0.44543  -0.44033
 Alpha  occ. eigenvalues --   -0.43944  -0.43776  -0.43357  -0.43038  -0.42833
 Alpha  occ. eigenvalues --   -0.42767  -0.42720  -0.42281  -0.42122  -0.41891
 Alpha  occ. eigenvalues --   -0.41762  -0.41607  -0.41343  -0.40961  -0.40913
 Alpha  occ. eigenvalues --   -0.40893  -0.40623  -0.39992  -0.39756  -0.39586
 Alpha  occ. eigenvalues --   -0.38923  -0.38842  -0.38594  -0.38380  -0.38016
 Alpha  occ. eigenvalues --   -0.37866  -0.37721  -0.37388  -0.36997  -0.36252
 Alpha  occ. eigenvalues --   -0.36175  -0.36011  -0.35507  -0.35391  -0.34901
 Alpha  occ. eigenvalues --   -0.33857  -0.33627  -0.33173  -0.32903  -0.32411
 Alpha  occ. eigenvalues --   -0.31812  -0.30620  -0.29979  -0.29776  -0.29290
 Alpha  occ. eigenvalues --   -0.28679  -0.28452  -0.27875  -0.26940  -0.25340
 Alpha  occ. eigenvalues --   -0.25228  -0.22890  -0.22052  -0.21290  -0.20509
 Alpha  occ. eigenvalues --   -0.20294  -0.19063  -0.16869  -0.16613  -0.15149
 Alpha virt. eigenvalues --   -0.05449  -0.05218  -0.00498   0.02306   0.03144
 Alpha virt. eigenvalues --    0.04138   0.07222   0.07589   0.07739   0.08350
 Alpha virt. eigenvalues --    0.09652   0.10319   0.10441   0.11241   0.11764
 Alpha virt. eigenvalues --    0.12069   0.12655   0.12793   0.13304   0.14350
 Alpha virt. eigenvalues --    0.14485   0.15223   0.15606   0.15703   0.15901
 Alpha virt. eigenvalues --    0.16190   0.16294   0.16780   0.17041   0.17193
 Alpha virt. eigenvalues --    0.17726   0.18096   0.18215   0.18330   0.18525
 Alpha virt. eigenvalues --    0.18564   0.18864   0.19186   0.19307   0.19606
 Alpha virt. eigenvalues --    0.19625   0.19888   0.20264   0.20525   0.21038
 Alpha virt. eigenvalues --    0.21587   0.21988   0.22192   0.22418   0.22898
 Alpha virt. eigenvalues --    0.23243   0.23543   0.24134   0.24666   0.25095
 Alpha virt. eigenvalues --    0.25697   0.26269   0.26589   0.27158   0.27543
 Alpha virt. eigenvalues --    0.27682   0.28171   0.28344   0.28403   0.30562
 Alpha virt. eigenvalues --    0.30955   0.31719   0.32051   0.32806   0.33428
 Alpha virt. eigenvalues --    0.34082   0.34473   0.35002   0.35790   0.36815
 Alpha virt. eigenvalues --    0.36996   0.37452   0.37866   0.38120   0.39586
 Alpha virt. eigenvalues --    0.40630   0.41517   0.42468   0.43612   0.44507
 Alpha virt. eigenvalues --    0.44768   0.45276   0.45466   0.46007   0.48030
 Alpha virt. eigenvalues --    0.48860   0.49031   0.49666   0.49931   0.50273
 Alpha virt. eigenvalues --    0.51300   0.51476   0.52171   0.52394   0.52811
 Alpha virt. eigenvalues --    0.53049   0.53139   0.53540   0.53741   0.54281
 Alpha virt. eigenvalues --    0.54343   0.54574   0.55130   0.55390   0.56001
 Alpha virt. eigenvalues --    0.56099   0.56451   0.56747   0.58183   0.58672
 Alpha virt. eigenvalues --    0.59019   0.59106   0.59526   0.59951   0.60547
 Alpha virt. eigenvalues --    0.61168   0.61321   0.61498   0.61890   0.62212
 Alpha virt. eigenvalues --    0.62477   0.63043   0.63956   0.64404   0.64715
 Alpha virt. eigenvalues --    0.64928   0.65329   0.65866   0.66217   0.66697
 Alpha virt. eigenvalues --    0.67162   0.67320   0.67508   0.67637   0.67995
 Alpha virt. eigenvalues --    0.68195   0.68374   0.68812   0.68994   0.69488
 Alpha virt. eigenvalues --    0.69941   0.70933   0.71290   0.72015   0.72076
 Alpha virt. eigenvalues --    0.72912   0.73251   0.74248   0.74858   0.74999
 Alpha virt. eigenvalues --    0.75250   0.75544   0.75985   0.76650   0.77547
 Alpha virt. eigenvalues --    0.77772   0.78093   0.78309   0.78822   0.78975
 Alpha virt. eigenvalues --    0.79340   0.79472   0.80236   0.80444   0.80775
 Alpha virt. eigenvalues --    0.81591   0.81752   0.82240   0.82392   0.83075
 Alpha virt. eigenvalues --    0.84085   0.84562   0.84864   0.85774   0.85976
 Alpha virt. eigenvalues --    0.86580   0.87369   0.87422   0.87763   0.88270
 Alpha virt. eigenvalues --    0.88275   0.88602   0.88719   0.88800   0.89835
 Alpha virt. eigenvalues --    0.90026   0.90098   0.90445   0.91193   0.91463
 Alpha virt. eigenvalues --    0.91721   0.92319   0.92706   0.93139   0.93401
 Alpha virt. eigenvalues --    0.93685   0.93784   0.94347   0.94458   0.94825
 Alpha virt. eigenvalues --    0.95444   0.96251   0.96771   0.97140   0.97525
 Alpha virt. eigenvalues --    0.98242   0.98651   0.98870   0.99132   0.99763
 Alpha virt. eigenvalues --    0.99984   1.00020   1.00406   1.00661   1.01150
 Alpha virt. eigenvalues --    1.01497   1.01579   1.01923   1.02436   1.02881
 Alpha virt. eigenvalues --    1.03742   1.04756   1.04986   1.05828   1.05943
 Alpha virt. eigenvalues --    1.06595   1.06865   1.07749   1.08190   1.08467
 Alpha virt. eigenvalues --    1.09507   1.10374   1.11158   1.11983   1.12519
 Alpha virt. eigenvalues --    1.13261   1.14682   1.15354   1.16128   1.16387
 Alpha virt. eigenvalues --    1.17405   1.18367   1.18532   1.18699   1.19161
 Alpha virt. eigenvalues --    1.19897   1.20215   1.20856   1.21179   1.22112
 Alpha virt. eigenvalues --    1.22453   1.22647   1.23033   1.23762   1.24179
 Alpha virt. eigenvalues --    1.25685   1.26374   1.26519   1.26941   1.28218
 Alpha virt. eigenvalues --    1.28771   1.29720   1.30330   1.30737   1.32353
 Alpha virt. eigenvalues --    1.32654   1.33123   1.33993   1.34342   1.34597
 Alpha virt. eigenvalues --    1.34929   1.36377   1.37129   1.37667   1.38821
 Alpha virt. eigenvalues --    1.39205   1.39632   1.39900   1.40160   1.40337
 Alpha virt. eigenvalues --    1.41186   1.41639   1.42422   1.43278   1.43938
 Alpha virt. eigenvalues --    1.45056   1.45845   1.46502   1.46993   1.47728
 Alpha virt. eigenvalues --    1.48100   1.48795   1.49582   1.50259   1.50741
 Alpha virt. eigenvalues --    1.52065   1.52853   1.54033   1.54633   1.55337
 Alpha virt. eigenvalues --    1.55630   1.55822   1.56035   1.56948   1.57717
 Alpha virt. eigenvalues --    1.58314   1.60174   1.60476   1.61858   1.62641
 Alpha virt. eigenvalues --    1.63742   1.64337   1.64557   1.65717   1.66697
 Alpha virt. eigenvalues --    1.68254   1.69586   1.70267   1.70588   1.71137
 Alpha virt. eigenvalues --    1.71419   1.72842   1.73313   1.75497   1.76450
 Alpha virt. eigenvalues --    1.76950   1.79884   1.80517   1.80768   1.81756
 Alpha virt. eigenvalues --    1.82478   1.82811   1.82917   1.83068   1.83893
 Alpha virt. eigenvalues --    1.84695   1.85145   1.85712   1.86210   1.86634
 Alpha virt. eigenvalues --    1.87491   1.88015   1.88423   1.88575   1.89528
 Alpha virt. eigenvalues --    1.90028   1.90261   1.91578   1.91719   1.92849
 Alpha virt. eigenvalues --    1.93026   1.94083   1.94677   1.95747   1.96191
 Alpha virt. eigenvalues --    1.96533   1.97539   1.97876   1.98502   1.98689
 Alpha virt. eigenvalues --    2.00031   2.00265   2.00807   2.01320   2.01951
 Alpha virt. eigenvalues --    2.02278   2.02997   2.04295   2.04851   2.05846
 Alpha virt. eigenvalues --    2.06076   2.06634   2.07174   2.07832   2.08603
 Alpha virt. eigenvalues --    2.09473   2.09502   2.09839   2.11451   2.12049
 Alpha virt. eigenvalues --    2.13003   2.13357   2.14387   2.14575   2.15020
 Alpha virt. eigenvalues --    2.16166   2.16840   2.17067   2.17843   2.18175
 Alpha virt. eigenvalues --    2.19655   2.20193   2.20978   2.22140   2.23266
 Alpha virt. eigenvalues --    2.23979   2.24274   2.24885   2.25149   2.26035
 Alpha virt. eigenvalues --    2.26570   2.27585   2.27600   2.27830   2.28311
 Alpha virt. eigenvalues --    2.28569   2.29339   2.29963   2.30172   2.31039
 Alpha virt. eigenvalues --    2.31525   2.31851   2.32035   2.32808   2.33361
 Alpha virt. eigenvalues --    2.33864   2.34384   2.36306   2.36635   2.36847
 Alpha virt. eigenvalues --    2.37545   2.37887   2.38138   2.38561   2.39007
 Alpha virt. eigenvalues --    2.39897   2.40252   2.40563   2.41313   2.41952
 Alpha virt. eigenvalues --    2.42408   2.43744   2.44150   2.44513   2.44748
 Alpha virt. eigenvalues --    2.45032   2.45895   2.46497   2.47563   2.47655
 Alpha virt. eigenvalues --    2.49087   2.49565   2.51908   2.52741   2.54336
 Alpha virt. eigenvalues --    2.54504   2.54597   2.55296   2.55468   2.57194
 Alpha virt. eigenvalues --    2.57487   2.58335   2.58499   2.58781   2.59749
 Alpha virt. eigenvalues --    2.61698   2.61976   2.62273   2.62997   2.64507
 Alpha virt. eigenvalues --    2.66468   2.67255   2.68515   2.69974   2.71261
 Alpha virt. eigenvalues --    2.71519   2.72057   2.73078   2.74191   2.76389
 Alpha virt. eigenvalues --    2.77070   2.78493   2.79399   2.80889   2.81583
 Alpha virt. eigenvalues --    2.81855   2.83134   2.89508   2.89767   2.90604
 Alpha virt. eigenvalues --    2.91051   2.93334   2.94123   2.94979   2.97859
 Alpha virt. eigenvalues --    2.98897   2.99133   3.00927   3.01307   3.02224
 Alpha virt. eigenvalues --    3.03249   3.06231   3.07467   3.07553   3.09666
 Alpha virt. eigenvalues --    3.14866   3.15731   3.16931   3.22385   3.24686
 Alpha virt. eigenvalues --    3.27784   3.31603   3.32110   3.41105   3.41403
 Alpha virt. eigenvalues --    3.42756   3.48970   3.49258   3.61956   3.70573
 Alpha virt. eigenvalues --    3.87789   3.90807   4.16044   4.26474
  Beta  occ. eigenvalues -- -256.16942 -29.98126 -25.83222 -25.82440 -25.82229
  Beta  occ. eigenvalues --  -19.17100 -14.42377 -14.35440 -14.32972 -14.32663
  Beta  occ. eigenvalues --  -14.32639 -14.32545 -10.25570 -10.23686 -10.21112
  Beta  occ. eigenvalues --  -10.21069 -10.21026 -10.21022 -10.20998 -10.20835
  Beta  occ. eigenvalues --  -10.20634 -10.20538 -10.20534 -10.20479 -10.19723
  Beta  occ. eigenvalues --  -10.19558 -10.18878 -10.18826 -10.18729 -10.18716
  Beta  occ. eigenvalues --  -10.18708 -10.18663 -10.18647 -10.18642 -10.18550
  Beta  occ. eigenvalues --  -10.18530 -10.18508 -10.18351 -10.18346 -10.18298
  Beta  occ. eigenvalues --  -10.18294 -10.18284 -10.18284 -10.18198 -10.18174
  Beta  occ. eigenvalues --  -10.18169  -3.32448  -2.08150  -2.07918  -2.07599
  Beta  occ. eigenvalues --   -1.04511  -1.03810  -0.96023  -0.95106  -0.94990
  Beta  occ. eigenvalues --   -0.94070  -0.89955  -0.81463  -0.81067  -0.80743
  Beta  occ. eigenvalues --   -0.80025  -0.79695  -0.79554  -0.78839  -0.78722
  Beta  occ. eigenvalues --   -0.76032  -0.74962  -0.73639  -0.73128  -0.72642
  Beta  occ. eigenvalues --   -0.71114  -0.70273  -0.69405  -0.67628  -0.67307
  Beta  occ. eigenvalues --   -0.67118  -0.63835  -0.63345  -0.63268  -0.60486
  Beta  occ. eigenvalues --   -0.59949  -0.59610  -0.59285  -0.56900  -0.55785
  Beta  occ. eigenvalues --   -0.55153  -0.53676  -0.52832  -0.52565  -0.51765
  Beta  occ. eigenvalues --   -0.50226  -0.50170  -0.49682  -0.47882  -0.47088
  Beta  occ. eigenvalues --   -0.46970  -0.46583  -0.46419  -0.44254  -0.43991
  Beta  occ. eigenvalues --   -0.43751  -0.43680  -0.43310  -0.42917  -0.42772
  Beta  occ. eigenvalues --   -0.42636  -0.42406  -0.42267  -0.42052  -0.41752
  Beta  occ. eigenvalues --   -0.41665  -0.41589  -0.41069  -0.40956  -0.40902
  Beta  occ. eigenvalues --   -0.40854  -0.40154  -0.39557  -0.39462  -0.39099
  Beta  occ. eigenvalues --   -0.38878  -0.38493  -0.38246  -0.38050  -0.37792
  Beta  occ. eigenvalues --   -0.37571  -0.37025  -0.36737  -0.36155  -0.36077
  Beta  occ. eigenvalues --   -0.35443  -0.35018  -0.34754  -0.34411  -0.33591
  Beta  occ. eigenvalues --   -0.33350  -0.32882  -0.31904  -0.31860  -0.31072
  Beta  occ. eigenvalues --   -0.30551  -0.29563  -0.29343  -0.28284  -0.28137
  Beta  occ. eigenvalues --   -0.27596  -0.25779  -0.25472  -0.23055  -0.22513
  Beta  occ. eigenvalues --   -0.21518  -0.21441  -0.20740  -0.17163  -0.16922
  Beta  occ. eigenvalues --   -0.12703
  Beta virt. eigenvalues --   -0.05994  -0.04569  -0.00618   0.00692   0.01138
  Beta virt. eigenvalues --    0.02609   0.04015   0.04153   0.06342   0.07489
  Beta virt. eigenvalues --    0.08246   0.08449   0.09392   0.09951   0.10357
  Beta virt. eigenvalues --    0.10533   0.11021   0.11445   0.11826   0.12069
  Beta virt. eigenvalues --    0.12689   0.12879   0.13314   0.14351   0.14500
  Beta virt. eigenvalues --    0.15255   0.15601   0.15745   0.15946   0.16173
  Beta virt. eigenvalues --    0.16326   0.16797   0.17132   0.17256   0.17799
  Beta virt. eigenvalues --    0.18119   0.18254   0.18350   0.18537   0.18644
  Beta virt. eigenvalues --    0.18894   0.19243   0.19373   0.19633   0.19692
  Beta virt. eigenvalues --    0.19936   0.20290   0.20572   0.21047   0.21589
  Beta virt. eigenvalues --    0.22016   0.22192   0.22412   0.22963   0.23342
  Beta virt. eigenvalues --    0.23594   0.24344   0.24805   0.25182   0.25803
  Beta virt. eigenvalues --    0.26403   0.26664   0.27202   0.27718   0.27775
  Beta virt. eigenvalues --    0.28193   0.28527   0.28606   0.30631   0.31460
  Beta virt. eigenvalues --    0.32051   0.33160   0.33311   0.33710   0.34441
  Beta virt. eigenvalues --    0.35097   0.35869   0.36141   0.37015   0.37211
  Beta virt. eigenvalues --    0.37731   0.37974   0.38184   0.39841   0.40853
  Beta virt. eigenvalues --    0.41982   0.42755   0.43770   0.44748   0.45147
  Beta virt. eigenvalues --    0.45302   0.45541   0.46197   0.48861   0.49176
  Beta virt. eigenvalues --    0.49501   0.50017   0.50477   0.50508   0.51616
  Beta virt. eigenvalues --    0.51840   0.52294   0.52537   0.53084   0.53125
  Beta virt. eigenvalues --    0.53264   0.53633   0.53881   0.54327   0.54433
  Beta virt. eigenvalues --    0.54759   0.55236   0.55435   0.56019   0.56184
  Beta virt. eigenvalues --    0.56671   0.56826   0.58225   0.58812   0.59182
  Beta virt. eigenvalues --    0.59208   0.59544   0.59946   0.60572   0.61324
  Beta virt. eigenvalues --    0.61365   0.61507   0.62082   0.62265   0.62535
  Beta virt. eigenvalues --    0.63067   0.63984   0.64371   0.64697   0.64947
  Beta virt. eigenvalues --    0.65344   0.65892   0.66313   0.66877   0.67293
  Beta virt. eigenvalues --    0.67477   0.67620   0.67958   0.68182   0.68295
  Beta virt. eigenvalues --    0.68519   0.68810   0.69534   0.69619   0.70011
  Beta virt. eigenvalues --    0.70992   0.71309   0.72113   0.72132   0.72929
  Beta virt. eigenvalues --    0.73324   0.74713   0.75024   0.75442   0.75650
  Beta virt. eigenvalues --    0.75752   0.76088   0.76684   0.77622   0.77934
  Beta virt. eigenvalues --    0.78190   0.78412   0.78826   0.79095   0.79415
  Beta virt. eigenvalues --    0.79572   0.80285   0.80627   0.81216   0.81803
  Beta virt. eigenvalues --    0.81918   0.82342   0.82912   0.83236   0.84100
  Beta virt. eigenvalues --    0.84542   0.84885   0.85895   0.86069   0.86669
  Beta virt. eigenvalues --    0.87365   0.87538   0.87781   0.88294   0.88316
  Beta virt. eigenvalues --    0.88631   0.88800   0.88971   0.89978   0.90148
  Beta virt. eigenvalues --    0.90220   0.90574   0.91227   0.91660   0.91830
  Beta virt. eigenvalues --    0.92392   0.92800   0.93226   0.93476   0.93804
  Beta virt. eigenvalues --    0.93865   0.94408   0.94575   0.94962   0.95532
  Beta virt. eigenvalues --    0.96340   0.96911   0.97252   0.97592   0.98412
  Beta virt. eigenvalues --    0.98974   0.99166   0.99671   1.00018   1.00192
  Beta virt. eigenvalues --    1.00299   1.00626   1.01075   1.01185   1.01535
  Beta virt. eigenvalues --    1.01720   1.02143   1.02649   1.02985   1.03849
  Beta virt. eigenvalues --    1.04954   1.05082   1.05904   1.06149   1.06829
  Beta virt. eigenvalues --    1.07093   1.07929   1.08510   1.08584   1.09748
  Beta virt. eigenvalues --    1.10723   1.11457   1.12118   1.12594   1.13659
  Beta virt. eigenvalues --    1.15304   1.16034   1.16453   1.16847   1.17574
  Beta virt. eigenvalues --    1.18492   1.18803   1.19409   1.19511   1.20048
  Beta virt. eigenvalues --    1.20841   1.21123   1.21410   1.22505   1.22743
  Beta virt. eigenvalues --    1.23117   1.23792   1.23957   1.24380   1.25855
  Beta virt. eigenvalues --    1.26703   1.27131   1.28027   1.28680   1.29215
  Beta virt. eigenvalues --    1.30306   1.30545   1.31055   1.32513   1.32777
  Beta virt. eigenvalues --    1.33152   1.34153   1.34429   1.34727   1.35001
  Beta virt. eigenvalues --    1.36714   1.37152   1.37940   1.38837   1.39181
  Beta virt. eigenvalues --    1.39687   1.39901   1.40207   1.40396   1.41322
  Beta virt. eigenvalues --    1.41720   1.42655   1.43827   1.44118   1.45272
  Beta virt. eigenvalues --    1.45918   1.46670   1.47282   1.47794   1.48258
  Beta virt. eigenvalues --    1.48816   1.49788   1.50525   1.50789   1.52596
  Beta virt. eigenvalues --    1.53278   1.54237   1.54814   1.55418   1.55751
  Beta virt. eigenvalues --    1.55858   1.56065   1.57068   1.57872   1.58708
  Beta virt. eigenvalues --    1.60344   1.60556   1.62119   1.62717   1.63915
  Beta virt. eigenvalues --    1.64503   1.64748   1.65771   1.67122   1.68370
  Beta virt. eigenvalues --    1.69770   1.70417   1.70650   1.71182   1.71568
  Beta virt. eigenvalues --    1.73094   1.73438   1.76003   1.76682   1.77068
  Beta virt. eigenvalues --    1.80019   1.80536   1.80778   1.81771   1.82547
  Beta virt. eigenvalues --    1.82862   1.83050   1.83202   1.84033   1.84756
  Beta virt. eigenvalues --    1.85196   1.85758   1.86445   1.86782   1.87651
  Beta virt. eigenvalues --    1.88116   1.88475   1.88636   1.89564   1.90095
  Beta virt. eigenvalues --    1.90313   1.91684   1.91750   1.92969   1.93148
  Beta virt. eigenvalues --    1.94219   1.94896   1.95865   1.96339   1.96689
  Beta virt. eigenvalues --    1.97711   1.98046   1.98635   1.99313   2.00143
  Beta virt. eigenvalues --    2.00330   2.01063   2.02054   2.02352   2.02849
  Beta virt. eigenvalues --    2.03794   2.04513   2.05283   2.05992   2.06145
  Beta virt. eigenvalues --    2.06899   2.07397   2.08447   2.09027   2.09561
  Beta virt. eigenvalues --    2.09640   2.10025   2.11678   2.12678   2.13258
  Beta virt. eigenvalues --    2.13637   2.14577   2.14747   2.15507   2.16417
  Beta virt. eigenvalues --    2.16891   2.17181   2.17925   2.18257   2.20083
  Beta virt. eigenvalues --    2.20848   2.21386   2.22624   2.23752   2.24056
  Beta virt. eigenvalues --    2.24437   2.25031   2.25342   2.26432   2.26716
  Beta virt. eigenvalues --    2.27619   2.27706   2.28314   2.28385   2.28638
  Beta virt. eigenvalues --    2.29420   2.30063   2.30341   2.31182   2.31606
  Beta virt. eigenvalues --    2.32058   2.32274   2.32857   2.33701   2.34461
  Beta virt. eigenvalues --    2.35803   2.36646   2.36811   2.37025   2.37764
  Beta virt. eigenvalues --    2.38205   2.38292   2.38939   2.39637   2.40036
  Beta virt. eigenvalues --    2.40607   2.40893   2.41496   2.42028   2.42527
  Beta virt. eigenvalues --    2.43949   2.44350   2.44641   2.44813   2.45084
  Beta virt. eigenvalues --    2.46006   2.46520   2.48275   2.49255   2.49640
  Beta virt. eigenvalues --    2.49790   2.52745   2.53314   2.54462   2.54615
  Beta virt. eigenvalues --    2.55192   2.55976   2.56296   2.57563   2.57873
  Beta virt. eigenvalues --    2.58462   2.58574   2.59905   2.60230   2.61918
  Beta virt. eigenvalues --    2.62239   2.62428   2.63414   2.64543   2.66527
  Beta virt. eigenvalues --    2.67473   2.68525   2.70328   2.71424   2.71563
  Beta virt. eigenvalues --    2.72396   2.73206   2.74390   2.76537   2.77284
  Beta virt. eigenvalues --    2.78763   2.79532   2.80929   2.81855   2.82062
  Beta virt. eigenvalues --    2.83210   2.89690   2.89925   2.90731   2.91173
  Beta virt. eigenvalues --    2.93455   2.94267   2.95112   2.98021   2.98973
  Beta virt. eigenvalues --    2.99239   3.00988   3.01340   3.02239   3.03651
  Beta virt. eigenvalues --    3.06635   3.07613   3.07706   3.10079   3.15053
  Beta virt. eigenvalues --    3.15910   3.16982   3.22455   3.24822   3.28414
  Beta virt. eigenvalues --    3.31635   3.32142   3.41190   3.41480   3.43496
  Beta virt. eigenvalues --    3.49126   3.49423   3.74179   3.78479   3.97689
  Beta virt. eigenvalues --    4.00964   4.27156   4.36927
          Condensed to atoms (all electrons):
          Atomic-Atomic Spin Densities.
 Mulliken charges and spin densities:
               1          2
     1  Fe   1.040765   3.882847
     2  N   -0.693333   0.051880
     3  N   -0.703568   0.038646
     4  N   -0.703894   0.049384
     5  N   -0.713695   0.044098
     6  C    0.299936   0.012416
     7  C    0.024844  -0.026829
     8  C    0.031660   0.026405
     9  C    0.311874  -0.041792
    10  C    0.318875  -0.040853
    11  C    0.034535   0.025598
    12  C   -0.012071  -0.027015
    13  C    0.302684   0.015928
    14  C    0.286393   0.015721
    15  C    0.029588  -0.030864
    16  C   -0.009098   0.028698
    17  C    0.301978  -0.049035
    18  C    0.317726  -0.046687
    19  C    0.029257   0.027929
    20  C    0.026534  -0.028011
    21  C    0.308373   0.012419
    22  C   -0.337511  -0.025022
    23  H    0.158366   0.001394
    24  C   -0.314756   0.015027
    25  H    0.159678  -0.000277
    26  C   -0.319667  -0.032125
    27  H    0.162421   0.001723
    28  C   -0.308167   0.019135
    29  H    0.159329  -0.000461
    30  C   -0.609062  -0.001278
    31  H    0.180798   0.000429
    32  H    0.188546   0.000540
    33  H    0.187303   0.000510
    34  C   -0.606922   0.003081
    35  H    0.181742  -0.001628
    36  H    0.186490  -0.001652
    37  H    0.181584   0.000258
    38  C   -0.611438  -0.001378
    39  H    0.182428   0.000645
    40  H    0.186326   0.000861
    41  H    0.192684   0.000511
    42  C   -0.145866   0.010346
    43  H    0.161068  -0.000941
    44  C   -0.405900  -0.015564
    45  H    0.172239   0.000783
    46  H    0.162500   0.000912
    47  C   -0.609756   0.003415
    48  H    0.180255  -0.001159
    49  H    0.185794  -0.001788
    50  H    0.193035  -0.000036
    51  C   -0.145083  -0.007202
    52  H    0.163819   0.000533
    53  C   -0.404750   0.010419
    54  H    0.172577  -0.000522
    55  H    0.163559  -0.000448
    56  C   -0.609782  -0.001482
    57  H    0.187243   0.000853
    58  H    0.190632   0.000917
    59  H    0.180904   0.000460
    60  C   -0.606804   0.003140
    61  H    0.182028  -0.001432
    62  H    0.181468   0.000298
    63  H    0.187397  -0.001343
    64  O   -0.821754   0.014140
    65  H    0.462562   0.002634
    66  H    0.447593   0.003725
    67  C   -0.601163   0.000715
    68  H    0.191475   0.000058
    69  H    0.209320   0.000049
    70  H    0.191823   0.000137
    71  N   -0.637044   0.003011
    72  H    0.360160   0.002160
    73  C    0.269305   0.002729
    74  C    0.244001   0.002781
    75  H    0.215040   0.001084
    76  N   -0.456471   0.046171
    77  C   -0.035471  -0.002340
    78  H    0.194515   0.001606
 Sum of Mulliken charges =  -0.00000   4.00000
 Mulliken charges and spin densities with hydrogens summed into heavy atoms:
               1          2
     1  Fe   1.040765   3.882847
     2  N   -0.693333   0.051880
     3  N   -0.703568   0.038646
     4  N   -0.703894   0.049384
     5  N   -0.713695   0.044098
     6  C    0.299936   0.012416
     7  C    0.024844  -0.026829
     8  C    0.031660   0.026405
     9  C    0.311874  -0.041792
    10  C    0.318875  -0.040853
    11  C    0.034535   0.025598
    12  C   -0.012071  -0.027015
    13  C    0.302684   0.015928
    14  C    0.286393   0.015721
    15  C    0.029588  -0.030864
    16  C   -0.009098   0.028698
    17  C    0.301978  -0.049035
    18  C    0.317726  -0.046687
    19  C    0.029257   0.027929
    20  C    0.026534  -0.028011
    21  C    0.308373   0.012419
    22  C   -0.179146  -0.023627
    24  C   -0.155078   0.014750
    26  C   -0.157247  -0.030402
    28  C   -0.148838   0.018674
    30  C   -0.052416   0.000200
    34  C   -0.057107   0.000059
    38  C   -0.050000   0.000639
    42  C    0.015202   0.009405
    44  C   -0.071161  -0.013869
    47  C   -0.050672   0.000432
    51  C    0.018736  -0.006669
    53  C   -0.068615   0.009449
    56  C   -0.051004   0.000748
    60  C   -0.055911   0.000664
    64  O    0.088401   0.020498
    67  C   -0.008545   0.000959
    71  N   -0.276884   0.005171
    73  C    0.269305   0.002729
    74  C    0.459040   0.003865
    76  N   -0.456471   0.046171
    77  C    0.159043  -0.000734
 Electronic spatial extent (au):  <R**2>=          20019.4517
 Charge=             -0.0000 electrons
 Dipole moment (field-independent basis, Debye):
    X=              2.0772    Y=             -0.2912    Z=              2.9219  Tot=              3.5968
 Quadrupole moment (field-independent basis, Debye-Ang):
   XX=           -235.6540   YY=           -242.2330   ZZ=           -219.0236
   XY=             -1.7603   XZ=              5.0086   YZ=             -0.3908
 Traceless Quadrupole moment (field-independent basis, Debye-Ang):
   XX=             -3.3505   YY=             -9.9295   ZZ=             13.2800
   XY=             -1.7603   XZ=              5.0086   YZ=             -0.3908
 Octapole moment (field-independent basis, Debye-Ang**2):
  XXX=             33.7276  YYY=             -9.4109  ZZZ=             92.6929  XYY=             24.5067
  XXY=              4.5726  XXZ=              8.8292  XZZ=             33.2857  YZZ=            -10.0700
  YYZ=            -23.1067  XYZ=              1.0660
 Hexadecapole moment (field-independent basis, Debye-Ang**3):
 XXXX=         -11618.5286 YYYY=         -11366.9196 ZZZZ=          -2724.5278 XXXY=            -14.0462
 XXXZ=             10.2103 YYYX=             17.8291 YYYZ=             45.6388 ZZZX=            106.3175
 ZZZY=            -27.7201 XXYY=          -3912.6979 XXZZ=          -2544.7884 YYZZ=          -2618.4445
 XXYZ=            -11.1909 YYXZ=             62.5374 ZZXY=            -26.3817
 N-N= 5.965019812367D+03 E-N=-1.894330845059D+04  KE= 2.973446708027D+03
                          Isotropic Fermi Contact Couplings
        Atom                 a.u.       MegaHertz       Gauss      10(-4) cm-1
     1  Fe(57)             0.41005      14.86836       5.30540       4.95955
     2  N(14)              0.10482       8.46734       3.02136       2.82440
     3  N(14)              0.09906       8.00201       2.85532       2.66918
     4  N(14)              0.10041       8.11106       2.89423       2.70556
     5  N(14)              0.09963       8.04776       2.87164       2.68444
     6  C(13)              0.00717       2.01555       0.71920       0.67232
     7  C(13)             -0.00058      -0.16266      -0.05804      -0.05426
     8  C(13)              0.00795       2.23434       0.79727       0.74530
     9  C(13)             -0.00046      -0.12962      -0.04625      -0.04324
    10  C(13)             -0.00038      -0.10794      -0.03851      -0.03600
    11  C(13)              0.00794       2.23259       0.79664       0.74471
    12  C(13)             -0.00082      -0.23073      -0.08233      -0.07696
    13  C(13)              0.00808       2.27077       0.81027       0.75745
    14  C(13)              0.00837       2.35298       0.83960       0.78487
    15  C(13)             -0.00120      -0.33633      -0.12001      -0.11219
    16  C(13)              0.00819       2.30264       0.82164       0.76808
    17  C(13)             -0.00176      -0.49595      -0.17697      -0.16543
    18  C(13)             -0.00123      -0.34477      -0.12302      -0.11500
    19  C(13)              0.00821       2.30676       0.82311       0.76945
    20  C(13)             -0.00066      -0.18418      -0.06572      -0.06144
    21  C(13)              0.00791       2.22196       0.79285       0.74117
    22  C(13)             -0.00334      -0.93826      -0.33479      -0.31297
    23  H(1)               0.00044       0.48839       0.17427       0.16291
    24  C(13)              0.00310       0.87185       0.31110       0.29082
    25  H(1)              -0.00009      -0.09966      -0.03556      -0.03324
    26  C(13)             -0.00434      -1.22056      -0.43553      -0.40713
    27  H(1)               0.00052       0.58083       0.20725       0.19374
    28  C(13)              0.00383       1.07593       0.38392       0.35889
    29  H(1)              -0.00015      -0.16620      -0.05931      -0.05544
    30  C(13)              0.00009       0.02517       0.00898       0.00840
    31  H(1)               0.00013       0.14437       0.05151       0.04816
    32  H(1)               0.00038       0.42827       0.15282       0.14286
    33  H(1)               0.00038       0.42235       0.15071       0.14088
    34  C(13)              0.00162       0.45573       0.16262       0.15202
    35  H(1)              -0.00052      -0.58622      -0.20918      -0.19554
    36  H(1)              -0.00058      -0.64302      -0.22945      -0.21449
    37  H(1)               0.00007       0.07369       0.02629       0.02458
    38  C(13)             -0.00003      -0.00826      -0.00295      -0.00275
    39  H(1)               0.00025       0.27463       0.09799       0.09161
    40  H(1)               0.00040       0.44908       0.16024       0.14980
    41  H(1)               0.00014       0.15928       0.05684       0.05313
    42  C(13)              0.00247       0.69498       0.24799       0.23182
    43  H(1)              -0.00031      -0.34856      -0.12437      -0.11627
    44  C(13)             -0.00213      -0.59808      -0.21341      -0.19950
    45  H(1)               0.00025       0.27791       0.09917       0.09270
    46  H(1)               0.00028       0.31250       0.11151       0.10424
    47  C(13)              0.00173       0.48482       0.17300       0.16172
    48  H(1)              -0.00032      -0.35228      -0.12570      -0.11751
    49  H(1)              -0.00078      -0.86781      -0.30965      -0.28947
    50  H(1)              -0.00008      -0.09071      -0.03237      -0.03026
    51  C(13)             -0.00096      -0.26933      -0.09610      -0.08984
    52  H(1)               0.00024       0.26908       0.09602       0.08976
    53  C(13)              0.00182       0.51079       0.18226       0.17038
    54  H(1)              -0.00017      -0.18696      -0.06671      -0.06236
    55  H(1)              -0.00013      -0.14555      -0.05193      -0.04855
    56  C(13)             -0.00003      -0.00739      -0.00264      -0.00247
    57  H(1)               0.00035       0.38993       0.13914       0.13007
    58  H(1)               0.00039       0.43565       0.15545       0.14532
    59  H(1)               0.00014       0.15787       0.05633       0.05266
    60  C(13)              0.00164       0.46122       0.16458       0.15385
    61  H(1)              -0.00063      -0.70198      -0.25048      -0.23415
    62  H(1)               0.00008       0.08929       0.03186       0.02978
    63  H(1)              -0.00059      -0.66125      -0.23595      -0.22057
    64  O(17)              0.09516     -14.42214      -5.14618      -4.81071
    65  H(1)              -0.00012      -0.13205      -0.04712      -0.04405
    66  H(1)               0.00059       0.66353       0.23676       0.22133
    67  C(13)              0.00050       0.14014       0.05000       0.04675
    68  H(1)               0.00004       0.04590       0.01638       0.01531
    69  H(1)               0.00004       0.04410       0.01574       0.01471
    70  H(1)               0.00007       0.08369       0.02986       0.02792
    71  N(14)              0.00866       0.69982       0.24971       0.23344
    72  H(1)               0.00060       0.66890       0.23868       0.22312
    73  C(13)              0.00341       0.95734       0.34160       0.31933
    74  C(13)              0.00144       0.40414       0.14421       0.13481
    75  H(1)               0.00021       0.23783       0.08487       0.07933
    76  N(14)              0.12566      10.15046       3.62194       3.38583
    77  C(13)             -0.00164      -0.46215      -0.16491      -0.15416
    78  H(1)               0.00042       0.47214       0.16847       0.15749
 --------------------------------------------------------
       Center         ----  Spin Dipole Couplings  ----
                      3XX-RR        3YY-RR        3ZZ-RR
 --------------------------------------------------------
     1   Atom       -0.329872      1.319557     -0.989685
     2   Atom        0.003887      0.066963     -0.070850
     3   Atom        0.084470      0.015760     -0.100231
     4   Atom        0.007171      0.064833     -0.072004
     5   Atom        0.083400      0.013791     -0.097192
     6   Atom        0.033661     -0.013902     -0.019759
     7   Atom        0.019739      0.019745     -0.039483
     8   Atom       -0.009635      0.001026      0.008609
     9   Atom        0.003301      0.066938     -0.070240
    10   Atom        0.011226      0.058241     -0.069467
    11   Atom       -0.004773     -0.004313      0.009086
    12   Atom        0.024147      0.014059     -0.038206
    13   Atom        0.040076     -0.023550     -0.016526
    14   Atom        0.033109     -0.015943     -0.017166
    15   Atom        0.022103      0.020867     -0.042969
    16   Atom       -0.010333      0.000644      0.009689
    17   Atom        0.006659      0.071290     -0.077949
    18   Atom        0.013602      0.064088     -0.077690
    19   Atom       -0.004806     -0.005236      0.010042
    20   Atom        0.024516      0.015634     -0.040150
    21   Atom        0.043710     -0.023046     -0.020665
    22   Atom        0.041878      0.000253     -0.042131
    23   Atom        0.011724     -0.005127     -0.006597
    24   Atom       -0.017817      0.026130     -0.008313
    25   Atom       -0.006758      0.013037     -0.006279
    26   Atom        0.045278      0.003639     -0.048916
    27   Atom        0.011200     -0.004666     -0.006534
    28   Atom       -0.019877      0.026116     -0.006239
    29   Atom       -0.007144      0.013631     -0.006487
    30   Atom       -0.002653      0.005991     -0.003337
    31   Atom       -0.000529      0.002820     -0.002291
    32   Atom       -0.002352      0.004803     -0.002452
    33   Atom       -0.002376      0.005253     -0.002877
    34   Atom        0.004289     -0.000710     -0.003579
    35   Atom        0.003758     -0.001038     -0.002720
    36   Atom        0.003543     -0.001084     -0.002459
    37   Atom        0.001574      0.000662     -0.002236
    38   Atom       -0.000894      0.004544     -0.003651
    39   Atom       -0.001520      0.004580     -0.003059
    40   Atom       -0.000822      0.003090     -0.002268
    41   Atom        0.000516      0.001773     -0.002289
    42   Atom        0.002624     -0.002086     -0.000538
    43   Atom        0.005109     -0.002317     -0.002792
    44   Atom        0.009932     -0.004569     -0.005363
    45   Atom        0.002507     -0.000746     -0.001761
    46   Atom        0.001086     -0.000245     -0.000842
    47   Atom        0.004346     -0.000583     -0.003763
    48   Atom        0.004234     -0.001404     -0.002830
    49   Atom        0.002955     -0.000619     -0.002336
    50   Atom        0.001592      0.000653     -0.002245
    51   Atom       -0.002228      0.008808     -0.006580
    52   Atom       -0.002625      0.005683     -0.003059
    53   Atom        0.000600     -0.002112      0.001512
    54   Atom        0.000294      0.001206     -0.001500
    55   Atom       -0.001104      0.002659     -0.001555
    56   Atom       -0.000849      0.004634     -0.003785
    57   Atom       -0.001183      0.003972     -0.002790
    58   Atom       -0.001267      0.004018     -0.002752
    59   Atom        0.000689      0.001681     -0.002369
    60   Atom        0.006195     -0.002236     -0.003959
    61   Atom        0.004893     -0.002177     -0.002715
    62   Atom        0.002893     -0.000615     -0.002279
    63   Atom        0.004761     -0.002238     -0.002524
    64   Atom       -0.083557     -0.072754      0.156311
    65   Atom       -0.019561     -0.021626      0.041187
    66   Atom       -0.022581     -0.025423      0.048004
    67   Atom       -0.003021     -0.004081      0.007103
    68   Atom       -0.002320     -0.002389      0.004710
    69   Atom       -0.001286     -0.003272      0.004558
    70   Atom       -0.002388     -0.002436      0.004825
    71   Atom       -0.010457     -0.005180      0.015637
    72   Atom       -0.003593     -0.004945      0.008538
    73   Atom       -0.008295     -0.008116      0.016411
    74   Atom       -0.008531     -0.019841      0.028372
    75   Atom        0.006063     -0.017512      0.011450
    76   Atom       -0.123391     -0.111216      0.234608
    77   Atom       -0.009339     -0.023824      0.033163
    78   Atom        0.004518     -0.018307      0.013789
 --------------------------------------------------------
                        XY            XZ            YZ
 --------------------------------------------------------
     1   Atom        1.209312     -0.046047      0.061865
     2   Atom       -0.160704     -0.015247      0.014442
     3   Atom        0.162899      0.014208      0.009261
     4   Atom       -0.159860      0.009838     -0.009222
     5   Atom        0.167607     -0.015082     -0.014018
     6   Atom       -0.026374     -0.001585      0.001272
     7   Atom       -0.013032     -0.001945      0.003881
     8   Atom       -0.012462     -0.001199     -0.000151
     9   Atom       -0.014144     -0.000854      0.011288
    10   Atom        0.025562      0.000335      0.009349
    11   Atom        0.013014      0.001373     -0.000518
    12   Atom        0.011880      0.000447      0.004673
    13   Atom        0.015208     -0.000760     -0.000132
    14   Atom       -0.025837      0.000821      0.000740
    15   Atom       -0.013203      0.001076     -0.006671
    16   Atom       -0.012765      0.000647      0.001215
    17   Atom       -0.014608      0.005407     -0.005641
    18   Atom        0.026416     -0.003924      0.000063
    19   Atom        0.013500      0.001692     -0.000812
    20   Atom        0.012157     -0.005305     -0.000267
    21   Atom        0.014724     -0.003100     -0.000102
    22   Atom       -0.004585     -0.004755      0.000737
    23   Atom       -0.002027     -0.000861      0.000131
    24   Atom        0.004260      0.000405      0.002652
    25   Atom        0.001739      0.000139      0.001541
    26   Atom       -0.003990     -0.000689      0.001485
    27   Atom       -0.001784      0.000411      0.000014
    28   Atom        0.004293     -0.000384      0.000344
    29   Atom        0.001721     -0.000032     -0.000063
    30   Atom       -0.003499     -0.000255      0.000673
    31   Atom       -0.003058     -0.000216      0.000373
    32   Atom       -0.002163     -0.000416      0.001921
    33   Atom       -0.002182      0.000097     -0.000772
    34   Atom       -0.004801     -0.000392      0.000286
    35   Atom       -0.003592      0.000756     -0.000349
    36   Atom       -0.003424     -0.001449      0.000712
    37   Atom       -0.003113     -0.000240      0.000217
    38   Atom        0.004780      0.000317      0.000488
    39   Atom        0.003370     -0.000225     -0.000571
    40   Atom        0.003458      0.000864      0.001564
    41   Atom        0.003662     -0.000154     -0.000056
    42   Atom        0.002509      0.000249     -0.004853
    43   Atom        0.001764     -0.000981     -0.000177
    44   Atom        0.001871      0.001378      0.011520
    45   Atom        0.002998      0.001405      0.000273
    46   Atom        0.001524      0.000531      0.000599
    47   Atom       -0.004822      0.000054     -0.000300
    48   Atom       -0.003456     -0.000754      0.000299
    49   Atom       -0.003366      0.001179     -0.000657
    50   Atom       -0.003081     -0.000171      0.000115
    51   Atom       -0.003499      0.004032     -0.001428
    52   Atom       -0.002189     -0.000066      0.000342
    53   Atom       -0.003302     -0.006728      0.000051
    54   Atom       -0.002230      0.000930     -0.000601
    55   Atom       -0.001425     -0.000104     -0.000387
    56   Atom        0.004839     -0.000006     -0.000075
    57   Atom        0.003485      0.000532      0.001198
    58   Atom        0.003437     -0.000589     -0.001372
    59   Atom        0.003561     -0.000083     -0.000101
    60   Atom        0.003349     -0.000589     -0.000175
    61   Atom        0.002301      0.000746      0.000209
    62   Atom        0.002704     -0.000306     -0.000153
    63   Atom        0.002334     -0.001620     -0.000479
    64   Atom        0.014996      0.030174     -0.024567
    65   Atom       -0.012235      0.026856     -0.025241
    66   Atom       -0.003028     -0.012725      0.006889
    67   Atom       -0.000038     -0.003163      0.000042
    68   Atom        0.000228     -0.001543     -0.001215
    69   Atom       -0.000078     -0.003753      0.000127
    70   Atom       -0.000168     -0.001375      0.001132
    71   Atom        0.001779      0.003583     -0.002492
    72   Atom       -0.000139      0.004093     -0.000715
    73   Atom        0.000667     -0.002956      0.000294
    74   Atom       -0.006197      0.024259     -0.008055
    75   Atom       -0.003147      0.026030     -0.003338
    76   Atom        0.000086      0.007713     -0.010597
    77   Atom       -0.003434     -0.023530      0.003847
    78   Atom       -0.001327     -0.026993      0.001448
 --------------------------------------------------------


 ---------------------------------------------------------------------------------
              Anisotropic Spin Dipole Couplings in Principal Axis System
 ---------------------------------------------------------------------------------

       Atom             a.u.   MegaHertz   Gauss  10(-4) cm-1        Axes

              Baa    -1.0499   -18.177    -6.486    -6.063  0.5724 -0.3120  0.7583
     1 Fe(57) Bbb    -0.9091   -15.739    -5.616    -5.250  0.6740 -0.3476 -0.6518
              Bcc     1.9590    33.915    12.102    11.313  0.4669  0.8842  0.0113
 
              Baa    -0.1285    -4.955    -1.768    -1.653  0.7732  0.6324  0.0461
     2 N(14)  Bbb    -0.0723    -2.790    -0.995    -0.931  0.0129 -0.0884  0.9960
              Bcc     0.2008     7.744     2.763     2.583 -0.6340  0.7696  0.0765
 
              Baa    -0.1166    -4.496    -1.604    -1.500 -0.6303  0.7681  0.1128
     3 N(14)  Bbb    -0.1009    -3.893    -1.389    -1.298  0.0302 -0.1209  0.9922
              Bcc     0.2175     8.388     2.993     2.798  0.7757  0.6288  0.0530
 
              Baa    -0.1265    -4.878    -1.741    -1.627  0.7677  0.6400 -0.0303
     4 N(14)  Bbb    -0.0726    -2.801    -0.999    -0.934 -0.0084  0.0573  0.9983
              Bcc     0.1991     7.679     2.740     2.561 -0.6407  0.7662 -0.0493
 
              Baa    -0.1227    -4.731    -1.688    -1.578 -0.6276  0.7766  0.0558
     5 N(14)  Bbb    -0.0984    -3.797    -1.355    -1.266  0.0852 -0.0027  0.9964
              Bcc     0.2211     8.528     3.043     2.844  0.7739  0.6300 -0.0644
 
              Baa    -0.0257    -3.446    -1.230    -1.149  0.4026  0.9111 -0.0880
     6 C(13)  Bbb    -0.0198    -2.653    -0.947    -0.885  0.0632  0.0682  0.9957
              Bcc     0.0455     6.099     2.176     2.034  0.9132 -0.4064 -0.0301
 
              Baa    -0.0398    -5.335    -1.904    -1.780  0.0193 -0.0609  0.9980
     7 C(13)  Bbb     0.0067     0.906     0.323     0.302  0.7101  0.7035  0.0292
              Bcc     0.0330     4.429     1.581     1.477 -0.7038  0.7081  0.0568
 
              Baa    -0.0179    -2.402    -0.857    -0.801  0.8344  0.5497  0.0408
     8 C(13)  Bbb     0.0083     1.119     0.399     0.373  0.2491 -0.4421  0.8617
              Bcc     0.0096     1.283     0.458     0.428 -0.4917  0.7088  0.5058
 
              Baa    -0.0712    -9.550    -3.408    -3.185 -0.0041 -0.0819  0.9966
     9 C(13)  Bbb     0.0003     0.044     0.016     0.015  0.9787  0.2043  0.0208
              Bcc     0.0708     9.505     3.392     3.171 -0.2053  0.9755  0.0793
 
              Baa    -0.0702    -9.417    -3.360    -3.141  0.0199 -0.0765  0.9969
    10 C(13)  Bbb     0.0002     0.023     0.008     0.008  0.9170 -0.3958 -0.0487
              Bcc     0.0700     9.394     3.352     3.133  0.3983  0.9151  0.0623
 
              Baa    -0.0176    -2.365    -0.844    -0.789  0.7132 -0.6991 -0.0502
    11 C(13)  Bbb     0.0081     1.091     0.389     0.364  0.5880  0.6358 -0.5000
              Bcc     0.0095     1.274     0.455     0.425  0.3815  0.3271  0.8645
 
              Baa    -0.0386    -5.183    -1.850    -1.729  0.0101 -0.0906  0.9958
    12 C(13)  Bbb     0.0065     0.871     0.311     0.291 -0.5579  0.8260  0.0808
              Bcc     0.0321     4.312     1.539     1.438  0.8299  0.5563  0.0422
 
              Baa    -0.0270    -3.623    -1.293    -1.208 -0.2212  0.9752 -0.0038
    13 C(13)  Bbb    -0.0165    -2.219    -0.792    -0.740  0.0117  0.0065  0.9999
              Bcc     0.0435     5.842     2.084     1.949  0.9752  0.2211 -0.0128
 
              Baa    -0.0271    -3.642    -1.300    -1.215  0.3933  0.9139 -0.1001
    14 C(13)  Bbb    -0.0171    -2.290    -0.817    -0.764  0.0326  0.0950  0.9949
              Bcc     0.0442     5.933     2.117     1.979  0.9188 -0.3946  0.0075
 
              Baa    -0.0437    -5.859    -2.091    -1.954  0.0046  0.1038  0.9946
    15 C(13)  Bbb     0.0086     1.152     0.411     0.384  0.6998  0.7102 -0.0773
              Bcc     0.0351     4.707     1.680     1.570  0.7144 -0.6963  0.0694
 
              Baa    -0.0188    -2.522    -0.900    -0.841  0.8339  0.5503 -0.0424
    16 C(13)  Bbb     0.0087     1.161     0.414     0.387 -0.4897  0.7021 -0.5170
              Bcc     0.0101     1.360     0.485     0.454 -0.2547  0.4519  0.8549
 
              Baa    -0.0784   -10.526    -3.756    -3.511 -0.0579  0.0319  0.9978
    17 C(13)  Bbb     0.0037     0.499     0.178     0.166  0.9753  0.2150  0.0497
              Bcc     0.0747    10.028     3.578     3.345 -0.2129  0.9761 -0.0436
 
              Baa    -0.0779   -10.449    -3.729    -3.486  0.0454 -0.0089  0.9989
    18 C(13)  Bbb     0.0025     0.332     0.118     0.111  0.9182 -0.3936 -0.0453
              Bcc     0.0754    10.118     3.610     3.375  0.3936  0.9192 -0.0097
 
              Baa    -0.0186    -2.500    -0.892    -0.834 -0.7012  0.7104  0.0615
    19 C(13)  Bbb     0.0083     1.109     0.396     0.370  0.6606  0.6797 -0.3187
              Bcc     0.0104     1.391     0.496     0.464  0.2682  0.1829  0.9459
 
              Baa    -0.0406    -5.447    -1.944    -1.817  0.0837 -0.0134  0.9964
    20 C(13)  Bbb     0.0073     0.979     0.349     0.327 -0.5637  0.8239  0.0584
              Bcc     0.0333     4.468     1.594     1.490  0.8217  0.5666 -0.0614
 
              Baa    -0.0262    -3.516    -1.255    -1.173 -0.2093  0.9728 -0.0993
    21 C(13)  Bbb    -0.0207    -2.784    -0.994    -0.929  0.0235  0.1065  0.9940
              Bcc     0.0470     6.300     2.248     2.102  0.9776  0.2057 -0.0451
 
              Baa    -0.0424    -5.690    -2.030    -1.898  0.0557 -0.0113  0.9984
    22 C(13)  Bbb    -0.0002    -0.033    -0.012    -0.011  0.1088  0.9941  0.0051
              Bcc     0.0426     5.723     2.042     1.909  0.9925 -0.1083 -0.0566
 
              Baa    -0.0066    -3.542    -1.264    -1.181  0.0438 -0.0279  0.9987
    23 H(1)   Bbb    -0.0054    -2.864    -1.022    -0.955  0.1189  0.9927  0.0226
              Bcc     0.0120     6.405     2.286     2.137  0.9919 -0.1177 -0.0468
 
              Baa    -0.0182    -2.446    -0.873    -0.816  0.9954 -0.0947 -0.0153
    24 C(13)  Bbb    -0.0085    -1.143    -0.408    -0.381  0.0080 -0.0773  0.9970
              Bcc     0.0267     3.589     1.281     1.197  0.0956  0.9925  0.0762
 
              Baa    -0.0069    -3.687    -1.316    -1.230  0.9962 -0.0861 -0.0094
    25 H(1)   Bbb    -0.0064    -3.415    -1.219    -1.139  0.0025 -0.0793  0.9969
              Bcc     0.0133     7.102     2.534     2.369  0.0866  0.9931  0.0787
 
              Baa    -0.0490    -6.570    -2.344    -2.192  0.0061 -0.0278  0.9996
    26 C(13)  Bbb     0.0033     0.443     0.158     0.148  0.0950  0.9951  0.0270
              Bcc     0.0457     6.128     2.186     2.044  0.9955 -0.0948 -0.0087
 
              Baa    -0.0065    -3.493    -1.246    -1.165 -0.0264 -0.0327  0.9991
    27 H(1)   Bbb    -0.0049    -2.594    -0.926    -0.865  0.1095  0.9934  0.0354
              Bcc     0.0114     6.087     2.172     2.030  0.9936 -0.1103  0.0227
 
              Baa    -0.0203    -2.722    -0.971    -0.908  0.9953 -0.0923  0.0294
    28 C(13)  Bbb    -0.0062    -0.836    -0.298    -0.279 -0.0302 -0.0066  0.9995
              Bcc     0.0265     3.558     1.270     1.187  0.0921  0.9957  0.0094
 
              Baa    -0.0073    -3.888    -1.387    -1.297  0.9961 -0.0819  0.0333
    29 H(1)   Bbb    -0.0065    -3.461    -1.235    -1.154 -0.0329  0.0059  0.9994
              Bcc     0.0138     7.348     2.622     2.451  0.0820  0.9966 -0.0032
 
              Baa    -0.0039    -0.522    -0.186    -0.174  0.9429  0.3316  0.0315
    30 C(13)  Bbb    -0.0034    -0.454    -0.162    -0.152 -0.0072 -0.0743  0.9972
              Bcc     0.0073     0.977     0.348     0.326 -0.3331  0.9405  0.0676
 
              Baa    -0.0023    -1.249    -0.446    -0.417  0.8420  0.5113 -0.1720
    31 H(1)   Bbb    -0.0023    -1.236    -0.441    -0.412  0.1793  0.0354  0.9832
              Bcc     0.0047     2.486     0.887     0.829 -0.5087  0.8587  0.0619
 
              Baa    -0.0030    -1.627    -0.580    -0.543  0.6997  0.3457 -0.6252
    32 H(1)   Bbb    -0.0028    -1.505    -0.537    -0.502  0.6661  0.0010  0.7459
              Bcc     0.0059     3.132     1.117     1.045 -0.2585  0.9383  0.2296
 
              Baa    -0.0031    -1.630    -0.582    -0.544  0.6854  0.2437  0.6862
    33 H(1)   Bbb    -0.0028    -1.518    -0.542    -0.507 -0.6821 -0.1149  0.7221
              Bcc     0.0059     3.148     1.123     1.050 -0.2549  0.9630 -0.0875
 
              Baa    -0.0037    -0.490    -0.175    -0.164  0.3894  0.6939 -0.6057
    34 C(13)  Bbb    -0.0036    -0.479    -0.171    -0.160  0.3450  0.4998  0.7944
              Bcc     0.0072     0.969     0.346     0.323  0.8540 -0.5184 -0.0447
 
              Baa    -0.0030    -1.586    -0.566    -0.529  0.4768  0.8368 -0.2692
    35 H(1)   Bbb    -0.0028    -1.487    -0.531    -0.496  0.0446  0.2828  0.9581
              Bcc     0.0058     3.074     1.097     1.025  0.8779 -0.4688  0.0976
 
              Baa    -0.0029    -1.558    -0.556    -0.520  0.4986  0.8023  0.3283
    36 H(1)   Bbb    -0.0028    -1.473    -0.526    -0.491  0.0053 -0.3815  0.9243
              Bcc     0.0057     3.031     1.082     1.011  0.8668 -0.4591 -0.1945
 
              Baa    -0.0023    -1.202    -0.429    -0.401  0.0157 -0.0576  0.9982
    37 H(1)   Bbb    -0.0020    -1.082    -0.386    -0.361  0.6548  0.7551  0.0333
              Bcc     0.0043     2.284     0.815     0.762  0.7557 -0.6531 -0.0496
 
              Baa    -0.0037    -0.497    -0.177    -0.166 -0.5911  0.2981  0.7495
    38 C(13)  Bbb    -0.0036    -0.490    -0.175    -0.163  0.6312 -0.4075  0.6599
              Bcc     0.0074     0.987     0.352     0.329  0.5022  0.8632  0.0527
 
              Baa    -0.0031    -1.658    -0.592    -0.553 -0.2199  0.1678  0.9610
    39 H(1)   Bbb    -0.0030    -1.605    -0.573    -0.535  0.8877 -0.3741  0.2684
              Bcc     0.0061     3.263     1.164     1.089  0.4045  0.9121 -0.0667
 
              Baa    -0.0028    -1.520    -0.542    -0.507  0.8151 -0.5338  0.2251
    40 H(1)   Bbb    -0.0027    -1.424    -0.508    -0.475 -0.3090 -0.0719  0.9483
              Bcc     0.0055     2.943     1.050     0.982  0.4901  0.8425  0.2236
 
              Baa    -0.0026    -1.384    -0.494    -0.462  0.7412 -0.6183  0.2614
    41 H(1)   Bbb    -0.0023    -1.211    -0.432    -0.404 -0.1875  0.1832  0.9650
              Bcc     0.0049     2.595     0.926     0.866  0.6446  0.7643 -0.0199
 
              Baa    -0.0067    -0.899    -0.321    -0.300 -0.2213  0.7616  0.6091
    42 C(13)  Bbb     0.0019     0.258     0.092     0.086  0.7462 -0.2699  0.6086
              Bcc     0.0048     0.641     0.229     0.214  0.6279  0.5892 -0.5086
 
              Baa    -0.0029    -1.557    -0.556    -0.519  0.1574 -0.1763  0.9717
    43 H(1)   Bbb    -0.0027    -1.444    -0.515    -0.482 -0.1910  0.9599  0.2051
              Bcc     0.0056     3.001     1.071     1.001  0.9689  0.2178 -0.1175
 
              Baa    -0.0165    -2.214    -0.790    -0.738  0.0118 -0.6956  0.7183
    44 C(13)  Bbb     0.0054     0.724     0.258     0.241 -0.4521  0.6370  0.6243
              Bcc     0.0111     1.490     0.532     0.497  0.8919  0.3321  0.3070
 
              Baa    -0.0028    -1.505    -0.537    -0.502 -0.5197  0.6833  0.5128
    45 H(1)   Bbb    -0.0018    -0.937    -0.335    -0.313  0.1075 -0.5432  0.8327
              Bcc     0.0046     2.443     0.872     0.815  0.8476  0.4879  0.2088
 
              Baa    -0.0014    -0.730    -0.260    -0.243 -0.3724  0.7765 -0.5083
    46 H(1)   Bbb    -0.0009    -0.485    -0.173    -0.162 -0.4637  0.3188  0.8267
              Bcc     0.0023     1.214     0.433     0.405  0.8039  0.5436  0.2413
 
              Baa    -0.0039    -0.524    -0.187    -0.175  0.2593  0.4533  0.8528
    47 C(13)  Bbb    -0.0034    -0.455    -0.163    -0.152  0.4536  0.7224 -0.5219
              Bcc     0.0073     0.980     0.350     0.327  0.8526 -0.5222  0.0183
 
              Baa    -0.0031    -1.634    -0.583    -0.545  0.4325  0.8438  0.3177
    48 H(1)   Bbb    -0.0029    -1.540    -0.550    -0.514 -0.0581 -0.3256  0.9437
              Bcc     0.0059     3.174     1.133     1.059  0.8998 -0.4266 -0.0918
 
              Baa    -0.0027    -1.422    -0.507    -0.474  0.5278  0.7279 -0.4377
    49 H(1)   Bbb    -0.0026    -1.363    -0.486    -0.455  0.0938  0.4623  0.8818
              Bcc     0.0052     2.785     0.994     0.929  0.8442 -0.5064  0.1757
 
              Baa    -0.0023    -1.202    -0.429    -0.401  0.0850  0.0507  0.9951
    50 H(1)   Bbb    -0.0020    -1.063    -0.379    -0.354  0.6464  0.7572 -0.0938
              Bcc     0.0042     2.265     0.808     0.756  0.7582 -0.6512 -0.0315
 
              Baa    -0.0090    -1.208    -0.431    -0.403 -0.5242 -0.0347  0.8509
    51 C(13)  Bbb    -0.0012    -0.162    -0.058    -0.054  0.7918  0.3481  0.5019
              Bcc     0.0102     1.371     0.489     0.457 -0.3137  0.9368 -0.1550
 
              Baa    -0.0032    -1.691    -0.603    -0.564  0.9535  0.2426 -0.1790
    52 H(1)   Bbb    -0.0031    -1.637    -0.584    -0.546  0.1827  0.0073  0.9831
              Bcc     0.0062     3.328     1.188     1.110 -0.2398  0.9701  0.0374
 
              Baa    -0.0069    -0.933    -0.333    -0.311  0.6933  0.4675  0.5485
    53 C(13)  Bbb    -0.0014    -0.184    -0.066    -0.061 -0.1986  0.8555 -0.4782
              Bcc     0.0083     1.117     0.399     0.373  0.6928 -0.2226 -0.6859
 
              Baa    -0.0020    -1.056    -0.377    -0.352 -0.5641 -0.2462  0.7882
    54 H(1)   Bbb    -0.0013    -0.684    -0.244    -0.228  0.5348  0.6183  0.5759
              Bcc     0.0033     1.740     0.621     0.580 -0.6291  0.7464 -0.2171
 
              Baa    -0.0018    -0.962    -0.343    -0.321  0.6587  0.2713  0.7018
    55 H(1)   Bbb    -0.0014    -0.725    -0.259    -0.242 -0.6835 -0.1741  0.7088
              Bcc     0.0032     1.687     0.602     0.563 -0.3145  0.9466 -0.0708
 
              Baa    -0.0038    -0.509    -0.182    -0.170 -0.2159  0.1326  0.9674
    56 C(13)  Bbb    -0.0037    -0.491    -0.175    -0.164  0.8366 -0.4858  0.2533
              Bcc     0.0075     1.000     0.357     0.334  0.5035  0.8640 -0.0061
 
              Baa    -0.0030    -1.617    -0.577    -0.539  0.4580 -0.3665  0.8099
    57 H(1)   Bbb    -0.0029    -1.545    -0.551    -0.515  0.7700 -0.2917 -0.5675
              Bcc     0.0059     3.162     1.128     1.055  0.4443  0.8835  0.1485
 
              Baa    -0.0031    -1.635    -0.583    -0.545 -0.4734  0.3834  0.7930
    58 H(1)   Bbb    -0.0029    -1.549    -0.553    -0.517  0.7664 -0.2645  0.5854
              Bcc     0.0060     3.183     1.136     1.062  0.4342  0.8849 -0.1686
 
              Baa    -0.0024    -1.287    -0.459    -0.429  0.7496 -0.6548 -0.0966
    59 H(1)   Bbb    -0.0024    -1.265    -0.451    -0.422  0.0848 -0.0498  0.9952
              Bcc     0.0048     2.552     0.911     0.851  0.6564  0.7542 -0.0183
 
              Baa    -0.0040    -0.536    -0.191    -0.179  0.0668 -0.0279  0.9974
    60 C(13)  Bbb    -0.0034    -0.457    -0.163    -0.152 -0.3264  0.9440  0.0483
              Bcc     0.0074     0.993     0.354     0.331  0.9429  0.3288 -0.0540
 
              Baa    -0.0029    -1.527    -0.545    -0.509 -0.2947  0.9429  0.1550
    61 H(1)   Bbb    -0.0028    -1.486    -0.530    -0.496 -0.0431 -0.1752  0.9836
              Bcc     0.0056     3.013     1.075     1.005  0.9546  0.2832  0.0923
 
              Baa    -0.0023    -1.225    -0.437    -0.409  0.0717 -0.0248  0.9971
    62 H(1)   Bbb    -0.0021    -1.111    -0.397    -0.371 -0.4740  0.8787  0.0560
              Bcc     0.0044     2.337     0.834     0.779  0.8776  0.4766 -0.0513
 
              Baa    -0.0029    -1.572    -0.561    -0.524 -0.3126  0.9407 -0.1317
    63 H(1)   Bbb    -0.0029    -1.528    -0.545    -0.510  0.1495  0.1857  0.9712
              Bcc     0.0058     3.100     1.106     1.034  0.9380  0.2839 -0.1987
 
              Baa    -0.1000     7.234     2.581     2.413  0.8026 -0.5774 -0.1498
    64 O(17)  Bbb    -0.0622     4.504     1.607     1.502  0.5852  0.8108  0.0103
              Bcc     0.1622   -11.738    -4.189    -3.915  0.1155 -0.0960  0.9887
 
              Baa    -0.0329   -17.544    -6.260    -5.852  0.6522  0.7577  0.0217
    65 H(1)   Bbb    -0.0280   -14.913    -5.321    -4.974  0.6757 -0.5681 -0.4699
              Bcc     0.0608    32.457    11.581    10.826  0.3437 -0.3211  0.8825
 
              Baa    -0.0274   -14.603    -5.211    -4.871  0.5767  0.8166  0.0227
    66 H(1)   Bbb    -0.0236   -12.569    -4.485    -4.193  0.7983 -0.5693  0.1967
              Bcc     0.0509    27.173     9.696     9.064 -0.1736  0.0953  0.9802
 
              Baa    -0.0041    -0.548    -0.196    -0.183  0.1483  0.9882  0.0382
    67 C(13)  Bbb    -0.0039    -0.527    -0.188    -0.176  0.9498 -0.1530  0.2730
              Bcc     0.0080     1.075     0.384     0.359 -0.2756  0.0042  0.9613
 
              Baa    -0.0027    -1.416    -0.505    -0.472  0.8969  0.3659  0.2483
    68 H(1)   Bbb    -0.0026    -1.376    -0.491    -0.459 -0.3933  0.9168  0.0696
              Bcc     0.0052     2.793     0.996     0.931 -0.2022 -0.1601  0.9662
 
              Baa    -0.0033    -1.748    -0.624    -0.583  0.0873  0.9958  0.0257
    69 H(1)   Bbb    -0.0031    -1.664    -0.594    -0.555  0.8942 -0.0898  0.4386
              Bcc     0.0064     3.412     1.218     1.138 -0.4391  0.0153  0.8983
 
              Baa    -0.0027    -1.423    -0.508    -0.475  0.8092 -0.5406  0.2302
    70 H(1)   Bbb    -0.0026    -1.377    -0.491    -0.459  0.5598  0.8283 -0.0227
              Bcc     0.0052     2.800     0.999     0.934 -0.1784  0.1473  0.9729
 
              Baa    -0.0116    -0.449    -0.160    -0.150  0.9364 -0.3165 -0.1519
    71 N(14)  Bbb    -0.0047    -0.182    -0.065    -0.061  0.3281  0.9429  0.0577
              Bcc     0.0164     0.631     0.225     0.210  0.1250 -0.1039  0.9867
 
              Baa    -0.0050    -2.676    -0.955    -0.892 -0.3790  0.9110  0.1625
    72 H(1)   Bbb    -0.0048    -2.567    -0.916    -0.856  0.8781  0.4095 -0.2473
              Bcc     0.0098     5.242     1.871     1.749  0.2919 -0.0490  0.9552
 
              Baa    -0.0091    -1.225    -0.437    -0.408  0.8164 -0.5685  0.1010
    73 C(13)  Bbb    -0.0076    -1.025    -0.366    -0.342  0.5655  0.8226  0.0595
              Bcc     0.0168     2.249     0.803     0.750 -0.1169  0.0086  0.9931
 
              Baa    -0.0230    -3.087    -1.101    -1.030  0.6126  0.7723 -0.1682
    74 C(13)  Bbb    -0.0190    -2.550    -0.910    -0.851  0.6546 -0.6149 -0.4397
              Bcc     0.0420     5.637     2.011     1.880  0.4430 -0.1593  0.8823
 
              Baa    -0.0179    -9.567    -3.414    -3.191  0.1994  0.9777 -0.0656
    75 H(1)   Bbb    -0.0174    -9.280    -3.311    -3.096  0.7176 -0.1912 -0.6697
              Bcc     0.0353    18.847     6.725     6.287  0.6673 -0.0865  0.7397
 
              Baa    -0.1236    -4.766    -1.700    -1.590  0.9994 -0.0261 -0.0223
    76 N(14)  Bbb    -0.1115    -4.302    -1.535    -1.435  0.0267  0.9992  0.0300
              Bcc     0.2351     9.067     3.235     3.024  0.0215 -0.0306  0.9993
 
              Baa    -0.0247    -3.312    -1.182    -1.105  0.3073  0.9496  0.0619
    77 C(13)  Bbb    -0.0193    -2.588    -0.924    -0.863  0.8604 -0.3050  0.4083
              Bcc     0.0440     5.901     2.106     1.968 -0.4066  0.0723  0.9107
 
              Baa    -0.0184    -9.825    -3.506    -3.277  0.3365  0.9103  0.2411
    78 H(1)   Bbb    -0.0182    -9.709    -3.465    -3.239  0.6870 -0.4124  0.5984
              Bcc     0.0366    19.534     6.970     6.516 -0.6441  0.0357  0.7641
 

 ---------------------------------------------------------------------------------

 Unable to Open any file for archive entry.
 1\1\GINC-BGN1026\SP\UAPFD\Gen\C34H36Fe1N6O1(5)\BECSLEIP\02-Sep-2024\0\
 \# apfd/gen scf=maxcycle=999 geom=check\\2oh8_II_Q\\0,5\Fe,0,35.099180
 0535,3.8440867552,10.4577422504\N,0,36.9813423358,3.5518423558,9.82446
 83078\N,0,34.8015239571,5.0899983604,8.9007796607\N,0,33.2313697424,4.
 195612022,11.0867433565\N,0,35.4261614542,2.6381153602,12.0037756896\C
 ,0,37.9208482555,2.7670986367,10.416730466\C,0,39.17075821,2.825096830
 4,9.6905506441\C,0,38.9655267497,3.6728353014,8.6477374941\C,0,37.5992
 708992,4.1347475267,8.7639974796\C,0,35.7080375152,5.4682940706,7.9606
 859695\C,0,35.1285372139,6.4025868242,7.0290181954\C,0,33.8325856681,6
 .5885956716,7.4280187951\C,0,33.652889282,5.7503725989,8.5990605131\C,
 0,32.3115239169,5.0280915057,10.5250232573\C,0,31.142637142,5.13717959
 18,11.3572220245\C,0,31.3674947918,4.3313145591,12.4435701379\C,0,32.6
 771954125,3.7440413803,12.2416809546\C,0,34.5444539094,2.3371559066,12
 .9935807606\C,0,35.1676544345,1.4976048912,13.9942666709\C,0,36.451329
 2882,1.3081130448,13.5876764282\C,0,36.5887899809,2.0187547375,12.3352
 102166\C,0,37.7527970003,2.0545849441,11.5906244138\H,0,38.6011907381,
 1.5006922123,11.9634509356\C,0,37.0176526185,5.0288580713,7.8889221159
 \H,0,37.6355016122,5.4231162036,7.0967510145\C,0,32.49536502,5.7420923
 237,9.3529959661\H,0,31.6795011664,6.3646436051,9.0186653568\C,0,33.25
 96836741,2.8338084936,13.1052236203\H,0,32.6897120397,2.5335738739,13.
 9711284498\C,0,39.9117399719,4.1049933276,7.5804254852\H,0,40.87532242
 14,3.6143518204,7.6950029203\H,0,40.0695363681,5.1830900405,7.62083380
 64\H,0,39.5157938095,3.8585668719,6.594974106\C,0,40.3999238145,2.0699
 299442,10.0664536606\H,0,40.1983610274,0.9991039732,10.1042904739\H,0,
 40.7553297179,2.380978214,11.049292677\H,0,41.195586338,2.2431800721,9
 .3459709321\C,0,35.8232958581,6.97042211,5.840658694\H,0,36.4497424533
 ,6.2171634478,5.3650809579\H,0,36.4610770113,7.8084901435,6.1264499561
 \H,0,35.0939007663,7.3250226369,5.1153967501\C,0,32.7996099887,7.40946
 24214,6.8358240498\H,0,31.7914969377,7.0162204583,6.9028099477\C,0,32.
 9938683909,8.5819192338,6.2404993104\H,0,33.9647030286,9.0426946103,6.
 1874454484\H,0,32.1779788919,9.1362195693,5.8066999612\C,0,29.92306493
 92,5.9238665619,11.0239605905\H,0,29.7109618477,5.8719145542,9.9570948
 444\H,0,30.0501758922,6.9745939435,11.2905220148\H,0,29.0662079984,5.5
 329687399,11.5690531944\C,0,30.5100709391,4.071887849,13.5785468041\H,
 0,30.5743361869,3.0737741892,13.99620494\C,0,29.6810277762,4.948977910
 1,14.1355448046\H,0,29.6104969863,5.9673402508,13.7950839635\H,0,29.05
 95055006,4.6824294285,14.9743181929\C,0,34.4804364032,0.9923235586,15.
 2163071854\H,0,33.5919831524,0.4206891851,14.9475854005\H,0,34.1686176
 183,1.821836169,15.8517498087\H,0,35.1400544298,0.3489827217,15.793704
 6272\C,0,37.5465360677,0.5358235986,14.2408592589\H,0,37.8861189382,-0
 .2735857116,13.593593139\H,0,37.2086473791,0.1038403624,15.1796115073\
 H,0,38.399727103,1.1818956377,14.4482747794\O,0,35.683,5.637,11.716\H,
 0,34.859,6.028,12.005\H,0,36.499,5.885,11.967\C,0,32.2602714851,0.4396
 593841,7.0731042775\H,0,32.739515829,0.1052897118,6.1530941258\H,0,31.
 519403057,1.19309208,6.8253842318\H,0,31.7534413962,-0.4137699785,7.52
 3095733\N,0,34.3202946777,0.2944373917,8.4910417892\H,0,34.5278742998,
 -0.6657240353,8.270669867\C,0,33.2588558625,1.0150103975,8.0095026149\
 C,0,35.0283939502,1.1054949584,9.30963804\H,0,35.9152417422,0.80789013
 07,9.82986631\N,0,34.4799772074,2.2941729853,9.375509366\C,0,33.378720
 5887,2.2534580724,8.5717932045\H,0,32.750569659,3.1115350201,8.4528095
 919\\Version=ES64L-G16RevC.02\State=5-A\HF=-2983.3776415\S2=6.155881\S
 2-1=0.\S2A=6.000794\RMSD=3.027e-09\Dipole=0.2481862,-1.3434213,-0.3689
 785\Quadrupole=-3.6477273,7.601196,-3.9534687,0.9477064,2.2275194,6.74
 83438\PG=C01 [X(C34H36Fe1N6O1)]\\@
 The archive entry for this job was punched.


 SUPPORT THE RIGHT TO ARM BEARS!
 (ADD A CLAWS TO THE BILL OF RIGHTS)
 Job cpu time:       0 days  3 hours 35 minutes 20.5 seconds.
 Elapsed time:       0 days  0 hours  3 minutes 44.7 seconds.
 File lengths (MBytes):  RWF=    430 Int=      0 D2E=      0 Chk=    155 Scr=      1
 Normal termination of Gaussian 16 at Mon Sep  2 20:47:50 2024.
