 Entering Gaussian System, Link 0=g16
 Input=2pt312re.com
 Output=2pt312re.log
 Initial command:
 /sw/chem/gaussian/g16_C02/a100/g16/l1.exe "/local/becsleip_8001282/Gau-3133658.inp" -scrdir="/local/becsleip_8001282/"
 Entering Link 1 = /sw/chem/gaussian/g16_C02/a100/g16/l1.exe PID=   3133659.
  
 Copyright (c) 1988-2021, Gaussian, Inc.  All Rights Reserved.
  
 This is part of the Gaussian(R) 16 program.  It is based on
 the Gaussian(R) 09 system (copyright 2009, Gaussian, Inc.),
 the Gaussian(R) 03 system (copyright 2003, Gaussian, Inc.),
 the Gaussian(R) 98 system (copyright 1998, Gaussian, Inc.),
 the Gaussian(R) 94 system (copyright 1995, Gaussian, Inc.),
 the Gaussian 92(TM) system (copyright 1992, Gaussian, Inc.),
 the Gaussian 90(TM) system (copyright 1990, Gaussian, Inc.),
 the Gaussian 88(TM) system (copyright 1988, Gaussian, Inc.),
 the Gaussian 86(TM) system (copyright 1986, Carnegie Mellon
 University), and the Gaussian 82(TM) system (copyright 1983,
 Carnegie Mellon University). Gaussian is a federally registered
 trademark of Gaussian, Inc.
  
 This software contains proprietary and confidential information,
 including trade secrets, belonging to Gaussian, Inc.
  
 This software is provided under written license and may be
 used, copied, transmitted, or stored only in accord with that
 written license.
  
 The following legend is applicable only to US Government
 contracts under FAR:
  
                    RESTRICTED RIGHTS LEGEND
  
 Use, reproduction and disclosure by the US Government is
 subject to restrictions as set forth in subparagraphs (a)
 and (c) of the Commercial Computer Software - Restricted
 Rights clause in FAR 52.227-19.
  
 Gaussian, Inc.
 340 Quinnipiac St., Bldg. 40, Wallingford CT 06492
  
  
 ---------------------------------------------------------------
 Warning -- This program may not be used in any manner that
 competes with the business of Gaussian, Inc. or will provide
 assistance to any competitor of Gaussian, Inc.  The licensee
 of this program is prohibited from giving any competitor of
 Gaussian, Inc. access to this program.  By using this program,
 the user acknowledges that Gaussian, Inc. is engaged in the
 business of creating and licensing software in the field of
 computational chemistry and represents and warrants to the
 licensee that it is not a competitor of Gaussian, Inc. and that
 it will not use this program in any manner prohibited above.
 ---------------------------------------------------------------
  

 Cite this work as:
 Gaussian 16, Revision C.02,
 M. J. Frisch, G. W. Trucks, H. B. Schlegel, G. E. Scuseria, 
 M. A. Robb, J. R. Cheeseman, G. Scalmani, V. Barone, 
 G. A. Petersson, H. Nakatsuji, X. Li, M. Caricato, A. V. Marenich, 
 J. Bloino, B. G. Janesko, R. Gomperts, B. Mennucci, H. P. Hratchian, 
 J. V. Ortiz, A. F. Izmaylov, J. L. Sonnenberg, D. Williams-Young, 
 F. Ding, F. Lipparini, F. Egidi, J. Goings, B. Peng, A. Petrone, 
 T. Henderson, D. Ranasinghe, V. G. Zakrzewski, J. Gao, N. Rega, 
 G. Zheng, W. Liang, M. Hada, M. Ehara, K. Toyota, R. Fukuda, 
 J. Hasegawa, M. Ishida, T. Nakajima, Y. Honda, O. Kitao, H. Nakai, 
 T. Vreven, K. Throssell, J. A. Montgomery, Jr., J. E. Peralta, 
 F. Ogliaro, M. J. Bearpark, J. J. Heyd, E. N. Brothers, K. N. Kudin, 
 V. N. Staroverov, T. A. Keith, R. Kobayashi, J. Normand, 
 K. Raghavachari, A. P. Rendell, J. C. Burant, S. S. Iyengar, 
 J. Tomasi, M. Cossi, J. M. Millam, M. Klene, C. Adamo, R. Cammi, 
 J. W. Ochterski, R. L. Martin, K. Morokuma, O. Farkas, 
 J. B. Foresman, and D. J. Fox, Gaussian, Inc., Wallingford CT, 2019.
 
 ******************************************
 Gaussian 16:  ES64L-G16RevC.02  7-Dec-2021
                 2-Sep-2024 
 ******************************************
 %mem=16GB
 %CPU=0-71
 SetSPE:  set environment variable "OMP_PROC_BIND" = "true"
 SetSPE:  set environment variable "OMP_PLACES" = "{0},{1},{2},{3},{4},{5},{6},{7},{8},{9},{10},{11},{12},{13},{14},{15},{16},{17},{18},{19},{20},{21},{22},{23},{24},{25},{26},{27},{28},{29},{30},{31},{32},{33},{34},{35},{36},{37},{38},{39},{40},{41},{42},{43},{44},{45},{46},{47},{48},{49},{50},{51},{52},{53},{54},{55},{56},{57},{58},{59},{60},{61},{62},{63},{64},{65},{66},{67},{68},{69},{70},{71}"
 Will use up to   72 processors via shared memory.
 %gpucpu=0,1,2,3=0,1,2,3
 Will use    4 GPUs:
 Thread  CPU   GPU
      0    0     0
      1    1     1
      2    2     2
      3    3     3
      4    4    -1
      5    5    -1
      6    6    -1
      7    7    -1
      8    8    -1
      9    9    -1
     10   10    -1
     11   11    -1
     12   12    -1
     13   13    -1
     14   14    -1
     15   15    -1
     16   16    -1
     17   17    -1
     18   18    -1
     19   19    -1
     20   20    -1
     21   21    -1
     22   22    -1
     23   23    -1
     24   24    -1
     25   25    -1
     26   26    -1
     27   27    -1
     28   28    -1
     29   29    -1
     30   30    -1
     31   31    -1
     32   32    -1
     33   33    -1
     34   34    -1
     35   35    -1
     36   36    -1
     37   37    -1
     38   38    -1
     39   39    -1
     40   40    -1
     41   41    -1
     42   42    -1
     43   43    -1
     44   44    -1
     45   45    -1
     46   46    -1
     47   47    -1
     48   48    -1
     49   49    -1
     50   50    -1
     51   51    -1
     52   52    -1
     53   53    -1
     54   54    -1
     55   55    -1
     56   56    -1
     57   57    -1
     58   58    -1
     59   59    -1
     60   60    -1
     61   61    -1
     62   62    -1
     63   63    -1
     64   64    -1
     65   65    -1
     66   66    -1
     67   67    -1
     68   68    -1
     69   69    -1
     70   70    -1
     71   71    -1
 SetGPE:  set environment variable "OMP_PROC_BIND" = "true"
 SetGPE:  set environment variable "OMP_PLACES" = "{0},{1},{2},{3},{4},{5},{6},{7},{8},{9},{10},{11},{12},{13},{14},{15},{16},{17},{18},{19},{20},{21},{22},{23},{24},{25},{26},{27},{28},{29},{30},{31},{32},{33},{34},{35},{36},{37},{38},{39},{40},{41},{42},{43},{44},{45},{46},{47},{48},{49},{50},{51},{52},{53},{54},{55},{56},{57},{58},{59},{60},{61},{62},{63},{64},{65},{66},{67},{68},{69},{70},{71}"
 %oldchk=2pt3_II_S.chk
 %chk=2pt3_II_Sre.chk
 Properties for Device   0
 Minimum vector length:                              32
 Maximum vector length:                            1024
 Number of SMPs:                                    108
 Maximum number of threads per SMP:                2048
 Number of ASync Engines:                             5
 Memory:                                           9207742464
 Properties for Device   1
 Minimum vector length:                              32
 Maximum vector length:                            1024
 Number of SMPs:                                    108
 Maximum number of threads per SMP:                2048
 Number of ASync Engines:                             5
 Memory:                                           9207742464
 Properties for Device   2
 Minimum vector length:                              32
 Maximum vector length:                            1024
 Number of SMPs:                                    108
 Maximum number of threads per SMP:                2048
 Number of ASync Engines:                             5
 Memory:                                           9207742464
 Properties for Device   3
 Minimum vector length:                              32
 Maximum vector length:                            1024
 Number of SMPs:                                    108
 Maximum number of threads per SMP:                2048
 Number of ASync Engines:                             5
 Memory:                                           9207742464
   8286968217 words of memory will be used on each GPU.
 Copying data from "2pt3_II_S.chk" to current chk file "2pt3_II_Sre.chk"
 IOpt=  2 FromEx=T IUOpen= 4 IOptOp= 5 NList=   0 IFRang= 0 IUIn= 4 IUOut= 2.
 --------------------------------------
 # apfd/gen scf=maxcycle=999 geom=check
 --------------------------------------
 1/29=2,38=1,172=1/1;
 2/12=2,40=1/2;
 3/5=7,11=2,14=-4,25=1,30=1,74=-44/1,2,3;
 4//1;
 5/5=2,7=999,38=5/2;
 6/7=2,8=2,9=2,10=2,28=1/1;
 99/5=1,9=1/99;
 ----------
 2pt3_III_D
 ----------
 Structure from the checkpoint file:  "2pt3_II_Sre.chk"
 Charge =  1 Multiplicity = 2
 Z-Matrix found in chk file.
 Fe,0,9.3597581432,2.2713415053,25.8957800126
 N,0,8.5770171145,2.3753885792,27.7968955909
 N,0,9.341809967,4.2496022844,25.8173970342
 N,0,9.9094432714,2.0973711755,24.0121511009
 N,0,9.1628785087,0.260376983,26.0409489127
 C,0,8.1916025084,1.3571122085,28.6108773999
 C,0,7.6736905929,1.8596170655,29.8622560735
 C,0,7.7412840969,3.2159346413,29.7835157666
 C,0,8.2948475624,3.5193366097,28.4826902421
 C,0,8.9784996038,5.1413875342,26.7751998253
 C,0,9.1110610683,6.4938810185,26.2949668873
 C,0,9.6039472261,6.4036458058,25.020553774
 C,0,9.7201598833,4.9843441326,24.7378549214
 C,0,10.3086873103,3.1310390688,23.2214944796
 C,0,10.996700161,2.6401056853,22.054319837
 C,0,10.8659674659,1.2745363111,22.079938952
 C,0,10.2171826317,0.9620229946,23.3400591452
 C,0,9.3752577656,-0.6164981309,25.0213064236
 C,0,8.9206217419,-1.9428223042,25.3764580839
 C,0,8.4474387478,-1.85376641,26.6476845326
 C,0,8.6007366143,-0.470149935,27.0404163095
 C,0,8.2170271653,0.0167291811,28.2750479765
 H,0,7.8417969287,-0.6896190818,28.9996399118
 C,0,8.5091513851,4.8073704382,28.0329835838
 H,0,8.256131649,5.6146244111,28.7030652441
 C,0,10.185894954,4.4752380833,23.5401887086
 H,0,10.5078819349,5.1863186714,22.7939301121
 C,0,9.9356598492,-0.3135755904,23.7929689855
 H,0,10.1272917301,-1.1379632128,23.1227969523
 C,0,7.3267794581,4.2391983691,30.7848498444
 H,0,6.9819260325,3.7656238656,31.7011693155
 H,0,6.5163052226,4.8549293074,30.3923209021
 H,0,8.161438951,4.8961133968,31.0304553202
 C,0,7.1734513516,0.9996511186,30.9723025665
 H,0,7.9393242846,0.2889495875,31.2831670826
 H,0,6.2970371472,0.4332589058,30.6550112958
 H,0,6.8958005229,1.602584619,31.8334339969
 C,0,8.7253277787,7.7153132628,27.0541338761
 H,0,9.5158046528,8.0106585105,27.7462103757
 H,0,7.8198408524,7.5390377219,27.6328822848
 H,0,8.5447774695,8.5397648778,26.3671477901
 C,0,9.9097998873,7.4602283982,24.0818528296
 H,0,9.7289248349,7.2281400644,23.0386110905
 C,0,10.3936458975,8.6568824634,24.3996162684
 H,0,10.6362950254,8.9260694027,25.412777624
 H,0,10.5880358044,9.4039009573,23.6478954518
 C,0,11.6791082543,3.488960486,21.0391227737
 H,0,12.1521261895,4.3480266285,21.5125650659
 H,0,10.9707899575,3.8600419239,20.2961705988
 H,0,12.443558639,2.9103668413,20.5243340555
 C,0,11.35472763,0.2874368735,21.1446221005
 H,0,11.6202773193,-0.6715346483,21.5741372517
 C,0,11.4827354713,0.458484244,19.8320987769
 H,0,11.8642517865,-0.3246402513,19.1978557009
 H,0,11.1906838615,1.3690698902,19.3395043113
 C,0,8.9928633903,-3.128990779,24.4771602644
 H,0,10.0305123826,-3.3711448013,24.2445685025
 H,0,8.4740485017,-2.9313362638,23.5393345075
 H,0,8.536323432,-3.9978397164,24.945238279
 C,0,7.8529349014,-2.9126758308,27.5122390241
 H,0,7.8337182082,-3.8683370147,26.9942078282
 H,0,6.831489889,-2.6532080095,27.791763949
 H,0,8.4332563579,-3.0319681892,28.4277604257
 O,0,7.169,2.328,25.27
 H,0,6.685,2.349,26.096
 H,0,6.816,2.315,24.454
 C,0,14.8165382686,3.0679072583,26.7325135253
 H,0,15.1212273805,3.5489307423,27.6619166378
 H,0,14.9176424797,3.7821700449,25.9215167241
 H,0,15.48850175,2.230237545,26.5460494025
 N,0,12.9832247242,1.7007883098,27.7522203214
 H,0,13.5589489514,1.2696783185,28.4566659372
 C,0,13.4078860115,2.6057241985,26.8150226355
 C,0,11.6608006749,1.4967200292,27.5555075543
 H,0,11.0579086217,0.8359447977,28.1431986913
 N,0,11.223003398,2.2174140651,26.5511632647
 C,0,12.298300448,2.9127893312,26.0803788751
 H,0,12.2018681429,3.5832852014,25.2512501033
 Recover connectivity data from disk.
 Stoichiometry    C34H36FeN6O(1+,2)
 Framework group  C1[X(C34H36FeN6O)]
 Deg. of freedom   228
 Full point group                 C1      NOp   1
 Largest Abelian subgroup         C1      NOp   1
 Largest concise Abelian subgroup C1      NOp   1
                         Standard orientation:                         
 ---------------------------------------------------------------------
 Center     Atomic      Atomic             Coordinates (Angstroms)
 Number     Number       Type             X           Y           Z
 ---------------------------------------------------------------------
      1         26           0        0.207835    0.020917   -0.295394
      2          7           0        1.913939   -1.128539   -0.219843
      3          7           0       -0.855483   -1.633846   -0.521441
      4          7           0       -1.355760    1.187636   -0.568183
      5          7           0        1.424810    1.639211   -0.232871
      6          6           0        3.207716   -0.719380   -0.137808
      7          6           0        4.110017   -1.847419   -0.129367
      8          6           0        3.329940   -2.957901   -0.222507
      9          6           0        1.963912   -2.489025   -0.291481
     10          6           0       -0.437313   -2.926020   -0.530454
     11          6           0       -1.546726   -3.823819   -0.731927
     12          6           0       -2.667179   -3.040383   -0.809522
     13          6           0       -2.203424   -1.669358   -0.695228
     14          6           0       -2.645216    0.755706   -0.629361
     15          6           0       -3.557647    1.856581   -0.449871
     16          6           0       -2.787900    2.992275   -0.435164
     17          6           0       -1.409967    2.537653   -0.468474
     18          6           0        1.012549    2.927549   -0.387496
     19          6           0        2.142688    3.818567   -0.531836
     20          6           0        3.253418    3.040584   -0.437643
     21          6           0        2.783443    1.684348   -0.259090
     22          6           0        3.627167    0.597474   -0.134852
     23          1           0        4.689499    0.785972   -0.108812
     24          6           0        0.877857   -3.335068   -0.400519
     25          1           0        1.076249   -4.395661   -0.422198
     26          6           0       -3.040589   -0.569999   -0.727871
     27          1           0       -4.100454   -0.759472   -0.811527
     28          6           0       -0.300869    3.361720   -0.420012
     29          1           0       -0.465949    4.428101   -0.452359
     30          6           0        3.734552   -4.391584   -0.271441
     31          1           0        4.811506   -4.493180   -0.158811
     32          1           0        3.446584   -4.839998   -1.223319
     33          1           0        3.250776   -4.954454    0.527092
     34          6           0        5.594032   -1.737728   -0.041891
     35          1           0        5.886338   -1.173914    0.844092
     36          1           0        5.993799   -1.222593   -0.916190
     37          1           0        6.051959   -2.722386    0.012120
     38          6           0       -1.439028   -5.302115   -0.873574
     39          1           0       -1.380887   -5.784684    0.103565
     40          1           0       -0.545752   -5.571037   -1.435418
     41          1           0       -2.310189   -5.690923   -1.397191
     42          6           0       -4.043433   -3.431705   -1.018961
     43          1           0       -4.645392   -2.739875   -1.596845
     44          6           0       -4.607450   -4.542821   -0.555962
     45          1           0       -4.072096   -5.242424    0.061928
     46          1           0       -5.638651   -4.778804   -0.760522
     47          6           0       -5.036947    1.735565   -0.332030
     48          1           0       -5.305754    0.833934    0.216325
     49          1           0       -5.507277    1.685668   -1.315745
     50          1           0       -5.439274    2.597504    0.196512
     51          6           0       -3.190589    4.372927   -0.294774
     52          1           0       -2.480520    5.017314    0.210393
     53          6           0       -4.327175    4.899055   -0.741678
     54          1           0       -4.562194    5.939806   -0.590992
     55          1           0       -5.049843    4.323609   -1.292789
     56          6           0        2.036184    5.291047   -0.735329
     57          1           0        1.566882    5.764426    0.127875
     58          1           0        1.430314    5.513968   -1.613385
     59          1           0        3.019160    5.734446   -0.875258
     60          6           0        4.690275    3.428962   -0.519993
     61          1           0        4.792517    4.501203   -0.667846
     62          1           0        5.179910    2.919754   -1.350519
     63          1           0        5.214472    3.159081    0.397375
     64          8           0        0.581896   -0.033566   -2.542913
     65          1           0        1.393264   -0.533163   -2.638085
     66          1           0        0.109780    0.332809   -3.201327
     67          6           0       -1.751931   -0.285379    4.917723
     68          1           0       -1.413392   -1.115360    5.537830
     69          1           0       -2.774039   -0.477363    4.607002
     70          1           0       -1.735162    0.621084    5.522733
     71          7           0        0.457291    0.109520    3.807207
     72          1           0        0.982208    0.210683    4.660310
     73          6           0       -0.887982   -0.135677    3.719431
     74          6           0        0.942476    0.190152    2.547350
     75          1           0        1.968762    0.374861    2.306303
     76          7           0       -0.013744    0.010815    1.668001
     77          6           0       -1.158326   -0.193187    2.381979
     78          1           0       -2.092616   -0.367375    1.888950
 ---------------------------------------------------------------------
 Rotational constants (GHZ):           0.0928624           0.0914096           0.0591872
 General basis read from cards:  (5D, 7F)
 There are   723 symmetry adapted cartesian basis functions of A   symmetry.
 There are   679 symmetry adapted basis functions of A   symmetry.
   679 basis functions,  1378 primitive gaussians,   723 cartesian basis functions
   158 alpha electrons      157 beta electrons
       nuclear repulsion energy      5963.2723474579 Hartrees.
 NAtoms=   78 NActive=   78 NUniq=   78 SFac= 1.00D+00 NAtFMM=   60 NAOKFM=T Big=T
 Integral buffers will be    131072 words long.
 Raffenetti 2 integral format.
 Two-electron integral symmetry is turned on.
 R6APFD:  NTU= -4 IXU= 1 FactS= 1.050
 Nuclear repulsion after empirical dispersion term =     5963.1182105824 Hartrees.
 One-electron integrals computed using PRISM.
 NBasis=   679 RedAO= T EigKep=  2.64D-04  NBF=   679
 NBsUse=   679 1.00D-06 EigRej= -1.00D+00 NBFU=   679
 ExpMin= 4.20D-02 ExpMax= 3.01D+05 ExpMxC= 2.91D+03 IAcc=3 IRadAn=         5 AccDes= 0.00D+00
 Harris functional with IExCor= 3731 and IRadAn=       5 diagonalized for initial guess.
 HarFok:  IExCor= 3731 AccDes= 0.00D+00 IRadAn=         5 IDoV= 1 UseB2=F ITyADJ=14
 ICtDFT=  3500011 ScaDFX=  1.000000  1.000000  1.000000  1.000000
 FoFCou: FMM=F IPFlag=           0 FMFlag=      100000 FMFlg1=        2001
         NFxFlg=           0 DoJE=T BraDBF=F KetDBF=T FulRan=T
         wScrn=  0.000000 ICntrl=       500 IOpCl=  0 I1Cent=   200000004 NGrid=           0
         NMat0=    1 NMatS0=      1 NMatT0=    0 NMatD0=    1 NMtDS0=    0 NMtDT0=    0
 Petite list used in FoFCou.
 Initial guess <Sx>= 0.0000 <Sy>= 0.0000 <Sz>= 0.5000 <S**2>= 0.7500 S= 0.5000
 Requested convergence on RMS density matrix=1.00D-08 within 999 cycles.
 Requested convergence on MAX density matrix=1.00D-06.
 Requested convergence on             energy=1.00D-06.
 No special actions if energy rises.
 EnCoef did   100 forward-backward iterations
 EnCoef did   100 forward-backward iterations
 EnCoef did   100 forward-backward iterations
 EnCoef did   100 forward-backward iterations
 EnCoef did     4 forward-backward iterations
 EnCoef did     2 forward-backward iterations
 EnCoef did     2 forward-backward iterations
 EnCoef did     3 forward-backward iterations
 EnCoef did     7 forward-backward iterations
 Restarting incremental Fock formation.
 Rare condition: small coef for last iteraon:  0.000D+00
 Rare condition: small coef for last iteration:  0.000D+00
 Rare condition: small coef for last iteration:  0.000D+00
 Rare condition: small coef for last iteration:  0.000D+00
 Rare condition: small coef for last iteration:  0.000D+00
 Rare condition: small coef for last iteration:  0.000D+00
 Rare condition: small coef for last iteration:  0.000D+00
 Rare condition: small coef for last iteration:  0.000D+00
 Restarting incremental Fock formation.
 Restarting incremental Fock formation.
 Restarting incremental Fock formation.
 Restarting incremental Fock formation.
 R Restarting incremental Fock formation.
 Restarting incremental Fock formation.
 Restarting incremental Fock formation.
 Restarting incremental Fock formation.
 Restarting incremental Fock formation.
 Restarting incremental Fock formation.
 Restarting incremental Fock formation.
 Restarting incremental Fock formation.
 Restarting incremental Fock formation.
 Restarting incremental Fock formation.
 Restarting incremental Fock formation.
 Restarting incremental Fock formation.
 Restarting incremental Fock formation.
 Restarting incremental Fock formation.
 Restarting incremental Fock formation.
 Restarting incremental Fock formation.
 Restarting incremental Fock formation.
 Restarting incremental Fock formation.
 Restarting incremental Fock formation.
 Restarting incremental Fock formation.
 Restarting incremental Fock formation.
 Restarting incremental Fock formation.
 Restarting incremental Fock formation.
 Restarting incremental Fock formation.
 Restarting incremental Fock formation.
 SCF Done:  E(UAPFD) =  -2983.20697823     A.U. after  602 cycles
            NFock=602  Conv=0.43D-08     -V/T= 2.0038
 <Sx>= 0.0000 <Sy>= 0.0000 <Sz>= 0.5000 <S**2>= 0.7960 S= 0.5227
 <L.S>=  0.00000000000    
 Annihilation of the first spin contaminant:
 S**2 before annihilation     0.7960,   after     0.7508

 **********************************************************************

            Population analysis using the SCF Density.

 **********************************************************************

 Orbital symmetries:
 Alpha Orbitals:
       Occupied  (A) (A) (A) (A) (A) (A) (A) (A) (A) (A) (A) (A)
                 (A) (A) (A) (A) (A) (A) (A) (A) (A) (A) (A) (A)
                 (A) (A) (A) (A) (A) (A) (A) (A) (A) (A) (A) (A)
                 (A) (A) (A) (A) (A) (A) (A) (A) (A) (A) (A) (A)
                 (A) (A) (A) (A) (A) (A) (A) (A) (A) (A) (A) (A)
                 (A) (A) (A) (A) (A) (A) (A) (A) (A) (A) (A) (A)
                 (A) (A) (A) (A) (A) (A) (A) (A) (A) (A) (A) (A)
                 (A) (A) (A) (A) (A) (A) (A) (A) (A) (A) (A) (A)
                 (A) (A) (A) (A) (A) (A) (A) (A) (A) (A) (A) (A)
                 (A) (A) (A) (A) (A) (A) (A) (A) (A) (A) (A) (A)
                 (A) (A) (A) (A) (A) (A) (A) (A) (A) (A) (A) (A)
                 (A) (A) (A) (A) (A) (A) (A) (A) (A) (A) (A) (A)
                 (A) (A) (A) (A) (A) (A) (A) (A) (A) (A) (A) (A)
                 (A) (A)
       Virtual   (A) (A) (A) (A) (A) (A) (A) (A) (A) (A) (A) (A)
                 (A) (A) (A) (A) (A) (A) (A) (A) (A) (A) (A) (A)
                 (A) (A) (A) (A) (A) (A) (A) (A) (A) (A) (A) (A)
                 (A) (A) (A) (A) (A) (A) (A) (A) (A) (A) (A) (A)
                 (A) (A) (A) (A) (A) (A) (A) (A) (A) (A) (A) (A)
                 (A) (A) (A) (A) (A) (A) (A) (A) (A) (A) (A) (A)
                 (A) (A) (A) (A) (A) (A) (A) (A) (A) (A) (A) (A)
                 (A) (A) (A) (A) (A) (A) (A) (A) (A) (A) (A) (A)
                 (A) (A) (A) (A) (A) (A) (A) (A) (A) (A) (A) (A)
                 (A) (A) (A) (A) (A) (A) (A) (A) (A) (A) (A) (A)
                 (A) (A) (A) (A) (A) (A) (A) (A) (A) (A) (A) (A)
                 (A) (A) (A) (A) (A) (A) (A) (A) (A) (A) (A) (A)
                 (A) (A) (A) (A) (A) (A) (A) (A) (A) (A) (A) (A)
                 (A) (A) (A) (A) (A) (A) (A) (A) (A) (A) (A) (A)
                 (A) (A) (A) (A) (A) (A) (A) (A) (A) (A) (A) (A)
                 (A) (A) (A) (A) (A) (A) (A) (A) (A) (A) (A) (A)
                 (A) (A) (A) (A) (A) (A) (A) (A) (A) (A) (A) (A)
                 (A) (A) (A) (A) (A) (A) (A) (A) (A) (A) (A) (A)
                 (A) (A) (A) (A) (A) (A) (A) (A) (A) (A) (A) (A)
                 (A) (A) (A) (A) (A) (A) (A) (A) (A) (A) (A) (A)
                 (A) (A) (A) (A) (A) (A) (A) (A) (A) (A) (A) (A)
                 (A) (A) (A) (A) (A) (A) (A) (A) (A) (A) (A) (A)
                 (A) (A) (A) (A) (A) (A) (A) (A) (A) (A) (A) (A)
                 (A) (A) (A) (A) (A) (A) (A) (A) (A) (A) (A) (A)
                 (A) (A) (A) (A) (A) (A) (A) (A) (A) (A) (A) (A)
                 (A) (A) (A) (A) (A) (A) (A) (A) (A) (A) (A) (A)
                 (A) (A) (A) (A) (A) (A) (A) (A) (A) (A) (A) (A)
                 (A) (A) (A) (A) (A) (A) (A) (A) (A) (A) (A) (A)
                 (A) (A) (A) (A) (A) (A) (A) (A) (A) (A) (A) (A)
                 (A) (A) (A) (A) (A) (A) (A) (A) (A) (A) (A) (A)
                 (A) (A) (A) (A) (A) (A) (A) (A) (A) (A) (A) (A)
                 (A) (A) (A) (A) (A) (A) (A) (A) (A) (A) (A) (A)
                 (A) (A) (A) (A) (A) (A) (A) (A) (A) (A) (A) (A)
                 (A) (A) (A) (A) (A) (A) (A) (A) (A) (A) (A) (A)
                 (A) (A) (A) (A) (A) (A) (A) (A) (A) (A) (A) (A)
                 (A) (A) (A) (A) (A) (A) (A) (A) (A) (A) (A) (A)
                 (A) (A) (A) (A) (A) (A) (A) (A) (A) (A) (A) (A)
                 (A) (A) (A) (A) (A) (A) (A) (A) (A) (A) (A) (A)
                 (A) (A) (A) (A) (A) (A) (A) (A) (A) (A) (A) (A)
                 (A) (A) (A) (A) (A) (A) (A) (A) (A) (A) (A) (A)
                 (A) (A) (A) (A) (A) (A) (A) (A) (A) (A) (A) (A)
                 (A) (A) (A) (A) (A) (A) (A) (A) (A) (A) (A) (A)
                 (A) (A) (A) (A) (A) (A) (A) (A) (A) (A) (A) (A)
                 (A) (A) (A) (A) (A)
 Beta  Orbitals:
       Occupied  (A) (A) (A) (A) (A) (A) (A) (A) (A) (A) (A) (A)
                 (A) (A) (A) (A) (A) (A) (A) (A) (A) (A) (A) (A)
                 (A) (A) (A) (A) (A) (A) (A) (A) (A) (A) (A) (A)
                 (A) (A) (A) (A) (A) (A) (A) (A) (A) (A) (A) (A)
                 (A) (A) (A) (A) (A) (A) (A) (A) (A) (A) (A) (A)
                 (A) (A) (A) (A) (A) (A) (A) (A) (A) (A) (A) (A)
                 (A) (A) (A) (A) (A) (A) (A) (A) (A) (A) (A) (A)
                 (A) (A) (A) (A) (A) (A) (A) (A) (A) (A) (A) (A)
                 (A) (A) (A) (A) (A) (A) (A) (A) (A) (A) (A) (A)
                 (A) (A) (A) (A) (A) (A) (A) (A) (A) (A) (A) (A)
                 (A) (A) (A) (A) (A) (A) (A) (A) (A) (A) (A) (A)
                 (A) (A) (A) (A) (A) (A) (A) (A) (A) (A) (A) (A)
                 (A) (A) (A) (A) (A) (A) (A) (A) (A) (A) (A) (A)
                 (A)
       Virtual   (A) (A) (A) (A) (A) (A) (A) (A) (A) (A) (A) (A)
                 (A) (A) (A) (A) (A) (A) (A) (A) (A) (A) (A) (A)
                 (A) (A) (A) (A) (A) (A) (A) (A) (A) (A) (A) (A)
                 (A) (A) (A) (A) (A) (A) (A) (A) (A) (A) (A) (A)
                 (A) (A) (A) (A) (A) (A) (A) (A) (A) (A) (A) (A)
                 (A) (A) (A) (A) (A) (A) (A) (A) (A) (A) (A) (A)
                 (A) (A) (A) (A) (A) (A) (A) (A) (A) (A) (A) (A)
                 (A) (A) (A) (A) (A) (A) (A) (A) (A) (A) (A) (A)
                 (A) (A) (A) (A) (A) (A) (A) (A) (A) (A) (A) (A)
                 (A) (A) (A) (A) (A) (A) (A) (A) (A) (A) (A) (A)
                 (A) (A) (A) (A) (A) (A) (A) (A) (A) (A) (A) (A)
                 (A) (A) (A) (A) (A) (A) (A) (A) (A) (A) (A) (A)
                 (A) (A) (A) (A) (A) (A) (A) (A) (A) (A) (A) (A)
                 (A) (A) (A) (A) (A) (A) (A) (A) (A) (A) (A) (A)
                 (A) (A) (A) (A) (A) (A) (A) (A) (A) (A) (A) (A)
                 (A) (A) (A) (A) (A) (A) (A) (A) (A) (A) (A) (A)
                 (A) (A) (A) (A) (A) (A) (A) (A) (A) (A) (A) (A)
                 (A) (A) (A) (A) (A) (A) (A) (A) (A) (A) (A) (A)
                 (A) (A) (A) (A) (A) (A) (A) (A) (A) (A) (A) (A)
                 (A) (A) (A) (A) (A) (A) (A) (A) (A) (A) (A) (A)
                 (A) (A) (A) (A) (A) (A) (A) (A) (A) (A) (A) (A)
                 (A) (A) (A) (A) (A) (A) (A) (A) (A) (A) (A) (A)
                 (A) (A) (A) (A) (A) (A) (A) (A) (A) (A) (A) (A)
                 (A) (A) (A) (A) (A) (A) (A) (A) (A) (A) (A) (A)
                 (A) (A) (A) (A) (A) (A) (A) (A) (A) (A) (A) (A)
                 (A) (A) (A) (A) (A) (A) (A) (A) (A) (A) (A) (A)
                 (A) (A) (A) (A) (A) (A) (A) (A) (A) (A) (A) (A)
                 (A) (A) (A) (A) (A) (A) (A) (A) (A) (A) (A) (A)
                 (A) (A) (A) (A) (A) (A) (A) (A) (A) (A) (A) (A)
                 (A) (A) (A) (A) (A) (A) (A) (A) (A) (A) (A) (A)
                 (A) (A) (A) (A) (A) (A) (A) (A) (A) (A) (A) (A)
                 (A) (A) (A) (A) (A) (A) (A) (A) (A) (A) (A) (A)
                 (A) (A) (A) (A) (A) (A) (A) (A) (A) (A) (A) (A)
                 (A) (A) (A) (A) (A) (A) (A) (A) (A) (A) (A) (A)
                 (A) (A) (A) (A) (A) (A) (A) (A) (A) (A) (A) (A)
                 (A) (A) (A) (A) (A) (A) (A) (A) (A) (A) (A) (A)
                 (A) (A) (A) (A) (A) (A) (A) (A) (A) (A) (A) (A)
                 (A) (A) (A) (A) (A) (A) (A) (A) (A) (A) (A) (A)
                 (A) (A) (A) (A) (A) (A) (A) (A) (A) (A) (A) (A)
                 (A) (A) (A) (A) (A) (A) (A) (A) (A) (A) (A) (A)
                 (A) (A) (A) (A) (A) (A) (A) (A) (A) (A) (A) (A)
                 (A) (A) (A) (A) (A) (A) (A) (A) (A) (A) (A) (A)
                 (A) (A) (A) (A) (A) (A) (A) (A) (A) (A) (A) (A)
                 (A) (A) (A) (A) (A) (A)
 The electronic state is 2-A.
 Alpha  occ. eigenvalues -- -256.38075 -30.24989 -26.09701 -26.09497 -26.06624
 Alpha  occ. eigenvalues --  -19.30116 -14.54366 -14.51332 -14.47338 -14.47054
 Alpha  occ. eigenvalues --  -14.46707 -14.46695 -10.38511 -10.35610 -10.33293
 Alpha  occ. eigenvalues --  -10.33109 -10.33107 -10.33094 -10.32981 -10.32953
 Alpha  occ. eigenvalues --  -10.32906 -10.32862 -10.32816 -10.30641 -10.30336
 Alpha  occ. eigenvalues --  -10.30082 -10.30024 -10.30006 -10.29994 -10.29934
 Alpha  occ. eigenvalues --  -10.29932 -10.29897 -10.29854 -10.29766 -10.29700
 Alpha  occ. eigenvalues --  -10.29565 -10.29256 -10.28936 -10.28175 -10.28126
 Alpha  occ. eigenvalues --  -10.28022 -10.28019 -10.27981 -10.27879 -10.27764
 Alpha  occ. eigenvalues --  -10.27619  -3.63674  -2.42025  -2.41530  -2.35519
 Alpha  occ. eigenvalues --   -1.17226  -1.16298  -1.08589  -1.07721  -1.07428
 Alpha  occ. eigenvalues --   -1.06583  -1.03056  -0.93109  -0.91918  -0.91436
 Alpha  occ. eigenvalues --   -0.91102  -0.90832  -0.90644  -0.90366  -0.90268
 Alpha  occ. eigenvalues --   -0.86395  -0.85159  -0.84840  -0.83967  -0.82670
 Alpha  occ. eigenvalues --   -0.82414  -0.80866  -0.79891  -0.78234  -0.78051
 Alpha  occ. eigenvalues --   -0.77802  -0.76230  -0.74739  -0.74726  -0.72589
 Alpha  occ. eigenvalues --   -0.71979  -0.70369  -0.69690  -0.68329  -0.67813
 Alpha  occ. eigenvalues --   -0.67149  -0.64759  -0.63979  -0.63230  -0.62885
 Alpha  occ. eigenvalues --   -0.61466  -0.61398  -0.61014  -0.59199  -0.58786
 Alpha  occ. eigenvalues --   -0.58342  -0.57852  -0.57609  -0.55598  -0.55034
 Alpha  occ. eigenvalues --   -0.54766  -0.54479  -0.54034  -0.53895  -0.53736
 Alpha  occ. eigenvalues --   -0.53329  -0.52983  -0.52942  -0.52806  -0.52513
 Alpha  occ. eigenvalues --   -0.52232  -0.52033  -0.51773  -0.51624  -0.51361
 Alpha  occ. eigenvalues --   -0.50416  -0.50345  -0.50196  -0.50055  -0.49859
 Alpha  occ. eigenvalues --   -0.49728  -0.49464  -0.49349  -0.49097  -0.48841
 Alpha  occ. eigenvalues --   -0.48276  -0.48014  -0.47852  -0.47511  -0.47446
 Alpha  occ. eigenvalues --   -0.47082  -0.46827  -0.46312  -0.46194  -0.45841
 Alpha  occ. eigenvalues --   -0.45274  -0.44514  -0.44404  -0.43795  -0.43324
 Alpha  occ. eigenvalues --   -0.42977  -0.42485  -0.42138  -0.41285  -0.41106
 Alpha  occ. eigenvalues --   -0.39793  -0.39225  -0.38805  -0.38443  -0.36874
 Alpha  occ. eigenvalues --   -0.36606  -0.34743  -0.33376  -0.32864  -0.31893
 Alpha  occ. eigenvalues --   -0.31220  -0.29155  -0.28236
 Alpha virt. eigenvalues --   -0.19095  -0.16967  -0.16921  -0.14315  -0.11347
 Alpha virt. eigenvalues --   -0.09096  -0.07704  -0.06377  -0.04893  -0.04311
 Alpha virt. eigenvalues --   -0.03064  -0.01685  -0.01347  -0.00548   0.01185
 Alpha virt. eigenvalues --    0.01416   0.02264   0.02823   0.03335   0.03523
 Alpha virt. eigenvalues --    0.04047   0.04366   0.04590   0.04965   0.05315
 Alpha virt. eigenvalues --    0.05555   0.05782   0.05961   0.06344   0.06446
 Alpha virt. eigenvalues --    0.06927   0.07119   0.07799   0.07856   0.08205
 Alpha virt. eigenvalues --    0.08320   0.08583   0.08830   0.08943   0.09395
 Alpha virt. eigenvalues --    0.09533   0.09823   0.09941   0.10289   0.10785
 Alpha virt. eigenvalues --    0.10957   0.11302   0.11819   0.12000   0.12549
 Alpha virt. eigenvalues --    0.12620   0.12825   0.13003   0.13552   0.13694
 Alpha virt. eigenvalues --    0.14491   0.15221   0.15313   0.15870   0.16287
 Alpha virt. eigenvalues --    0.16698   0.16865   0.17263   0.17646   0.18216
 Alpha virt. eigenvalues --    0.18393   0.19952   0.20176   0.20688   0.21050
 Alpha virt. eigenvalues --    0.21929   0.22226   0.23070   0.23511   0.24096
 Alpha virt. eigenvalues --    0.25001   0.25665   0.26366   0.26585   0.27107
 Alpha virt. eigenvalues --    0.27474   0.29109   0.29275   0.30465   0.31344
 Alpha virt. eigenvalues --    0.31855   0.32864   0.33602   0.34209   0.34349
 Alpha virt. eigenvalues --    0.34670   0.36162   0.38176   0.38223   0.38626
 Alpha virt. eigenvalues --    0.39103   0.39667   0.40038   0.40701   0.40931
 Alpha virt. eigenvalues --    0.41167   0.41610   0.41996   0.42318   0.42956
 Alpha virt. eigenvalues --    0.43029   0.43561   0.43768   0.44158   0.44403
 Alpha virt. eigenvalues --    0.44981   0.45211   0.45646   0.45713   0.46465
 Alpha virt. eigenvalues --    0.46731   0.47919   0.48183   0.48322   0.48597
 Alpha virt. eigenvalues --    0.49088   0.49722   0.49938   0.50457   0.50639
 Alpha virt. eigenvalues --    0.51074   0.51516   0.51784   0.52328   0.52926
 Alpha virt. eigenvalues --    0.53078   0.53587   0.53978   0.54584   0.55023
 Alpha virt. eigenvalues --    0.55484   0.56015   0.56365   0.56456   0.56480
 Alpha virt. eigenvalues --    0.56883   0.57080   0.57436   0.57724   0.58179
 Alpha virt. eigenvalues --    0.58359   0.58674   0.59597   0.59963   0.60991
 Alpha virt. eigenvalues --    0.61483   0.61596   0.62034   0.62325   0.63147
 Alpha virt. eigenvalues --    0.63349   0.63638   0.64902   0.65029   0.65569
 Alpha virt. eigenvalues --    0.65691   0.66403   0.66837   0.67608   0.68054
 Alpha virt. eigenvalues --    0.68329   0.68549   0.68733   0.68989   0.69314
 Alpha virt. eigenvalues --    0.69586   0.70012   0.70233   0.70789   0.70915
 Alpha virt. eigenvalues --    0.71691   0.72054   0.73125   0.73488   0.73837
 Alpha virt. eigenvalues --    0.74186   0.74567   0.75924   0.76419   0.76796
 Alpha virt. eigenvalues --    0.77694   0.77962   0.78202   0.78229   0.78914
 Alpha virt. eigenvalues --    0.79367   0.79497   0.79611   0.80132   0.80978
 Alpha virt. eigenvalues --    0.81097   0.81245   0.81779   0.82261   0.82906
 Alpha virt. eigenvalues --    0.83071   0.83295   0.83420   0.83729   0.84392
 Alpha virt. eigenvalues --    0.84468   0.84781   0.84989   0.85921   0.86214
 Alpha virt. eigenvalues --    0.86958   0.87281   0.87425   0.87805   0.87966
 Alpha virt. eigenvalues --    0.88375   0.88696   0.89498   0.89751   0.90523
 Alpha virt. eigenvalues --    0.90603   0.91035   0.91427   0.91598   0.92107
 Alpha virt. eigenvalues --    0.92433   0.92805   0.93499   0.93883   0.94019
 Alpha virt. eigenvalues --    0.94679   0.95616   0.95735   0.96283   0.96854
 Alpha virt. eigenvalues --    0.97330   0.97946   0.98055   0.98390   0.99485
 Alpha virt. eigenvalues --    1.00276   1.00887   1.01813   1.02732   1.04702
 Alpha virt. eigenvalues --    1.05108   1.05509   1.06366   1.06868   1.07247
 Alpha virt. eigenvalues --    1.08194   1.08768   1.08917   1.09100   1.09693
 Alpha virt. eigenvalues --    1.09988   1.10631   1.11295   1.11637   1.12200
 Alpha virt. eigenvalues --    1.12545   1.13393   1.13405   1.14062   1.15002
 Alpha virt. eigenvalues --    1.15846   1.17035   1.17660   1.18625   1.19185
 Alpha virt. eigenvalues --    1.20439   1.20606   1.20893   1.21615   1.22804
 Alpha virt. eigenvalues --    1.22916   1.23301   1.24317   1.25312   1.26198
 Alpha virt. eigenvalues --    1.26843   1.26944   1.27742   1.28206   1.28270
 Alpha virt. eigenvalues --    1.28639   1.28988   1.29107   1.29617   1.29915
 Alpha virt. eigenvalues --    1.30751   1.31786   1.32848   1.33821   1.34414
 Alpha virt. eigenvalues --    1.35435   1.35976   1.36484   1.37206   1.38654
 Alpha virt. eigenvalues --    1.38836   1.39259   1.39680   1.41088   1.41826
 Alpha virt. eigenvalues --    1.41948   1.43201   1.44345   1.44473   1.45129
 Alpha virt. eigenvalues --    1.45455   1.46192   1.47493   1.48937   1.49984
 Alpha virt. eigenvalues --    1.51084   1.51822   1.52414   1.53773   1.54266
 Alpha virt. eigenvalues --    1.54606   1.55609   1.56763   1.57813   1.58303
 Alpha virt. eigenvalues --    1.59644   1.60539   1.60693   1.61579   1.62417
 Alpha virt. eigenvalues --    1.63165   1.65093   1.65881   1.68804   1.69584
 Alpha virt. eigenvalues --    1.70038   1.70685   1.71178   1.71232   1.71713
 Alpha virt. eigenvalues --    1.71911   1.72189   1.73378   1.73778   1.74066
 Alpha virt. eigenvalues --    1.74656   1.74941   1.75708   1.76359   1.77095
 Alpha virt. eigenvalues --    1.77292   1.78199   1.78696   1.79402   1.79697
 Alpha virt. eigenvalues --    1.80451   1.81276   1.81618   1.83045   1.83205
 Alpha virt. eigenvalues --    1.83969   1.84618   1.85189   1.85383   1.86055
 Alpha virt. eigenvalues --    1.86098   1.87032   1.88083   1.89150   1.89644
 Alpha virt. eigenvalues --    1.90258   1.90989   1.91092   1.92003   1.93311
 Alpha virt. eigenvalues --    1.93676   1.94655   1.94754   1.95294   1.96092
 Alpha virt. eigenvalues --    1.96625   1.97068   1.97713   1.98090   1.98868
 Alpha virt. eigenvalues --    1.99968   2.00287   2.01453   2.02217   2.02709
 Alpha virt. eigenvalues --    2.04139   2.04398   2.04879   2.06025   2.06747
 Alpha virt. eigenvalues --    2.07254   2.07839   2.08756   2.09490   2.09884
 Alpha virt. eigenvalues --    2.11005   2.11489   2.12005   2.12618   2.13228
 Alpha virt. eigenvalues --    2.14122   2.14925   2.15427   2.16028   2.16972
 Alpha virt. eigenvalues --    2.17172   2.17549   2.17969   2.18098   2.19229
 Alpha virt. eigenvalues --    2.19819   2.19942   2.20626   2.20656   2.20991
 Alpha virt. eigenvalues --    2.21894   2.22262   2.22438   2.23894   2.24984
 Alpha virt. eigenvalues --    2.25138   2.25910   2.26170   2.26697   2.27173
 Alpha virt. eigenvalues --    2.27785   2.27939   2.28218   2.28763   2.28933
 Alpha virt. eigenvalues --    2.30621   2.30831   2.31939   2.32493   2.33037
 Alpha virt. eigenvalues --    2.33426   2.33612   2.33963   2.34175   2.34917
 Alpha virt. eigenvalues --    2.36058   2.36398   2.38196   2.38264   2.40140
 Alpha virt. eigenvalues --    2.42123   2.43204   2.43396   2.43688   2.43938
 Alpha virt. eigenvalues --    2.44405   2.45348   2.45591   2.46820   2.46914
 Alpha virt. eigenvalues --    2.47650   2.47693   2.49211   2.50275   2.50695
 Alpha virt. eigenvalues --    2.50854   2.52405   2.54706   2.55671   2.57154
 Alpha virt. eigenvalues --    2.58229   2.59269   2.59854   2.60997   2.61553
 Alpha virt. eigenvalues --    2.61946   2.63915   2.65090   2.66296   2.68334
 Alpha virt. eigenvalues --    2.69526   2.70427   2.71294   2.71638   2.76544
 Alpha virt. eigenvalues --    2.77114   2.78445   2.79777   2.81752   2.82512
 Alpha virt. eigenvalues --    2.82930   2.85916   2.86973   2.87326   2.88854
 Alpha virt. eigenvalues --    2.89455   2.89631   2.90615   2.93938   2.95250
 Alpha virt. eigenvalues --    2.96438   2.96668   3.02889   3.04393   3.04724
 Alpha virt. eigenvalues --    3.10914   3.13434   3.15010   3.20396   3.20840
 Alpha virt. eigenvalues --    3.28936   3.29541   3.30762   3.36526   3.36679
 Alpha virt. eigenvalues --    3.47523   3.53990   3.71967   3.77183   4.04319
 Alpha virt. eigenvalues --    4.12496
  Beta  occ. eigenvalues -- -256.38040 -30.22801 -26.07308 -26.07109 -26.05926
  Beta  occ. eigenvalues --  -19.30114 -14.54364 -14.51412 -14.47365 -14.47101
  Beta  occ. eigenvalues --  -14.46766 -14.46757 -10.38496 -10.35612 -10.33281
  Beta  occ. eigenvalues --  -10.33107 -10.33105 -10.33084 -10.32979 -10.32949
  Beta  occ. eigenvalues --  -10.32902 -10.32857 -10.32810 -10.30641 -10.30314
  Beta  occ. eigenvalues --  -10.30092 -10.30004 -10.29998 -10.29987 -10.29936
  Beta  occ. eigenvalues --  -10.29917 -10.29906 -10.29862 -10.29768 -10.29703
  Beta  occ. eigenvalues --  -10.29568 -10.29266 -10.28936 -10.28177 -10.28126
  Beta  occ. eigenvalues --  -10.28024 -10.28019 -10.27963 -10.27881 -10.27764
  Beta  occ. eigenvalues --  -10.27620  -3.58363  -2.34551  -2.34346  -2.33269
  Beta  occ. eigenvalues --   -1.17242  -1.16291  -1.08601  -1.07708  -1.07486
  Beta  occ. eigenvalues --   -1.06608  -1.03102  -0.93113  -0.91883  -0.91450
  Beta  occ. eigenvalues --   -0.91090  -0.90826  -0.90648  -0.90380  -0.90275
  Beta  occ. eigenvalues --   -0.86388  -0.85155  -0.84860  -0.83963  -0.82669
  Beta  occ. eigenvalues --   -0.82414  -0.80862  -0.79894  -0.78240  -0.78059
  Beta  occ. eigenvalues --   -0.77818  -0.76259  -0.74738  -0.74725  -0.72591
  Beta  occ. eigenvalues --   -0.71976  -0.70360  -0.69695  -0.68322  -0.67817
  Beta  occ. eigenvalues --   -0.67147  -0.64763  -0.63989  -0.63231  -0.62883
  Beta  occ. eigenvalues --   -0.61482  -0.61416  -0.61029  -0.59189  -0.58760
  Beta  occ. eigenvalues --   -0.58284  -0.57857  -0.57604  -0.55598  -0.55009
  Beta  occ. eigenvalues --   -0.54724  -0.54391  -0.53890  -0.53870  -0.53709
  Beta  occ. eigenvalues --   -0.53254  -0.52980  -0.52934  -0.52775  -0.52486
  Beta  occ. eigenvalues --   -0.52179  -0.51987  -0.51756  -0.51612  -0.51382
  Beta  occ. eigenvalues --   -0.50403  -0.50299  -0.50068  -0.49859  -0.49726
  Beta  occ. eigenvalues --   -0.49497  -0.49362  -0.49258  -0.49077  -0.48809
  Beta  occ. eigenvalues --   -0.48253  -0.48014  -0.47813  -0.47502  -0.47349
  Beta  occ. eigenvalues --   -0.46945  -0.46777  -0.46136  -0.45751  -0.45313
  Beta  occ. eigenvalues --   -0.44528  -0.44427  -0.43946  -0.43410  -0.43294
  Beta  occ. eigenvalues --   -0.42389  -0.42103  -0.41239  -0.40969  -0.39344
  Beta  occ. eigenvalues --   -0.38849  -0.38024  -0.37111  -0.36750  -0.36274
  Beta  occ. eigenvalues --   -0.34764  -0.33468  -0.32912  -0.32037  -0.31059
  Beta  occ. eigenvalues --   -0.29169  -0.28153
  Beta virt. eigenvalues --   -0.20379  -0.16958  -0.16806  -0.15988  -0.11397
  Beta virt. eigenvalues --   -0.11236  -0.08903  -0.07595  -0.06334  -0.04814
  Beta virt. eigenvalues --   -0.04269  -0.03024  -0.01669  -0.01202  -0.00406
  Beta virt. eigenvalues --    0.01210   0.01466   0.02264   0.02825   0.03344
  Beta virt. eigenvalues --    0.03527   0.04072   0.04393   0.04620   0.04990
  Beta virt. eigenvalues --    0.05365   0.05596   0.05788   0.05973   0.06360
  Beta virt. eigenvalues --    0.06455   0.06949   0.07127   0.07810   0.07865
  Beta virt. eigenvalues --    0.08208   0.08327   0.08593   0.08840   0.08957
  Beta virt. eigenvalues --    0.09397   0.09543   0.09838   0.09955   0.10312
  Beta virt. eigenvalues --    0.10800   0.10969   0.11324   0.11850   0.12008
  Beta virt. eigenvalues --    0.12565   0.12636   0.12842   0.13025   0.13555
  Beta virt. eigenvalues --    0.13736   0.14510   0.15235   0.15328   0.15900
  Beta virt. eigenvalues --    0.16321   0.16724   0.16877   0.17272   0.17690
  Beta virt. eigenvalues --    0.18227   0.18409   0.20011   0.20485   0.20866
  Beta virt. eigenvalues --    0.21116   0.22001   0.22314   0.23137   0.23596
  Beta virt. eigenvalues --    0.24201   0.25036   0.25686   0.26404   0.26606
  Beta virt. eigenvalues --    0.27108   0.27484   0.29243   0.29411   0.30511
  Beta virt. eigenvalues --    0.31408   0.31934   0.33013   0.33612   0.34228
  Beta virt. eigenvalues --    0.34363   0.34704   0.36294   0.38248   0.38303
  Beta virt. eigenvalues --    0.38652   0.39162   0.39686   0.40123   0.40731
  Beta virt. eigenvalues --    0.40964   0.41199   0.41620   0.42150   0.42355
  Beta virt. eigenvalues --    0.42966   0.43034   0.43569   0.43800   0.44193
  Beta virt. eigenvalues --    0.44493   0.45043   0.45294   0.45676   0.45761
  Beta virt. eigenvalues --    0.46501   0.46838   0.47926   0.48221   0.48375
  Beta virt. eigenvalues --    0.48607   0.49095   0.49798   0.49994   0.50477
  Beta virt. eigenvalues --    0.50658   0.51081   0.51567   0.51789   0.52363
  Beta virt. eigenvalues --    0.52932   0.53092   0.53608   0.54001   0.54626
  Beta virt. eigenvalues --    0.55088   0.55649   0.56093   0.56456   0.56487
  Beta virt. eigenvalues --    0.56655   0.56919   0.57165   0.57485   0.57734
  Beta virt. eigenvalues --    0.58179   0.58375   0.58715   0.59635   0.59985
  Beta virt. eigenvalues --    0.61032   0.61552   0.61759   0.62075   0.62365
  Beta virt. eigenvalues --    0.63206   0.63498   0.63672   0.64944   0.65068
  Beta virt. eigenvalues --    0.65595   0.65697   0.66420   0.66874   0.67614
  Beta virt. eigenvalues --    0.68125   0.68381   0.68668   0.68781   0.69036
  Beta virt. eigenvalues --    0.69343   0.69664   0.70172   0.70303   0.70933
  Beta virt. eigenvalues --    0.71061   0.71721   0.72095   0.73168   0.73519
  Beta virt. eigenvalues --    0.73848   0.74209   0.74579   0.75946   0.76438
  Beta virt. eigenvalues --    0.76827   0.77729   0.77975   0.78214   0.78247
  Beta virt. eigenvalues --    0.78923   0.79412   0.79534   0.79663   0.80147
  Beta virt. eigenvalues --    0.80986   0.81119   0.81282   0.81791   0.82279
  Beta virt. eigenvalues --    0.83002   0.83087   0.83326   0.83479   0.83790
  Beta virt. eigenvalues --    0.84416   0.84481   0.84819   0.85018   0.85966
  Beta virt. eigenvalues --    0.86431   0.86970   0.87305   0.87449   0.87832
  Beta virt. eigenvalues --    0.88079   0.88556   0.88821   0.89585   0.89757
  Beta virt. eigenvalues --    0.90565   0.90661   0.91073   0.91446   0.91619
  Beta virt. eigenvalues --    0.92117   0.92511   0.92825   0.93522   0.93914
  Beta virt. eigenvalues --    0.94081   0.94710   0.95683   0.95754   0.96305
  Beta virt. eigenvalues --    0.96874   0.97388   0.97954   0.98083   0.98441
  Beta virt. eigenvalues --    0.99554   1.00335   1.00927   1.01824   1.02907
  Beta virt. eigenvalues --    1.04726   1.05114   1.05524   1.06547   1.06960
  Beta virt. eigenvalues --    1.07272   1.08269   1.08792   1.08944   1.09173
  Beta virt. eigenvalues --    1.09710   1.10032   1.10681   1.11369   1.11647
  Beta virt. eigenvalues --    1.12261   1.12575   1.13409   1.13427   1.14096
  Beta virt. eigenvalues --    1.15255   1.15930   1.17076   1.17717   1.18644
  Beta virt. eigenvalues --    1.19227   1.20449   1.20620   1.20920   1.21644
  Beta virt. eigenvalues --    1.22818   1.22957   1.23325   1.24398   1.25338
  Beta virt. eigenvalues --    1.26225   1.26871   1.26975   1.27757   1.28221
  Beta virt. eigenvalues --    1.28320   1.28649   1.29005   1.29141   1.29614
  Beta virt. eigenvalues --    1.30014   1.30754   1.31836   1.32867   1.33836
  Beta virt. eigenvalues --    1.34433   1.35471   1.36018   1.36492   1.37216
  Beta virt. eigenvalues --    1.38654   1.38844   1.39306   1.39683   1.41135
  Beta virt. eigenvalues --    1.41816   1.42042   1.43194   1.44373   1.44490
  Beta virt. eigenvalues --    1.45159   1.45477   1.46210   1.47548   1.49004
  Beta virt. eigenvalues --    1.50035   1.51120   1.51943   1.52465   1.53784
  Beta virt. eigenvalues --    1.54348   1.54650   1.55635   1.56811   1.57887
  Beta virt. eigenvalues --    1.58318   1.59661   1.60552   1.60807   1.61638
  Beta virt. eigenvalues --    1.62497   1.63326   1.65118   1.65903   1.68793
  Beta virt. eigenvalues --    1.69595   1.70055   1.70689   1.71197   1.71241
  Beta virt. eigenvalues --    1.71752   1.71921   1.72235   1.73379   1.73796
  Beta virt. eigenvalues --    1.74083   1.74670   1.74974   1.75733   1.76349
  Beta virt. eigenvalues --    1.77088   1.77290   1.78206   1.78715   1.79407
  Beta virt. eigenvalues --    1.79714   1.80457   1.81303   1.81650   1.83089
  Beta virt. eigenvalues --    1.83301   1.84009   1.84663   1.85253   1.85577
  Beta virt. eigenvalues --    1.86060   1.86167   1.87364   1.88283   1.89181
  Beta virt. eigenvalues --    1.89778   1.90273   1.91062   1.91150   1.92028
  Beta virt. eigenvalues --    1.93341   1.93704   1.94666   1.94796   1.95355
  Beta virt. eigenvalues --    1.96126   1.96632   1.97150   1.97812   1.98185
  Beta virt. eigenvalues --    1.98893   2.00027   2.00597   2.01512   2.02275
  Beta virt. eigenvalues --    2.02766   2.04172   2.04522   2.04886   2.06061
  Beta virt. eigenvalues --    2.06758   2.07289   2.07848   2.08844   2.09746
  Beta virt. eigenvalues --    2.10001   2.11064   2.11542   2.12063   2.12687
  Beta virt. eigenvalues --    2.13253   2.14199   2.14998   2.15448   2.16047
  Beta virt. eigenvalues --    2.16982   2.17203   2.17618   2.17998   2.18126
  Beta virt. eigenvalues --    2.19239   2.19874   2.19961   2.20647   2.20698
  Beta virt. eigenvalues --    2.21044   2.22211   2.22329   2.22526   2.23952
  Beta virt. eigenvalues --    2.25015   2.25262   2.26063   2.26235   2.26947
  Beta virt. eigenvalues --    2.27199   2.27832   2.28057   2.28244   2.28814
  Beta virt. eigenvalues --    2.28995   2.30681   2.30849   2.32033   2.32586
  Beta virt. eigenvalues --    2.33058   2.33479   2.33645   2.34014   2.34223
  Beta virt. eigenvalues --    2.35081   2.36108   2.36499   2.38206   2.38395
  Beta virt. eigenvalues --    2.40352   2.42246   2.43227   2.43525   2.43711
  Beta virt. eigenvalues --    2.44033   2.44552   2.45367   2.45837   2.46861
  Beta virt. eigenvalues --    2.46941   2.47661   2.47757   2.49214   2.50357
  Beta virt. eigenvalues --    2.50730   2.50925   2.52438   2.54716   2.55676
  Beta virt. eigenvalues --    2.57161   2.58259   2.59290   2.59901   2.61045
  Beta virt. eigenvalues --    2.61543   2.61959   2.63921   2.65120   2.66311
  Beta virt. eigenvalues --    2.68342   2.69570   2.70431   2.71300   2.71642
  Beta virt. eigenvalues --    2.76524   2.77127   2.78454   2.79786   2.81756
  Beta virt. eigenvalues --    2.82511   2.82958   2.85924   2.86956   2.87321
  Beta virt. eigenvalues --    2.88852   2.89480   2.89621   2.90630   2.94014
  Beta virt. eigenvalues --    2.95241   2.96436   2.96711   3.02882   3.04406
  Beta virt. eigenvalues --    3.04730   3.10906   3.13459   3.15097   3.20398
  Beta virt. eigenvalues --    3.20850   3.28923   3.29539   3.30826   3.36542
  Beta virt. eigenvalues --    3.36670   3.52943   3.58044   3.74473   3.78656
  Beta virt. eigenvalues --    4.05518   4.14367
          Condensed to atoms (all electrons):
          Atomic-Atomic Spin Densities.
 Mulliken charges and spin densities:
               1          2
     1  Fe   0.912421   1.065467
     2  N   -0.656595  -0.026582
     3  N   -0.684772  -0.020835
     4  N   -0.668798  -0.028155
     5  N   -0.665602  -0.028321
     6  C    0.282676   0.004406
     7  C    0.038046   0.000318
     8  C    0.040343  -0.002057
     9  C    0.299300   0.005256
    10  C    0.326596   0.003886
    11  C    0.040495   0.013917
    12  C    0.010356   0.016769
    13  C    0.320704   0.005915
    14  C    0.300302   0.004655
    15  C    0.039418  -0.001904
    16  C    0.008523  -0.001486
    17  C    0.321219   0.003904
    18  C    0.322435   0.004457
    19  C    0.042164   0.010568
    20  C    0.041183   0.013353
    21  C    0.305689   0.005759
    22  C   -0.318253  -0.007703
    23  H    0.190151   0.000352
    24  C   -0.300407  -0.006906
    25  H    0.189978   0.000293
    26  C   -0.312378  -0.006801
    27  H    0.190277   0.000293
    28  C   -0.297361  -0.006108
    29  H    0.192137   0.000296
    30  C   -0.611705  -0.000035
    31  H    0.202615  -0.000114
    32  H    0.203644  -0.000010
    33  H    0.201501  -0.000019
    34  C   -0.609907  -0.000134
    35  H    0.197776   0.000061
    36  H    0.203117   0.000081
    37  H    0.203720  -0.000101
    38  C   -0.613317  -0.001685
    39  H    0.205466   0.001105
    40  H    0.196559   0.000569
    41  H    0.212793   0.000116
    42  C   -0.154860  -0.007467
    43  H    0.182347   0.000575
    44  C   -0.390872   0.012393
    45  H    0.187889  -0.000613
    46  H    0.194116  -0.000596
    47  C   -0.612012   0.000067
    48  H    0.189842  -0.000025
    49  H    0.207468  -0.000010
    50  H    0.210737  -0.000125
    51  C   -0.151566   0.000244
    52  H    0.175603  -0.000007
    53  C   -0.392600  -0.000457
    54  H    0.191988  -0.000003
    55  H    0.187967   0.000026
    56  C   -0.612503  -0.001356
    57  H    0.203618   0.000817
    58  H    0.206804   0.000715
    59  H    0.203161  -0.000123
    60  C   -0.610779  -0.001311
    61  H    0.204454  -0.000078
    62  H    0.204457   0.000828
    63  H    0.200356   0.000813
    64  O   -0.806278  -0.001962
    65  H    0.478670   0.000097
    66  H    0.466975   0.000051
    67  C   -0.602616  -0.000151
    68  H    0.215088  -0.000092
    69  H    0.223271  -0.000028
    70  H    0.215802   0.000065
    71  N   -0.630411   0.001070
    72  H    0.389506  -0.000216
    73  C    0.282919  -0.000771
    74  C    0.268527   0.010016
    75  H    0.239184  -0.000635
    76  N   -0.445465  -0.035992
    77  C   -0.040987   0.001624
    78  H    0.217685  -0.000223
 Sum of Mulliken charges =   1.00000   1.00000
 Mulliken charges and spin densities with hydrogens summed into heavy atoms:
               1          2
     1  Fe   0.912421   1.065467
     2  N   -0.656595  -0.026582
     3  N   -0.684772  -0.020835
     4  N   -0.668798  -0.028155
     5  N   -0.665602  -0.028321
     6  C    0.282676   0.004406
     7  C    0.038046   0.000318
     8  C    0.040343  -0.002057
     9  C    0.299300   0.005256
    10  C    0.326596   0.003886
    11  C    0.040495   0.013917
    12  C    0.010356   0.016769
    13  C    0.320704   0.005915
    14  C    0.300302   0.004655
    15  C    0.039418  -0.001904
    16  C    0.008523  -0.001486
    17  C    0.321219   0.003904
    18  C    0.322435   0.004457
    19  C    0.042164   0.010568
    20  C    0.041183   0.013353
    21  C    0.305689   0.005759
    22  C   -0.128102  -0.007351
    24  C   -0.110429  -0.006613
    26  C   -0.122101  -0.006509
    28  C   -0.105224  -0.005812
    30  C   -0.003945  -0.000178
    34  C   -0.005294  -0.000092
    38  C    0.001500   0.000106
    42  C    0.027487  -0.006892
    44  C   -0.008868   0.011184
    47  C   -0.003965  -0.000094
    51  C    0.024037   0.000237
    53  C   -0.012645  -0.000434
    56  C    0.001080   0.000053
    60  C   -0.001512   0.000251
    64  O    0.139368  -0.001815
    67  C    0.051546  -0.000206
    71  N   -0.240905   0.000855
    73  C    0.282919  -0.000771
    74  C    0.507712   0.009380
    76  N   -0.445465  -0.035992
    77  C    0.176699   0.001401
 Electronic spatial extent (au):  <R**2>=          19928.2266
 Charge=              1.0000 electrons
 Dipole moment (field-independent basis, Debye):
    X=              1.6352    Y=             -0.1666    Z=              3.6683  Tot=              4.0198
 Quadrupole moment (field-independent basis, Debye-Ang):
   XX=           -182.8559   YY=           -190.9384   ZZ=           -198.6326
   XY=              2.0894   XZ=              1.1152   YZ=              0.0231
 Traceless Quadrupole moment (field-independent basis, Debye-Ang):
   XX=              7.9531   YY=             -0.1294   ZZ=             -7.8236
   XY=              2.0894   XZ=              1.1152   YZ=              0.0231
 Octapole moment (field-independent basis, Debye-Ang**2):
  XXX=             23.1831  YYY=              5.4224  ZZZ=            152.1801  XYY=             -4.2158
  XXY=             -3.0364  XXZ=            -23.4506  XZZ=             15.9049  YZZ=              1.4753
  YYZ=            -29.4667  XYZ=              5.2583
 Hexadecapole moment (field-independent basis, Debye-Ang**3):
 XXXX=         -10362.8779 YYYY=         -10085.8367 ZZZZ=          -2223.8273 XXXY=             -1.4813
 XXXZ=            110.6293 YYYX=             48.8317 YYYZ=            -28.2505 ZZZX=            -46.3931
 ZZZY=             -3.4657 XXYY=          -3211.8818 XXZZ=          -2456.7903 YYZZ=          -2566.1803
 XXYZ=            -28.9853 YYXZ=            -14.3390 ZZXY=             16.6562
 N-N= 5.963118210582D+03 E-N=-1.890088224875D+04  KE= 2.971954430282D+03
                          Isotropic Fermi Contact Couplings
        Atom                 a.u.       MegaHertz       Gauss      10(-4) cm-1
     1  Fe(57)             0.11633      16.87247       6.02052       5.62805
     2  N(14)             -0.02147      -6.93725      -2.47538      -2.31402
     3  N(14)             -0.01836      -5.93061      -2.11619      -1.97824
     4  N(14)             -0.02134      -6.89662      -2.46088      -2.30046
     5  N(14)             -0.02464      -7.96050      -2.84050      -2.65534
     6  C(13)             -0.00008      -0.09147      -0.03264      -0.03051
     7  C(13)             -0.00047      -0.53066      -0.18935      -0.17701
     8  C(13)             -0.00091      -1.02031      -0.36407      -0.34034
     9  C(13)             -0.00007      -0.08156      -0.02910      -0.02721
    10  C(13)             -0.00153      -1.71797      -0.61302      -0.57305
    11  C(13)              0.00100       1.12634       0.40191       0.37571
    12  C(13)              0.00187       2.09843       0.74877       0.69996
    13  C(13)              0.00102       1.15223       0.41114       0.38434
    14  C(13)              0.00003       0.03307       0.01180       0.01103
    15  C(13)             -0.00075      -0.84518      -0.30158      -0.28192
    16  C(13)             -0.00086      -0.96334      -0.34374      -0.32134
    17  C(13)             -0.00036      -0.40052      -0.14292      -0.13360
    18  C(13)             -0.00119      -1.34040      -0.47829      -0.44711
    19  C(13)              0.00044       0.49802       0.17771       0.16612
    20  C(13)              0.00118       1.32405       0.47245       0.44165
    21  C(13)              0.00075       0.84828       0.30269       0.28296
    22  C(13)             -0.00133      -1.49732      -0.53428      -0.49945
    23  H(1)               0.00012       0.55217       0.19703       0.18418
    24  C(13)             -0.00104      -1.16647      -0.41622      -0.38909
    25  H(1)               0.00011       0.47031       0.16782       0.15688
    26  C(13)             -0.00114      -1.28329      -0.45791      -0.42806
    27  H(1)               0.00010       0.46535       0.16605       0.15523
    28  C(13)             -0.00096      -1.08259      -0.38629      -0.36111
    29  H(1)               0.00011       0.48016       0.17133       0.16016
    30  C(13)             -0.00005      -0.05222      -0.01863      -0.01742
    31  H(1)              -0.00005      -0.21674      -0.07734      -0.07230
    32  H(1)               0.00000       0.01023       0.00365       0.00341
    33  H(1)              -0.00000      -0.01275      -0.00455      -0.00425
    34  C(13)             -0.00006      -0.06922      -0.02470      -0.02309
    35  H(1)               0.00004       0.18799       0.06708       0.06271
    36  H(1)               0.00005       0.22325       0.07966       0.07447
    37  H(1)              -0.00004      -0.19109      -0.06819      -0.06374
    38  C(13)             -0.00067      -0.75312      -0.26873      -0.25121
    39  H(1)               0.00056       2.52048       0.89937       0.84074
    40  H(1)               0.00024       1.06295       0.37929       0.35456
    41  H(1)               0.00002       0.10969       0.03914       0.03659
    42  C(13)             -0.00135      -1.52230      -0.54319      -0.50778
    43  H(1)               0.00021       0.92551       0.33025       0.30872
    44  C(13)              0.00173       1.94590       0.69435       0.64908
    45  H(1)              -0.00019      -0.83346      -0.29740      -0.27801
    46  H(1)              -0.00019      -0.83848      -0.29919      -0.27969
    47  C(13)              0.00004       0.04473       0.01596       0.01492
    48  H(1)              -0.00001      -0.02556      -0.00912      -0.00853
    49  H(1)              -0.00000      -0.02040      -0.00728      -0.00681
    50  H(1)              -0.00005      -0.20662      -0.07373      -0.06892
    51  C(13)             -0.00002      -0.02041      -0.00728      -0.00681
    52  H(1)               0.00000       0.02124       0.00758       0.00709
    53  C(13)             -0.00008      -0.09289      -0.03314      -0.03098
    54  H(1)              -0.00001      -0.02406      -0.00859      -0.00803
    55  H(1)               0.00001       0.02961       0.01057       0.00988
    56  C(13)             -0.00059      -0.65910      -0.23518      -0.21985
    57  H(1)               0.00038       1.69794       0.60587       0.56637
    58  H(1)               0.00031       1.40605       0.50171       0.46901
    59  H(1)              -0.00006      -0.24905      -0.08887      -0.08308
    60  C(13)             -0.00051      -0.57321      -0.20454      -0.19120
    61  H(1)              -0.00004      -0.15660      -0.05588      -0.05224
    62  H(1)               0.00038       1.71856       0.61323       0.57325
    63  H(1)               0.00038       1.71320       0.61131       0.57146
    64  O(17)             -0.00012       0.07257       0.02590       0.02421
    65  H(1)              -0.00008      -0.37405      -0.13347      -0.12477
    66  H(1)              -0.00013      -0.57914      -0.20665      -0.19318
    67  C(13)             -0.00006      -0.06607      -0.02357      -0.02204
    68  H(1)              -0.00003      -0.13605      -0.04855      -0.04538
    69  H(1)              -0.00002      -0.06851      -0.02445      -0.02285
    70  H(1)               0.00004       0.18877       0.06736       0.06297
    71  N(14)             -0.00130      -0.41961      -0.14973      -0.13997
    72  H(1)              -0.00011      -0.47332      -0.16889      -0.15788
    73  C(13)             -0.00120      -1.34643      -0.48044      -0.44912
    74  C(13)              0.00069       0.77464       0.27641       0.25839
    75  H(1)              -0.00028      -1.27251      -0.45406      -0.42446
    76  N(14)             -0.03623     -11.70523      -4.17672      -3.90445
    77  C(13)              0.00021       0.23888       0.08524       0.07968
    78  H(1)              -0.00018      -0.82589      -0.29470      -0.27549
 --------------------------------------------------------
       Center         ----  Spin Dipole Couplings  ----
                      3XX-RR        3YY-RR        3ZZ-RR
 --------------------------------------------------------
     1   Atom       -2.028625      0.777931      1.250695
     2   Atom        0.000426      0.003239     -0.003666
     3   Atom       -0.005903     -0.010725      0.016628
     4   Atom        0.002225      0.002494     -0.004719
     5   Atom       -0.000875     -0.012071      0.012946
     6   Atom        0.004192     -0.004672      0.000480
     7   Atom        0.001392     -0.001994      0.000602
     8   Atom       -0.000003      0.001363     -0.001360
     9   Atom       -0.001197     -0.000996      0.002193
    10   Atom       -0.006074      0.001612      0.004462
    11   Atom       -0.010862     -0.006503      0.017365
    12   Atom       -0.008608     -0.009601      0.018209
    13   Atom        0.001960     -0.004856      0.002896
    14   Atom        0.005317     -0.004972     -0.000345
    15   Atom        0.002773     -0.000793     -0.001980
    16   Atom       -0.000475      0.001431     -0.000956
    17   Atom       -0.000884      0.000234      0.000650
    18   Atom       -0.006073      0.002058      0.004015
    19   Atom       -0.009069     -0.004689      0.013758
    20   Atom       -0.006903     -0.007942      0.014845
    21   Atom        0.001950     -0.003826      0.001876
    22   Atom        0.009444      0.000065     -0.009509
    23   Atom        0.002406     -0.000897     -0.001510
    24   Atom       -0.000039      0.009354     -0.009315
    25   Atom       -0.000834      0.002431     -0.001597
    26   Atom        0.010041     -0.000662     -0.009379
    27   Atom        0.002742     -0.001099     -0.001643
    28   Atom       -0.000967      0.009443     -0.008476
    29   Atom       -0.001022      0.002614     -0.001593
    30   Atom        0.000192      0.000400     -0.000593
    31   Atom        0.000269      0.000223     -0.000493
    32   Atom       -0.000010      0.000647     -0.000637
    33   Atom       -0.000085      0.000721     -0.000636
    34   Atom        0.001056     -0.000494     -0.000561
    35   Atom        0.001158     -0.000566     -0.000592
    36   Atom        0.001191     -0.000551     -0.000639
    37   Atom        0.000731     -0.000239     -0.000492
    38   Atom       -0.000734      0.001179     -0.000445
    39   Atom       -0.000693      0.001433     -0.000739
    40   Atom       -0.000696      0.001499     -0.000803
    41   Atom       -0.000440      0.001177     -0.000737
    42   Atom        0.003202      0.000824     -0.004026
    43   Atom        0.001164     -0.000290     -0.000873
    44   Atom       -0.004471     -0.000699      0.005170
    45   Atom       -0.000060      0.000557     -0.000497
    46   Atom        0.001093     -0.000501     -0.000592
    47   Atom        0.001213     -0.000489     -0.000724
    48   Atom        0.001468     -0.000696     -0.000772
    49   Atom        0.001009     -0.000438     -0.000571
    50   Atom        0.000800     -0.000250     -0.000550
    51   Atom        0.000108      0.000320     -0.000428
    52   Atom       -0.000198      0.000921     -0.000723
    53   Atom        0.000516      0.000330     -0.000846
    54   Atom        0.000096      0.000222     -0.000318
    55   Atom        0.000331      0.000084     -0.000415
    56   Atom       -0.000646      0.001130     -0.000484
    57   Atom       -0.000669      0.001434     -0.000765
    58   Atom       -0.000691      0.001379     -0.000688
    59   Atom       -0.000465      0.001118     -0.000653
    60   Atom        0.000926     -0.000344     -0.000582
    61   Atom        0.000520      0.000164     -0.000684
    62   Atom        0.001103     -0.000368     -0.000735
    63   Atom        0.001041     -0.000322     -0.000719
    64   Atom       -0.008466      0.005766      0.002700
    65   Atom       -0.002691     -0.006192      0.008883
    66   Atom       -0.006191     -0.005395      0.011586
    67   Atom       -0.000397     -0.000590      0.000986
    68   Atom       -0.000476     -0.000569      0.001045
    69   Atom       -0.000173     -0.000702      0.000875
    70   Atom       -0.000391     -0.000598      0.000989
    71   Atom       -0.004299      0.004719     -0.000420
    72   Atom       -0.001199     -0.001067      0.002267
    73   Atom       -0.001262     -0.000546      0.001808
    74   Atom       -0.009116      0.003702      0.005414
    75   Atom        0.000195     -0.004274      0.004079
    76   Atom        0.007843      0.004849     -0.012692
    77   Atom       -0.001703     -0.004726      0.006429
    78   Atom        0.002240     -0.004102      0.001862
 --------------------------------------------------------
                        XY            XZ            YZ
 --------------------------------------------------------
     1   Atom        1.625636     -0.538834      0.289442
     2   Atom        0.006991      0.011069     -0.008219
     3   Atom        0.006562     -0.010664     -0.011637
     4   Atom        0.006351     -0.009802      0.010185
     5   Atom       -0.001590      0.006652      0.015225
     6   Atom       -0.003643      0.001060     -0.000418
     7   Atom       -0.000939      0.000280     -0.000407
     8   Atom       -0.001749      0.000236     -0.000109
     9   Atom       -0.006140     -0.000489     -0.001044
    10   Atom        0.003730     -0.001413      0.000992
    11   Atom        0.000497     -0.002681     -0.001979
    12   Atom        0.002181     -0.002734      0.000676
    13   Atom        0.007141      0.001881      0.002003
    14   Atom       -0.004246      0.001448     -0.001558
    15   Atom       -0.001269      0.000680     -0.000575
    16   Atom       -0.001929      0.001227     -0.000435
    17   Atom       -0.006242      0.000725     -0.002043
    18   Atom        0.004891      0.000029      0.001660
    19   Atom        0.000407      0.000672      0.003213
    20   Atom        0.001899      0.000449      0.003868
    21   Atom        0.006557      0.001755      0.001953
    22   Atom        0.001393      0.001718     -0.000006
    23   Atom        0.000402      0.000230     -0.000010
    24   Atom       -0.002362      0.000392     -0.000043
    25   Atom       -0.000859      0.000036      0.000031
    26   Atom        0.001509      0.001620     -0.000044
    27   Atom        0.000472      0.000518      0.000067
    28   Atom       -0.002013      0.000420      0.000008
    29   Atom       -0.000723      0.000019     -0.000092
    30   Atom       -0.000940     -0.000004      0.000016
    31   Atom       -0.000766      0.000026     -0.000028
    32   Atom       -0.000911     -0.000166      0.000212
    33   Atom       -0.000893      0.000161     -0.000216
    34   Atom       -0.000610      0.000068     -0.000028
    35   Atom       -0.000397      0.000357     -0.000078
    36   Atom       -0.000413     -0.000173      0.000038
    37   Atom       -0.000603      0.000069     -0.000033
    38   Atom        0.000266     -0.000051      0.000110
    39   Atom        0.000302      0.000016     -0.000305
    40   Atom        0.000014     -0.000019      0.000486
    41   Atom        0.000635      0.000044      0.000434
    42   Atom        0.002516      0.001933     -0.003146
    43   Atom        0.001081      0.000432      0.000175
    44   Atom       -0.001212     -0.002916      0.007895
    45   Atom        0.000227      0.000144     -0.000355
    46   Atom        0.000734      0.000191      0.000401
    47   Atom       -0.000723      0.000112     -0.000012
    48   Atom       -0.000395     -0.000191      0.000048
    49   Atom       -0.000523      0.000269     -0.000096
    50   Atom       -0.000656     -0.000106      0.000051
    51   Atom       -0.000961     -0.000098     -0.000233
    52   Atom       -0.000917     -0.000104      0.000145
    53   Atom       -0.000730      0.000080      0.000255
    54   Atom       -0.000449      0.000032     -0.000041
    55   Atom       -0.000620      0.000116     -0.000112
    56   Atom        0.000410     -0.000054     -0.000130
    57   Atom        0.000248     -0.000018      0.000213
    58   Atom        0.000249     -0.000007     -0.000572
    59   Atom        0.000713     -0.000064     -0.000209
    60   Atom        0.001030     -0.000051      0.000038
    61   Atom        0.001065     -0.000107     -0.000079
    62   Atom        0.000796     -0.000456     -0.000118
    63   Atom        0.000830      0.000350      0.000085
    64   Atom        0.014324      0.002422      0.001114
    65   Atom       -0.002017     -0.009286      0.004545
    66   Atom        0.000469      0.001123     -0.002198
    67   Atom       -0.000007     -0.000704      0.000034
    68   Atom        0.000130     -0.000464     -0.000304
    69   Atom        0.000091     -0.000954     -0.000114
    70   Atom       -0.000041     -0.000558      0.000172
    71   Atom       -0.000569      0.001189     -0.001281
    72   Atom        0.000090      0.000687      0.000163
    73   Atom        0.000610     -0.001937      0.001142
    74   Atom       -0.005961      0.004397     -0.003609
    75   Atom        0.000772      0.005954      0.000798
    76   Atom        0.004982      0.002827     -0.000346
    77   Atom       -0.001699     -0.006343      0.001610
    78   Atom        0.000890     -0.006547     -0.000704
 --------------------------------------------------------


 ---------------------------------------------------------------------------------
              Anisotropic Spin Dipole Couplings in Principal Axis System
 ---------------------------------------------------------------------------------

       Atom             a.u.   MegaHertz   Gauss  10(-4) cm-1        Axes

              Baa    -2.8635   -49.575   -17.689   -16.536  0.8989 -0.4129  0.1468
     1 Fe(57) Bbb     1.3334    23.085     8.237     7.700 -0.2141 -0.1215  0.9692
              Bcc     1.5300    26.489     9.452     8.836  0.3824  0.9026  0.1976
 
              Baa    -0.0183    -0.705    -0.252    -0.235 -0.5732  0.4481  0.6860
     2 N(14)  Bbb     0.0086     0.333     0.119     0.111  0.2053  0.8890 -0.4092
              Bcc     0.0096     0.372     0.133     0.124  0.7932  0.0938  0.6016
 
              Baa    -0.0160    -0.618    -0.220    -0.206 -0.3765  0.9047  0.1995
     3 N(14)  Bbb    -0.0097    -0.373    -0.133    -0.124  0.8522  0.2537  0.4577
              Bcc     0.0257     0.991     0.354     0.331 -0.3635 -0.3423  0.8664
 
              Baa    -0.0185    -0.713    -0.255    -0.238  0.4909 -0.4961  0.7162
     4 N(14)  Bbb     0.0086     0.333     0.119     0.111  0.8104  0.5617 -0.1664
              Bcc     0.0099     0.380     0.136     0.127 -0.3198  0.6621  0.6778
 
              Baa    -0.0202    -0.781    -0.279    -0.260  0.2234  0.8683 -0.4430
     5 N(14)  Bbb    -0.0012    -0.046    -0.016    -0.015  0.9455 -0.3035 -0.1180
              Bcc     0.0214     0.827     0.295     0.276  0.2369  0.3925  0.8887
 
              Baa    -0.0060    -0.802    -0.286    -0.268  0.3367  0.9416  0.0057
     6 C(13)  Bbb     0.0002     0.031     0.011     0.010 -0.2011  0.0660  0.9774
              Bcc     0.0057     0.771     0.275     0.257  0.9199 -0.3302  0.2115
 
              Baa    -0.0023    -0.305    -0.109    -0.102  0.2383  0.9645  0.1134
     7 C(13)  Bbb     0.0005     0.069     0.025     0.023 -0.3319 -0.0289  0.9429
              Bcc     0.0018     0.236     0.084     0.079  0.9127 -0.2624  0.3132
 
              Baa    -0.0014    -0.194    -0.069    -0.065 -0.4194 -0.2273  0.8789
     8 C(13)  Bbb    -0.0011    -0.151    -0.054    -0.050  0.7107  0.5201  0.4737
              Bcc     0.0026     0.345     0.123     0.115 -0.5648  0.8233 -0.0566
 
              Baa    -0.0074    -0.988    -0.352    -0.329  0.7058  0.6994  0.1125
     9 C(13)  Bbb     0.0023     0.303     0.108     0.101 -0.1791  0.0225  0.9836
              Bcc     0.0051     0.685     0.244     0.228 -0.6854  0.7144 -0.1411
 
              Baa    -0.0078    -1.049    -0.374    -0.350  0.9163 -0.3768  0.1359
    10 C(13)  Bbb     0.0030     0.407     0.145     0.136  0.3988  0.8894 -0.2233
              Bcc     0.0048     0.642     0.229     0.214 -0.0367  0.2588  0.9652
 
              Baa    -0.0111    -1.494    -0.533    -0.498  0.9937 -0.0687  0.0887
    11 C(13)  Bbb    -0.0066    -0.892    -0.318    -0.298  0.0608  0.9942  0.0887
              Bcc     0.0178     2.387     0.852     0.796 -0.0943 -0.0828  0.9921
 
              Baa    -0.0115    -1.545    -0.551    -0.515 -0.6437  0.7614 -0.0765
    12 C(13)  Bbb    -0.0070    -0.937    -0.334    -0.312  0.7588  0.6480  0.0650
              Bcc     0.0185     2.482     0.885     0.828 -0.0991  0.0162  0.9949
 
              Baa    -0.0094    -1.261    -0.450    -0.421 -0.5243  0.8495 -0.0582
    13 C(13)  Bbb     0.0015     0.203     0.072     0.068 -0.4294 -0.2048  0.8796
              Bcc     0.0079     1.059     0.378     0.353  0.7353  0.4862  0.4721
 
              Baa    -0.0067    -0.893    -0.319    -0.298  0.3128  0.9363  0.1594
    14 C(13)  Bbb    -0.0007    -0.088    -0.031    -0.029 -0.2810 -0.0690  0.9572
              Bcc     0.0073     0.981     0.350     0.327  0.9073 -0.3442  0.2415
 
              Baa    -0.0022    -0.298    -0.106    -0.099 -0.0409  0.3420  0.9388
    15 C(13)  Bbb    -0.0011    -0.146    -0.052    -0.049  0.3455  0.8865 -0.3079
              Bcc     0.0033     0.444     0.158     0.148  0.9375 -0.3118  0.1544
 
              Baa    -0.0023    -0.305    -0.109    -0.102  0.7436  0.3184 -0.5880
    16 C(13)  Bbb    -0.0006    -0.085    -0.030    -0.028  0.3829  0.5183  0.7647
              Bcc     0.0029     0.390     0.139     0.130 -0.5482  0.7937 -0.2635
 
              Baa    -0.0067    -0.898    -0.320    -0.300  0.7199  0.6838  0.1191
    17 C(13)  Bbb     0.0001     0.010     0.004     0.003 -0.3037  0.1560  0.9399
              Bcc     0.0066     0.888     0.317     0.296 -0.6241  0.7128 -0.3200
 
              Baa    -0.0084    -1.128    -0.402    -0.376  0.9011 -0.4300  0.0554
    18 C(13)  Bbb     0.0027     0.360     0.128     0.120 -0.3262 -0.5883  0.7399
              Bcc     0.0057     0.768     0.274     0.256  0.2856  0.6848  0.6704
 
              Baa    -0.0091    -1.223    -0.436    -0.408  0.9967 -0.0785 -0.0183
    19 C(13)  Bbb    -0.0052    -0.699    -0.250    -0.233  0.0743  0.9828 -0.1691
              Bcc     0.0143     1.922     0.686     0.641  0.0312  0.1672  0.9854
 
              Baa    -0.0097    -1.306    -0.466    -0.436 -0.5396  0.8332 -0.1213
    20 C(13)  Bbb    -0.0058    -0.775    -0.276    -0.258  0.8413  0.5277 -0.1173
              Bcc     0.0155     2.081     0.743     0.694  0.0338  0.1653  0.9857
 
              Baa    -0.0082    -1.094    -0.390    -0.365 -0.5345  0.8422 -0.0705
    21 C(13)  Bbb     0.0008     0.101     0.036     0.034 -0.3891 -0.1712  0.9052
              Bcc     0.0074     0.993     0.354     0.331  0.7503  0.5112  0.4192
 
              Baa    -0.0097    -1.297    -0.463    -0.433 -0.0905  0.0136  0.9958
    22 C(13)  Bbb    -0.0001    -0.018    -0.006    -0.006 -0.1393  0.9899 -0.0262
              Bcc     0.0098     1.315     0.469     0.439  0.9861  0.1411  0.0877
 
              Baa    -0.0015    -0.814    -0.290    -0.271 -0.0640  0.0563  0.9964
    23 H(1)   Bbb    -0.0009    -0.503    -0.179    -0.168 -0.1147  0.9914 -0.0634
              Bcc     0.0025     1.317     0.470     0.439  0.9913  0.1184  0.0570
 
              Baa    -0.0093    -1.252    -0.447    -0.418 -0.0429 -0.0031  0.9991
    24 C(13)  Bbb    -0.0006    -0.078    -0.028    -0.026  0.9720  0.2312  0.0425
              Bcc     0.0099     1.331     0.475     0.444 -0.2311  0.9729 -0.0069
 
              Baa    -0.0016    -0.854    -0.305    -0.285 -0.0734 -0.0232  0.9970
    25 H(1)   Bbb    -0.0010    -0.557    -0.199    -0.186  0.9680  0.2387  0.0768
              Bcc     0.0026     1.410     0.503     0.470 -0.2398  0.9708  0.0050
 
              Baa    -0.0095    -1.277    -0.456    -0.426 -0.0840  0.0192  0.9963
    26 C(13)  Bbb    -0.0009    -0.116    -0.041    -0.039 -0.1326  0.9907 -0.0303
              Bcc     0.0104     1.393     0.497     0.465  0.9876  0.1347  0.0807
 
              Baa    -0.0017    -0.909    -0.324    -0.303 -0.1135 -0.0210  0.9933
    27 H(1)   Bbb    -0.0012    -0.617    -0.220    -0.206 -0.1211  0.9926  0.0071
              Bcc     0.0029     1.526     0.545     0.509  0.9861  0.1195  0.1152
 
              Baa    -0.0085    -1.141    -0.407    -0.380 -0.0574 -0.0069  0.9983
    28 C(13)  Bbb    -0.0013    -0.177    -0.063    -0.059  0.9813  0.1835  0.0577
              Bcc     0.0098     1.318     0.470     0.440 -0.1836  0.9830 -0.0038
 
              Baa    -0.0016    -0.851    -0.304    -0.284 -0.0069  0.0207  0.9998
    29 H(1)   Bbb    -0.0012    -0.619    -0.221    -0.206  0.9821  0.1882  0.0029
              Bcc     0.0028     1.470     0.524     0.490 -0.1881  0.9819 -0.0217
 
              Baa    -0.0007    -0.087    -0.031    -0.029  0.7376  0.6619 -0.1333
    30 C(13)  Bbb    -0.0006    -0.079    -0.028    -0.027  0.1045  0.0830  0.9911
              Bcc     0.0012     0.167     0.059     0.056 -0.6670  0.7450  0.0079
 
              Baa    -0.0005    -0.277    -0.099    -0.093  0.6926  0.7166  0.0818
    31 H(1)   Bbb    -0.0005    -0.263    -0.094    -0.088 -0.0751 -0.0412  0.9963
              Bcc     0.0010     0.541     0.193     0.180  0.7174 -0.6962  0.0253
 
              Baa    -0.0007    -0.363    -0.130    -0.121  0.4165  0.1425  0.8979
    32 H(1)   Bbb    -0.0006    -0.343    -0.123    -0.115  0.7080  0.5687 -0.4187
              Bcc     0.0013     0.706     0.252     0.236 -0.5703  0.8101  0.1360
 
              Baa    -0.0007    -0.366    -0.131    -0.122 -0.5631 -0.2358  0.7920
    33 H(1)   Bbb    -0.0006    -0.346    -0.124    -0.115  0.6268  0.5027  0.5953
              Bcc     0.0013     0.712     0.254     0.238 -0.5385  0.8317 -0.1353
 
              Baa    -0.0007    -0.095    -0.034    -0.032  0.3262  0.9448  0.0293
    34 C(13)  Bbb    -0.0006    -0.076    -0.027    -0.025 -0.0472 -0.0147  0.9988
              Bcc     0.0013     0.170     0.061     0.057  0.9441 -0.3272  0.0398
 
              Baa    -0.0007    -0.353    -0.126    -0.118 -0.1782  0.0660  0.9818
    35 H(1)   Bbb    -0.0007    -0.349    -0.124    -0.116  0.2188  0.9754 -0.0258
              Bcc     0.0013     0.702     0.250     0.234  0.9594 -0.2102  0.1883
 
              Baa    -0.0007    -0.350    -0.125    -0.117  0.1025  0.0409  0.9939
    36 H(1)   Bbb    -0.0006    -0.344    -0.123    -0.115  0.2135  0.9750 -0.0621
              Bcc     0.0013     0.693     0.247     0.231  0.9716 -0.2186 -0.0912
 
              Baa    -0.0005    -0.281    -0.100    -0.094  0.4314  0.9021  0.0131
    37 H(1)   Bbb    -0.0005    -0.265    -0.094    -0.088 -0.0509  0.0099  0.9987
              Bcc     0.0010     0.546     0.195     0.182  0.9007 -0.4314  0.0502
 
              Baa    -0.0008    -0.105    -0.038    -0.035  0.9710 -0.1423  0.1920
    38 C(13)  Bbb    -0.0004    -0.059    -0.021    -0.020 -0.1987 -0.0339  0.9795
              Bcc     0.0012     0.164     0.058     0.055  0.1329  0.9892  0.0612
 
              Baa    -0.0008    -0.437    -0.156    -0.146 -0.5450  0.1840  0.8180
    39 H(1)   Bbb    -0.0007    -0.371    -0.133    -0.124  0.8278 -0.0369  0.5598
              Bcc     0.0015     0.808     0.288     0.270  0.1332  0.9822 -0.1322
 
              Baa    -0.0009    -0.482    -0.172    -0.161  0.1049 -0.1976  0.9747
    40 H(1)   Bbb    -0.0007    -0.370    -0.132    -0.123  0.9945  0.0165 -0.1037
              Bcc     0.0016     0.852     0.304     0.284  0.0044  0.9801  0.1982
 
              Baa    -0.0009    -0.462    -0.165    -0.154  0.3553 -0.2988  0.8857
    41 H(1)   Bbb    -0.0006    -0.327    -0.117    -0.109  0.8810 -0.2097 -0.4242
              Bcc     0.0015     0.789     0.281     0.263  0.3125  0.9310  0.1888
 
              Baa    -0.0064    -0.863    -0.308    -0.288 -0.2890  0.4634  0.8377
    42 C(13)  Bbb     0.0016     0.220     0.078     0.073 -0.4556  0.7030 -0.5461
              Bcc     0.0048     0.644     0.230     0.215  0.8420  0.5395 -0.0079
 
              Baa    -0.0010    -0.520    -0.185    -0.173 -0.3250  0.2822  0.9026
    43 H(1)   Bbb    -0.0008    -0.451    -0.161    -0.150 -0.3678  0.8416 -0.3956
              Bcc     0.0018     0.971     0.346     0.324  0.8713  0.4605  0.1697
 
              Baa    -0.0065    -0.871    -0.311    -0.291 -0.4142  0.7023 -0.5790
    44 C(13)  Bbb    -0.0048    -0.640    -0.228    -0.214  0.8896  0.4470 -0.0941
              Bcc     0.0113     1.512     0.539     0.504 -0.1927  0.5540  0.8099
 
              Baa    -0.0007    -0.360    -0.129    -0.120 -0.3254  0.3167  0.8909
    45 H(1)   Bbb    -0.0000    -0.017    -0.006    -0.006  0.9169 -0.1244  0.3791
              Bcc     0.0007     0.377     0.135     0.126  0.2309  0.9403 -0.2499
 
              Baa    -0.0010    -0.547    -0.195    -0.182 -0.2086  0.7613 -0.6140
    46 H(1)   Bbb    -0.0004    -0.217    -0.077    -0.072 -0.3555  0.5258  0.7728
              Bcc     0.0014     0.764     0.273     0.255  0.9111  0.3794  0.1610
 
              Baa    -0.0008    -0.104    -0.037    -0.035  0.3156  0.7836 -0.5352
    47 C(13)  Bbb    -0.0007    -0.096    -0.034    -0.032  0.1455  0.5174  0.8433
              Bcc     0.0015     0.199     0.071     0.066  0.9377 -0.3441  0.0493
 
              Baa    -0.0008    -0.424    -0.151    -0.142 -0.0005 -0.4375  0.8992
    48 H(1)   Bbb    -0.0008    -0.405    -0.145    -0.135  0.1933  0.8822  0.4294
              Bcc     0.0016     0.830     0.296     0.277  0.9811 -0.1741 -0.0841
 
              Baa    -0.0006    -0.332    -0.118    -0.111  0.0317  0.5333  0.8453
    49 H(1)   Bbb    -0.0006    -0.321    -0.115    -0.107  0.3412  0.7892 -0.5107
              Bcc     0.0012     0.653     0.233     0.218  0.9395 -0.3046  0.1570
 
              Baa    -0.0006    -0.301    -0.107    -0.100  0.4363  0.8974  0.0656
    50 H(1)   Bbb    -0.0006    -0.298    -0.106    -0.099  0.0346 -0.0895  0.9954
              Bcc     0.0011     0.599     0.214     0.200  0.8991 -0.4320 -0.0701
 
              Baa    -0.0009    -0.117    -0.042    -0.039  0.6439  0.6097  0.4622
    51 C(13)  Bbb    -0.0003    -0.042    -0.015    -0.014 -0.3873 -0.2613  0.8842
              Bcc     0.0012     0.159     0.057     0.053 -0.6599  0.7483 -0.0679
 
              Baa    -0.0007    -0.399    -0.142    -0.133  0.4580  0.1757  0.8714
    52 H(1)   Bbb    -0.0007    -0.375    -0.134    -0.125  0.7428  0.4629 -0.4837
              Bcc     0.0015     0.774     0.276     0.258 -0.4884  0.8688  0.0815
 
              Baa    -0.0009    -0.127    -0.045    -0.042 -0.2016 -0.3018  0.9318
    53 C(13)  Bbb    -0.0002    -0.029    -0.010    -0.010  0.6376  0.6817  0.3587
              Bcc     0.0012     0.156     0.056     0.052  0.7435 -0.6665 -0.0550
 
              Baa    -0.0003    -0.171    -0.061    -0.057  0.0256  0.0957  0.9951
    54 H(1)   Bbb    -0.0003    -0.157    -0.056    -0.052  0.7549  0.6507 -0.0819
              Bcc     0.0006     0.328     0.117     0.109 -0.6554  0.7533 -0.0556
 
              Baa    -0.0004    -0.237    -0.084    -0.079  0.2769  0.4999  0.8206
    55 H(1)   Bbb    -0.0004    -0.222    -0.079    -0.074  0.5797  0.5942 -0.5576
              Bcc     0.0009     0.459     0.164     0.153  0.7663 -0.6301  0.1253
 
              Baa    -0.0007    -0.099    -0.035    -0.033  0.9734 -0.2066  0.0993
    56 C(13)  Bbb    -0.0005    -0.066    -0.024    -0.022 -0.0801  0.0994  0.9918
              Bcc     0.0012     0.165     0.059     0.055  0.2148  0.9734 -0.0802
 
              Baa    -0.0008    -0.428    -0.153    -0.143  0.3656 -0.1283  0.9219
    57 H(1)   Bbb    -0.0007    -0.363    -0.130    -0.121  0.9238 -0.0707 -0.3762
              Bcc     0.0015     0.791     0.282     0.264  0.1134  0.9892  0.0926
 
              Baa    -0.0009    -0.457    -0.163    -0.153 -0.3633  0.2686  0.8921
    58 H(1)   Bbb    -0.0007    -0.371    -0.133    -0.124  0.9254 -0.0066  0.3789
              Bcc     0.0016     0.829     0.296     0.276  0.1076  0.9632 -0.2462
 
              Baa    -0.0007    -0.396    -0.141    -0.132  0.9027 -0.3705 -0.2186
    59 H(1)   Bbb    -0.0007    -0.359    -0.128    -0.120  0.2420  0.0171  0.9701
              Bcc     0.0014     0.755     0.269     0.252  0.3557  0.9287 -0.1051
 
              Baa    -0.0009    -0.125    -0.044    -0.042 -0.4825  0.8604 -0.1638
    60 C(13)  Bbb    -0.0006    -0.077    -0.027    -0.026 -0.0691  0.1490  0.9864
              Bcc     0.0015     0.201     0.072     0.067  0.8732  0.4873 -0.0125
 
              Baa    -0.0007    -0.394    -0.141    -0.132 -0.6436  0.7428 -0.1847
    61 H(1)   Bbb    -0.0007    -0.368    -0.131    -0.123 -0.0724  0.1812  0.9808
              Bcc     0.0014     0.763     0.272     0.254  0.7619  0.6446 -0.0629
 
              Baa    -0.0009    -0.462    -0.165    -0.154  0.3382 -0.3317  0.8807
    62 H(1)   Bbb    -0.0007    -0.363    -0.130    -0.121 -0.2742  0.8605  0.4294
              Bcc     0.0015     0.825     0.294     0.275  0.9003  0.3867 -0.2000
 
              Baa    -0.0008    -0.439    -0.157    -0.146 -0.3519  0.4428  0.8247
    63 H(1)   Bbb    -0.0007    -0.356    -0.127    -0.119 -0.2743  0.7935 -0.5432
              Bcc     0.0015     0.795     0.284     0.265  0.8949  0.4174  0.1578
 
              Baa    -0.0175     1.263     0.451     0.421  0.8503 -0.5211 -0.0734
    64 O(17)  Bbb     0.0024    -0.174    -0.062    -0.058 -0.0317 -0.1900  0.9813
              Bcc     0.0150    -1.089    -0.388    -0.363  0.5253  0.8321  0.1781
 
              Baa    -0.0081    -4.318    -1.541    -1.440  0.7061 -0.4849  0.5161
    65 H(1)   Bbb    -0.0071    -3.784    -1.350    -1.262  0.5305  0.8449  0.0680
              Bcc     0.0152     8.102     2.891     2.703 -0.4690  0.2258  0.8539
 
              Baa    -0.0066    -3.540    -1.263    -1.181  0.8441 -0.5236 -0.1152
    66 H(1)   Bbb    -0.0053    -2.824    -1.008    -0.942  0.5330  0.8429  0.0743
              Bcc     0.0119     6.364     2.271     2.123  0.0582 -0.1241  0.9906
 
              Baa    -0.0007    -0.093    -0.033    -0.031  0.9200 -0.0607  0.3872
    67 C(13)  Bbb    -0.0006    -0.079    -0.028    -0.026  0.0630  0.9980  0.0067
              Bcc     0.0013     0.172     0.061     0.057 -0.3868  0.0182  0.9220
 
              Baa    -0.0007    -0.353    -0.126    -0.118 -0.6254  0.7797 -0.0313
    68 H(1)   Bbb    -0.0006    -0.306    -0.109    -0.102  0.7321  0.6001  0.3225
              Bcc     0.0012     0.659     0.235     0.220 -0.2702 -0.1788  0.9461
 
              Baa    -0.0007    -0.399    -0.142    -0.133  0.7682 -0.4855  0.4173
    69 H(1)   Bbb    -0.0007    -0.374    -0.133    -0.125  0.3888  0.8717  0.2983
              Bcc     0.0014     0.773     0.276     0.258 -0.5086 -0.0669  0.8584
 
              Baa    -0.0006    -0.333    -0.119    -0.111 -0.3969  0.8881 -0.2318
    70 H(1)   Bbb    -0.0006    -0.309    -0.110    -0.103  0.8562  0.4492  0.2553
              Bcc     0.0012     0.642     0.229     0.214 -0.3309  0.0971  0.9387
 
              Baa    -0.0046    -0.179    -0.064    -0.060  0.9640  0.0224 -0.2649
    71 N(14)  Bbb    -0.0005    -0.018    -0.006    -0.006  0.2504  0.2585  0.9330
              Bcc     0.0051     0.197     0.070     0.066 -0.0893  0.9657 -0.2436
 
              Baa    -0.0013    -0.717    -0.256    -0.239  0.9616 -0.2129 -0.1734
    72 H(1)   Bbb    -0.0011    -0.568    -0.203    -0.189  0.2000  0.9758 -0.0889
              Bcc     0.0024     1.284     0.458     0.428  0.1881  0.0508  0.9808
 
              Baa    -0.0027    -0.366    -0.131    -0.122  0.7750 -0.4495  0.4442
    73 C(13)  Bbb    -0.0002    -0.026    -0.009    -0.009  0.5039  0.8638 -0.0050
              Bcc     0.0029     0.392     0.140     0.131 -0.3814  0.2277  0.8959
 
              Baa    -0.0119    -1.602    -0.572    -0.534  0.9332  0.3163 -0.1707
    74 C(13)  Bbb     0.0011     0.143     0.051     0.048 -0.1115  0.7061  0.6992
              Bcc     0.0109     1.459     0.521     0.487  0.3417 -0.6335  0.6942
 
              Baa    -0.0044    -2.371    -0.846    -0.791 -0.4003  0.8952  0.1958
    75 H(1)   Bbb    -0.0040    -2.161    -0.771    -0.721  0.7045  0.4373 -0.5590
              Bcc     0.0085     4.532     1.617     1.512  0.5860  0.0858  0.8057
 
              Baa    -0.0131    -0.507    -0.181    -0.169 -0.1473  0.0598  0.9873
    76 N(14)  Bbb     0.0014     0.054     0.019     0.018 -0.5693  0.8111 -0.1341
              Bcc     0.0117     0.452     0.161     0.151  0.8088  0.5818  0.0854
 
              Baa    -0.0058    -0.782    -0.279    -0.261  0.6904  0.6715  0.2690
    77 C(13)  Bbb    -0.0044    -0.591    -0.211    -0.197 -0.5408  0.7261 -0.4246
              Bcc     0.0102     1.373     0.490     0.458 -0.4805  0.1477  0.8645
 
              Baa    -0.0045    -2.422    -0.864    -0.808  0.6793 -0.3218  0.6595
    78 H(1)   Bbb    -0.0042    -2.221    -0.792    -0.741  0.1653  0.9427  0.2898
              Bcc     0.0087     4.642     1.656     1.548  0.7150  0.0878 -0.6936
 

 ---------------------------------------------------------------------------------

 Unable to Open any file for archive entry.
 1\1\GINC-BGN1008\SP\UAPFD\Gen\C34H36Fe1N6O1(1+,2)\BECSLEIP\02-Sep-2024
 \0\\# apfd/gen scf=maxcycle=999 geom=check\\2pt3_III_D\\1,2\Fe,0,9.359
 7581432,2.2713415053,25.8957800126\N,0,8.5770171145,2.3753885792,27.79
 68955909\N,0,9.341809967,4.2496022844,25.8173970342\N,0,9.9094432714,2
 .0973711755,24.0121511009\N,0,9.1628785087,0.260376983,26.0409489127\C
 ,0,8.1916025084,1.3571122085,28.6108773999\C,0,7.6736905929,1.85961706
 55,29.8622560735\C,0,7.7412840969,3.2159346413,29.7835157666\C,0,8.294
 8475624,3.5193366097,28.4826902421\C,0,8.9784996038,5.1413875342,26.77
 51998253\C,0,9.1110610683,6.4938810185,26.2949668873\C,0,9.6039472261,
 6.4036458058,25.020553774\C,0,9.7201598833,4.9843441326,24.7378549214\
 C,0,10.3086873103,3.1310390688,23.2214944796\C,0,10.996700161,2.640105
 6853,22.054319837\C,0,10.8659674659,1.2745363111,22.079938952\C,0,10.2
 171826317,0.9620229946,23.3400591452\C,0,9.3752577656,-0.6164981309,25
 .0213064236\C,0,8.9206217419,-1.9428223042,25.3764580839\C,0,8.4474387
 478,-1.85376641,26.6476845326\C,0,8.6007366143,-0.470149935,27.0404163
 095\C,0,8.2170271653,0.0167291811,28.2750479765\H,0,7.8417969287,-0.68
 96190818,28.9996399118\C,0,8.5091513851,4.8073704382,28.0329835838\H,0
 ,8.256131649,5.6146244111,28.7030652441\C,0,10.185894954,4.4752380833,
 23.5401887086\H,0,10.5078819349,5.1863186714,22.7939301121\C,0,9.93565
 98492,-0.3135755904,23.7929689855\H,0,10.1272917301,-1.1379632128,23.1
 227969523\C,0,7.3267794581,4.2391983691,30.7848498444\H,0,6.9819260325
 ,3.7656238656,31.7011693155\H,0,6.5163052226,4.8549293074,30.392320902
 1\H,0,8.161438951,4.8961133968,31.0304553202\C,0,7.1734513516,0.999651
 1186,30.9723025665\H,0,7.9393242846,0.2889495875,31.2831670826\H,0,6.2
 970371472,0.4332589058,30.6550112958\H,0,6.8958005229,1.602584619,31.8
 334339969\C,0,8.7253277787,7.7153132628,27.0541338761\H,0,9.5158046528
 ,8.0106585105,27.7462103757\H,0,7.8198408524,7.5390377219,27.632882284
 8\H,0,8.5447774695,8.5397648778,26.3671477901\C,0,9.9097998873,7.46022
 83982,24.0818528296\H,0,9.7289248349,7.2281400644,23.0386110905\C,0,10
 .3936458975,8.6568824634,24.3996162684\H,0,10.6362950254,8.9260694027,
 25.412777624\H,0,10.5880358044,9.4039009573,23.6478954518\C,0,11.67910
 82543,3.488960486,21.0391227737\H,0,12.1521261895,4.3480266285,21.5125
 650659\H,0,10.9707899575,3.8600419239,20.2961705988\H,0,12.443558639,2
 .9103668413,20.5243340555\C,0,11.35472763,0.2874368735,21.1446221005\H
 ,0,11.6202773193,-0.6715346483,21.5741372517\C,0,11.4827354713,0.45848
 4244,19.8320987769\H,0,11.8642517865,-0.3246402513,19.1978557009\H,0,1
 1.1906838615,1.3690698902,19.3395043113\C,0,8.9928633903,-3.128990779,
 24.4771602644\H,0,10.0305123826,-3.3711448013,24.2445685025\H,0,8.4740
 485017,-2.9313362638,23.5393345075\H,0,8.536323432,-3.9978397164,24.94
 5238279\C,0,7.8529349014,-2.9126758308,27.5122390241\H,0,7.8337182082,
 -3.8683370147,26.9942078282\H,0,6.831489889,-2.6532080095,27.791763949
 \H,0,8.4332563579,-3.0319681892,28.4277604257\O,0,7.169,2.328,25.27\H,
 0,6.685,2.349,26.096\H,0,6.816,2.315,24.454\C,0,14.8165382686,3.067907
 2583,26.7325135253\H,0,15.1212273805,3.5489307423,27.6619166378\H,0,14
 .9176424797,3.7821700449,25.9215167241\H,0,15.48850175,2.230237545,26.
 5460494025\N,0,12.9832247242,1.7007883098,27.7522203214\H,0,13.5589489
 514,1.2696783185,28.4566659372\C,0,13.4078860115,2.6057241985,26.81502
 26355\C,0,11.6608006749,1.4967200292,27.5555075543\H,0,11.0579086217,0
 .8359447977,28.1431986913\N,0,11.223003398,2.2174140651,26.5511632647\
 C,0,12.298300448,2.9127893312,26.0803788751\H,0,12.2018681429,3.583285
 2014,25.2512501033\\Version=ES64L-G16RevC.02\State=2-A\HF=-2983.206978
 2\S2=0.79598\S2-1=0.\S2A=0.75076\RMSD=4.260e-09\Dipole=1.037793,-0.401
 9504,1.1236332\Quadrupole=-4.5869388,2.8629145,1.7240243,1.7455745,-3.
 0837845,-2.9736278\PG=C01 [X(C34H36Fe1N6O1)]\\@
 The archive entry for this job was punched.


 The impersonal hand of government can
 never replace the helping hand of a neighbor.
                        -- Hubert H. Humphrey
 Job cpu time:       1 days  6 hours 17 minutes 48.8 seconds.
 Elapsed time:       0 days  0 hours 31 minutes  4.2 seconds.
 File lengths (MBytes):  RWF=    430 Int=      0 D2E=      0 Chk=    155 Scr=      1
 Normal termination of Gaussian 16 at Mon Sep  2 23:49:25 2024.
ytes):  RWF=    430 Int=      0 D2E=      0 Chk=    155 Scr=      1
 Normal termination of Gaussian 16 at Mon Sep  2 23:24:06 2024.
