 Entering Gaussian System, Link 0=g16
 Input=2q9f01.com
 Output=2q9f01.log
 Initial command:
 /sw/chem/gaussian/g16_C02/a100/g16/l1.exe "/local/becsleip_7999369/Gau-3718667.inp" -scrdir="/local/becsleip_7999369/"
 Entering Link 1 = /sw/chem/gaussian/g16_C02/a100/g16/l1.exe PID=   3718668.
  
 Copyright (c) 1988-2021, Gaussian, Inc.  All Rights Reserved.
  
 This is part of the Gaussian(R) 16 program.  It is based on
 the Gaussian(R) 09 system (copyright 2009, Gaussian, Inc.),
 the Gaussian(R) 03 system (copyright 2003, Gaussian, Inc.),
 the Gaussian(R) 98 system (copyright 1998, Gaussian, Inc.),
 the Gaussian(R) 94 system (copyright 1995, Gaussian, Inc.),
 the Gaussian 92(TM) system (copyright 1992, Gaussian, Inc.),
 the Gaussian 90(TM) system (copyright 1990, Gaussian, Inc.),
 the Gaussian 88(TM) system (copyright 1988, Gaussian, Inc.),
 the Gaussian 86(TM) system (copyright 1986, Carnegie Mellon
 University), and the Gaussian 82(TM) system (copyright 1983,
 Carnegie Mellon University). Gaussian is a federally registered
 trademark of Gaussian, Inc.
  
 This software contains proprietary and confidential information,
 including trade secrets, belonging to Gaussian, Inc.
  
 This software is provided under written license and may be
 used, copied, transmitted, or stored only in accord with that
 written license.
  
 The following legend is applicable only to US Government
 contracts under FAR:
  
                    RESTRICTED RIGHTS LEGEND
  
 Use, reproduction and disclosure by the US Government is
 subject to restrictions as set forth in subparagraphs (a)
 and (c) of the Commercial Computer Software - Restricted
 Rights clause in FAR 52.227-19.
  
 Gaussian, Inc.
 340 Quinnipiac St., Bldg. 40, Wallingford CT 06492
  
  
 ---------------------------------------------------------------
 Warning -- This program may not be used in any manner that
 competes with the business of Gaussian, Inc. or will provide
 assistance to any competitor of Gaussian, Inc.  The licensee
 of this program is prohibited from giving any competitor of
 Gaussian, Inc. access to this program.  By using this program,
 the user acknowledges that Gaussian, Inc. is engaged in the
 business of creating and licensing software in the field of
 computational chemistry and represents and warrants to the
 licensee that it is not a competitor of Gaussian, Inc. and that
 it will not use this program in any manner prohibited above.
 ---------------------------------------------------------------
  

 Cite this work as:
 Gaussian 16, Revision C.02,
 M. J. Frisch, G. W. Trucks, H. B. Schlegel, G. E. Scuseria, 
 M. A. Robb, J. R. Cheeseman, G. Scalmani, V. Barone, 
 G. A. Petersson, H. Nakatsuji, X. Li, M. Caricato, A. V. Marenich, 
 J. Bloino, B. G. Janesko, R. Gomperts, B. Mennucci, H. P. Hratchian, 
 J. V. Ortiz, A. F. Izmaylov, J. L. Sonnenberg, D. Williams-Young, 
 F. Ding, F. Lipparini, F. Egidi, J. Goings, B. Peng, A. Petrone, 
 T. Henderson, D. Ranasinghe, V. G. Zakrzewski, J. Gao, N. Rega, 
 G. Zheng, W. Liang, M. Hada, M. Ehara, K. Toyota, R. Fukuda, 
 J. Hasegawa, M. Ishida, T. Nakajima, Y. Honda, O. Kitao, H. Nakai, 
 T. Vreven, K. Throssell, J. A. Montgomery, Jr., J. E. Peralta, 
 F. Ogliaro, M. J. Bearpark, J. J. Heyd, E. N. Brothers, K. N. Kudin, 
 V. N. Staroverov, T. A. Keith, R. Kobayashi, J. Normand, 
 K. Raghavachari, A. P. Rendell, J. C. Burant, S. S. Iyengar, 
 J. Tomasi, M. Cossi, J. M. Millam, M. Klene, C. Adamo, R. Cammi, 
 J. W. Ochterski, R. L. Martin, K. Morokuma, O. Farkas, 
 J. B. Foresman, and D. J. Fox, Gaussian, Inc., Wallingford CT, 2019.
 
 ******************************************
 Gaussian 16:  ES64L-G16RevC.02  7-Dec-2021
                31-Aug-2024 
 ******************************************
 %mem=16GB
 %CPU=0-71
 SetSPE:  set environment variable "OMP_PROC_BIND" = "true"
 SetSPE:  set environment variable "OMP_PLACES" = "{0},{1},{2},{3},{4},{5},{6},{7},{8},{9},{10},{11},{12},{13},{14},{15},{16},{17},{18},{19},{20},{21},{22},{23},{24},{25},{26},{27},{28},{29},{30},{31},{32},{33},{34},{35},{36},{37},{38},{39},{40},{41},{42},{43},{44},{45},{46},{47},{48},{49},{50},{51},{52},{53},{54},{55},{56},{57},{58},{59},{60},{61},{62},{63},{64},{65},{66},{67},{68},{69},{70},{71}"
 Will use up to   72 processors via shared memory.
 %gpucpu=0,1,2,3=0,1,2,3
 Will use    4 GPUs:
 Thread  CPU   GPU
      0    0     0
      1    1     1
      2    2     2
      3    3     3
      4    4    -1
      5    5    -1
      6    6    -1
      7    7    -1
      8    8    -1
      9    9    -1
     10   10    -1
     11   11    -1
     12   12    -1
     13   13    -1
     14   14    -1
     15   15    -1
     16   16    -1
     17   17    -1
     18   18    -1
     19   19    -1
     20   20    -1
     21   21    -1
     22   22    -1
     23   23    -1
     24   24    -1
     25   25    -1
     26   26    -1
     27   27    -1
     28   28    -1
     29   29    -1
     30   30    -1
     31   31    -1
     32   32    -1
     33   33    -1
     34   34    -1
     35   35    -1
     36   36    -1
     37   37    -1
     38   38    -1
     39   39    -1
     40   40    -1
     41   41    -1
     42   42    -1
     43   43    -1
     44   44    -1
     45   45    -1
     46   46    -1
     47   47    -1
     48   48    -1
     49   49    -1
     50   50    -1
     51   51    -1
     52   52    -1
     53   53    -1
     54   54    -1
     55   55    -1
     56   56    -1
     57   57    -1
     58   58    -1
     59   59    -1
     60   60    -1
     61   61    -1
     62   62    -1
     63   63    -1
     64   64    -1
     65   65    -1
     66   66    -1
     67   67    -1
     68   68    -1
     69   69    -1
     70   70    -1
     71   71    -1
 SetGPE:  set environment variable "OMP_PROC_BIND" = "true"
 SetGPE:  set environment variable "OMP_PLACES" = "{0},{1},{2},{3},{4},{5},{6},{7},{8},{9},{10},{11},{12},{13},{14},{15},{16},{17},{18},{19},{20},{21},{22},{23},{24},{25},{26},{27},{28},{29},{30},{31},{32},{33},{34},{35},{36},{37},{38},{39},{40},{41},{42},{43},{44},{45},{46},{47},{48},{49},{50},{51},{52},{53},{54},{55},{56},{57},{58},{59},{60},{61},{62},{63},{64},{65},{66},{67},{68},{69},{70},{71}"
 %chk=2q9f_II_O.chk
 Properties for Device   0
 Minimum vector length:                              32
 Maximum vector length:                            1024
 Number of SMPs:                                    108
 Maximum number of threads per SMP:                2048
 Number of ASync Engines:                             5
 Memory:                                           9207742464
 Properties for Device   1
 Minimum vector length:                              32
 Maximum vector length:                            1024
 Number of SMPs:                                    108
 Maximum number of threads per SMP:                2048
 Number of ASync Engines:                             5
 Memory:                                           9207742464
 Properties for Device   2
 Minimum vector length:                              32
 Maximum vector length:                            1024
 Number of SMPs:                                    108
 Maximum number of threads per SMP:                2048
 Number of ASync Engines:                             5
 Memory:                                           9207742464
 Properties for Device   3
 Minimum vector length:                              32
 Maximum vector length:                            1024
 Number of SMPs:                                    108
 Maximum number of threads per SMP:                2048
 Number of ASync Engines:                             5
 Memory:                                           9207742464
   8286968217 words of memory will be used on each GPU.
 ------------------------------------------
 # polar def2tzvp apfd int=(grid=ultrafine)
 ------------------------------------------
 1/38=1,172=1/1;
 2/12=2,17=6,18=5,40=1/2;
 3/5=44,7=101,11=2,25=1,30=1,74=-44,75=-5/1,2,3;
 4//1;
 5/5=2,38=5,98=1/2;
 8/6=4,10=90,11=11/1;
 10/6=1,13=10/2;
 6/7=2,8=2,9=2,10=2,28=1/1;
 99/5=1,9=1/99;
 ---------
 2q9f_II_S
 ---------
 Symbolic Z-matrix:
 Charge =  0 Multiplicity = 1
 Fe                    34.04091   0.34101   7.40046 
 N                     32.24384  -0.36936   7.85066 
 N                     34.86977  -1.42719   7.83211 
 N                     35.85852   1.09943   7.05692 
 N                     33.27447   2.18092   7.30383 
 C                     31.12817   0.33892   8.15 
 C                     30.06629  -0.53157   8.59703 
 C                     30.53965  -1.79785   8.47418 
 C                     31.92618  -1.68634   8.05443 
 C                     34.22068  -2.54728   8.26084 
 C                     35.14361  -3.6343    8.4411 
 C                     36.38227  -3.14758   8.1081 
 C                     36.18036  -1.76644   7.7254 
 C                     36.99946   0.38007   6.86749 
 C                     38.05491   1.21818   6.35494 
 C                     37.53361   2.48076   6.2708 
 C                     36.15787   2.37706   6.72006 
 C                     33.9411   3.34687   7.10418 
 C                     33.02213   4.46267   7.04575 
 C                     31.77734   3.93915   7.20155 
 C                     31.9602   2.51883   7.40524 
 C                     30.947    1.67128   7.81238 
 H                     29.96759   2.09811   7.9643 
 C                     32.84482  -2.66609   8.3834 
 H                     32.45643  -3.63189   8.66783 
 C                     37.17004  -0.94675   7.21839 
 H                     38.1485  -1.37859   7.07796 
 C                     35.28165   3.44389   6.78104 
 H                     35.66691   4.42437   6.548 
 C                     29.85166  -3.08642   8.77212 
 H                     28.77241  -2.9525    8.77638 
 H                     30.15079  -3.46808   9.74981 
 H                     30.10345  -3.83628   8.02384 
 C                     28.72256  -0.06514   9.04049 
 H                     28.1489   0.3218    8.19673 
 H                     28.82221   0.73288   9.77503 
 H                     28.16223  -0.88056   9.49106 
 C                     34.78658  -4.98036   8.96733 
 H                     34.42259  -5.62703   8.16719 
 H                     34.00506  -4.90507   9.72205 
 H                     35.6605  -5.44934   9.41516 
 C                     37.66684  -3.81047   8.13322 
 H                     38.51279  -3.17354   8.36455 
 C                     37.87814  -5.10095   7.89604 
 H                     37.08455  -5.77083   7.61524 
 H                     38.86603  -5.52735   7.94881 
 C                     39.44581   0.7714    6.0725 
 H                     39.50212   0.27404   5.10317 
 H                     39.78839   0.06844   6.83038 
 H                     40.11836   1.62655   6.06189 
 C                     38.17069   3.70712   5.84335 
 H                     37.85591   4.60508   6.36252 
 C                     39.08089   3.8038    4.88016 
 H                     39.39205   2.95242   4.30037 
 H                     39.52696   4.74897   4.61864 
 C                     33.43238   5.87849   6.82997 
 H                     33.87258   6.00355   5.83992 
 H                     34.17432   6.17841   7.5695 
 H                     32.57754   6.54528   6.91145 
 C                     30.4567   4.62897   7.21334 
 H                     30.56323   5.6698    6.91801 
 H                     30.01624   4.5997    8.21083 
 H                     29.76543   4.14454   6.52423 
 O                     34.317    0.646     9.615 
 H                     34.588   -0.24      9.854 
 H                     34.376    1.37      10.128 
 C                     32.21154   0.54691   4.58882 
 H                     31.89065   0.06633   3.66977 
 H                     32.42664   1.59523   4.40906 
 H                     31.46296   0.45408   5.36823 
 S                     33.77487  -0.21518   5.15204 
 H                     33.25312  -1.43373   5.33376 
 
 Stoichiometry    C31H34FeN4OS
 Framework group  C1[X(C31H34FeN4OS)]
 Deg. of freedom   210
 Full point group                 C1      NOp   1
 Largest Abelian subgroup         C1      NOp   1
 Largest concise Abelian subgroup C1      NOp   1
                         Standard orientation:                         
 ---------------------------------------------------------------------
 Center     Atomic      Atomic             Coordinates (Angstroms)
 Number     Number       Type             X           Y           Z
 ---------------------------------------------------------------------
      1         26           0        0.067868   -0.136010   -0.041945
      2          7           0       -0.149737   -2.106462    0.040124
      3          7           0       -1.912803    0.096280   -0.193100
      4          7           0        0.305995    1.838993   -0.240907
      5          7           0        2.039140   -0.375518   -0.238842
      6          6           0        0.791734   -3.050971   -0.199687
      7          6           0        0.208007   -4.371630   -0.217026
      8          6           0       -1.099730   -4.210350    0.109208
      9          6           0       -1.329471   -2.779807    0.218132
     10          6           0       -2.849283   -0.894845   -0.212729
     11          6           0       -4.173643   -0.343713   -0.303463
     12          6           0       -4.022434    1.019373   -0.337726
     13          6           0       -2.598403    1.266504   -0.261291
     14          6           0       -0.672494    2.777085   -0.108009
     15          6           0       -0.105882    4.100034   -0.019374
     16          6           0        1.248585    3.944457   -0.138382
     17          6           0        1.477341    2.518610   -0.279326
     18          6           0        2.973605    0.586340   -0.451639
     19          6           0        4.302599    0.015701   -0.484543
     20          6           0        4.149520   -1.318111   -0.271591
     21          6           0        2.725485   -1.548200   -0.164580
     22          6           0        2.155959   -2.807676   -0.158627
     23          1           0        2.818590   -3.657373   -0.217422
     24          6           0       -2.577701   -2.243231   -0.038836
     25          1           0       -3.420688   -2.916194   -0.007240
     26          6           0       -2.030720    2.521934   -0.161021
     27          1           0       -2.699778    3.366639   -0.111807
     28          6           0        2.726918    1.946194   -0.422553
     29          1           0        3.575655    2.607069   -0.505986
     30          6           0       -2.160287   -5.246955    0.261448
     31          1           0       -1.717802   -6.225709    0.431670
     32          1           0       -2.777437   -5.304374   -0.636792
     33          1           0       -2.808491   -5.010034    1.103659
     34          6           0        0.964139   -5.625302   -0.493412
     35          1           0        1.643627   -5.857023    0.328380
     36          1           0        1.556642   -5.517786   -1.400989
     37          1           0        0.284058   -6.463528   -0.622862
     38          6           0       -5.425364   -1.141378   -0.418267
     39          1           0       -5.786470   -1.442773    0.566449
     40          1           0       -5.256425   -2.042555   -1.005957
     41          1           0       -6.201190   -0.550160   -0.900754
     42          6           0       -5.027510    2.052520   -0.449991
     43          1           0       -4.718090    2.944448   -0.982472
     44          6           0       -6.260985    1.990845    0.040898
     45          1           0       -6.608149    1.152130    0.618310
     46          1           0       -6.961408    2.797645   -0.097038
     47          6           0       -0.885501    5.362660    0.089966
     48          1           0       -1.200384    5.533865    1.120340
     49          1           0       -1.779025    5.321322   -0.531160
     50          1           0       -0.277817    6.206287   -0.230546
     51          6           0        2.288242    4.950265   -0.142816
     52          1           0        3.134100    4.747931   -0.789756
     53          6           0        2.279425    6.066300    0.578248
     54          1           0        1.488978    6.291828    1.272625
     55          1           0        3.082071    6.782494    0.518704
     56          6           0        5.550087    0.803158   -0.692157
     57          1           0        5.710840    1.492718    0.137475
     58          1           0        5.484755    1.387995   -1.609239
     59          1           0        6.413866    0.146904   -0.764378
     60          6           0        5.184071   -2.387575   -0.193970
     61          1           0        6.182353   -1.957339   -0.179140
     62          1           0        5.112112   -3.055578   -1.053298
     63          1           0        5.052312   -2.983058    0.709040
     64          8           0       -0.112965   -0.353325   -2.276560
     65          1           0       -1.066949   -0.377744   -2.346394
     66          1           0        0.460575   -0.247010   -2.947808
     67          6           0        1.289729   -1.098651    2.937095
     68          1           0        1.092782   -1.289081    3.987584
     69          1           0        2.242973   -0.593657    2.819330
     70          1           0        1.286695   -2.016638    2.359361
     71         16           0        0.015603    0.037137    2.282453
     72          1           0       -1.007778   -0.797564    2.497127
 ---------------------------------------------------------------------
 Rotational constants (GHZ):           0.1086885           0.1076259           0.0599483
 Standard basis: def2TZVP (5D, 7F)
 There are  1594 symmetry adapted cartesian basis functions of A   symmetry.
 There are  1402 symmetry adapted basis functions of A   symmetry.
  1402 basis functions,  2279 primitive gaussians,  1594 cartesian basis functions
   149 alpha electrons      149 beta electrons
       nuclear repulsion energy      5418.3330816532 Hartrees.
 NAtoms=   72 NActive=   72 NUniq=   72 SFac= 1.00D+00 NAtFMM=   60 NAOKFM=T Big=T
 Integral buffers will be    131072 words long.
 Raffenetti 2 integral format.
 Two-electron integral symmetry is turned on.
 R6APFD:  NTU= -4 IXU= 1 FactS= 1.050
 Nuclear repulsion after empirical dispersion term =     5418.1808388450 Hartrees.
 One-electron integrals computed using PRISM.
   1 Symmetry operations used in ECPInt.
 ECPInt:  NShTT=  157080 NPrTT=  488567 LenC2=  124795 LenP2D=  258889.
 LDataN:  DoStor=T MaxTD1= 6 Len=  172
 Number of processors reduced to  25 by ecpmxn.
 NBasis=  1402 RedAO= T EigKep=  4.27D-06  NBF=  1402
 NBsUse=  1402 1.00D-06 EigRej= -1.00D+00 NBFU=  1402
 ExpMin= 4.20D-02 ExpMax= 3.01D+05 ExpMxC= 2.91D+03 IAcc=3 IRadAn=         5 AccDes= 0.00D+00
 Harris functional with IExCor= 3731 and IRadAn=       5 diagonalized for initial guess.
 HarFok:  IExCor= 3731 AccDes= 0.00D+00 IRadAn=         5 IDoV= 1 UseB2=F ITyADJ=14
 ICtDFT=  3500011 ScaDFX=  1.000000  1.000000  1.000000  1.000000
 FoFCou: FMM=F IPFlag=           0 FMFlag=      100000 FMFlg1=        2001
         NFxFlg=           0 DoJE=T BraDBF=F KetDBF=T FulRan=T
         wScrn=  0.000000 ICntrl=       500 IOpCl=  0 I1Cent=   200000004 NGrid=           0
         NMat0=    1 NMatS0=      1 NMatT0=    0 NMatD0=    1 NMtDS0=    0 NMtDT0=    0
 Petite list used in FoFCou.
 Requested convergence on RMS density matrix=1.00D-08 within 128 cycles.
 Requested convergence on MAX density matrix=1.00D-06.
 Requested convergence on             energy=1.00D-06.
 No special actions if energy rises.
 EnCoef did     2 forward-backward iterations
 EnCoef did   100 forward-backward iterations
 EnCoef did   100 forward-backward iterations
 EnCoef did   100 forward-backward iterations
 EnCoef did     5 forward-backward iterations
 EnCoef did    11 forward-backward iterations
 EnCoef did     5 forward-backward iterations
 EnCoef did     6 forward-backward iterations
 Restarting incremental Fock formation.
 SCF Done:  E(RAPFD) =  -3157.18127629     A.U. after   28 cycles
            NFock= 28  Conv=0.43D-08     -V/T= 2.0031
 DoSCS=F DFT=T ScalE2(SS,OS)=  1.000000  1.000000
 Range of M.O.s used for correlation:     1  1402
 NBasis=  1402 NAE=   149 NBE=   149 NFC=     0 NFV=     0
 NROrb=   1402 NOA=   149 NOB=   149 NVA=  1253 NVB=  1253

 **** Warning!!: The largest alpha MO coefficient is  0.44042519D+02

          Differentiating once with respect to electric field.
                with respect to dipole field.
          Electric field/nuclear overlap derivatives assumed to be zero.
          There are     3 degrees of freedom in the 1st order CPHF.  IDoFFX=0 NUNeed=     3.
      3 vectors produced by pass  0 Test12= 6.22D-12 3.33D-08 XBig12= 1.83D+03 2.73D+01.
 AX will form     3 AO Fock derivatives at one time.
      3 vectors produced by pass  1 Test12= 6.22D-12 3.33D-08 XBig12= 1.18D+03 8.08D+00.
      3 vectors produced by pass  2 Test12= 6.22D-12 3.33D-08 XBig12= 4.65D+02 4.73D+00.
      3 vectors produced by pass  3 Test12= 6.22D-12 3.33D-08 XBig12= 2.10D+02 2.64D+00.
      3 vectors produced by pass  4 Test12= 6.22D-12 3.33D-08 XBig12= 9.89D+01 1.84D+00.
      3 vectors produced by pass  5 Test12= 6.22D-12 3.33D-08 XBig12= 4.31D+01 1.38D+00.
      3 vectors produced by pass  6 Test12= 6.22D-12 3.33D-08 XBig12= 2.50D+01 1.23D+00.
      3 vectors produced by pass  7 Test12= 6.22D-12 3.33D-08 XBig12= 1.85D+01 9.65D-01.
      3 vectors produced by pass  8 Test12= 6.22D-12 3.33D-08 XBig12= 8.83D+00 7.17D-01.
      3 vectors produced by pass  9 Test12= 6.22D-12 3.33D-08 XBig12= 3.77D+00 4.32D-01.
      3 vectors produced by pass 10 Test12= 6.22D-12 3.33D-08 XBig12= 1.42D+00 3.13D-01.
      3 vectors produced by pass 11 Test12= 6.22D-12 3.33D-08 XBig12= 6.27D-01 2.20D-01.
      3 vectors produced by pass 12 Test12= 6.22D-12 3.33D-08 XBig12= 2.27D-01 9.44D-02.
      3 vectors produced by pass 13 Test12= 6.22D-12 3.33D-08 XBig12= 9.26D-02 8.30D-02.
      3 vectors produced by pass 14 Test12= 6.22D-12 3.33D-08 XBig12= 3.37D-02 5.14D-02.
      3 vectors produced by pass 15 Test12= 6.22D-12 3.33D-08 XBig12= 1.50D-02 3.13D-02.
      3 vectors produced by pass 16 Test12= 6.22D-12 3.33D-08 XBig12= 5.10D-03 1.09D-02.
      3 vectors produced by pass 17 Test12= 6.22D-12 3.33D-08 XBig12= 1.01D-03 4.22D-03.
      3 vectors produced by pass 18 Test12= 6.22D-12 3.33D-08 XBig12= 1.30D-04 1.91D-03.
      3 vectors produced by pass 19 Test12= 6.22D-12 3.33D-08 XBig12= 2.61D-05 9.62D-04.
      3 vectors produced by pass 20 Test12= 6.22D-12 3.33D-08 XBig12= 6.47D-06 5.33D-04.
      3 vectors produced by pass 21 Test12= 6.22D-12 3.33D-08 XBig12= 1.26D-06 2.93D-04.
      3 vectors produced by pass 22 Test12= 6.22D-12 3.33D-08 XBig12= 3.10D-07 1.51D-04.
      3 vectors produced by pass 23 Test12= 6.22D-12 3.33D-08 XBig12= 4.51D-08 4.51D-05.
      3 vectors produced by pass 24 Test12= 6.22D-12 3.33D-08 XBig12= 1.07D-08 1.73D-05.
      3 vectors produced by pass 25 Test12= 6.22D-12 3.33D-08 XBig12= 1.64D-09 5.94D-06.
      3 vectors produced by pass 26 Test12= 6.22D-12 3.33D-08 XBig12= 2.10D-10 1.90D-06.
      3 vectors produced by pass 27 Test12= 6.22D-12 3.33D-08 XBig12= 2.99D-11 6.90D-07.
      3 vectors produced by pass 28 Test12= 6.22D-12 3.33D-08 XBig12= 4.62D-12 2.68D-07.
      3 vectors produced by pass 29 Test12= 6.22D-12 3.33D-08 XBig12= 7.35D-13 1.11D-07.
      1 vectors produced by pass 30 Test12= 6.22D-12 3.33D-08 XBig12= 8.82D-14 5.49D-08.
 InvSVY:  IOpt=1 It=  1 EMax= 1.42D-14
 Solved reduced A of dimension    91 with     3 vectors.
 Isotropic polarizability for W=    0.000000      549.04 Bohr**3.
 End of Minotr F.D. properties file   721 does not exist.
 End of Minotr F.D. properties file   722 does not exist.
 End of Minotr F.D. properties file   788 does not exist.

 **********************************************************************

            Population analysis using the SCF Density.

 **********************************************************************

 Orbital symmetries:
       Occupied  (A) (A) (A) (A) (A) (A) (A) (A) (A) (A) (A) (A)
                 (A) (A) (A) (A) (A) (A) (A) (A) (A) (A) (A) (A)
                 (A) (A) (A) (A) (A) (A) (A) (A) (A) (A) (A) (A)
                 (A) (A) (A) (A) (A) (A) (A) (A) (A) (A) (A) (A)
                 (A) (A) (A) (A) (A) (A) (A) (A) (A) (A) (A) (A)
                 (A) (A) (A) (A) (A) (A) (A) (A) (A) (A) (A) (A)
                 (A) (A) (A) (A) (A) (A) (A) (A) (A) (A) (A) (A)
                 (A) (A) (A) (A) (A) (A) (A) (A) (A) (A) (A) (A)
                 (A) (A) (A) (A) (A) (A) (A) (A) (A) (A) (A) (A)
                 (A) (A) (A) (A) (A) (A) (A) (A) (A) (A) (A) (A)
                 (A) (A) (A) (A) (A) (A) (A) (A) (A) (A) (A) (A)
                 (A) (A) (A) (A) (A) (A) (A) (A) (A) (A) (A) (A)
                 (A) (A) (A) (A) (A)
       Virtual   (A) (A) (A) (A) (A) (A) (A) (A) (A) (A) (A) (A)
                 (A) (A) (A) (A) (A) (A) (A) (A) (A) (A) (A) (A)
                 (A) (A) (A) (A) (A) (A) (A) (A) (A) (A) (A) (A)
                 (A) (A) (A) (A) (A) (A) (A) (A) (A) (A) (A) (A)
                 (A) (A) (A) (A) (A) (A) (A) (A) (A) (A) (A) (A)
                 (A) (A) (A) (A) (A) (A) (A) (A) (A) (A) (A) (A)
                 (A) (A) (A) (A) (A) (A) (A) (A) (A) (A) (A) (A)
                 (A) (A) (A) (A) (A) (A) (A) (A) (A) (A) (A) (A)
                 (A) (A) (A) (A) (A) (A) (A) (A) (A) (A) (A) (A)
                 (A) (A) (A) (A) (A) (A) (A) (A) (A) (A) (A) (A)
                 (A) (A) (A) (A) (A) (A) (A) (A) (A) (A) (A) (A)
                 (A) (A) (A) (A) (A) (A) (A) (A) (A) (A) (A) (A)
                 (A) (A) (A) (A) (A) (A) (A) (A) (A) (A) (A) (A)
                 (A) (A) (A) (A) (A) (A) (A) (A) (A) (A) (A) (A)
                 (A) (A) (A) (A) (A) (A) (A) (A) (A) (A) (A) (A)
                 (A) (A) (A) (A) (A) (A) (A) (A) (A) (A) (A) (A)
                 (A) (A) (A) (A) (A) (A) (A) (A) (A) (A) (A) (A)
                 (A) (A) (A) (A) (A) (A) (A) (A) (A) (A) (A) (A)
                 (A) (A) (A) (A) (A) (A) (A) (A) (A) (A) (A) (A)
                 (A) (A) (A) (A) (A) (A) (A) (A) (A) (A) (A) (A)
                 (A) (A) (A) (A) (A) (A) (A) (A) (A) (A) (A) (A)
                 (A) (A) (A) (A) (A) (A) (A) (A) (A) (A) (A) (A)
                 (A) (A) (A) (A) (A) (A) (A) (A) (A) (A) (A) (A)
                 (A) (A) (A) (A) (A) (A) (A) (A) (A) (A) (A) (A)
                 (A) (A) (A) (A) (A) (A) (A) (A) (A) (A) (A) (A)
                 (A) (A) (A) (A) (A) (A) (A) (A) (A) (A) (A) (A)
                 (A) (A) (A) (A) (A) (A) (A) (A) (A) (A) (A) (A)
                 (A) (A) (A) (A) (A) (A) (A) (A) (A) (A) (A) (A)
                 (A) (A) (A) (A) (A) (A) (A) (A) (A) (A) (A) (A)
                 (A) (A) (A) (A) (A) (A) (A) (A) (A) (A) (A) (A)
                 (A) (A) (A) (A) (A) (A) (A) (A) (A) (A) (A) (A)
                 (A) (A) (A) (A) (A) (A) (A) (A) (A) (A) (A) (A)
                 (A) (A) (A) (A) (A) (A) (A) (A) (A) (A) (A) (A)
                 (A) (A) (A) (A) (A) (A) (A) (A) (A) (A) (A) (A)
                 (A) (A) (A) (A) (A) (A) (A) (A) (A) (A) (A) (A)
                 (A) (A) (A) (A) (A) (A) (A) (A) (A) (A) (A) (A)
                 (A) (A) (A) (A) (A) (A) (A) (A) (A) (A) (A) (A)
                 (A) (A) (A) (A) (A) (A) (A) (A) (A) (A) (A) (A)
                 (A) (A) (A) (A) (A) (A) (A) (A) (A) (A) (A) (A)
                 (A) (A) (A) (A) (A) (A) (A) (A) (A) (A) (A) (A)
                 (A) (A) (A) (A) (A) (A) (A) (A) (A) (A) (A) (A)
                 (A) (A) (A) (A) (A) (A) (A) (A) (A) (A) (A) (A)
                 (A) (A) (A) (A) (A) (A) (A) (A) (A) (A) (A) (A)
                 (A) (A) (A) (A) (A) (A) (A) (A) (A) (A) (A) (A)
                 (A) (A) (A) (A) (A) (A) (A) (A) (A) (A) (A) (A)
                 (A) (A) (A) (A) (A) (A) (A) (A) (A) (A) (A) (A)
                 (A) (A) (A) (A) (A) (A) (A) (A) (A) (A) (A) (A)
                 (A) (A) (A) (A) (A) (A) (A) (A) (A) (A) (A) (A)
                 (A) (A) (A) (A) (A) (A) (A) (A) (A) (A) (A) (A)
                 (A) (A) (A) (A) (A) (A) (A) (A) (A) (A) (A) (A)
                 (A) (A) (A) (A) (A) (A) (A) (A) (A) (A) (A) (A)
                 (A) (A) (A) (A) (A) (A) (A) (A) (A) (A) (A) (A)
                 (A) (A) (A) (A) (A) (A) (A) (A) (A) (A) (A) (A)
                 (A) (A) (A) (A) (A) (A) (A) (A) (A) (A) (A) (A)
                 (A) (A) (A) (A) (A) (A) (A) (A) (A) (A) (A) (A)
                 (A) (A) (A) (A) (A) (A) (A) (A) (A) (A) (A) (A)
                 (A) (A) (A) (A) (A) (A) (A) (A) (A) (A) (A) (A)
                 (A) (A) (A) (A) (A) (A) (A) (A) (A) (A) (A) (A)
                 (A) (A) (A) (A) (A) (A) (A) (A) (A) (A) (A) (A)
                 (A) (A) (A) (A) (A) (A) (A) (A) (A) (A) (A) (A)
                 (A) (A) (A) (A) (A) (A) (A) (A) (A) (A) (A) (A)
                 (A) (A) (A) (A) (A) (A) (A) (A) (A) (A) (A) (A)
                 (A) (A) (A) (A) (A) (A) (A) (A) (A) (A) (A) (A)
                 (A) (A) (A) (A) (A) (A) (A) (A) (A) (A) (A) (A)
                 (A) (A) (A) (A) (A) (A) (A) (A) (A) (A) (A) (A)
                 (A) (A) (A) (A) (A) (A) (A) (A) (A) (A) (A) (A)
                 (A) (A) (A) (A) (A) (A) (A) (A) (A) (A) (A) (A)
                 (A) (A) (A) (A) (A) (A) (A) (A) (A) (A) (A) (A)
                 (A) (A) (A) (A) (A) (A) (A) (A) (A) (A) (A) (A)
                 (A) (A) (A) (A) (A) (A) (A) (A) (A) (A) (A) (A)
                 (A) (A) (A) (A) (A) (A) (A) (A) (A) (A) (A) (A)
                 (A) (A) (A) (A) (A) (A) (A) (A) (A) (A) (A) (A)
                 (A) (A) (A) (A) (A) (A) (A) (A) (A) (A) (A) (A)
                 (A) (A) (A) (A) (A) (A) (A) (A) (A) (A) (A) (A)
                 (A) (A) (A) (A) (A) (A) (A) (A) (A) (A) (A) (A)
                 (A) (A) (A) (A) (A) (A) (A) (A) (A) (A) (A) (A)
                 (A) (A) (A) (A) (A) (A) (A) (A) (A) (A) (A) (A)
                 (A) (A) (A) (A) (A) (A) (A) (A) (A) (A) (A) (A)
                 (A) (A) (A) (A) (A) (A) (A) (A) (A) (A) (A) (A)
                 (A) (A) (A) (A) (A) (A) (A) (A) (A) (A) (A) (A)
                 (A) (A) (A) (A) (A) (A) (A) (A) (A) (A) (A) (A)
                 (A) (A) (A) (A) (A) (A) (A) (A) (A) (A) (A) (A)
                 (A) (A) (A) (A) (A) (A) (A) (A) (A) (A) (A) (A)
                 (A) (A) (A) (A) (A) (A) (A) (A) (A) (A) (A) (A)
                 (A) (A) (A) (A) (A) (A) (A) (A) (A) (A) (A) (A)
                 (A) (A) (A) (A) (A) (A) (A) (A) (A) (A) (A) (A)
                 (A) (A) (A) (A) (A) (A) (A) (A) (A) (A) (A) (A)
                 (A) (A) (A) (A) (A) (A) (A) (A) (A) (A) (A) (A)
                 (A) (A) (A) (A) (A) (A) (A) (A) (A) (A) (A) (A)
                 (A) (A) (A) (A) (A) (A) (A) (A) (A) (A) (A) (A)
                 (A) (A) (A) (A) (A) (A) (A) (A) (A) (A) (A) (A)
                 (A) (A) (A) (A) (A) (A) (A) (A) (A) (A) (A) (A)
                 (A) (A) (A) (A) (A) (A) (A) (A) (A) (A) (A) (A)
                 (A) (A) (A) (A) (A) (A) (A) (A) (A) (A) (A) (A)
                 (A) (A) (A) (A) (A) (A) (A) (A) (A) (A) (A) (A)
                 (A) (A) (A) (A) (A) (A) (A) (A) (A) (A) (A) (A)
                 (A) (A) (A) (A) (A) (A) (A) (A) (A) (A) (A) (A)
                 (A) (A) (A) (A) (A) (A) (A) (A) (A) (A) (A) (A)
                 (A) (A) (A) (A) (A) (A) (A) (A) (A) (A) (A) (A)
                 (A) (A) (A) (A) (A) (A) (A) (A) (A) (A) (A) (A)
                 (A) (A) (A) (A) (A) (A) (A) (A) (A) (A) (A) (A)
                 (A) (A) (A) (A) (A) (A) (A) (A) (A) (A) (A) (A)
                 (A) (A) (A) (A) (A) (A) (A) (A) (A) (A) (A) (A)
                 (A) (A) (A) (A) (A) (A) (A) (A) (A) (A) (A) (A)
                 (A) (A) (A) (A) (A)
 The electronic state is 1-A.
 Alpha  occ. eigenvalues -- -256.18922 -88.96474 -30.03893 -25.88077 -25.87700
 Alpha  occ. eigenvalues --  -25.87577 -19.17463 -14.34415 -14.33853 -14.33801
 Alpha  occ. eigenvalues --  -14.33695 -10.22000 -10.21598 -10.21570 -10.21404
 Alpha  occ. eigenvalues --  -10.21381 -10.21332 -10.21319 -10.21283 -10.21245
 Alpha  occ. eigenvalues --  -10.19952 -10.19771 -10.19643 -10.19329 -10.19312
 Alpha  occ. eigenvalues --  -10.19191 -10.19152 -10.19108 -10.19091 -10.19086
 Alpha  occ. eigenvalues --  -10.19066 -10.19056 -10.18988 -10.18952 -10.18910
 Alpha  occ. eigenvalues --  -10.18880 -10.18831 -10.18819 -10.18702 -10.18540
 Alpha  occ. eigenvalues --  -10.18479 -10.18325  -7.99228  -5.93794  -5.93512
 Alpha  occ. eigenvalues --   -5.93019  -3.41508  -2.18240  -2.17398  -2.17191
 Alpha  occ. eigenvalues --   -1.05371  -0.97589  -0.96724  -0.96431  -0.95566
 Alpha  occ. eigenvalues --   -0.82788  -0.82344  -0.81936  -0.81288  -0.80903
 Alpha  occ. eigenvalues --   -0.80345  -0.80120  -0.79999  -0.77155  -0.76068
 Alpha  occ. eigenvalues --   -0.74715  -0.74403  -0.73599  -0.71439  -0.70508
 Alpha  occ. eigenvalues --   -0.68692  -0.68375  -0.68344  -0.66486  -0.64634
 Alpha  occ. eigenvalues --   -0.64534  -0.61293  -0.60853  -0.60280  -0.58286
 Alpha  occ. eigenvalues --   -0.57194  -0.54953  -0.54156  -0.53736  -0.53087
 Alpha  occ. eigenvalues --   -0.51606  -0.51537  -0.51043  -0.49183  -0.48270
 Alpha  occ. eigenvalues --   -0.47822  -0.46651  -0.45946  -0.45418  -0.45035
 Alpha  occ. eigenvalues --   -0.44847  -0.44341  -0.44203  -0.44027  -0.43764
 Alpha  occ. eigenvalues --   -0.43677  -0.43482  -0.43165  -0.42737  -0.42200
 Alpha  occ. eigenvalues --   -0.41837  -0.41738  -0.41603  -0.41206  -0.40724
 Alpha  occ. eigenvalues --   -0.40627  -0.40327  -0.40162  -0.39861  -0.39622
 Alpha  occ. eigenvalues --   -0.39244  -0.39046  -0.38741  -0.38437  -0.37935
 Alpha  occ. eigenvalues --   -0.37557  -0.37261  -0.36710  -0.36453  -0.36254
 Alpha  occ. eigenvalues --   -0.35888  -0.35055  -0.34873  -0.34460  -0.34240
 Alpha  occ. eigenvalues --   -0.34101  -0.32435  -0.31491  -0.30861  -0.30533
 Alpha  occ. eigenvalues --   -0.29855  -0.29356  -0.28459  -0.27232  -0.27015
 Alpha  occ. eigenvalues --   -0.24795  -0.24311  -0.23205  -0.22582  -0.20376
 Alpha  occ. eigenvalues --   -0.19207  -0.18843  -0.18782  -0.18385
 Alpha virt. eigenvalues --   -0.07183  -0.06942  -0.02472  -0.00984   0.00180
 Alpha virt. eigenvalues --    0.01219   0.01876   0.02885   0.03900   0.04223
 Alpha virt. eigenvalues --    0.04622   0.04967   0.05619   0.05806   0.06010
 Alpha virt. eigenvalues --    0.06714   0.06915   0.07672   0.07981   0.08231
 Alpha virt. eigenvalues --    0.08639   0.09243   0.09549   0.09809   0.10268
 Alpha virt. eigenvalues --    0.10625   0.10676   0.10918   0.11284   0.11390
 Alpha virt. eigenvalues --    0.11735   0.11909   0.12124   0.12378   0.12785
 Alpha virt. eigenvalues --    0.12912   0.13314   0.13510   0.13820   0.14054
 Alpha virt. eigenvalues --    0.14110   0.14279   0.14675   0.14842   0.15021
 Alpha virt. eigenvalues --    0.15333   0.15449   0.15727   0.15851   0.15995
 Alpha virt. eigenvalues --    0.16498   0.16682   0.17011   0.17058   0.17317
 Alpha virt. eigenvalues --    0.17537   0.17812   0.18201   0.18460   0.18747
 Alpha virt. eigenvalues --    0.18930   0.19456   0.20351   0.20654   0.20736
 Alpha virt. eigenvalues --    0.20956   0.21164   0.21319   0.21861   0.22084
 Alpha virt. eigenvalues --    0.22268   0.22847   0.23052   0.23387   0.23880
 Alpha virt. eigenvalues --    0.24310   0.24381   0.24571   0.25271   0.25472
 Alpha virt. eigenvalues --    0.25549   0.25837   0.25985   0.26144   0.26557
 Alpha virt. eigenvalues --    0.26664   0.27345   0.27367   0.27571   0.28239
 Alpha virt. eigenvalues --    0.28566   0.28873   0.28932   0.29082   0.29295
 Alpha virt. eigenvalues --    0.29605   0.29798   0.30005   0.30215   0.30519
 Alpha virt. eigenvalues --    0.31080   0.31140   0.31421   0.31867   0.32003
 Alpha virt. eigenvalues --    0.32190   0.32468   0.33220   0.33475   0.33673
 Alpha virt. eigenvalues --    0.33931   0.34404   0.34710   0.34940   0.35448
 Alpha virt. eigenvalues --    0.35487   0.35805   0.36247   0.36310   0.36559
 Alpha virt. eigenvalues --    0.36901   0.37301   0.37477   0.37842   0.38068
 Alpha virt. eigenvalues --    0.38395   0.38985   0.39022   0.39566   0.39751
 Alpha virt. eigenvalues --    0.39946   0.40095   0.40247   0.40492   0.40537
 Alpha virt. eigenvalues --    0.40856   0.40922   0.41203   0.41414   0.41806
 Alpha virt. eigenvalues --    0.42034   0.42277   0.42444   0.42553   0.42730
 Alpha virt. eigenvalues --    0.43204   0.43569   0.43757   0.43883   0.44199
 Alpha virt. eigenvalues --    0.44469   0.44594   0.44911   0.45070   0.45481
 Alpha virt. eigenvalues --    0.45983   0.46267   0.46343   0.46578   0.46678
 Alpha virt. eigenvalues --    0.46915   0.47223   0.47465   0.47532   0.47821
 Alpha virt. eigenvalues --    0.47904   0.48327   0.48480   0.48569   0.49001
 Alpha virt. eigenvalues --    0.49225   0.49408   0.49711   0.49769   0.50139
 Alpha virt. eigenvalues --    0.50488   0.50624   0.50894   0.51063   0.51409
 Alpha virt. eigenvalues --    0.51555   0.51745   0.52054   0.52315   0.52400
 Alpha virt. eigenvalues --    0.52675   0.52929   0.53075   0.53405   0.53719
 Alpha virt. eigenvalues --    0.53921   0.54017   0.54503   0.55124   0.55186
 Alpha virt. eigenvalues --    0.55631   0.55772   0.55878   0.56445   0.56851
 Alpha virt. eigenvalues --    0.57057   0.57245   0.57500   0.57811   0.58632
 Alpha virt. eigenvalues --    0.58991   0.59100   0.59531   0.60105   0.60589
 Alpha virt. eigenvalues --    0.60752   0.61057   0.61451   0.61536   0.61951
 Alpha virt. eigenvalues --    0.62256   0.62827   0.62887   0.63381   0.63589
 Alpha virt. eigenvalues --    0.63907   0.64014   0.64411   0.64910   0.65238
 Alpha virt. eigenvalues --    0.65509   0.65779   0.66268   0.66817   0.66837
 Alpha virt. eigenvalues --    0.67195   0.67375   0.67694   0.68096   0.68600
 Alpha virt. eigenvalues --    0.68924   0.69090   0.69305   0.69846   0.70023
 Alpha virt. eigenvalues --    0.70704   0.71054   0.71443   0.71583   0.71848
 Alpha virt. eigenvalues --    0.72164   0.72435   0.72590   0.73146   0.73441
 Alpha virt. eigenvalues --    0.73549   0.74209   0.74340   0.74978   0.75282
 Alpha virt. eigenvalues --    0.75545   0.75986   0.76416   0.76489   0.76881
 Alpha virt. eigenvalues --    0.77097   0.77506   0.77679   0.78361   0.78577
 Alpha virt. eigenvalues --    0.79049   0.79528   0.79798   0.80012   0.80459
 Alpha virt. eigenvalues --    0.81116   0.81304   0.81737   0.81973   0.82396
 Alpha virt. eigenvalues --    0.82799   0.83388   0.83501   0.84139   0.84451
 Alpha virt. eigenvalues --    0.85106   0.85583   0.85789   0.86203   0.86453
 Alpha virt. eigenvalues --    0.87172   0.87337   0.88023   0.88350   0.88745
 Alpha virt. eigenvalues --    0.89596   0.89956   0.90315   0.90343   0.90773
 Alpha virt. eigenvalues --    0.91437   0.91773   0.92368   0.92576   0.92788
 Alpha virt. eigenvalues --    0.92987   0.93809   0.94032   0.94416   0.94926
 Alpha virt. eigenvalues --    0.95039   0.95310   0.95720   0.96028   0.96401
 Alpha virt. eigenvalues --    0.96733   0.97151   0.97642   0.98145   0.98399
 Alpha virt. eigenvalues --    0.98766   0.99391   0.99669   0.99778   1.00285
 Alpha virt. eigenvalues --    1.00584   1.00816   1.01301   1.01332   1.01794
 Alpha virt. eigenvalues --    1.02212   1.02235   1.03035   1.03435   1.03785
 Alpha virt. eigenvalues --    1.03950   1.04135   1.04429   1.04778   1.04874
 Alpha virt. eigenvalues --    1.05663   1.06148   1.06621   1.07091   1.07656
 Alpha virt. eigenvalues --    1.07968   1.08421   1.08976   1.09362   1.09939
 Alpha virt. eigenvalues --    1.10129   1.10360   1.11091   1.11378   1.11897
 Alpha virt. eigenvalues --    1.12773   1.13113   1.13500   1.13638   1.14475
 Alpha virt. eigenvalues --    1.15166   1.15682   1.15928   1.16590   1.17122
 Alpha virt. eigenvalues --    1.17437   1.17929   1.18421   1.18677   1.19205
 Alpha virt. eigenvalues --    1.19824   1.20031   1.20403   1.20649   1.20814
 Alpha virt. eigenvalues --    1.21502   1.21612   1.22332   1.22993   1.23660
 Alpha virt. eigenvalues --    1.24027   1.24661   1.25175   1.25352   1.25743
 Alpha virt. eigenvalues --    1.26241   1.26603   1.26792   1.27232   1.27599
 Alpha virt. eigenvalues --    1.28145   1.28727   1.28975   1.29503   1.29624
 Alpha virt. eigenvalues --    1.30054   1.30277   1.31098   1.31936   1.32322
 Alpha virt. eigenvalues --    1.32745   1.34247   1.35062   1.35209   1.35624
 Alpha virt. eigenvalues --    1.36138   1.37052   1.37333   1.38313   1.38913
 Alpha virt. eigenvalues --    1.39649   1.40405   1.40721   1.41136   1.41843
 Alpha virt. eigenvalues --    1.42086   1.42909   1.43363   1.43383   1.44294
 Alpha virt. eigenvalues --    1.44765   1.45184   1.45227   1.46043   1.46699
 Alpha virt. eigenvalues --    1.47008   1.47106   1.47599   1.48138   1.48419
 Alpha virt. eigenvalues --    1.48829   1.49178   1.49468   1.50112   1.50315
 Alpha virt. eigenvalues --    1.50500   1.51004   1.51403   1.51767   1.51853
 Alpha virt. eigenvalues --    1.52910   1.53165   1.53321   1.53531   1.53855
 Alpha virt. eigenvalues --    1.54223   1.54540   1.54855   1.55059   1.55390
 Alpha virt. eigenvalues --    1.55480   1.55863   1.56461   1.56490   1.56653
 Alpha virt. eigenvalues --    1.56728   1.56988   1.57424   1.57784   1.57966
 Alpha virt. eigenvalues --    1.58414   1.58829   1.59340   1.59483   1.59670
 Alpha virt. eigenvalues --    1.59957   1.60501   1.60912   1.61250   1.61571
 Alpha virt. eigenvalues --    1.61805   1.62141   1.62342   1.62741   1.63113
 Alpha virt. eigenvalues --    1.63548   1.63780   1.64015   1.64762   1.64782
 Alpha virt. eigenvalues --    1.64948   1.65203   1.65591   1.66082   1.66312
 Alpha virt. eigenvalues --    1.66772   1.66959   1.67241   1.67467   1.68038
 Alpha virt. eigenvalues --    1.68183   1.68377   1.68821   1.69083   1.69604
 Alpha virt. eigenvalues --    1.69952   1.70305   1.70528   1.71047   1.71598
 Alpha virt. eigenvalues --    1.71883   1.72259   1.72728   1.73257   1.73776
 Alpha virt. eigenvalues --    1.74092   1.74558   1.75084   1.75474   1.76063
 Alpha virt. eigenvalues --    1.76773   1.77153   1.77709   1.78022   1.78687
 Alpha virt. eigenvalues --    1.79102   1.79445   1.80130   1.81093   1.81130
 Alpha virt. eigenvalues --    1.81506   1.82326   1.82527   1.83430   1.84077
 Alpha virt. eigenvalues --    1.84406   1.84785   1.84967   1.85783   1.86172
 Alpha virt. eigenvalues --    1.86540   1.87209   1.87249   1.87542   1.87749
 Alpha virt. eigenvalues --    1.88382   1.88843   1.89080   1.89684   1.90243
 Alpha virt. eigenvalues --    1.90688   1.91615   1.91693   1.92348   1.92950
 Alpha virt. eigenvalues --    1.93184   1.93768   1.94405   1.95019   1.95239
 Alpha virt. eigenvalues --    1.96067   1.96709   1.96816   1.97782   1.98018
 Alpha virt. eigenvalues --    1.98527   1.98920   1.99147   1.99429   1.99515
 Alpha virt. eigenvalues --    2.00049   2.00383   2.00689   2.01952   2.02047
 Alpha virt. eigenvalues --    2.02525   2.03069   2.03938   2.04632   2.05351
 Alpha virt. eigenvalues --    2.05906   2.05965   2.06561   2.07354   2.07602
 Alpha virt. eigenvalues --    2.08792   2.09413   2.09567   2.09937   2.10663
 Alpha virt. eigenvalues --    2.11090   2.11387   2.11633   2.12053   2.12571
 Alpha virt. eigenvalues --    2.12968   2.13484   2.14365   2.14637   2.14698
 Alpha virt. eigenvalues --    2.14924   2.15405   2.16500   2.17023   2.17137
 Alpha virt. eigenvalues --    2.17866   2.18583   2.19151   2.19543   2.20177
 Alpha virt. eigenvalues --    2.20439   2.20929   2.21537   2.21786   2.22647
 Alpha virt. eigenvalues --    2.22758   2.23440   2.24493   2.25052   2.25202
 Alpha virt. eigenvalues --    2.26267   2.26347   2.26792   2.27209   2.27471
 Alpha virt. eigenvalues --    2.28355   2.28743   2.28976   2.29281   2.29861
 Alpha virt. eigenvalues --    2.30422   2.30693   2.31096   2.31350   2.31623
 Alpha virt. eigenvalues --    2.33131   2.33197   2.34047   2.34573   2.34640
 Alpha virt. eigenvalues --    2.34840   2.35473   2.35682   2.36231   2.36771
 Alpha virt. eigenvalues --    2.37047   2.37397   2.37888   2.38193   2.38730
 Alpha virt. eigenvalues --    2.38995   2.39778   2.40667   2.40884   2.41114
 Alpha virt. eigenvalues --    2.41654   2.42376   2.42479   2.42776   2.43460
 Alpha virt. eigenvalues --    2.44348   2.44752   2.45134   2.45455   2.45620
 Alpha virt. eigenvalues --    2.46463   2.46717   2.47283   2.47409   2.47873
 Alpha virt. eigenvalues --    2.48536   2.49081   2.49499   2.50107   2.50729
 Alpha virt. eigenvalues --    2.50960   2.51566   2.52626   2.52968   2.53165
 Alpha virt. eigenvalues --    2.53366   2.53689   2.54097   2.54864   2.55306
 Alpha virt. eigenvalues --    2.55586   2.56067   2.56446   2.56554   2.56865
 Alpha virt. eigenvalues --    2.57100   2.57287   2.57809   2.58364   2.58892
 Alpha virt. eigenvalues --    2.59345   2.59551   2.60124   2.60670   2.60931
 Alpha virt. eigenvalues --    2.61125   2.61576   2.62579   2.62789   2.63115
 Alpha virt. eigenvalues --    2.63580   2.63772   2.64716   2.65198   2.65890
 Alpha virt. eigenvalues --    2.66013   2.66762   2.66975   2.67353   2.67676
 Alpha virt. eigenvalues --    2.68211   2.68433   2.68973   2.69369   2.69822
 Alpha virt. eigenvalues --    2.70075   2.70665   2.70693   2.71371   2.71641
 Alpha virt. eigenvalues --    2.72173   2.72468   2.72868   2.73635   2.73901
 Alpha virt. eigenvalues --    2.74388   2.74742   2.75368   2.75856   2.76044
 Alpha virt. eigenvalues --    2.76360   2.77282   2.77691   2.77901   2.78643
 Alpha virt. eigenvalues --    2.79519   2.79562   2.79764   2.80174   2.81314
 Alpha virt. eigenvalues --    2.81415   2.81960   2.82060   2.83025   2.83193
 Alpha virt. eigenvalues --    2.83608   2.84110   2.84664   2.85213   2.85870
 Alpha virt. eigenvalues --    2.86343   2.86529   2.86772   2.87049   2.87865
 Alpha virt. eigenvalues --    2.88192   2.88622   2.88723   2.89554   2.89798
 Alpha virt. eigenvalues --    2.90251   2.90873   2.91057   2.91707   2.92753
 Alpha virt. eigenvalues --    2.92786   2.93479   2.93519   2.94265   2.94305
 Alpha virt. eigenvalues --    2.94598   2.95026   2.95595   2.95853   2.96236
 Alpha virt. eigenvalues --    2.96787   2.97007   2.97825   2.98184   2.98535
 Alpha virt. eigenvalues --    2.98762   2.99177   2.99591   2.99873   3.00501
 Alpha virt. eigenvalues --    3.01003   3.01432   3.01918   3.02242   3.02855
 Alpha virt. eigenvalues --    3.03679   3.03831   3.04135   3.04537   3.04962
 Alpha virt. eigenvalues --    3.05949   3.06337   3.06471   3.06827   3.07146
 Alpha virt. eigenvalues --    3.07357   3.08113   3.08505   3.08808   3.09426
 Alpha virt. eigenvalues --    3.09530   3.10097   3.10285   3.10915   3.11069
 Alpha virt. eigenvalues --    3.11717   3.11880   3.12141   3.12282   3.13190
 Alpha virt. eigenvalues --    3.13663   3.13964   3.14240   3.14892   3.15499
 Alpha virt. eigenvalues --    3.15550   3.15798   3.16137   3.16534   3.17199
 Alpha virt. eigenvalues --    3.17329   3.17571   3.17728   3.17879   3.18521
 Alpha virt. eigenvalues --    3.18581   3.19320   3.19517   3.19753   3.19943
 Alpha virt. eigenvalues --    3.20519   3.20690   3.20993   3.21532   3.22036
 Alpha virt. eigenvalues --    3.22396   3.22530   3.22977   3.23058   3.23381
 Alpha virt. eigenvalues --    3.23842   3.24174   3.24616   3.25050   3.25436
 Alpha virt. eigenvalues --    3.25661   3.26012   3.26263   3.26888   3.27241
 Alpha virt. eigenvalues --    3.27365   3.27682   3.27878   3.28258   3.29080
 Alpha virt. eigenvalues --    3.29341   3.29586   3.29827   3.30035   3.30927
 Alpha virt. eigenvalues --    3.30986   3.31172   3.31414   3.31690   3.32599
 Alpha virt. eigenvalues --    3.32627   3.33000   3.33109   3.33276   3.33745
 Alpha virt. eigenvalues --    3.34125   3.34509   3.34543   3.34743   3.35088
 Alpha virt. eigenvalues --    3.35369   3.35893   3.36006   3.36541   3.36806
 Alpha virt. eigenvalues --    3.37174   3.37411   3.37759   3.37878   3.38246
 Alpha virt. eigenvalues --    3.38579   3.38879   3.39303   3.39531   3.39728
 Alpha virt. eigenvalues --    3.40429   3.40720   3.41208   3.41563   3.42026
 Alpha virt. eigenvalues --    3.42310   3.42670   3.43167   3.43352   3.43539
 Alpha virt. eigenvalues --    3.44085   3.44994   3.45092   3.45144   3.45394
 Alpha virt. eigenvalues --    3.45690   3.46466   3.47002   3.47744   3.48147
 Alpha virt. eigenvalues --    3.48422   3.48802   3.49069   3.49910   3.50294
 Alpha virt. eigenvalues --    3.50556   3.51323   3.52329   3.52581   3.53211
 Alpha virt. eigenvalues --    3.53588   3.54020   3.54554   3.54898   3.55141
 Alpha virt. eigenvalues --    3.55446   3.56718   3.57065   3.57542   3.58626
 Alpha virt. eigenvalues --    3.58740   3.58978   3.59505   3.59806   3.60343
 Alpha virt. eigenvalues --    3.60840   3.61553   3.62249   3.62734   3.63340
 Alpha virt. eigenvalues --    3.64162   3.64452   3.64998   3.65208   3.65571
 Alpha virt. eigenvalues --    3.65874   3.67077   3.67196   3.68282   3.68995
 Alpha virt. eigenvalues --    3.69043   3.69280   3.69600   3.70605   3.71306
 Alpha virt. eigenvalues --    3.71719   3.72245   3.72445   3.72623   3.73021
 Alpha virt. eigenvalues --    3.73284   3.73873   3.74540   3.74972   3.75621
 Alpha virt. eigenvalues --    3.75785   3.76277   3.76386   3.76898   3.77771
 Alpha virt. eigenvalues --    3.78083   3.78840   3.79277   3.79548   3.81397
 Alpha virt. eigenvalues --    3.81741   3.82253   3.83099   3.83684   3.84193
 Alpha virt. eigenvalues --    3.84454   3.85771   3.86495   3.86697   3.86854
 Alpha virt. eigenvalues --    3.87858   3.88164   3.88893   3.90338   3.91091
 Alpha virt. eigenvalues --    3.91609   3.91976   3.92382   3.94156   3.94689
 Alpha virt. eigenvalues --    3.94877   3.95548   3.96543   3.97355   3.97822
 Alpha virt. eigenvalues --    3.98428   3.98890   3.99273   4.00291   4.00521
 Alpha virt. eigenvalues --    4.00941   4.01385   4.02018   4.02570   4.03096
 Alpha virt. eigenvalues --    4.04299   4.04809   4.05204   4.05904   4.06595
 Alpha virt. eigenvalues --    4.06733   4.07822   4.09065   4.10510   4.10951
 Alpha virt. eigenvalues --    4.11179   4.11838   4.12948   4.13228   4.14440
 Alpha virt. eigenvalues --    4.15354   4.15554   4.16100   4.16277   4.17204
 Alpha virt. eigenvalues --    4.17532   4.18396   4.18703   4.19605   4.19625
 Alpha virt. eigenvalues --    4.20390   4.20463   4.21805   4.22116   4.22576
 Alpha virt. eigenvalues --    4.23415   4.24414   4.24958   4.25141   4.26053
 Alpha virt. eigenvalues --    4.27140   4.27176   4.27803   4.28292   4.29038
 Alpha virt. eigenvalues --    4.29631   4.30023   4.30654   4.31337   4.31473
 Alpha virt. eigenvalues --    4.31638   4.32722   4.33221   4.33968   4.34756
 Alpha virt. eigenvalues --    4.35456   4.36140   4.36564   4.36872   4.37533
 Alpha virt. eigenvalues --    4.37594   4.38722   4.39313   4.40603   4.40832
 Alpha virt. eigenvalues --    4.41705   4.42317   4.42947   4.43424   4.43763
 Alpha virt. eigenvalues --    4.44996   4.45178   4.47002   4.47288   4.47566
 Alpha virt. eigenvalues --    4.48297   4.48673   4.48957   4.50160   4.50495
 Alpha virt. eigenvalues --    4.52282   4.52738   4.53260   4.54446   4.55165
 Alpha virt. eigenvalues --    4.55653   4.56268   4.57038   4.57623   4.58835
 Alpha virt. eigenvalues --    4.59898   4.62404   4.62982   4.63451   4.65036
 Alpha virt. eigenvalues --    4.65529   4.66901   4.67305   4.67818   4.69100
 Alpha virt. eigenvalues --    4.69816   4.70881   4.72487   4.73190   4.73590
 Alpha virt. eigenvalues --    4.75080   4.76376   4.77664   4.78826   4.80230
 Alpha virt. eigenvalues --    4.81042   4.82130   4.82747   4.83277   4.84478
 Alpha virt. eigenvalues --    4.84848   4.85942   4.86614   4.87097   4.87893
 Alpha virt. eigenvalues --    4.88381   4.90371   4.91816   4.92859   4.93584
 Alpha virt. eigenvalues --    4.94925   4.95882   4.97126   4.98683   4.99463
 Alpha virt. eigenvalues --    5.00162   5.00822   5.01062   5.02664   5.03265
 Alpha virt. eigenvalues --    5.04550   5.06151   5.06270   5.07253   5.08119
 Alpha virt. eigenvalues --    5.08940   5.10482   5.12633   5.13321   5.15036
 Alpha virt. eigenvalues --    5.15825   5.17034   5.20019   5.20779   5.21234
 Alpha virt. eigenvalues --    5.22198   5.23197   5.24168   5.24988   5.26482
 Alpha virt. eigenvalues --    5.27020   5.28371   5.29287   5.30010   5.33648
 Alpha virt. eigenvalues --    5.35103   5.36454   5.37462   5.38538   5.38812
 Alpha virt. eigenvalues --    5.39522   5.40798   5.41669   5.47223   5.48233
 Alpha virt. eigenvalues --    5.49272   5.49878   5.50567   5.51431   5.53065
 Alpha virt. eigenvalues --    5.54300   5.56362   5.58265   5.59538   5.60457
 Alpha virt. eigenvalues --    5.62195   5.63838   5.64572   5.65341   5.67628
 Alpha virt. eigenvalues --    5.69578   5.74204   5.75290   5.76279   5.78634
 Alpha virt. eigenvalues --    5.84897   5.87005   5.88017   5.91359   5.96518
 Alpha virt. eigenvalues --    5.99736   6.00861   6.08988   6.10529   6.12073
 Alpha virt. eigenvalues --    6.12449   6.16119   6.23297   6.24121   6.30073
 Alpha virt. eigenvalues --    6.32525   6.39831   6.46089   6.51041   6.55374
 Alpha virt. eigenvalues --    6.63064   6.95771   7.29307   9.08010   9.24740
 Alpha virt. eigenvalues --    9.41066  19.63112  22.32698  22.35815  22.36304
 Alpha virt. eigenvalues --   22.45897  22.46778  22.52184  22.52828  22.58672
 Alpha virt. eigenvalues --   22.61233  22.81060  22.84933  22.85746  22.89185
 Alpha virt. eigenvalues --   22.91638  22.94812  22.95963  22.96571  23.00710
 Alpha virt. eigenvalues --   23.09946  23.21254  23.27719  23.29824  23.38434
 Alpha virt. eigenvalues --   23.39195  23.48772  23.49854  23.54899  23.65215
 Alpha virt. eigenvalues --   23.75117  23.77923  23.86035  32.86863  32.89358
 Alpha virt. eigenvalues --   32.91337  33.03401  43.91839
          Condensed to atoms (all electrons):
 Mulliken charges:
               1
     1  Fe  -0.234772
     2  N    0.017144
     3  N   -0.105120
     4  N    0.004973
     5  N   -0.027630
     6  C    0.235581
     7  C   -0.069422
     8  C    0.031784
     9  C    0.009642
    10  C    0.093093
    11  C    0.035096
    12  C    0.011930
    13  C    0.239736
    14  C    0.241760
    15  C   -0.046098
    16  C    0.039349
    17  C    0.221855
    18  C    0.161113
    19  C   -0.027147
    20  C   -0.048982
    21  C    0.181435
    22  C   -0.418240
    23  H    0.135943
    24  C   -0.270837
    25  H    0.134752
    26  C   -0.404497
    27  H    0.120474
    28  C   -0.381552
    29  H    0.116297
    30  C   -0.419788
    31  H    0.130573
    32  H    0.138403
    33  H    0.136191
    34  C   -0.417406
    35  H    0.134946
    36  H    0.138877
    37  H    0.127113
    38  C   -0.455281
    39  H    0.144502
    40  H    0.130595
    41  H    0.158153
    42  C   -0.212382
    43  H    0.115050
    44  C   -0.285975
    45  H    0.139578
    46  H    0.123671
    47  C   -0.439756
    48  H    0.144606
    49  H    0.124415
    50  H    0.154710
    51  C   -0.209774
    52  H    0.110238
    53  C   -0.286035
    54  H    0.140328
    55  H    0.122678
    56  C   -0.411103
    57  H    0.139599
    58  H    0.135697
    59  H    0.121756
    60  C   -0.417198
    61  H    0.123237
    62  H    0.137885
    63  H    0.135702
    64  O   -0.574627
    65  H    0.360148
    66  H    0.323033
    67  C   -0.340749
    68  H    0.154372
    69  H    0.146300
    70  H    0.160746
    71  S   -0.045070
    72  H    0.164380
 Sum of Mulliken charges =  -0.00000
 Mulliken charges with hydrogens summed into heavy atoms:
               1
     1  Fe  -0.234772
     2  N    0.017144
     3  N   -0.105120
     4  N    0.004973
     5  N   -0.027630
     6  C    0.235581
     7  C   -0.069422
     8  C    0.031784
     9  C    0.009642
    10  C    0.093093
    11  C    0.035096
    12  C    0.011930
    13  C    0.239736
    14  C    0.241760
    15  C   -0.046098
    16  C    0.039349
    17  C    0.221855
    18  C    0.161113
    19  C   -0.027147
    20  C   -0.048982
    21  C    0.181435
    22  C   -0.282297
    24  C   -0.136084
    26  C   -0.284023
    28  C   -0.265254
    30  C   -0.014621
    34  C   -0.016470
    38  C   -0.022030
    42  C   -0.097332
    44  C   -0.022726
    47  C   -0.016025
    51  C   -0.099536
    53  C   -0.023028
    56  C   -0.014051
    60  C   -0.020374
    64  O    0.108554
    67  C    0.120669
    71  S    0.119310
 Electronic spatial extent (au):  <R**2>=          18279.9442
 Charge=              0.0000 electrons
 Dipole moment (field-independent basis, Debye):
    X=              0.6540    Y=             -2.2582    Z=             -0.2374  Tot=              2.3630
 Quadrupole moment (field-independent basis, Debye-Ang):
   XX=           -222.2002   YY=           -225.5163   ZZ=           -229.7172
   XY=              0.1723   XZ=             -0.7057   YZ=             -2.6587
 Traceless Quadrupole moment (field-independent basis, Debye-Ang):
   XX=              3.6110   YY=              0.2949   ZZ=             -3.9060
   XY=              0.1723   XZ=             -0.7057   YZ=             -2.6587
 Octapole moment (field-independent basis, Debye-Ang**2):
  XXX=             34.2448  YYY=            -40.0977  ZZZ=            -14.3005  XYY=             -5.8472
  XXY=            -14.6291  XXZ=             -5.0689  XZZ=             11.3425  YZZ=            -22.8114
  YYZ=              4.3809  XYZ=             -0.7723
 Hexadecapole moment (field-independent basis, Debye-Ang**3):
 XXXX=         -11628.0869 YYYY=         -11558.0726 ZZZZ=          -1300.3556 XXXY=             19.0747
 XXXZ=            -99.6820 YYYX=            -17.5461 YYYZ=             95.7227 ZZZX=              4.5316
 ZZZY=            -28.9859 XXYY=          -3826.7602 XXZZ=          -2310.6791 YYZZ=          -2292.5735
 XXYZ=            -45.8527 YYXZ=              6.6141 ZZXY=              1.2201
 N-N= 5.418180838845D+03 E-N=-1.827192783707D+04  KE= 3.147482625534D+03
  Exact polarizability:     696.518       0.413     685.221      -8.672       3.967     265.394
 Approx polarizability:    1284.332      -1.060    1264.350     -31.805      -8.582     451.719

 ----------------------------------------------------------------------

 Electric dipole moment (input orientation):
 (Debye = 10**-18 statcoulomb cm , SI units = C m)
                  (au)            (Debye)         (10**-30 SI)
   Tot        0.929674D+00      0.236300D+01      0.788211D+01
   x         -0.889926D+00     -0.226197D+01     -0.754511D+01
   y          0.445598D-01      0.113260D+00      0.377794D+00
   z          0.265217D+00      0.674115D+00      0.224861D+01

 Dipole polarizability, Alpha (input orientation).
 (esu units = cm**3 , SI units = C**2 m**2 J**-1)
 Alpha(0;0):
               (au)            (10**-24 esu)      (10**-40 SI)
   iso        0.549044D+03      0.813600D+02      0.905252D+02
   aniso      0.425909D+03      0.631131D+02      0.702228D+02
   xx         0.668290D+03      0.990304D+02      0.110186D+03
   yx        -0.218529D+02     -0.323827D+01     -0.360306D+01
   yy         0.675291D+03      0.100068D+03      0.111340D+03
   zx        -0.818538D+02     -0.121295D+02     -0.134959D+02
   zy        -0.898679D+02     -0.133171D+02     -0.148172D+02
   zz         0.303552D+03      0.449818D+02      0.500490D+02

 First dipole hyperpolarizability, Beta (input orientation).
 ||, _|_  parallel and perpendicular components, (z) with respect to z axis,
 vector components x,y,z.  Values do not include the 1/n! factor of 1/2.
 (esu units = statvolt**-1 cm**4 , SI units = C**3 m**3 J**-2)
 Beta(0;0,0):
               (au)            (10**-30 esu)      (10**-50 SI)
   || (z)    -0.158457D+03     -0.136894D+01     -0.508069D+00
   _|_(z)    -0.528189D+02     -0.456314D+00     -0.169356D+00
   x          0.463890D+04      0.400765D+02      0.148740D+02
   y         -0.118079D+04     -0.102011D+02     -0.378604D+01
   z         -0.792283D+03     -0.684471D+01     -0.254035D+01
   ||         0.970389D+03      0.838340D+01      0.311142D+01
   xxx        0.498431D+03      0.430605D+01      0.159815D+01
   xxy        0.181719D+03      0.156991D+01      0.582658D+00
   yxy        0.878508D+03      0.758963D+01      0.281682D+01
   yyy       -0.642508D+03     -0.555077D+01     -0.206011D+01
   xxz       -0.233700D+03     -0.201898D+01     -0.749326D+00
   yxz       -0.398642D+03     -0.344396D+01     -0.127819D+01
   yyz        0.590907D+02      0.510497D+00      0.189466D+00
   zxz        0.169361D+03      0.146314D+01      0.543031D+00
   zyz        0.671924D+02      0.580490D+00      0.215443D+00
   zzz       -0.894853D+02     -0.773084D+00     -0.286922D+00

 ----------------------------------------------------------------------

 Dipole orientation:
    26         31.87638637          2.26930779        -57.55717549
     7         31.66796864          0.76730074        -54.12803544
     7         32.98757540         -1.04931967        -58.98397447
     7         32.29211011          3.85369224        -60.96161039
     7         31.40993221          5.69707633        -56.05618822
     6         31.65200577          2.00098399        -51.88434270
     6         31.82588795          0.24681353        -49.80132665
     6         31.77502642         -2.09876216        -50.83852690
     6         31.77541026         -1.75686099        -53.56285780
     6         33.33542998         -3.24481088        -57.68015215
     6         34.08885088         -5.24937661        -59.35094953
     6         34.19126572         -4.21753655        -61.72702078
     6         33.48261933         -1.59118027        -61.44299770
     6         32.51985663          2.59085463        -63.19278084
     6         32.22180151          4.28944127        -65.30241823
     6         31.87196783          6.64355953        -64.29041217
     6         31.93134624          6.31444240        -61.56899956
     6         31.48905216          7.95950962        -57.26408978
     6         30.96011606         10.00760420        -55.53217061
     6         30.53135392          8.92198758        -53.24386521
     6         30.90321146          6.23663669        -53.59348860
     6         31.03288196          4.53263847        -51.61795888
     1         30.80517997          5.25795963        -49.72570001
     6         32.80275251         -3.57283772        -55.13599378
     1         33.04141730         -5.44663051        -54.36757844
     6         33.15765392          0.06773009        -63.43234694
     1         33.40528587         -0.66814020        -65.31713487
     6         31.63827598          8.26222305        -59.85446869
     1         31.49187131         10.15884492        -60.58820601
     6         31.85384232         -4.60284947        -49.55009300
     1         31.28510893         -4.42342054        -47.58338457
     1         33.75892701         -5.39116882        -49.59869221
     1         30.58625500         -5.93259524        -50.47687317
     6         31.93059703          0.99585726        -47.08930182
     1         30.11919742          1.76349151        -46.47141327
     1         33.36722290          2.44138707        -46.80128272
     1         32.38667552         -0.62091071        -45.90665150
     6         34.75627457         -7.86025344        -58.54332689
     1         33.06779840         -9.03219523        -58.37481936
     1         35.70263491         -7.83931192        -56.71592728
     1         36.00881803         -8.72652566        -59.92524543
     6         34.88883324         -5.38358769        -64.09722539
     1         35.80916968         -4.14601368        -65.44508320
     6         34.48736346         -7.78214628        -64.72419317
     1         33.50372891         -9.07388222        -63.50070603
     1         35.08997130         -8.52462372        -66.52140433
     6         32.43526914          3.56606749        -68.01119106
     1         30.67882373          2.71945950        -68.68066618
     1         33.94464306          2.19450789        -68.28599131
     1         32.83860256          5.22550780        -69.15604994
     6         31.52707857          9.03860057        -65.56221580
     1         32.35602479         10.66420086        -64.63158380
     6         30.28501975          9.36961339        -67.71920523
     1         29.34757361          7.83711870        -68.67174736
     1         30.11768493         11.20631362        -68.58148786
     6         30.88783976         12.72555875        -56.26237139
     1         29.34414227         13.08083622        -57.58108282
     1         32.64832718         13.27437446        -57.17864633
     1         30.61648518         13.91830824        -54.61170213
     6         29.88279329         10.13305984        -50.78608030
     1         29.47656863         12.13035808        -51.04373024
     1         31.44626876          9.95778180        -49.45422002
     1         28.22857655          9.23503901        -49.95099565
     8         36.05268162          2.66267176        -56.83511994
     1         36.57225947          0.98800077        -57.27674526
     1         37.06150947          3.98590270        -56.59971142
     6         25.81181824          2.78896630        -55.74508980
     1         23.94282173          1.94403158        -55.70360120
     1         25.67405133          4.79726370        -56.13613553
     1         26.80937035          2.49277127        -53.97917231
    16         27.62729795          1.40585374        -58.33842992
     1         27.59079150         -0.94442221        -57.40703076

 Electric dipole moment (dipole orientation):
 (Debye = 10**-18 statcoulomb cm , SI units = C m)
                  (au)            (Debye)         (10**-30 SI)
   Tot        0.929674D+00      0.236300D+01      0.788211D+01
   x          0.000000D+00      0.000000D+00      0.000000D+00
   y          0.000000D+00      0.000000D+00      0.000000D+00
   z          0.929674D+00      0.236300D+01      0.788211D+01

 Dipole polarizability, Alpha (dipole orientation).
 (esu units = cm**3 , SI units = C**2 m**2 J**-1)
 Alpha(0;0):
               (au)            (10**-24 esu)      (10**-40 SI)
   iso        0.549044D+03      0.813600D+02      0.905252D+02
   aniso      0.425909D+03      0.631131D+02      0.702228D+02
   xx         0.282507D+03      0.418633D+02      0.465792D+02
   yx        -0.766947D+02     -0.113650D+02     -0.126452D+02
   yy         0.681750D+03      0.101025D+03      0.112405D+03
   zx        -0.358834D+02     -0.531738D+01     -0.591638D+01
   zy        -0.380829D+01     -0.564330D+00     -0.627902D+00
   zz         0.682876D+03      0.101192D+03      0.112591D+03

 First dipole hyperpolarizability, Beta (dipole orientation).
 ||, _|_  parallel and perpendicular components, (z) with respect to z axis,
 vector components x,y,z.  Values do not include the 1/n! factor of 1/2.
 (esu units = statvolt**-1 cm**4 , SI units = C**3 m**3 J**-2)
 Beta(0;0,0):
               (au)            (10**-30 esu)      (10**-50 SI)
   || (z)    -0.944636D+03     -0.816092D+01     -0.302885D+01
   _|_(z)    -0.314879D+03     -0.272031D+01     -0.100962D+01
   x          0.531115D+03      0.458842D+01      0.170295D+01
   y         -0.975106D+03     -0.842416D+01     -0.312654D+01
   z         -0.472318D+04     -0.408046D+02     -0.151442D+02
   ||         0.970389D+03      0.838340D+01      0.311142D+01
   xxx       -0.247184D+01     -0.213548D-01     -0.792561D-02
   xxy       -0.118921D+03     -0.102738D+01     -0.381303D+00
   yxy        0.267699D+03      0.231271D+01      0.858339D+00
   yyy       -0.548432D+03     -0.473802D+01     -0.175847D+01
   xxz       -0.526287D+02     -0.454671D+00     -0.168747D+00
   yxz        0.291959D+03      0.252230D+01      0.936126D+00
   yyz       -0.909925D+03     -0.786105D+01     -0.291755D+01
   zxz       -0.881886D+02     -0.761881D+00     -0.282765D+00
   zyz        0.342317D+03      0.295735D+01      0.109759D+01
   zzz       -0.611840D+03     -0.528582D+01     -0.196178D+01

 ----------------------------------------------------------------------
 Unable to Open any file for archive entry.
 1\1\GINC-BGN1011\SP\RAPFD\def2TZVP\C31H34Fe1N4O1S1\BECSLEIP\31-Aug-202
 4\0\\# polar def2tzvp apfd int=(grid=ultrafine)\\2q9f_II_S\\0,1\Fe,0,3
 4.0409094745,0.341007177,7.4004612846\N,0,32.2438367801,-0.3693611432,
 7.8506585941\N,0,34.8697678704,-1.427194166,7.8321148951\N,0,35.858515
 5944,1.09943252,7.0569154784\N,0,33.2744738527,2.1809212139,7.30383108
 43\C,0,31.1281688973,0.3389160145,8.1499975417\C,0,30.0662898814,-0.53
 15739512,8.5970298826\C,0,30.539650982,-1.797848667,8.4741790857\C,0,3
 1.9261839168,-1.6863378419,8.0544269082\C,0,34.2206825566,-2.547280489
 ,8.2608370496\C,0,35.143613598,-3.6343003169,8.4410979606\C,0,36.38226
 74607,-3.1475815596,8.1081048786\C,0,36.1803575817,-1.766440508,7.7254
 01247\C,0,36.9994614751,0.3800733915,6.8674858911\C,0,38.0549125608,1.
 2181813579,6.3549444356\C,0,37.5336056239,2.4807602412,6.2708020887\C,
 0,36.1578709016,2.3770572564,6.7200621565\C,0,33.9410962994,3.34686704
 29,7.1041764788\C,0,33.0221275086,4.462671042,7.0457519654\C,0,31.7773
 405482,3.9391549373,7.2015476099\C,0,31.9602045804,2.5188251615,7.4052
 431555\C,0,30.9470046072,1.6712763145,7.8123808917\H,0,29.9675880556,2
 .0981071685,7.9643031872\C,0,32.8448180993,-2.6660875187,8.3834032829\
 H,0,32.4564344368,-3.6318852306,8.6678286683\C,0,37.170039003,-0.94674
 81804,7.2183937903\H,0,38.1484994048,-1.3785854393,7.0779624661\C,0,35
 .2816454741,3.4438868422,6.7810353549\H,0,35.6669093355,4.4243659782,6
 .5480006336\C,0,29.8516617151,-3.086417663,8.7721231551\H,0,28.7724146
 062,-2.9524980691,8.7763802852\H,0,30.150788475,-3.4680776382,9.749806
 1796\H,0,30.1034465151,-3.8362828504,8.0238412718\C,0,28.7225635251,-0
 .0651403776,9.0404888538\H,0,28.1489028622,0.321802155,8.19672882\H,0,
 28.8222103456,0.7328773685,9.7750312356\H,0,28.1622306687,-0.880555941
 5,9.4910609095\C,0,34.7865781518,-4.9803550803,8.9673262448\H,0,34.422
 5864647,-5.6270333501,8.1671881872\H,0,34.0050613835,-4.9050662897,9.7
 220468283\H,0,35.660501119,-5.4493369484,9.4151575733\C,0,37.666839979
 5,-3.8104663952,8.1332202214\H,0,38.5127863711,-3.1735423309,8.3645517
 538\C,0,37.8781353285,-5.1009463996,7.8960420197\H,0,37.084550465,-5.7
 708307264,7.6152449965\H,0,38.8660328901,-5.5273468678,7.9488130246\C,
 0,39.4458105597,0.7714003989,6.0724984417\H,0,39.5021213834,0.27403527
 17,5.1031738622\H,0,39.7883901736,0.0684422171,6.8303783383\H,0,40.118
 3589457,1.6265499338,6.0618862409\C,0,38.1706918162,3.7071231725,5.843
 3543393\H,0,37.8559109308,4.6050796167,6.3625190807\C,0,39.0808921985,
 3.8038022142,4.8801640783\H,0,39.3920483434,2.9524217457,4.3003693172\
 H,0,39.526959554,4.7489730895,4.6186413222\C,0,33.4323759698,5.8784938
 576,6.8299689203\H,0,33.8725813397,6.0035540915,5.8399168965\H,0,34.17
 43190677,6.1784115031,7.5695036452\H,0,32.5775358208,6.5452827645,6.91
 14519173\C,0,30.4566991048,4.6289684668,7.2133363506\H,0,30.563232527,
 5.6697953139,6.9180075349\H,0,30.0162378597,4.5996966913,8.2108264838\
 H,0,29.7654300514,4.1445379275,6.5242336662\O,0,34.3169999998,0.645999
 9999,9.6150000015\H,0,34.5879999991,-0.2400000012,9.8539999993\H,0,34.
 3760000033,1.3700000012,10.1280000037\C,0,32.2115447914,0.546906768,4.
 5888189425\H,0,31.8906493656,0.0663321155,3.6697685279\H,0,32.42663919
 79,1.5952315432,4.4090611258\H,0,31.4629576343,0.4540816977,5.36823305
 15\S,0,33.7748681565,-0.215178552,5.1520354129\H,0,33.2531226402,-1.43
 3733793,5.3337622086\\Version=ES64L-G16RevC.02\State=1-A\HF=-3157.1812
 763\RMSD=4.257e-09\Dipole=-0.889926,0.0445598,0.2652173\Polar=668.2903
 742,-21.8529275,675.2911306,-81.8537817,-89.8679388,303.5519377\HyperP
 olar=498.4307421,181.7194775,878.5084756,-642.5081256,-233.6997841,-39
 8.6419962,59.0906718,169.3605263,67.1924453,-89.4853431\Quadrupole=0.8
 958417,2.745301,-3.6411427,-0.1302555,1.0523774,-0.3468115\PG=C01 [X(C
 31H34Fe1N4O1S1)]\\@
 The archive entry for this job was punched.


 Democracy is the recurrent suspicion that more than half of the people
 are right more than half of the time.
 -- E. B. White
 Job cpu time:       1 days 19 hours  7 minutes 35.7 seconds.
 Elapsed time:       0 days  0 hours 37 minutes 36.8 seconds.
 File lengths (MBytes):  RWF=   1013 Int=      0 D2E=      0 Chk=    130 Scr=      1
 Normal termination of Gaussian 16 at Sat Aug 31 16:14:53 2024.
 Initial command:
 /sw/chem/gaussian/g16_C02/a100/g16/l1.exe "/local/becsleip_7999369/Gau-3718667.inp" -scrdir="/local/becsleip_7999369/"
 Entering Link 1 = /sw/chem/gaussian/g16_C02/a100/g16/l1.exe PID=   3720293.
  
 Copyright (c) 1988-2021, Gaussian, Inc.  All Rights Reserved.
  
 This is part of the Gaussian(R) 16 program.  It is based on
 the Gaussian(R) 09 system (copyright 2009, Gaussian, Inc.),
 the Gaussian(R) 03 system (copyright 2003, Gaussian, Inc.),
 the Gaussian(R) 98 system (copyright 1998, Gaussian, Inc.),
 the Gaussian(R) 94 system (copyright 1995, Gaussian, Inc.),
 the Gaussian 92(TM) system (copyright 1992, Gaussian, Inc.),
 the Gaussian 90(TM) system (copyright 1990, Gaussian, Inc.),
 the Gaussian 88(TM) system (copyright 1988, Gaussian, Inc.),
 the Gaussian 86(TM) system (copyright 1986, Carnegie Mellon
 University), and the Gaussian 82(TM) system (copyright 1983,
 Carnegie Mellon University). Gaussian is a federally registered
 trademark of Gaussian, Inc.
  
 This software contains proprietary and confidential information,
 including trade secrets, belonging to Gaussian, Inc.
  
 This software is provided under written license and may be
 used, copied, transmitted, or stored only in accord with that
 written license.
  
 The following legend is applicable only to US Government
 contracts under FAR:
  
                    RESTRICTED RIGHTS LEGEND
  
 Use, reproduction and disclosure by the US Government is
 subject to restrictions as set forth in subparagraphs (a)
 and (c) of the Commercial Computer Software - Restricted
 Rights clause in FAR 52.227-19.
  
 Gaussian, Inc.
 340 Quinnipiac St., Bldg. 40, Wallingford CT 06492
  
  
 ---------------------------------------------------------------
 Warning -- This program may not be used in any manner that
 competes with the business of Gaussian, Inc. or will provide
 assistance to any competitor of Gaussian, Inc.  The licensee
 of this program is prohibited from giving any competitor of
 Gaussian, Inc. access to this program.  By using this program,
 the user acknowledges that Gaussian, Inc. is engaged in the
 business of creating and licensing software in the field of
 computational chemistry and represents and warrants to the
 licensee that it is not a competitor of Gaussian, Inc. and that
 it will not use this program in any manner prohibited above.
 ---------------------------------------------------------------
  

 Cite this work as:
 Gaussian 16, Revision C.02,
 M. J. Frisch, G. W. Trucks, H. B. Schlegel, G. E. Scuseria, 
 M. A. Robb, J. R. Cheeseman, G. Scalmani, V. Barone, 
 G. A. Petersson, H. Nakatsuji, X. Li, M. Caricato, A. V. Marenich, 
 J. Bloino, B. G. Janesko, R. Gomperts, B. Mennucci, H. P. Hratchian, 
 J. V. Ortiz, A. F. Izmaylov, J. L. Sonnenberg, D. Williams-Young, 
 F. Ding, F. Lipparini, F. Egidi, J. Goings, B. Peng, A. Petrone, 
 T. Henderson, D. Ranasinghe, V. G. Zakrzewski, J. Gao, N. Rega, 
 G. Zheng, W. Liang, M. Hada, M. Ehara, K. Toyota, R. Fukuda, 
 J. Hasegawa, M. Ishida, T. Nakajima, Y. Honda, O. Kitao, H. Nakai, 
 T. Vreven, K. Throssell, J. A. Montgomery, Jr., J. E. Peralta, 
 F. Ogliaro, M. J. Bearpark, J. J. Heyd, E. N. Brothers, K. N. Kudin, 
 V. N. Staroverov, T. A. Keith, R. Kobayashi, J. Normand, 
 K. Raghavachari, A. P. Rendell, J. C. Burant, S. S. Iyengar, 
 J. Tomasi, M. Cossi, J. M. Millam, M. Klene, C. Adamo, R. Cammi, 
 J. W. Ochterski, R. L. Martin, K. Morokuma, O. Farkas, 
 J. B. Foresman, and D. J. Fox, Gaussian, Inc., Wallingford CT, 2019.
 
 ******************************************
 Gaussian 16:  ES64L-G16RevC.02  7-Dec-2021
                31-Aug-2024 
 ******************************************
 %mem=16GB
 %CPU=0-71
 SetSPE:  set environment variable "OMP_PROC_BIND" = "true"
 SetSPE:  set environment variable "OMP_PLACES" = "{0},{1},{2},{3},{4},{5},{6},{7},{8},{9},{10},{11},{12},{13},{14},{15},{16},{17},{18},{19},{20},{21},{22},{23},{24},{25},{26},{27},{28},{29},{30},{31},{32},{33},{34},{35},{36},{37},{38},{39},{40},{41},{42},{43},{44},{45},{46},{47},{48},{49},{50},{51},{52},{53},{54},{55},{56},{57},{58},{59},{60},{61},{62},{63},{64},{65},{66},{67},{68},{69},{70},{71}"
 Will use up to   72 processors via shared memory.
 %gpucpu=0,1,2,3=0,1,2,3
 Will use    4 GPUs:
 Thread  CPU   GPU
      0    0     0
      1    1     1
      2    2     2
      3    3     3
      4    4    -1
      5    5    -1
      6    6    -1
      7    7    -1
      8    8    -1
      9    9    -1
     10   10    -1
     11   11    -1
     12   12    -1
     13   13    -1
     14   14    -1
     15   15    -1
     16   16    -1
     17   17    -1
     18   18    -1
     19   19    -1
     20   20    -1
     21   21    -1
     22   22    -1
     23   23    -1
     24   24    -1
     25   25    -1
     26   26    -1
     27   27    -1
     28   28    -1
     29   29    -1
     30   30    -1
     31   31    -1
     32   32    -1
     33   33    -1
     34   34    -1
     35   35    -1
     36   36    -1
     37   37    -1
     38   38    -1
     39   39    -1
     40   40    -1
     41   41    -1
     42   42    -1
     43   43    -1
     44   44    -1
     45   45    -1
     46   46    -1
     47   47    -1
     48   48    -1
     49   49    -1
     50   50    -1
     51   51    -1
     52   52    -1
     53   53    -1
     54   54    -1
     55   55    -1
     56   56    -1
     57   57    -1
     58   58    -1
     59   59    -1
     60   60    -1
     61   61    -1
     62   62    -1
     63   63    -1
     64   64    -1
     65   65    -1
     66   66    -1
     67   67    -1
     68   68    -1
     69   69    -1
     70   70    -1
     71   71    -1
 SetGPE:  set environment variable "OMP_PROC_BIND" = "true"
 SetGPE:  set environment variable "OMP_PLACES" = "{0},{1},{2},{3},{4},{5},{6},{7},{8},{9},{10},{11},{12},{13},{14},{15},{16},{17},{18},{19},{20},{21},{22},{23},{24},{25},{26},{27},{28},{29},{30},{31},{32},{33},{34},{35},{36},{37},{38},{39},{40},{41},{42},{43},{44},{45},{46},{47},{48},{49},{50},{51},{52},{53},{54},{55},{56},{57},{58},{59},{60},{61},{62},{63},{64},{65},{66},{67},{68},{69},{70},{71}"
 %oldchk=2q9f_II_O.chk
 %chk=2q9f_II_Sn.chk
 Properties for Device   0
 Minimum vector length:                              32
 Maximum vector length:                            1024
 Number of SMPs:                                    108
 Maximum number of threads per SMP:                2048
 Number of ASync Engines:                             5
 Memory:                                           9207742464
 Properties for Device   1
 Minimum vector length:                              32
 Maximum vector length:                            1024
 Number of SMPs:                                    108
 Maximum number of threads per SMP:                2048
 Number of ASync Engines:                             5
 Memory:                                           9207742464
 Properties for Device   2
 Minimum vector length:                              32
 Maximum vector length:                            1024
 Number of SMPs:                                    108
 Maximum number of threads per SMP:                2048
 Number of ASync Engines:                             5
 Memory:                                           9207742464
 Properties for Device   3
[...]
  1137. RY*(  14) C  56                  0.00000     3.13409   
  1138. RY*(  15) C  56                  0.00000     2.33229   
  1139. RY*(  16) C  56                  0.00001     3.18471   
  1140. RY*(  17) C  56                  0.00001     1.74262   
  1141. RY*(  18) C  56                  0.00000     3.20574   
  1142. RY*(  19) C  56                  0.00001     2.53372   
  1143. RY*(  20) C  56                  0.00000     3.26065   
  1144. RY*(  21) C  56                  0.00000     3.48315   
  1145. RY*(  22) C  56                  0.00000     3.80817   
  1146. RY*(  23) C  56                  0.00000     3.45948   
  1147. RY*(  24) C  56                  0.00000     3.35221   
  1148. RY*(  25) C  56                  0.00000     3.71423   
  1149. RY*(  26) C  56                  0.00000     3.63009   
  1150. RY*(   1) H  57                  0.00094     0.94375   
  1151. RY*(   2) H  57                  0.00017     1.79329   
  1152. RY*(   3) H  57                  0.00007     2.12495   
  1153. RY*(   4) H  57                  0.00005     2.01691   
  1154. RY*(   5) H  57                  0.00001     2.95983   
  1155. RY*(   1) H  58                  0.00084     0.90083   
  1156. RY*(   2) H  58                  0.00018     1.85243   
  1157. RY*(   3) H  58                  0.00006     1.99217   
  1158. RY*(   4) H  58                  0.00007     2.14302   
  1159. RY*(   5) H  58                  0.00001     2.96846   
  1160. RY*(   1) H  59                  0.00071     0.87198   
  1161. RY*(   2) H  59                  0.00013     1.67889   
  1162. RY*(   3) H  59                  0.00011     2.15830   
  1163. RY*(   4) H  59                  0.00007     2.09192   
  1164. RY*(   5) H  59                  0.00001     2.99358   
  1165. RY*(   1) C  60                  0.00150     1.34081   
  1166. RY*(   2) C  60                  0.00144     1.15459   
  1167. RY*(   3) C  60                  0.00072     1.37916   
  1168. RY*(   4) C  60                  0.00015     1.12945   
  1169. RY*(   5) C  60                  0.00005     1.87930   
  1170. RY*(   6) C  60                  0.00005     1.49291   
  1171. RY*(   7) C  60                  0.00003     2.02003   
  1172. RY*(   8) C  60                  0.00001     4.04337   
  1173. RY*(   9) C  60                  0.00001     1.71812   
  1174. RY*(  10) C  60                  0.00001     1.48002   
  1175. RY*(  11) C  60                  0.00000     2.51084   
  1176. RY*(  12) C  60                  0.00000     2.00266   
  1177. RY*(  13) C  60                  0.00001     2.48997   
  1178. RY*(  14) C  60                  0.00000     3.02367   
  1179. RY*(  15) C  60                  0.00000     2.37243   
  1180. RY*(  16) C  60                  0.00000    21.04826   
  1181. RY*(  17) C  60                  0.00001     2.90871   
  1182. RY*(  18) C  60                  0.00000     3.24955   
  1183. RY*(  19) C  60                  0.00000     2.62495   
  1184. RY*(  20) C  60                  0.00000     3.22137   
  1185. RY*(  21) C  60                  0.00000     3.48888   
  1186. RY*(  22) C  60                  0.00000     3.85814   
  1187. RY*(  23) C  60                  0.00000     3.47333   
  1188. RY*(  24) C  60                  0.00000     3.30341   
  1189. RY*(  25) C  60                  0.00000     3.60894   
  1190. RY*(  26) C  60                  0.00000     3.75840   
  1191. RY*(   1) H  61                  0.00071     0.86400   
  1192. RY*(   2) H  61                  0.00013     1.68595   
  1193. RY*(   3) H  61                  0.00011     2.15773   
  1194. RY*(   4) H  61                  0.00007     2.09754   
  1195. RY*(   5) H  61                  0.00001     2.98482   
  1196. RY*(   1) H  62                  0.00098     0.93609   
  1197. RY*(   2) H  62                  0.00017     1.79062   
  1198. RY*(   3) H  62                  0.00007     2.12815   
  1199. RY*(   4) H  62                  0.00005     2.04630   
  1200. RY*(   5) H  62                  0.00001     2.95817   
  1201. RY*(   1) H  63                  0.00081     0.90904   
  1202. RY*(   2) H  63                  0.00019     1.87578   
  1203. RY*(   3) H  63                  0.00007     2.16704   
  1204. RY*(   4) H  63                  0.00005     1.95179   
  1205. RY*(   5) H  63                  0.00001     2.96855   
  1317. BD*(   1) N   2 - C   6          0.02665     0.51360   
  1318. BD*(   1) N   2 - C   9          0.02691     0.49192   
  1319. BD*(   2) N   2 - C   9          0.65294    -0.00105  1339(v),1330(v),1332(v)
                                                    1336(g),182(g),733(v),145(r)
                                                    366(g),368(g),1316(r)
                                                    1402(r),168(r)
  1320. BD*(   1) N   3 - C  10          0.02747     0.49751   
  1321. BD*(   1) N   3 - C  13          0.02652     0.50661   
  1322. BD*(   2) N   3 - C  13          0.62559     0.00667  1348(v),1339(v),1341(v)
                                                    470(g),208(g),145(r),764(v)
                                                    142(r),1316(r),1396(r)
  1323. BD*(   1) N   4 - C  14          0.02651     0.51060   
  1324. BD*(   1) N   4 - C  17          0.02535     0.52135   
  1325. BD*(   1) N   5 - C  18          0.02604     0.51572   
  1326. BD*(   1) N   5 - C  21          0.02650     0.51068   
  1327. BD*(   2) N   5 - C  21          0.62679     0.01092  1330(v),1359(v),151(v)
                                                    678(g),260(g),702(v),145(r)
                                                    142(r),1316(r),141(r),144(r)
  1328. BD*(   1) C   6 - C   7          0.03509     0.49475   
  1329. BD*(   1) C   6 - C  22          0.02155     0.56883   
  1330. BD*(   2) C   6 - C  22          0.43167     0.04343  1327(v),1332(v),1319(v)
                                                    702(g),1339(r),288(g),290(g)
  1331. BD*(   1) C   7 - C   8          0.02289     0.61036   
  1332. BD*(   2) C   7 - C   8          0.24162     0.07015  1330(v),1319(v),1369(v)
                                                    1371(v),1372(v),1370(v)
  1333. BD*(   1) C   7 - C  34          0.01747     0.41414   
  1334. BD*(   1) C   8 - C   9          0.03480     0.48037   
  1335. BD*(   1) C   8 - C  30          0.01737     0.41297   
  1336. BD*(   1) C   9 - C  24          0.02113     0.56617   
  1337. BD*(   1) C  10 - C  11          0.03395     0.49944   
  1338. BD*(   1) C  10 - C  24          0.02182     0.56860   
  1339. BD*(   2) C  10 - C  24          0.43709     0.03987  1319(v),1341(v),1322(v)
                                                    733(g),1330(r),394(g),392(g)
  1340. BD*(   1) C  11 - C  12          0.02499     0.58824   
  1341. BD*(   2) C  11 - C  12          0.29802     0.06235  1379(v),1339(v),1322(v)
                                                    1374(v),1375(v)
  1342. BD*(   1) C  11 - C  38          0.01635     0.41519   
  1343. BD*(   1) C  12 - C  13          0.03364     0.48962   
  1344. BD*(   1) C  12 - C  42          0.02657     0.49710   
  1345. BD*(   1) C  13 - C  26          0.02084     0.57856   
  1346. BD*(   1) C  14 - C  15          0.03453     0.49809   
  1347. BD*(   1) C  14 - C  26          0.02113     0.57765   
  1348. BD*(   2) C  14 - C  26          0.40892     0.04896  1350(v),1355(r),1322(v)
                                                    149(v),764(g),498(g),1379(r)
  1349. BD*(   1) C  15 - C  16          0.02450     0.59466   
  1350. BD*(   2) C  15 - C  16          0.27866     0.06833  1387(v),1348(v),1355(v)
                                                    1382(v),1383(v)
  1351. BD*(   1) C  15 - C  47          0.01639     0.42020   
  1352. BD*(   1) C  16 - C  17          0.03466     0.48829   
  1353. BD*(   1) C  16 - C  51          0.02668     0.49851   
  1354. BD*(   1) C  17 - C  28          0.02092     0.58020   
  1355. BD*(   2) C  17 - C  28          0.41602     0.04914  1350(v),1348(r),151(v)
                                                    149(v),795(g),1387(r),576(g)
                                                    574(g)
  1356. BD*(   1) C  18 - C  19          0.03506     0.49040   
  1357. BD*(   1) C  18 - C  28          0.02114     0.57759   
  1358. BD*(   1) C  19 - C  20          0.02269     0.60833   
  1359. BD*(   2) C  19 - C  20          0.24554     0.06941  1327(v),151(v),1394(v)
                                                    1390(v),1391(v),1395(v)
  1360. BD*(   1) C  19 - C  56          0.01722     0.41527   
  1361. BD*(   1) C  20 - C  21          0.03540     0.49203   
  1362. BD*(   1) C  20 - C  60          0.01735     0.41418   
  1363. BD*(   1) C  21 - C  22          0.02088     0.57408   
  1364. BD*(   1) C  22 - H  23          0.01288     0.43560   
  1365. BD*(   1) C  24 - H  25          0.01329     0.43266   
  1366. BD*(   1) C  26 - H  27          0.01328     0.43526   
  1367. BD*(   1) C  28 - H  29          0.01312     0.43496   
  1368. BD*(   1) C  30 - H  31          0.00655     0.38744   
  1369. BD*(   1) C  30 - H  32          0.01279     0.37613   
  1370. BD*(   1) C  30 - H  33          0.00808     0.38160   
  1371. BD*(   1) C  34 - H  35          0.01217     0.37650   
  1372. BD*(   1) C  34 - H  36          0.00904     0.38165   
  1373. BD*(   1) C  34 - H  37          0.00614     0.38856   
  1374. BD*(   1) C  38 - H  39          0.01268     0.37628   
  1375. BD*(   1) C  38 - H  40          0.00957     0.38446   
  1376. BD*(   1) C  38 - H  41          0.00826     0.39147   
  1377. BD*(   1) C  42 - H  43          0.02090     0.42323   
  1378. BD*(   1) C  42 - C  44          0.00783     0.63266   
  1379. BD*(   2) C  42 - C  44          0.07797     0.05774   
  1380. BD*(   1) C  44 - H  45          0.01103     0.43536   
  1381. BD*(   1) C  44 - H  46          0.00849     0.43561   
  1382. BD*(   1) C  47 - H  48          0.01223     0.38151   
  1383. BD*(   1) C  47 - H  49          0.01038     0.38761   
  1384. BD*(   1) C  47 - H  50          0.00829     0.39609   
  1385. BD*(   1) C  51 - H  52          0.02151     0.42447   
  1386. BD*(   1) C  51 - C  53          0.00784     0.63187   
  1387. BD*(   2) C  51 - C  53          0.07613     0.06263   
  1388. BD*(   1) C  53 - H  54          0.01094     0.43746   
  1389. BD*(   1) C  53 - H  55          0.00860     0.43718   
  1390. BD*(   1) C  56 - H  57          0.01155     0.37905   
  1391. BD*(   1) C  56 - H  58          0.00992     0.38068   
  1392. BD*(   1) C  56 - H  59          0.00659     0.38995   
  1393. BD*(   1) C  60 - H  61          0.00655     0.38930   
  1394. BD*(   1) C  60 - H  62          0.01189     0.37730   
  1395. BD*(   1) C  60 - H  63          0.00979     0.37986   
       -------------------------------
              Total Lewis  230.11624  ( 97.2307%)
        Valence non-Lewis    6.04809  (  2.5555%)
        Rydberg non-Lewis    0.50612  (  0.2138%)
       -------------------------------
            Total unit  2  236.67044  (100.0000%)
           Charge unit  2   -0.67044
 
 Molecular unit  3  (H2O)
    81. BD (   1) O  64 - H  65          1.99003    -0.81378  145(r),156(r),1238(v)
                                                    1239(v),1316(r),144(r)
                                                    142(r),212(r),163(r),264(r)
                                                    157(r),1322(r),235(r),263(r)
                                                    183(r),262(r),164(r)
    82. BD (   1) O  64 - H  66          1.99538    -0.87379  145(r),156(r),1234(v),157(r)
                                                    212(r),159(r),1316(r),142(r)
                                                    161(r),186(r),158(r),218(r)
   131. CR (   1) O  64                  1.99980   -18.96813  145(r),1238(v),1239(v)
                                                    142(r),1316(r)
   152. LP (   1) O  64                  1.99202    -0.34114  143(r),1237(v),1233(v)
                                                    144(r),145(r),149(r),1319(r)
                                                    161(r),162(r),157(r),242(r)
   153. LP (   2) O  64                  1.83856    -0.49406  145(r),1238(v),1396(g)
                                                    1234(v),1397(g),1316(r)
                                                    163(r),159(r),160(r),234(r)
                                                    142(r),185(r),211(r),1290(r)
                                                    236(r),184(r),210(r),237(r)
                                                    260(r),208(r),182(r),170(r)
                                                    161(r),164(r),262(r),166(r)
                                                    1318(r),263(r),1326(r)
  1206. RY*(   1) O  64                  0.00240     0.66155   
  1207. RY*(   2) O  64                  0.00202     1.04432   
  1208. RY*(   3) O  64                  0.00034     1.46281   
  1209. RY*(   4) O  64                  0.00027     0.88590   
  1210. RY*(   5) O  64                  0.00009     3.03942   
  1211. RY*(   6) O  64                  0.00005     2.12210   
  1212. RY*(   7) O  64                  0.00003     3.79689   
  1213. RY*(   8) O  64                  0.00001     3.41868   
  1214. RY*(   9) O  64                  0.00001     3.71081   
  1215. RY*(  10) O  64                  0.00001     2.26434   
  1216. RY*(  11) O  64                  0.00001     3.23248   
  1217. RY*(  12) O  64                  0.00000     2.71768   
  1218. RY*(  13) O  64                  0.00000     6.52275   
  1219. RY*(  14) O  64                  0.00000    41.92944   
  1220. RY*(  15) O  64                  0.00000     6.37916   
  1221. RY*(  16) O  64                  0.00000     6.16822   
  1222. RY*(  17) O  64                  0.00000     6.49707   
  1223. RY*(  18) O  64                  0.00000     2.67920   
  1224. RY*(  19) O  64                  0.00000     6.58604   
  1225. RY*(  20) O  64                  0.00000     5.32681   
  1226. RY*(  21) O  64                  0.00000     5.75725   
  1227. RY*(  22) O  64                  0.00000     5.18442   
  1228. RY*(  23) O  64                  0.00000     5.55791   
  1229. RY*(  24) O  64                  0.00000     5.28921   
  1230. RY*(  25) O  64                  0.00000     5.59722   
  1231. RY*(  26) O  64                  0.00000     5.34879   
  1232. RY*(   1) H  65                  0.00150     0.83548   
  1233. RY*(   2) H  65                  0.00081     2.10245   
  1234. RY*(   3) H  65                  0.00069     2.31007   
  1235. RY*(   4) H  65                  0.00023     2.07226   
  1236. RY*(   5) H  65                  0.00002     2.91062   
  1237. RY*(   1) H  66                  0.00097     2.00854   
  1238. RY*(   2) H  66                  0.00079     1.90036   
  1239. RY*(   3) H  66                  0.00045     1.92290   
  1240. RY*(   4) H  66                  0.00025     1.54540   
  1241. RY*(   5) H  66                  0.00001     3.00979   
  1396. BD*(   1) O  64 - H  65          0.00564     0.42969   
  1397. BD*(   1) O  64 - H  66          0.00252     0.60534   
       -------------------------------
              Total Lewis    9.81578  ( 99.8055%)
        Valence non-Lewis    0.00816  (  0.0829%)
        Rydberg non-Lewis    0.01098  (  0.1116%)
       -------------------------------
            Total unit  3    9.83492  (100.0000%)
           Charge unit  3    0.16508
 Unable to Open any file for archive entry.
 1\1\GINC-BGN1011\SP\RAPFD\def2TZVP\C31H34Fe1N4O1S1\BECSLEIP\31-Aug-202
 4\0\\# apfd/def2TZVP int=(grid=ultrafine) geom=check guess=read pop=nb
 o scf=qc\\2q9f_II_S_nbo\\0,1\Fe,0,34.0409094745,0.341007177,7.40046128
 46\N,0,32.2438367801,-0.3693611432,7.8506585941\N,0,34.8697678704,-1.4
 27194166,7.8321148951\N,0,35.8585155944,1.09943252,7.0569154784\N,0,33
 .2744738527,2.1809212139,7.3038310843\C,0,31.1281688973,0.3389160145,8
 .1499975417\C,0,30.0662898814,-0.5315739512,8.5970298826\C,0,30.539650
 982,-1.797848667,8.4741790857\C,0,31.9261839168,-1.6863378419,8.054426
 9082\C,0,34.2206825566,-2.547280489,8.2608370496\C,0,35.143613598,-3.6
 343003169,8.4410979606\C,0,36.3822674607,-3.1475815596,8.1081048786\C,
 0,36.1803575817,-1.766440508,7.725401247\C,0,36.9994614751,0.380073391
 5,6.8674858911\C,0,38.0549125608,1.2181813579,6.3549444356\C,0,37.5336
 056239,2.4807602412,6.2708020887\C,0,36.1578709016,2.3770572564,6.7200
 621565\C,0,33.9410962994,3.3468670429,7.1041764788\C,0,33.0221275086,4
 .462671042,7.0457519654\C,0,31.7773405482,3.9391549373,7.2015476099\C,
 0,31.9602045804,2.5188251615,7.4052431555\C,0,30.9470046072,1.67127631
 45,7.8123808917\H,0,29.9675880556,2.0981071685,7.9643031872\C,0,32.844
 8180993,-2.6660875187,8.3834032829\H,0,32.4564344368,-3.6318852306,8.6
 678286683\C,0,37.170039003,-0.9467481804,7.2183937903\H,0,38.148499404
 8,-1.3785854393,7.0779624661\C,0,35.2816454741,3.4438868422,6.78103535
 49\H,0,35.6669093355,4.4243659782,6.5480006336\C,0,29.8516617151,-3.08
 6417663,8.7721231551\H,0,28.7724146062,-2.9524980691,8.7763802852\H,0,
 30.150788475,-3.4680776382,9.7498061796\H,0,30.1034465151,-3.836282850
 4,8.0238412718\C,0,28.7225635251,-0.0651403776,9.0404888538\H,0,28.148
 9028622,0.321802155,8.19672882\H,0,28.8222103456,0.7328773685,9.775031
 2356\H,0,28.1622306687,-0.8805559415,9.4910609095\C,0,34.7865781518,-4
 .9803550803,8.9673262448\H,0,34.4225864647,-5.6270333501,8.1671881872\
 H,0,34.0050613835,-4.9050662897,9.7220468283\H,0,35.660501119,-5.44933
 69484,9.4151575733\C,0,37.6668399795,-3.8104663952,8.1332202214\H,0,38
 .5127863711,-3.1735423309,8.3645517538\C,0,37.8781353285,-5.1009463996
 ,7.8960420197\H,0,37.084550465,-5.7708307264,7.6152449965\H,0,38.86603
 28901,-5.5273468678,7.9488130246\C,0,39.4458105597,0.7714003989,6.0724
 984417\H,0,39.5021213834,0.2740352717,5.1031738622\H,0,39.7883901736,0
 .0684422171,6.8303783383\H,0,40.1183589457,1.6265499338,6.0618862409\C
 ,0,38.1706918162,3.7071231725,5.8433543393\H,0,37.8559109308,4.6050796
 167,6.3625190807\C,0,39.0808921985,3.8038022142,4.8801640783\H,0,39.39
 20483434,2.9524217457,4.3003693172\H,0,39.526959554,4.7489730895,4.618
 6413222\C,0,33.4323759698,5.8784938576,6.8299689203\H,0,33.8725813397,
 6.0035540915,5.8399168965\H,0,34.1743190677,6.1784115031,7.5695036452\
 H,0,32.5775358208,6.5452827645,6.9114519173\C,0,30.4566991048,4.628968
 4668,7.2133363506\H,0,30.563232527,5.6697953139,6.9180075349\H,0,30.01
 62378597,4.5996966913,8.2108264838\H,0,29.7654300514,4.1445379275,6.52
 42336662\O,0,34.3169999998,0.6459999999,9.6150000015\H,0,34.5879999991
 ,-0.2400000012,9.8539999993\H,0,34.3760000033,1.3700000012,10.12800000
 37\C,0,32.2115447914,0.546906768,4.5888189425\H,0,31.8906493656,0.0663
 321155,3.6697685279\H,0,32.4266391979,1.5952315432,4.4090611258\H,0,31
 .4629576343,0.4540816977,5.3682330515\S,0,33.7748681565,-0.215178552,5
 .1520354129\H,0,33.2531226402,-1.433733793,5.3337622086\\Version=ES64L
 -G16RevC.02\State=1-A\HF=-3157.1812763\RMSD=2.670e-09\Dipole=-0.889926
 ,0.0445598,0.2652173\Quadrupole=0.8958417,2.745301,-3.6411427,-0.13025
 55,1.0523774,-0.3468115\PG=C01 [X(C31H34Fe1N4O1S1)]\\@
 The archive entry for this job was punched.


 CLIMB THE MOUNTAINS AND GET THEIR GOOD TIDINGS.
 NATURE'S PEACE WILL FLOW INTO YOU AS SUNSHINE FLOWS INTO TREES.
 THE WINDS WILL BLOW THEIR OWN FRESHNESS INTO YOU, 
 AND CARES WILL DROP OFF LIKE AUTUMN LEAVES.

                                         -- JOHN MUIR
 Job cpu time:       0 days  0 hours 39 minutes  4.3 seconds.
 Elapsed time:       0 days  0 hours  0 minutes 49.2 seconds.
 File lengths (MBytes):  RWF=    664 Int=      0 D2E=      0 Chk=    156 Scr=      1
 Normal termination of Gaussian 16 at Sat Aug 31 16:15:44 2024.
