 Entering Gaussian System, Link 0=g16
 Input=2r5l05.com
 Output=2r5l05.log
 Initial command:
 /sw/chem/gaussian/g16_C02/a100/g16/l1.exe "/local/becsleip_8003061/Gau-47846.inp" -scrdir="/local/becsleip_8003061/"
 Entering Link 1 = /sw/chem/gaussian/g16_C02/a100/g16/l1.exe PID=     47847.
  
 Copyright (c) 1988-2021, Gaussian, Inc.  All Rights Reserved.
  
 This is part of the Gaussian(R) 16 program.  It is based on
 the Gaussian(R) 09 system (copyright 2009, Gaussian, Inc.),
 the Gaussian(R) 03 system (copyright 2003, Gaussian, Inc.),
 the Gaussian(R) 98 system (copyright 1998, Gaussian, Inc.),
 the Gaussian(R) 94 system (copyright 1995, Gaussian, Inc.),
 the Gaussian 92(TM) system (copyright 1992, Gaussian, Inc.),
 the Gaussian 90(TM) system (copyright 1990, Gaussian, Inc.),
 the Gaussian 88(TM) system (copyright 1988, Gaussian, Inc.),
 the Gaussian 86(TM) system (copyright 1986, Carnegie Mellon
 University), and the Gaussian 82(TM) system (copyright 1983,
 Carnegie Mellon University). Gaussian is a federally registered
 trademark of Gaussian, Inc.
  
 This software contains proprietary and confidential information,
 including trade secrets, belonging to Gaussian, Inc.
  
 This software is provided under written license and may be
 used, copied, transmitted, or stored only in accord with that
 written license.
  
 The following legend is applicable only to US Government
 contracts under FAR:
  
                    RESTRICTED RIGHTS LEGEND
  
 Use, reproduction and disclosure by the US Government is
 subject to restrictions as set forth in subparagraphs (a)
 and (c) of the Commercial Computer Software - Restricted
 Rights clause in FAR 52.227-19.
  
 Gaussian, Inc.
 340 Quinnipiac St., Bldg. 40, Wallingford CT 06492
  
  
 ---------------------------------------------------------------
 Warning -- This program may not be used in any manner that
 competes with the business of Gaussian, Inc. or will provide
 assistance to any competitor of Gaussian, Inc.  The licensee
 of this program is prohibited from giving any competitor of
 Gaussian, Inc. access to this program.  By using this program,
 the user acknowledges that Gaussian, Inc. is engaged in the
 business of creating and licensing software in the field of
 computational chemistry and represents and warrants to the
 licensee that it is not a competitor of Gaussian, Inc. and that
 it will not use this program in any manner prohibited above.
 ---------------------------------------------------------------
  

 Cite this work as:
 Gaussian 16, Revision C.02,
 M. J. Frisch, G. W. Trucks, H. B. Schlegel, G. E. Scuseria, 
 M. A. Robb, J. R. Cheeseman, G. Scalmani, V. Barone, 
 G. A. Petersson, H. Nakatsuji, X. Li, M. Caricato, A. V. Marenich, 
 J. Bloino, B. G. Janesko, R. Gomperts, B. Mennucci, H. P. Hratchian, 
 J. V. Ortiz, A. F. Izmaylov, J. L. Sonnenberg, D. Williams-Young, 
 F. Ding, F. Lipparini, F. Egidi, J. Goings, B. Peng, A. Petrone, 
 T. Henderson, D. Ranasinghe, V. G. Zakrzewski, J. Gao, N. Rega, 
 G. Zheng, W. Liang, M. Hada, M. Ehara, K. Toyota, R. Fukuda, 
 J. Hasegawa, M. Ishida, T. Nakajima, Y. Honda, O. Kitao, H. Nakai, 
 T. Vreven, K. Throssell, J. A. Montgomery, Jr., J. E. Peralta, 
 F. Ogliaro, M. J. Bearpark, J. J. Heyd, E. N. Brothers, K. N. Kudin, 
 V. N. Staroverov, T. A. Keith, R. Kobayashi, J. Normand, 
 K. Raghavachari, A. P. Rendell, J. C. Burant, S. S. Iyengar, 
 J. Tomasi, M. Cossi, J. M. Millam, M. Klene, C. Adamo, R. Cammi, 
 J. W. Ochterski, R. L. Martin, K. Morokuma, O. Farkas, 
 J. B. Foresman, and D. J. Fox, Gaussian, Inc., Wallingford CT, 2019.
 
 ******************************************
 Gaussian 16:  ES64L-G16RevC.02  7-Dec-2021
                 3-Sep-2024 
 ******************************************
 %mem=16GB
 %CPU=0-71
 SetSPE:  set environment variable "OMP_PROC_BIND" = "true"
 SetSPE:  set environment variable "OMP_PLACES" = "{0},{1},{2},{3},{4},{5},{6},{7},{8},{9},{10},{11},{12},{13},{14},{15},{16},{17},{18},{19},{20},{21},{22},{23},{24},{25},{26},{27},{28},{29},{30},{31},{32},{33},{34},{35},{36},{37},{38},{39},{40},{41},{42},{43},{44},{45},{46},{47},{48},{49},{50},{51},{52},{53},{54},{55},{56},{57},{58},{59},{60},{61},{62},{63},{64},{65},{66},{67},{68},{69},{70},{71}"
 Will use up to   72 processors via shared memory.
 %gpucpu=0,1,2,3=0,1,2,3
 Will use    4 GPUs:
 Thread  CPU   GPU
      0    0     0
      1    1     1
      2    2     2
      3    3     3
      4    4    -1
      5    5    -1
      6    6    -1
      7    7    -1
      8    8    -1
      9    9    -1
     10   10    -1
     11   11    -1
     12   12    -1
     13   13    -1
     14   14    -1
     15   15    -1
     16   16    -1
     17   17    -1
     18   18    -1
     19   19    -1
     20   20    -1
     21   21    -1
     22   22    -1
     23   23    -1
     24   24    -1
     25   25    -1
     26   26    -1
     27   27    -1
     28   28    -1
     29   29    -1
     30   30    -1
     31   31    -1
     32   32    -1
     33   33    -1
     34   34    -1
     35   35    -1
     36   36    -1
     37   37    -1
     38   38    -1
     39   39    -1
     40   40    -1
     41   41    -1
     42   42    -1
     43   43    -1
     44   44    -1
     45   45    -1
     46   46    -1
     47   47    -1
     48   48    -1
     49   49    -1
     50   50    -1
     51   51    -1
     52   52    -1
     53   53    -1
     54   54    -1
     55   55    -1
     56   56    -1
     57   57    -1
     58   58    -1
     59   59    -1
     60   60    -1
     61   61    -1
     62   62    -1
     63   63    -1
     64   64    -1
     65   65    -1
     66   66    -1
     67   67    -1
     68   68    -1
     69   69    -1
     70   70    -1
     71   71    -1
 SetGPE:  set environment variable "OMP_PROC_BIND" = "true"
 SetGPE:  set environment variable "OMP_PLACES" = "{0},{1},{2},{3},{4},{5},{6},{7},{8},{9},{10},{11},{12},{13},{14},{15},{16},{17},{18},{19},{20},{21},{22},{23},{24},{25},{26},{27},{28},{29},{30},{31},{32},{33},{34},{35},{36},{37},{38},{39},{40},{41},{42},{43},{44},{45},{46},{47},{48},{49},{50},{51},{52},{53},{54},{55},{56},{57},{58},{59},{60},{61},{62},{63},{64},{65},{66},{67},{68},{69},{70},{71}"
 %oldchk=2r5l_II_Sre.chk
 %chk=2r5l_II_Qn.chk
 Properties for Device   0
 Minimum vector length:                              32
 Maximum vector length:                            1024
 Number of SMPs:                                    108
 Maximum number of threads per SMP:                2048
 Number of ASync Engines:                             5
 Memory:                                           9207742464
 Properties for Device   1
 Minimum vector length:                              32
 Maximum vector length:                            1024
 Number of SMPs:                                    108
 Maximum number of threads per SMP:                2048
 Number of ASync Engines:                             5
 Memory:                                           9207742464
 Properties for Device   2
 Minimum vector length:                              32
 Maximum vector length:                            1024
 Number of SMPs:                                    108
 Maximum number of threads per SMP:                2048
 Number of ASync Engines:                             5
 Memory:                                           9207742464
 Properties for Device   3
 Minimum vector length:                              32
 Maximum vector length:                            1024
 Number of SMPs:                                    108
 Maximum number of threads per SMP:                2048
 Number of ASync Engines:                             5
 Memory:                                           9207742464
   8286968217 words of memory will be used on each GPU.
 Copying data from "2r5l_II_Sre.chk" to current chk file "2r5l_II_Qn.chk"
 IOpt=  2 FromEx=T IUOpen= 4 IOptOp= 5 NList=   0 IFRang= 0 IUIn= 4 IUOut= 2.
 --------------------------------------------------------------
 # apfd/def2TZVP guess=read scf=maxcycle=999 geom=check pop=nbo
 --------------------------------------------------------------
 1/29=2,38=1,172=1/1;
 2/12=2,40=1/2;
 3/5=44,7=101,11=2,14=-4,25=1,30=1,74=-44,116=-2/1,2,3;
 4/5=1/1;
 5/5=2,7=999,38=6/2;
 6/7=2,8=2,9=2,10=2,28=1,40=1/1,7;
 99/5=1,9=1/99;
 ---------
 2r5l_II_Q
 ---------
 Structure from the checkpoint file:  "2r5l_II_Qn.chk"
 Charge =  0 Multiplicity = 5
 Z-Matrix found in chk file.
 Fe,0,9.6523261691,2.3148984223,26.562358647
 N,0,8.7105559514,2.4350670879,28.3400802157
 N,0,9.6770339044,4.3068667882,26.4476220569
 N,0,10.260546568,2.2051263999,24.6259887917
 N,0,9.4215231741,0.3261720216,26.5535500971
 C,0,8.3574512869,1.3870334459,29.1306336623
 C,0,7.9089438902,1.8522180034,30.4191926873
 C,0,7.9966031034,3.2119039485,30.3920539576
 C,0,8.4976291629,3.5581277439,29.0822608744
 C,0,9.2137306,5.1841304709,27.3815828966
 C,0,9.3561713678,6.5446558377,26.9283468629
 C,0,9.889575525,6.4758499808,25.6699485025
 C,0,10.0724589554,5.0632126203,25.3907739353
 C,0,10.67882973,3.2462153257,23.855192338
 C,0,11.3115847387,2.7761962587,22.6495306222
 C,0,11.1862795006,1.4114006332,22.6615331091
 C,0,10.5420100732,1.0827532784,23.9180379205
 C,0,9.671682445,-0.5364748513,25.5342955765
 C,0,9.2188469045,-1.8705659544,25.862689836
 C,0,8.6592364693,-1.7885250935,27.0984069116
 C,0,8.793022588,-0.4080624741,27.5131770229
 C,0,8.3660965462,0.0585381251,28.742286701
 H,0,7.9718986132,-0.6642277952,29.4410036019
 C,0,8.7234266376,4.8451287113,28.6320620513
 H,0,8.4735101086,5.65943153,29.2952760187
 C,0,10.5658687935,4.5836362221,24.1940218977
 H,0,10.9090184945,5.3090507603,23.4720948955
 C,0,10.2776038717,-0.207651849,24.3367199421
 H,0,10.5053073189,-1.0137987154,23.6560698746
 C,0,7.6394384172,4.1542315071,31.4924278367
 H,0,8.2385395337,3.9465326578,32.3797503345
 H,0,6.5889324274,4.0439300937,31.7644001665
 H,0,7.8101214111,5.1868667158,31.2027521047
 C,0,7.4424027978,0.9789391223,31.5335309041
 H,0,8.2070881545,0.2479095701,31.797900456
 H,0,6.5429141175,0.4336089414,31.2448072917
 H,0,7.2150724737,1.5756319082,32.4134377647
 C,0,8.8969518989,7.7501085902,27.6725467801
 H,0,9.6335458234,8.049937822,28.4199192958
 H,0,7.9565902833,7.5525747909,28.1855995429
 H,0,8.7494784875,8.5797427246,26.9839583095
 C,0,10.1985261738,7.5468898645,24.748453191
 H,0,10.0494073533,7.3198496041,23.6990852202
 C,0,10.6436079426,8.7524494231,25.0877192104
 H,0,10.8546262317,9.0190669208,26.108689459
 H,0,10.8384609749,9.509983688,24.3466371605
 C,0,11.8540174884,3.6444927652,21.5681749074
 H,0,12.8668982606,3.9734881619,21.8065200916
 H,0,11.2360128143,4.5313418397,21.4358353589
 H,0,11.8826546207,3.0975564848,20.6279299075
 C,0,11.6158658856,0.4431260302,21.6779491707
 H,0,10.9892139317,-0.4365140818,21.5843474279
 C,0,12.6951277252,0.547680603,20.9090174636
 H,0,13.3802097599,1.3731614831,20.9925378636
 H,0,12.9462924971,-0.2091820928,20.1843815461
 C,0,9.3480576548,-3.047666229,24.957938121
 H,0,10.3941711971,-3.2248968903,24.7074805798
 H,0,8.802709868,-2.8784529824,24.0290951202
 H,0,8.9519324879,-3.9441405078,25.4288034527
 C,0,8.0121542154,-2.8553461216,27.9140793454
 H,0,8.5349444622,-2.9867452671,28.8620108402
 H,0,8.0217260939,-3.8049860678,27.3848530814
 H,0,6.9764580324,-2.5953409405,28.1333184532
 O,0,7.509,2.45,25.778
 H,0,6.995,2.686,26.5499999999
 H,0,7.198,2.343,24.952
 C,0,15.0682256826,2.9334663296,27.6375851303
 H,0,15.363566005,3.3905776294,28.5819076576
 H,0,15.2175492777,3.6542427706,26.839938745
 H,0,15.7147171781,2.0745474177,27.4575771021
 N,0,13.157242067,1.6268799428,28.5918278047
 H,0,13.6945755358,1.1732779528,29.3121912106
 C,0,13.642308548,2.5208304537,27.6735939384
 C,0,11.8353385364,1.4677014932,28.3502398821
 H,0,11.1917472786,0.8243617151,28.9141582637
 N,0,11.4555285519,2.2066994083,27.3352908592
 C,0,12.5687547901,2.8679907011,26.9043521953
 H,0,12.5198637139,3.5439068191,26.0754765489
 Recover connectivity data from disk.
 Stoichiometry    C34H36FeN6O(5)
 Framework group  C1[X(C34H36FeN6O)]
 Deg. of freedom   228
 Full point group                 C1      NOp   1
 Largest Abelian subgroup         C1      NOp   1
 Largest concise Abelian subgroup C1      NOp   1
                         Standard orientation:                         
 ---------------------------------------------------------------------
 Center     Atomic      Atomic             Coordinates (Angstroms)
 Number     Number       Type             X           Y           Z
 ---------------------------------------------------------------------
      1         26           0       -0.237964   -0.034672   -0.269616
      2          7           0       -2.045386    0.852929   -0.353617
      3          7           0        0.639343    1.747741   -0.456836
      4          7           0        1.559888   -0.939113   -0.554612
      5          7           0       -1.101602   -1.840177   -0.321204
      6          6           0       -3.248473    0.229600   -0.243729
      7          6           0       -4.311428    1.195994   -0.124787
      8          6           0       -3.723986    2.424941   -0.166848
      9          6           0       -2.306269    2.189985   -0.312890
     10          6           0        0.019251    2.958289   -0.537965
     11          6           0        0.978111    4.019299   -0.715698
     12          6           0        2.206706    3.419632   -0.777131
     13          6           0        1.964606    1.996998   -0.620839
     14          6           0        2.772111   -0.321307   -0.596876
     15          6           0        3.844570   -1.279378   -0.514118
     16          6           0        3.251349   -2.514934   -0.511999
     17          6           0        1.822502   -2.269491   -0.519037
     18          6           0       -0.497652   -3.048011   -0.469534
     19          6           0       -1.477507   -4.100582   -0.626640
     20          6           0       -2.693700   -3.494747   -0.599623
     21          6           0       -2.438915   -2.082352   -0.410322
     22          6           0       -3.443569   -1.139630   -0.297903
     23          1           0       -4.463117   -1.495242   -0.290789
     24          6           0       -1.342679    3.176073   -0.408599
     25          1           0       -1.674837    4.203238   -0.410570
     26          6           0        2.966336    1.047903   -0.658516
     27          1           0        3.983956    1.402318   -0.721724
     28          6           0        0.866747   -3.266793   -0.471374
     29          1           0        1.206769   -4.290856   -0.497555
     30          6           0       -4.409070    3.747989   -0.085768
     31          1           0       -4.956645    3.835218    0.853356
     32          1           0       -5.124207    3.858925   -0.901838
     33          1           0       -3.698788    4.567644   -0.140949
     34          6           0       -5.759469    0.868700    0.009689
     35          1           0       -5.930961    0.220000    0.869234
     36          1           0       -6.121286    0.350103   -0.879115
     37          1           0       -6.343173    1.776677    0.139395
     38          6           0        0.641948    5.458122   -0.901750
     39          1           0        0.464477    5.943612    0.059414
     40          1           0       -0.256484    5.569894   -1.507432
     41          1           0        1.462441    5.971477   -1.399196
     42          6           0        3.506608    4.018516   -0.985273
     43          1           0        4.210601    3.423816   -1.555958
     44          6           0        3.888589    5.209394   -0.535303
     45          1           0        3.249666    5.823193    0.075452
     46          1           0        4.870712    5.601231   -0.742490
     47          6           0        5.296312   -0.951847   -0.565779
     48          1           0        5.663887   -0.662822    0.420288
     49          1           0        5.483470   -0.124654   -1.248910
     50          1           0        5.863350   -1.816783   -0.903968
     51          6           0        3.862142   -3.824563   -0.475356
     52          1           0        3.328390   -4.603503   -1.007880
     53          6           0        4.992789   -4.133923    0.151483
     54          1           0        5.538800   -3.414579    0.736418
     55          1           0        5.397882   -5.131986    0.123336
     56          6           0       -1.140873   -5.540852   -0.808669
     57          1           0       -0.556766   -5.907091    0.035832
     58          1           0       -0.551314   -5.684838   -1.714469
     59          1           0       -2.042789   -6.142950   -0.888168
     60          6           0       -4.050627   -4.095455   -0.741187
     61          1           0       -4.650756   -3.907124    0.149614
     62          1           0       -3.983361   -5.170861   -0.885982
     63          1           0       -4.572674   -3.666239   -1.596509
     64          8           0       -0.464726    0.009786   -2.544242
     65          1           0       -1.223317    0.574812   -2.689712
     66          1           0        0.034222   -0.372559   -3.172978
     67          6           0        1.447307    0.387325    5.007929
     68          1           0        0.981002    1.138008    5.645860
     69          1           0        2.441785    0.728453    4.738296
     70          1           0        1.538011   -0.536693    5.578944
     71          7           0       -0.657682   -0.250401    3.811296
     72          1           0       -1.190980   -0.446479    4.642291
     73          6           0        0.646347    0.169016    3.776828
     74          6           0       -1.089213   -0.352950    2.532861
     75          1           0       -2.074908   -0.661559    2.251321
     76          7           0       -0.137285   -0.023796    1.692631
     77          6           0        0.948276    0.303850    2.451902
     78          1           0        1.865824    0.612239    1.994421
 ---------------------------------------------------------------------
 Rotational constants (GHZ):           0.0924305           0.0910641           0.0593122
 Standard basis: def2TZVP (5D, 7F)
 There are  1744 symmetry adapted cartesian basis functions of A   symmetry.
 There are  1532 symmetry adapted basis functions of A   symmetry.
  1532 basis functions,  2481 primitive gaussians,  1744 cartesian basis functions
   160 alpha electrons      156 beta electrons
       nuclear repulsion energy      5957.1813160933 Hartrees.
 NAtoms=   78 NActive=   78 NUniq=   78 SFac= 1.00D+00 NAtFMM=   60 NAOKFM=T Big=T
 Integral buffers will be    131072 words long.
 Raffenetti 2 integral format.
 Two-electron integral symmetry is turned on.
 R6APFD:  NTU= -4 IXU= 1 FactS= 1.050
 Nuclear repulsion after empirical dispersion term =     5957.0290919394 Hartrees.
 One-electron integrals computed using PRISM.
   1 Symmetry operations used in ECPInt.
 ECPInt:  NShTT=  186355 NPrTT=  576197 LenC2=  147009 LenP2D=  300654.
 LDataN:  DoStor=T MaxTD1= 6 Len=  172
 Number of processors reduced to  23 by ecpmxn.
 NBasis=  1532 RedAO= T EigKep=  3.39D-06  NBF=  1532
 NBsUse=  1532 1.00D-06 EigRej= -1.00D+00 NBFU=  1532
 Initial guess from the checkpoint file:  "2r5l_II_Qn.chk"
 B after Tr=    -0.000000   -0.000000   -0.000000
         Rot=    1.000000    0.000000   -0.000000   -0.000000 Ang=   0.00 deg.
 Initial guess <Sx>= 0.0000 <Sy>= 0.0000 <Sz>= 2.0000 <S**2>= 6.0808 S= 2.0161
 Requested convergence on RMS density matrix=1.00D-08 within 999 cycles.
 Requested convergence on MAX density matrix=1.00D-06.
 Requested convergence on             energy=1.00D-06.
 No special actions if energy rises.
 Restarting incremental Fock formation.
 SCF Done:  E(UAPFD) =  -2983.98545115     A.U. after   33 cycles
            NFock= 33  Conv=0.11D-08     -V/T= 2.0033
 <Sx>= 0.0000 <Sy>= 0.0000 <Sz>= 2.0000 <S**2>= 6.0788 S= 2.0157
 <L.S>=  0.00000000000    
 Annihilation of the first spin contaminant:
 S**2 before annihilation     6.0788,   after     6.0018

 **********************************************************************

            Population analysis using the SCF Density.

 **********************************************************************

 Orbital symmetries:
 Alpha Orbitals:
       Occupied  (A) (A) (A) (A) (A) (A) (A) (A) (A) (A) (A) (A)
                 (A) (A) (A) (A) (A) (A) (A) (A) (A) (A) (A) (A)
                 (A) (A) (A) (A) (A) (A) (A) (A) (A) (A) (A) (A)
                 (A) (A) (A) (A) (A) (A) (A) (A) (A) (A) (A) (A)
                 (A) (A) (A) (A) (A) (A) (A) (A) (A) (A) (A) (A)
                 (A) (A) (A) (A) (A) (A) (A) (A) (A) (A) (A) (A)
                 (A) (A) (A) (A) (A) (A) (A) (A) (A) (A) (A) (A)
                 (A) (A) (A) (A) (A) (A) (A) (A) (A) (A) (A) (A)
                 (A) (A) (A) (A) (A) (A) (A) (A) (A) (A) (A) (A)
                 (A) (A) (A) (A) (A) (A) (A) (A) (A) (A) (A) (A)
                 (A) (A) (A) (A) (A) (A) (A) (A) (A) (A) (A) (A)
                 (A) (A) (A) (A) (A) (A) (A) (A) (A) (A) (A) (A)
                 (A) (A) (A) (A) (A) (A) (A) (A) (A) (A) (A) (A)
                 (A) (A) (A) (A)
       Virtual   (A) (A) (A) (A) (A) (A) (A) (A) (A) (A) (A) (A)
                 (A) (A) (A) (A) (A) (A) (A) (A) (A) (A) (A) (A)
                 (A) (A) (A) (A) (A) (A) (A) (A) (A) (A) (A) (A)
                 (A) (A) (A) (A) (A) (A) (A) (A) (A) (A) (A) (A)
                 (A) (A) (A) (A) (A) (A) (A) (A) (A) (A) (A) (A)
                 (A) (A) (A) (A) (A) (A) (A) (A) (A) (A) (A) (A)
                 (A) (A) (A) (A) (A) (A) (A) (A) (A) (A) (A) (A)
                 (A) (A) (A) (A) (A) (A) (A) (A) (A) (A) (A) (A)
                 (A) (A) (A) (A) (A) (A) (A) (A) (A) (A) (A) (A)
                 (A) (A) (A) (A) (A) (A) (A) (A) (A) (A) (A) (A)
                 (A) (A) (A) (A) (A) (A) (A) (A) (A) (A) (A) (A)
                 (A) (A) (A) (A) (A) (A) (A) (A) (A) (A) (A) (A)
                 (A) (A) (A) (A) (A) (A) (A) (A) (A) (A) (A) (A)
                 (A) (A) (A) (A) (A) (A) (A) (A) (A) (A) (A) (A)
                 (A) (A) (A) (A) (A) (A) (A) (A) (A) (A) (A) (A)
                 (A) (A) (A) (A) (A) (A) (A) (A) (A) (A) (A) (A)
                 (A) (A) (A) (A) (A) (A) (A) (A) (A) (A) (A) (A)
                 (A) (A) (A) (A) (A) (A) (A) (A) (A) (A) (A) (A)
                 (A) (A) (A) (A) (A) (A) (A) (A) (A) (A) (A) (A)
                 (A) (A) (A) (A) (A) (A) (A) (A) (A) (A) (A) (A)
                 (A) (A) (A) (A) (A) (A) (A) (A) (A) (A) (A) (A)
                 (A) (A) (A) (A) (A) (A) (A) (A) (A) (A) (A) (A)
                 (A) (A) (A) (A) (A) (A) (A) (A) (A) (A) (A) (A)
                 (A) (A) (A) (A) (A) (A) (A) (A) (A) (A) (A) (A)
                 (A) (A) (A) (A) (A) (A) (A) (A) (A) (A) (A) (A)
                 (A) (A) (A) (A) (A) (A) (A) (A) (A) (A) (A) (A)
                 (A) (A) (A) (A) (A) (A) (A) (A) (A) (A) (A) (A)
                 (A) (A) (A) (A) (A) (A) (A) (A) (A) (A) (A) (A)
                 (A) (A) (A) (A) (A) (A) (A) (A) (A) (A) (A) (A)
                 (A) (A) (A) (A) (A) (A) (A) (A) (A) (A) (A) (A)
                 (A) (A) (A) (A) (A) (A) (A) (A) (A) (A) (A) (A)
                 (A) (A) (A) (A) (A) (A) (A) (A) (A) (A) (A) (A)
                 (A) (A) (A) (A) (A) (A) (A) (A) (A) (A) (A) (A)
                 (A) (A) (A) (A) (A) (A) (A) (A) (A) (A) (A) (A)
                 (A) (A) (A) (A) (A) (A) (A) (A) (A) (A) (A) (A)
                 (A) (A) (A) (A) (A) (A) (A) (A) (A) (A) (A) (A)
                 (A) (A) (A) (A) (A) (A) (A) (A) (A) (A) (A) (A)
                 (A) (A) (A) (A) (A) (A) (A) (A) (A) (A) (A) (A)
                 (A) (A) (A) (A) (A) (A) (A) (A) (A) (A) (A) (A)
                 (A) (A) (A) (A) (A) (A) (A) (A) (A) (A) (A) (A)
                 (A) (A) (A) (A) (A) (A) (A) (A) (A) (A) (A) (A)
                 (A) (A) (A) (A) (A) (A) (A) (A) (A) (A) (A) (A)
                 (A) (A) (A) (A) (A) (A) (A) (A) (A) (A) (A) (A)
                 (A) (A) (A) (A) (A) (A) (A) (A) (A) (A) (A) (A)
                 (A) (A) (A) (A) (A) (A) (A) (A) (A) (A) (A) (A)
                 (A) (A) (A) (A) (A) (A) (A) (A) (A) (A) (A) (A)
                 (A) (A) (A) (A) (A) (A) (A) (A) (A) (A) (A) (A)
                 (A) (A) (A) (A) (A) (A) (A) (A) (A) (A) (A) (A)
                 (A) (A) (A) (A) (A) (A) (A) (A) (A) (A) (A) (A)
                 (A) (A) (A) (A) (A) (A) (A) (A) (A) (A) (A) (A)
                 (A) (A) (A) (A) (A) (A) (A) (A) (A) (A) (A) (A)
                 (A) (A) (A) (A) (A) (A) (A) (A) (A) (A) (A) (A)
                 (A) (A) (A) (A) (A) (A) (A) (A) (A) (A) (A) (A)
                 (A) (A) (A) (A) (A) (A) (A) (A) (A) (A) (A) (A)
                 (A) (A) (A) (A) (A) (A) (A) (A) (A) (A) (A) (A)
                 (A) (A) (A) (A) (A) (A) (A) (A) (A) (A) (A) (A)
                 (A) (A) (A) (A) (A) (A) (A) (A) (A) (A) (A) (A)
                 (A) (A) (A) (A) (A) (A) (A) (A) (A) (A) (A) (A)
                 (A) (A) (A) (A) (A) (A) (A) (A) (A) (A) (A) (A)
                 (A) (A) (A) (A) (A) (A) (A) (A) (A) (A) (A) (A)
                 (A) (A) (A) (A) (A) (A) (A) (A) (A) (A) (A) (A)
                 (A) (A) (A) (A) (A) (A) (A) (A) (A) (A) (A) (A)
                 (A) (A) (A) (A) (A) (A) (A) (A) (A) (A) (A) (A)
                 (A) (A) (A) (A) (A) (A) (A) (A) (A) (A) (A) (A)
                 (A) (A) (A) (A) (A) (A) (A) (A) (A) (A) (A) (A)
                 (A) (A) (A) (A) (A) (A) (A) (A) (A) (A) (A) (A)
                 (A) (A) (A) (A) (A) (A) (A) (A) (A) (A) (A) (A)
                 (A) (A) (A) (A) (A) (A) (A) (A) (A) (A) (A) (A)
                 (A) (A) (A) (A) (A) (A) (A) (A) (A) (A) (A) (A)
                 (A) (A) (A) (A) (A) (A) (A) (A) (A) (A) (A) (A)
                 (A) (A) (A) (A) (A) (A) (A) (A) (A) (A) (A) (A)
                 (A) (A) (A) (A) (A) (A) (A) (A) (A) (A) (A) (A)
                 (A) (A) (A) (A) (A) (A) (A) (A) (A) (A) (A) (A)
                 (A) (A) (A) (A) (A) (A) (A) (A) (A) (A) (A) (A)
                 (A) (A) (A) (A) (A) (A) (A) (A) (A) (A) (A) (A)
                 (A) (A) (A) (A) (A) (A) (A) (A) (A) (A) (A) (A)
                 (A) (A) (A) (A) (A) (A) (A) (A) (A) (A) (A) (A)
                 (A) (A) (A) (A) (A) (A) (A) (A) (A) (A) (A) (A)
                 (A) (A) (A) (A) (A) (A) (A) (A) (A) (A) (A) (A)
                 (A) (A) (A) (A) (A) (A) (A) (A) (A) (A) (A) (A)
                 (A) (A) (A) (A) (A) (A) (A) (A) (A) (A) (A) (A)
                 (A) (A) (A) (A) (A) (A) (A) (A) (A) (A) (A) (A)
                 (A) (A) (A) (A) (A) (A) (A) (A) (A) (A) (A) (A)
                 (A) (A) (A) (A) (A) (A) (A) (A) (A) (A) (A) (A)
                 (A) (A) (A) (A) (A) (A) (A) (A) (A) (A) (A) (A)
                 (A) (A) (A) (A) (A) (A) (A) (A) (A) (A) (A) (A)
                 (A) (A) (A) (A) (A) (A) (A) (A) (A) (A) (A) (A)
                 (A) (A) (A) (A) (A) (A) (A) (A) (A) (A) (A) (A)
                 (A) (A) (A) (A) (A) (A) (A) (A) (A) (A) (A) (A)
                 (A) (A) (A) (A) (A) (A) (A) (A) (A) (A) (A) (A)
                 (A) (A) (A) (A) (A) (A) (A) (A) (A) (A) (A) (A)
                 (A) (A) (A) (A) (A) (A) (A) (A) (A) (A) (A) (A)
                 (A) (A) (A) (A) (A) (A) (A) (A) (A) (A) (A) (A)
                 (A) (A) (A) (A) (A) (A) (A) (A) (A) (A) (A) (A)
                 (A) (A) (A) (A) (A) (A) (A) (A) (A) (A) (A) (A)
                 (A) (A) (A) (A) (A) (A) (A) (A) (A) (A) (A) (A)
                 (A) (A) (A) (A) (A) (A) (A) (A) (A) (A) (A) (A)
                 (A) (A) (A) (A) (A) (A) (A) (A) (A) (A) (A) (A)
                 (A) (A) (A) (A) (A) (A) (A) (A) (A) (A) (A) (A)
                 (A) (A) (A) (A) (A) (A) (A) (A) (A) (A) (A) (A)
                 (A) (A) (A) (A) (A) (A) (A) (A) (A) (A) (A) (A)
                 (A) (A) (A) (A) (A) (A) (A) (A) (A) (A) (A) (A)
                 (A) (A) (A) (A) (A) (A) (A) (A) (A) (A) (A) (A)
                 (A) (A) (A) (A) (A) (A) (A) (A) (A) (A) (A) (A)
                 (A) (A) (A) (A) (A) (A) (A) (A) (A) (A) (A) (A)
                 (A) (A) (A) (A) (A) (A) (A) (A) (A) (A) (A) (A)
                 (A) (A) (A) (A) (A) (A) (A) (A) (A) (A) (A) (A)
                 (A) (A) (A) (A) (A) (A) (A) (A) (A) (A) (A) (A)
                 (A) (A) (A) (A) (A) (A) (A) (A) (A) (A) (A) (A)
                 (A) (A) (A) (A) (A) (A) (A) (A) (A) (A) (A) (A)
                 (A) (A) (A) (A) (A) (A) (A) (A) (A) (A) (A) (A)
                 (A) (A) (A) (A) (A) (A) (A) (A) (A) (A) (A) (A)
                 (A) (A) (A) (A) (A) (A) (A) (A) (A) (A) (A) (A)
                 (A) (A) (A) (A) (A) (A) (A) (A) (A) (A) (A) (A)
                 (A) (A) (A) (A)
 Beta  Orbitals:
       Occupied  (A) (A) (A) (A) (A) (A) (A) (A) (A) (A) (A) (A)
                 (A) (A) (A) (A) (A) (A) (A) (A) (A) (A) (A) (A)
                 (A) (A) (A) (A) (A) (A) (A) (A) (A) (A) (A) (A)
                 (A) (A) (A) (A) (A) (A) (A) (A) (A) (A) (A) (A)
                 (A) (A) (A) (A) (A) (A) (A) (A) (A) (A) (A) (A)
                 (A) (A) (A) (A) (A) (A) (A) (A) (A) (A) (A) (A)
                 (A) (A) (A) (A) (A) (A) (A) (A) (A) (A) (A) (A)
                 (A) (A) (A) (A) (A) (A) (A) (A) (A) (A) (A) (A)
                 (A) (A) (A) (A) (A) (A) (A) (A) (A) (A) (A) (A)
                 (A) (A) (A) (A) (A) (A) (A) (A) (A) (A) (A) (A)
                 (A) (A) (A) (A) (A) (A) (A) (A) (A) (A) (A) (A)
                 (A) (A) (A) (A) (A) (A) (A) (A) (A) (A) (A) (A)
                 (A) (A) (A) (A) (A) (A) (A) (A) (A) (A) (A) (A)
       Virtual   (A) (A) (A) (A) (A) (A) (A) (A) (A) (A) (A) (A)
                 (A) (A) (A) (A) (A) (A) (A) (A) (A) (A) (A) (A)
                 (A) (A) (A) (A) (A) (A) (A) (A) (A) (A) (A) (A)
                 (A) (A) (A) (A) (A) (A) (A) (A) (A) (A) (A) (A)
                 (A) (A) (A) (A) (A) (A) (A) (A) (A) (A) (A) (A)
                 (A) (A) (A) (A) (A) (A) (A) (A) (A) (A) (A) (A)
                 (A) (A) (A) (A) (A) (A) (A) (A) (A) (A) (A) (A)
                 (A) (A) (A) (A) (A) (A) (A) (A) (A) (A) (A) (A)
                 (A) (A) (A) (A) (A) (A) (A) (A) (A) (A) (A) (A)
                 (A) (A) (A) (A) (A) (A) (A) (A) (A) (A) (A) (A)
                 (A) (A) (A) (A) (A) (A) (A) (A) (A) (A) (A) (A)
                 (A) (A) (A) (A) (A) (A) (A) (A) (A) (A) (A) (A)
                 (A) (A) (A) (A) (A) (A) (A) (A) (A) (A) (A) (A)
                 (A) (A) (A) (A) (A) (A) (A) (A) (A) (A) (A) (A)
                 (A) (A) (A) (A) (A) (A) (A) (A) (A) (A) (A) (A)
                 (A) (A) (A) (A) (A) (A) (A) (A) (A) (A) (A) (A)
                 (A) (A) (A) (A) (A) (A) (A) (A) (A) (A) (A) (A)
                 (A) (A) (A) (A) (A) (A) (A) (A) (A) (A) (A) (A)
                 (A) (A) (A) (A) (A) (A) (A) (A) (A) (A) (A) (A)
                 (A) (A) (A) (A) (A) (A) (A) (A) (A) (A) (A) (A)
                 (A) (A) (A) (A) (A) (A) (A) (A) (A) (A) (A) (A)
                 (A) (A) (A) (A) (A) (A) (A) (A) (A) (A) (A) (A)
                 (A) (A) (A) (A) (A) (A) (A) (A) (A) (A) (A) (A)
                 (A) (A) (A) (A) (A) (A) (A) (A) (A) (A) (A) (A)
                 (A) (A) (A) (A) (A) (A) (A) (A) (A) (A) (A) (A)
                 (A) (A) (A) (A) (A) (A) (A) (A) (A) (A) (A) (A)
                 (A) (A) (A) (A) (A) (A) (A) (A) (A) (A) (A) (A)
                 (A) (A) (A) (A) (A) (A) (A) (A) (A) (A) (A) (A)
                 (A) (A) (A) (A) (A) (A) (A) (A) (A) (A) (A) (A)
                 (A) (A) (A) (A) (A) (A) (A) (A) (A) (A) (A) (A)
                 (A) (A) (A) (A) (A) (A) (A) (A) (A) (A) (A) (A)
                 (A) (A) (A) (A) (A) (A) (A) (A) (A) (A) (A) (A)
                 (A) (A) (A) (A) (A) (A) (A) (A) (A) (A) (A) (A)
                 (A) (A) (A) (A) (A) (A) (A) (A) (A) (A) (A) (A)
                 (A) (A) (A) (A) (A) (A) (A) (A) (A) (A) (A) (A)
                 (A) (A) (A) (A) (A) (A) (A) (A) (A) (A) (A) (A)
                 (A) (A) (A) (A) (A) (A) (A) (A) (A) (A) (A) (A)
                 (A) (A) (A) (A) (A) (A) (A) (A) (A) (A) (A) (A)
                 (A) (A) (A) (A) (A) (A) (A) (A) (A) (A) (A) (A)
                 (A) (A) (A) (A) (A) (A) (A) (A) (A) (A) (A) (A)
                 (A) (A) (A) (A) (A) (A) (A) (A) (A) (A) (A) (A)
                 (A) (A) (A) (A) (A) (A) (A) (A) (A) (A) (A) (A)
                 (A) (A) (A) (A) (A) (A) (A) (A) (A) (A) (A) (A)
                 (A) (A) (A) (A) (A) (A) (A) (A) (A) (A) (A) (A)
                 (A) (A) (A) (A) (A) (A) (A) (A) (A) (A) (A) (A)
                 (A) (A) (A) (A) (A) (A) (A) (A) (A) (A) (A) (A)
                 (A) (A) (A) (A) (A) (A) (A) (A) (A) (A) (A) (A)
                 (A) (A) (A) (A) (A) (A) (A) (A) (A) (A) (A) (A)
                 (A) (A) (A) (A) (A) (A) (A) (A) (A) (A) (A) (A)
                 (A) (A) (A) (A) (A) (A) (A) (A) (A) (A) (A) (A)
                 (A) (A) (A) (A) (A) (A) (A) (A) (A) (A) (A) (A)
                 (A) (A) (A) (A) (A) (A) (A) (A) (A) (A) (A) (A)
                 (A) (A) (A) (A) (A) (A) (A) (A) (A) (A) (A) (A)
                 (A) (A) (A) (A) (A) (A) (A) (A) (A) (A) (A) (A)
                 (A) (A) (A) (A) (A) (A) (A) (A) (A) (A) (A) (A)
                 (A) (A) (A) (A) (A) (A) (A) (A) (A) (A) (A) (A)
                 (A) (A) (A) (A) (A) (A) (A) (A) (A) (A) (A) (A)
                 (A) (A) (A) (A) (A) (A) (A) (A) (A) (A) (A) (A)
                 (A) (A) (A) (A) (A) (A) (A) (A) (A) (A) (A) (A)
                 (A) (A) (A) (A) (A) (A) (A) (A) (A) (A) (A) (A)
                 (A) (A) (A) (A) (A) (A) (A) (A) (A) (A) (A) (A)
                 (A) (A) (A) (A) (A) (A) (A) (A) (A) (A) (A) (A)
                 (A) (A) (A) (A) (A) (A) (A) (A) (A) (A) (A) (A)
                 (A) (A) (A) (A) (A) (A) (A) (A) (A) (A) (A) (A)
                 (A) (A) (A) (A) (A) (A) (A) (A) (A) (A) (A) (A)
                 (A) (A) (A) (A) (A) (A) (A) (A) (A) (A) (A) (A)
                 (A) (A) (A) (A) (A) (A) (A) (A) (A) (A) (A) (A)
                 (A) (A) (A) (A) (A) (A) (A) (A) (A) (A) (A) (A)
                 (A) (A) (A) (A) (A) (A) (A) (A) (A) (A) (A) (A)
                 (A) (A) (A) (A) (A) (A) (A) (A) (A) (A) (A) (A)
                 (A) (A) (A) (A) (A) (A) (A) (A) (A) (A) (A) (A)
                 (A) (A) (A) (A) (A) (A) (A) (A) (A) (A) (A) (A)
                 (A) (A) (A) (A) (A) (A) (A) (A) (A) (A) (A) (A)
                 (A) (A) (A) (A) (A) (A) (A) (A) (A) (A) (A) (A)
                 (A) (A) (A) (A) (A) (A) (A) (A) (A) (A) (A) (A)
                 (A) (A) (A) (A) (A) (A) (A) (A) (A) (A) (A) (A)
                 (A) (A) (A) (A) (A) (A) (A) (A) (A) (A) (A) (A)
                 (A) (A) (A) (A) (A) (A) (A) (A) (A) (A) (A) (A)
                 (A) (A) (A) (A) (A) (A) (A) (A) (A) (A) (A) (A)
                 (A) (A) (A) (A) (A) (A) (A) (A) (A) (A) (A) (A)
                 (A) (A) (A) (A) (A) (A) (A) (A) (A) (A) (A) (A)
                 (A) (A) (A) (A) (A) (A) (A) (A) (A) (A) (A) (A)
                 (A) (A) (A) (A) (A) (A) (A) (A) (A) (A) (A) (A)
                 (A) (A) (A) (A) (A) (A) (A) (A) (A) (A) (A) (A)
                 (A) (A) (A) (A) (A) (A) (A) (A) (A) (A) (A) (A)
                 (A) (A) (A) (A) (A) (A) (A) (A) (A) (A) (A) (A)
                 (A) (A) (A) (A) (A) (A) (A) (A) (A) (A) (A) (A)
                 (A) (A) (A) (A) (A) (A) (A) (A) (A) (A) (A) (A)
                 (A) (A) (A) (A) (A) (A) (A) (A) (A) (A) (A) (A)
                 (A) (A) (A) (A) (A) (A) (A) (A) (A) (A) (A) (A)
                 (A) (A) (A) (A) (A) (A) (A) (A) (A) (A) (A) (A)
                 (A) (A) (A) (A) (A) (A) (A) (A) (A) (A) (A) (A)
                 (A) (A) (A) (A) (A) (A) (A) (A) (A) (A) (A) (A)
                 (A) (A) (A) (A) (A) (A) (A) (A) (A) (A) (A) (A)
                 (A) (A) (A) (A) (A) (A) (A) (A) (A) (A) (A) (A)
                 (A) (A) (A) (A) (A) (A) (A) (A) (A) (A) (A) (A)
                 (A) (A) (A) (A) (A) (A) (A) (A) (A) (A) (A) (A)
                 (A) (A) (A) (A) (A) (A) (A) (A) (A) (A) (A) (A)
                 (A) (A) (A) (A) (A) (A) (A) (A) (A) (A) (A) (A)
                 (A) (A) (A) (A) (A) (A) (A) (A) (A) (A) (A) (A)
                 (A) (A) (A) (A) (A) (A) (A) (A) (A) (A) (A) (A)
                 (A) (A) (A) (A) (A) (A) (A) (A) (A) (A) (A) (A)
                 (A) (A) (A) (A) (A) (A) (A) (A) (A) (A) (A) (A)
                 (A) (A) (A) (A) (A) (A) (A) (A) (A) (A) (A) (A)
                 (A) (A) (A) (A) (A) (A) (A) (A) (A) (A) (A) (A)
                 (A) (A) (A) (A) (A) (A) (A) (A) (A) (A) (A) (A)
                 (A) (A) (A) (A) (A) (A) (A) (A) (A) (A) (A) (A)
                 (A) (A) (A) (A) (A) (A) (A) (A) (A) (A) (A) (A)
                 (A) (A) (A) (A) (A) (A) (A) (A) (A) (A) (A) (A)
                 (A) (A) (A) (A) (A) (A) (A) (A) (A) (A) (A) (A)
                 (A) (A) (A) (A) (A) (A) (A) (A) (A) (A) (A) (A)
                 (A) (A) (A) (A) (A) (A) (A) (A) (A) (A) (A) (A)
                 (A) (A) (A) (A) (A) (A) (A) (A) (A) (A) (A) (A)
                 (A) (A) (A) (A) (A) (A) (A) (A) (A) (A) (A) (A)
                 (A) (A) (A) (A) (A) (A) (A) (A)
 The electronic state is 5-A.
 Alpha  occ. eigenvalues -- -256.27631 -30.16509 -26.01282 -25.99064 -25.98987
 Alpha  occ. eigenvalues --  -19.17315 -14.43473 -14.37795 -14.34107 -14.33992
 Alpha  occ. eigenvalues --  -14.33873 -14.33813 -10.27610 -10.25224 -10.22467
 Alpha  occ. eigenvalues --  -10.22006 -10.21091 -10.21047 -10.21037 -10.20703
 Alpha  occ. eigenvalues --  -10.20602 -10.20459 -10.20406 -10.20354 -10.19165
 Alpha  occ. eigenvalues --  -10.18965 -10.18780 -10.18703 -10.18672 -10.18623
 Alpha  occ. eigenvalues --  -10.18516 -10.18480 -10.18411 -10.18360 -10.18257
 Alpha  occ. eigenvalues --  -10.18122 -10.18110 -10.18031 -10.18030 -10.18009
 Alpha  occ. eigenvalues --  -10.17937 -10.17693 -10.17669 -10.17579 -10.16703
 Alpha  occ. eigenvalues --  -10.16328  -3.58828  -2.39226  -2.33189  -2.33161
 Alpha  occ. eigenvalues --   -1.07152  -1.05506  -0.97248  -0.96313  -0.96172
 Alpha  occ. eigenvalues --   -0.95272  -0.92978  -0.81937  -0.81636  -0.81579
 Alpha  occ. eigenvalues --   -0.81274  -0.80781  -0.80483  -0.79330  -0.79178
 Alpha  occ. eigenvalues --   -0.76360  -0.75290  -0.74024  -0.73538  -0.73270
 Alpha  occ. eigenvalues --   -0.72949  -0.70722  -0.69789  -0.68309  -0.67983
 Alpha  occ. eigenvalues --   -0.67675  -0.66564  -0.63937  -0.63733  -0.62938
 Alpha  occ. eigenvalues --   -0.61035  -0.60288  -0.59742  -0.57648  -0.57441
 Alpha  occ. eigenvalues --   -0.56608  -0.54369  -0.53619  -0.53022  -0.52804
 Alpha  occ. eigenvalues --   -0.51069  -0.50940  -0.50524  -0.49665  -0.49091
 Alpha  occ. eigenvalues --   -0.48781  -0.47554  -0.47296  -0.46069  -0.45356
 Alpha  occ. eigenvalues --   -0.44961  -0.44643  -0.44583  -0.44441  -0.44201
 Alpha  occ. eigenvalues --   -0.44030  -0.43702  -0.43365  -0.43148  -0.43072
 Alpha  occ. eigenvalues --   -0.42637  -0.42478  -0.42348  -0.41926  -0.41385
 Alpha  occ. eigenvalues --   -0.41247  -0.41106  -0.40839  -0.40656  -0.40458
 Alpha  occ. eigenvalues --   -0.40214  -0.40089  -0.40042  -0.39466  -0.38946
 Alpha  occ. eigenvalues --   -0.38378  -0.38232  -0.38186  -0.37865  -0.37520
 Alpha  occ. eigenvalues --   -0.37431  -0.36990  -0.36739  -0.36700  -0.36524
 Alpha  occ. eigenvalues --   -0.36002  -0.35500  -0.34506  -0.34286  -0.33830
 Alpha  occ. eigenvalues --   -0.33378  -0.32624  -0.32529  -0.31783  -0.31685
 Alpha  occ. eigenvalues --   -0.30387  -0.29999  -0.29504  -0.28982  -0.26936
 Alpha  occ. eigenvalues --   -0.26583  -0.25515  -0.24881  -0.23095  -0.22954
 Alpha  occ. eigenvalues --   -0.22098  -0.21883  -0.19067  -0.18418  -0.10484
 Alpha virt. eigenvalues --   -0.07876  -0.06432  -0.02318  -0.00318   0.00763
 Alpha virt. eigenvalues --    0.01692   0.02264   0.03093   0.03547   0.04604
 Alpha virt. eigenvalues --    0.05204   0.05300   0.05579   0.06125   0.06191
 Alpha virt. eigenvalues --    0.07039   0.07186   0.07935   0.08458   0.08859
 Alpha virt. eigenvalues --    0.08985   0.09374   0.09644   0.09763   0.10186
 Alpha virt. eigenvalues --    0.10322   0.10933   0.11084   0.11588   0.11826
 Alpha virt. eigenvalues --    0.11879   0.12020   0.12194   0.12636   0.12891
 Alpha virt. eigenvalues --    0.13098   0.13329   0.13391   0.13671   0.13911
 Alpha virt. eigenvalues --    0.14231   0.14357   0.14413   0.14694   0.14962
 Alpha virt. eigenvalues --    0.15283   0.15551   0.15580   0.15804   0.16006
 Alpha virt. eigenvalues --    0.16113   0.16194   0.16651   0.16905   0.17031
 Alpha virt. eigenvalues --    0.17259   0.17669   0.17961   0.18211   0.18353
 Alpha virt. eigenvalues --    0.18932   0.19362   0.19475   0.19800   0.20009
 Alpha virt. eigenvalues --    0.20545   0.20661   0.21097   0.21412   0.21862
 Alpha virt. eigenvalues --    0.22013   0.22184   0.22616   0.22657   0.22813
 Alpha virt. eigenvalues --    0.23202   0.23234   0.23778   0.24101   0.24415
 Alpha virt. eigenvalues --    0.24604   0.24939   0.25239   0.25488   0.25687
 Alpha virt. eigenvalues --    0.25892   0.26221   0.26435   0.26714   0.26954
 Alpha virt. eigenvalues --    0.27093   0.27155   0.27441   0.27761   0.28060
 Alpha virt. eigenvalues --    0.28521   0.28864   0.29024   0.29316   0.29469
 Alpha virt. eigenvalues --    0.29961   0.30109   0.30431   0.30849   0.30949
 Alpha virt. eigenvalues --    0.31084   0.31244   0.31693   0.32171   0.32345
 Alpha virt. eigenvalues --    0.32709   0.32829   0.33417   0.33586   0.33858
 Alpha virt. eigenvalues --    0.34030   0.34322   0.34431   0.34709   0.34876
 Alpha virt. eigenvalues --    0.35138   0.35626   0.35929   0.36240   0.36620
 Alpha virt. eigenvalues --    0.36758   0.36848   0.37181   0.37518   0.37829
 Alpha virt. eigenvalues --    0.37978   0.38132   0.38438   0.38977   0.39181
 Alpha virt. eigenvalues --    0.39270   0.39377   0.39793   0.39953   0.40321
 Alpha virt. eigenvalues --    0.40409   0.40617   0.40827   0.41151   0.41298
 Alpha virt. eigenvalues --    0.41459   0.41619   0.41847   0.42322   0.42404
 Alpha virt. eigenvalues --    0.42591   0.42699   0.42908   0.43028   0.43380
 Alpha virt. eigenvalues --    0.43691   0.44062   0.44159   0.44277   0.44459
 Alpha virt. eigenvalues --    0.44563   0.44834   0.45251   0.45450   0.45630
 Alpha virt. eigenvalues --    0.45838   0.46141   0.46352   0.46504   0.46646
 Alpha virt. eigenvalues --    0.46857   0.47331   0.47512   0.47703   0.47957
 Alpha virt. eigenvalues --    0.48160   0.48319   0.48449   0.48625   0.49097
 Alpha virt. eigenvalues --    0.49280   0.49388   0.49686   0.49916   0.50207
 Alpha virt. eigenvalues --    0.50259   0.50335   0.50622   0.50762   0.51133
 Alpha virt. eigenvalues --    0.51534   0.51819   0.52067   0.52300   0.52685
 Alpha virt. eigenvalues --    0.52724   0.52836   0.53101   0.53388   0.53592
 Alpha virt. eigenvalues --    0.53699   0.53903   0.54326   0.54404   0.54886
 Alpha virt. eigenvalues --    0.55176   0.55389   0.55472   0.55813   0.55985
 Alpha virt. eigenvalues --    0.56272   0.56625   0.56801   0.56957   0.57074
 Alpha virt. eigenvalues --    0.57558   0.57614   0.58147   0.58420   0.58577
 Alpha virt. eigenvalues --    0.58962   0.59400   0.59524   0.59813   0.60294
 Alpha virt. eigenvalues --    0.60813   0.60969   0.61106   0.61647   0.62194
 Alpha virt. eigenvalues --    0.62486   0.62697   0.63298   0.63591   0.63901
 Alpha virt. eigenvalues --    0.63915   0.64138   0.64461   0.64819   0.64907
 Alpha virt. eigenvalues --    0.65213   0.65299   0.65691   0.65985   0.66259
 Alpha virt. eigenvalues --    0.66745   0.66934   0.67397   0.67548   0.67931
 Alpha virt. eigenvalues --    0.68046   0.68463   0.68767   0.69188   0.69609
 Alpha virt. eigenvalues --    0.70219   0.70619   0.70875   0.70967   0.71417
 Alpha virt. eigenvalues --    0.71857   0.72413   0.72674   0.72881   0.72994
 Alpha virt. eigenvalues --    0.73453   0.73565   0.73796   0.74213   0.74484
 Alpha virt. eigenvalues --    0.74827   0.75492   0.75633   0.75810   0.76308
 Alpha virt. eigenvalues --    0.76794   0.77057   0.77212   0.77771   0.78009
 Alpha virt. eigenvalues --    0.78105   0.78517   0.79202   0.79248   0.79556
 Alpha virt. eigenvalues --    0.79583   0.79832   0.80009   0.80422   0.80991
 Alpha virt. eigenvalues --    0.81457   0.81636   0.82009   0.82718   0.83064
 Alpha virt. eigenvalues --    0.83356   0.83656   0.84154   0.84601   0.84839
 Alpha virt. eigenvalues --    0.85007   0.85741   0.86341   0.86781   0.87268
 Alpha virt. eigenvalues --    0.87527   0.87758   0.88300   0.88676   0.89027
 Alpha virt. eigenvalues --    0.89661   0.89743   0.90250   0.90688   0.90818
 Alpha virt. eigenvalues --    0.91088   0.91414   0.91934   0.92686   0.92760
 Alpha virt. eigenvalues --    0.93335   0.93563   0.93796   0.94755   0.95145
 Alpha virt. eigenvalues --    0.95340   0.95457   0.95735   0.96005   0.96501
 Alpha virt. eigenvalues --    0.96631   0.97088   0.97320   0.97420   0.98052
 Alpha virt. eigenvalues --    0.98296   0.98875   0.99047   0.99537   0.99824
 Alpha virt. eigenvalues --    1.00209   1.00383   1.00537   1.01211   1.01298
 Alpha virt. eigenvalues --    1.01638   1.01985   1.02166   1.02373   1.02823
 Alpha virt. eigenvalues --    1.03317   1.03476   1.03683   1.03871   1.04229
 Alpha virt. eigenvalues --    1.04523   1.04719   1.05296   1.05627   1.05997
 Alpha virt. eigenvalues --    1.06236   1.06758   1.07109   1.07480   1.07932
 Alpha virt. eigenvalues --    1.08621   1.09328   1.09681   1.10158   1.10514
 Alpha virt. eigenvalues --    1.10591   1.10994   1.11195   1.12094   1.12188
 Alpha virt. eigenvalues --    1.12518   1.13194   1.13267   1.14174   1.14467
 Alpha virt. eigenvalues --    1.14905   1.15541   1.15868   1.16370   1.16479
 Alpha virt. eigenvalues --    1.17091   1.17307   1.17959   1.18806   1.19089
 Alpha virt. eigenvalues --    1.19318   1.19688   1.19928   1.20248   1.20317
 Alpha virt. eigenvalues --    1.20627   1.21373   1.21695   1.21815   1.22663
 Alpha virt. eigenvalues --    1.22896   1.23390   1.24090   1.24233   1.24506
 Alpha virt. eigenvalues --    1.25045   1.25710   1.25932   1.26603   1.26820
 Alpha virt. eigenvalues --    1.27072   1.28026   1.28167   1.28368   1.28538
 Alpha virt. eigenvalues --    1.29126   1.29586   1.29887   1.30254   1.30927
 Alpha virt. eigenvalues --    1.31050   1.31486   1.31896   1.31908   1.32415
 Alpha virt. eigenvalues --    1.33250   1.33619   1.33791   1.34881   1.35664
 Alpha virt. eigenvalues --    1.36070   1.36569   1.36998   1.37607   1.37786
 Alpha virt. eigenvalues --    1.38074   1.38717   1.39007   1.39598   1.40802
 Alpha virt. eigenvalues --    1.41219   1.42521   1.42951   1.43411   1.43798
 Alpha virt. eigenvalues --    1.44000   1.44375   1.45186   1.45487   1.45902
 Alpha virt. eigenvalues --    1.46129   1.46837   1.47118   1.47263   1.47656
 Alpha virt. eigenvalues --    1.47976   1.48205   1.48959   1.49149   1.49512
 Alpha virt. eigenvalues --    1.49695   1.49777   1.50128   1.50569   1.51080
 Alpha virt. eigenvalues --    1.51267   1.51293   1.51807   1.51986   1.52289
 Alpha virt. eigenvalues --    1.52592   1.52867   1.53101   1.53518   1.53600
 Alpha virt. eigenvalues --    1.54123   1.54186   1.54423   1.54522   1.54600
 Alpha virt. eigenvalues --    1.55066   1.55140   1.55626   1.55770   1.56149
 Alpha virt. eigenvalues --    1.56440   1.56898   1.57153   1.57499   1.57735
 Alpha virt. eigenvalues --    1.57968   1.58039   1.58246   1.58673   1.58727
 Alpha virt. eigenvalues --    1.59226   1.59562   1.59947   1.60254   1.60713
 Alpha virt. eigenvalues --    1.60909   1.61359   1.61697   1.61981   1.62287
 Alpha virt. eigenvalues --    1.62400   1.62911   1.63347   1.63469   1.63746
 Alpha virt. eigenvalues --    1.64036   1.64419   1.64703   1.65064   1.65406
 Alpha virt. eigenvalues --    1.66016   1.66118   1.66265   1.66594   1.67310
 Alpha virt. eigenvalues --    1.67409   1.67622   1.68300   1.68543   1.68718
 Alpha virt. eigenvalues --    1.68939   1.69358   1.69619   1.70215   1.70574
 Alpha virt. eigenvalues --    1.71083   1.71316   1.71461   1.72384   1.72692
 Alpha virt. eigenvalues --    1.72936   1.73370   1.73837   1.73930   1.74759
 Alpha virt. eigenvalues --    1.74906   1.75521   1.76011   1.76383   1.77203
 Alpha virt. eigenvalues --    1.77934   1.78018   1.78823   1.79632   1.80006
 Alpha virt. eigenvalues --    1.80665   1.81401   1.81714   1.81959   1.82581
 Alpha virt. eigenvalues --    1.83168   1.83313   1.83698   1.84211   1.84905
 Alpha virt. eigenvalues --    1.85465   1.85579   1.86037   1.86421   1.86933
 Alpha virt. eigenvalues --    1.87176   1.87427   1.88024   1.88254   1.88924
 Alpha virt. eigenvalues --    1.90164   1.90345   1.90430   1.90892   1.91367
 Alpha virt. eigenvalues --    1.91789   1.92260   1.92617   1.93120   1.93454
 Alpha virt. eigenvalues --    1.93759   1.93993   1.94781   1.95218   1.96039
 Alpha virt. eigenvalues --    1.96477   1.97169   1.97467   1.98254   1.98484
 Alpha virt. eigenvalues --    1.99212   1.99437   1.99884   2.00068   2.00770
 Alpha virt. eigenvalues --    2.00957   2.01382   2.01701   2.02087   2.02433
 Alpha virt. eigenvalues --    2.02721   2.03590   2.04092   2.04151   2.04547
 Alpha virt. eigenvalues --    2.05576   2.06229   2.06865   2.07103   2.07517
 Alpha virt. eigenvalues --    2.08089   2.08314   2.08860   2.09284   2.09407
 Alpha virt. eigenvalues --    2.09733   2.10250   2.11104   2.11262   2.11562
 Alpha virt. eigenvalues --    2.12297   2.12483   2.12929   2.13195   2.13520
 Alpha virt. eigenvalues --    2.13883   2.14620   2.15031   2.15162   2.15676
 Alpha virt. eigenvalues --    2.16498   2.17241   2.17545   2.17878   2.18473
 Alpha virt. eigenvalues --    2.18990   2.19272   2.19535   2.19942   2.20516
 Alpha virt. eigenvalues --    2.20790   2.22065   2.22328   2.22953   2.23490
 Alpha virt. eigenvalues --    2.24003   2.24382   2.25310   2.25829   2.25966
 Alpha virt. eigenvalues --    2.26445   2.26992   2.27889   2.28005   2.28535
 Alpha virt. eigenvalues --    2.28863   2.28970   2.29558   2.29901   2.30440
 Alpha virt. eigenvalues --    2.30612   2.31091   2.31887   2.32102   2.32440
 Alpha virt. eigenvalues --    2.32648   2.33611   2.33849   2.33980   2.34843
 Alpha virt. eigenvalues --    2.34979   2.35549   2.35653   2.36052   2.36231
 Alpha virt. eigenvalues --    2.36725   2.37107   2.37663   2.37858   2.38552
 Alpha virt. eigenvalues --    2.39235   2.39741   2.40010   2.40182   2.40808
 Alpha virt. eigenvalues --    2.41263   2.41515   2.41799   2.42634   2.43121
 Alpha virt. eigenvalues --    2.43519   2.43866   2.44272   2.44937   2.45164
 Alpha virt. eigenvalues --    2.45578   2.45911   2.46036   2.46524   2.46820
 Alpha virt. eigenvalues --    2.47055   2.47782   2.47997   2.48637   2.48906
 Alpha virt. eigenvalues --    2.48996   2.49502   2.50841   2.51182   2.51653
 Alpha virt. eigenvalues --    2.52225   2.52523   2.52871   2.53081   2.53187
 Alpha virt. eigenvalues --    2.54043   2.54628   2.55241   2.55420   2.55709
 Alpha virt. eigenvalues --    2.56038   2.56183   2.56636   2.56931   2.57192
 Alpha virt. eigenvalues --    2.57440   2.57944   2.58163   2.58384   2.59134
 Alpha virt. eigenvalues --    2.59425   2.59969   2.60521   2.60977   2.61288
 Alpha virt. eigenvalues --    2.61405   2.62576   2.62815   2.63114   2.63428
 Alpha virt. eigenvalues --    2.63737   2.63979   2.64439   2.65017   2.65222
 Alpha virt. eigenvalues --    2.65505   2.66375   2.66603   2.66904   2.67359
 Alpha virt. eigenvalues --    2.67734   2.68104   2.68438   2.69002   2.69189
 Alpha virt. eigenvalues --    2.69974   2.70094   2.70388   2.70837   2.71206
 Alpha virt. eigenvalues --    2.71629   2.72472   2.72699   2.73094   2.73591
 Alpha virt. eigenvalues --    2.74243   2.75086   2.75275   2.75820   2.76077
 Alpha virt. eigenvalues --    2.76274   2.76527   2.77046   2.77731   2.77843
 Alpha virt. eigenvalues --    2.78306   2.78654   2.79053   2.79650   2.80573
 Alpha virt. eigenvalues --    2.80875   2.81082   2.81518   2.82101   2.82605
 Alpha virt. eigenvalues --    2.82767   2.83206   2.83728   2.84289   2.84645
 Alpha virt. eigenvalues --    2.85069   2.85817   2.86084   2.86436   2.86761
 Alpha virt. eigenvalues --    2.87044   2.87600   2.87841   2.88168   2.88360
 Alpha virt. eigenvalues --    2.89102   2.89402   2.89854   2.90211   2.90764
 Alpha virt. eigenvalues --    2.90911   2.91485   2.91881   2.92236   2.92584
 Alpha virt. eigenvalues --    2.92950   2.93675   2.93812   2.93881   2.94223
 Alpha virt. eigenvalues --    2.94812   2.95030   2.95613   2.95665   2.95976
 Alpha virt. eigenvalues --    2.96217   2.96532   2.96750   2.97051   2.97690
 Alpha virt. eigenvalues --    2.98120   2.98294   2.98762   2.99303   2.99701
 Alpha virt. eigenvalues --    2.99820   3.00081   3.00758   3.00890   3.01089
 Alpha virt. eigenvalues --    3.01807   3.01970   3.02326   3.02725   3.03068
 Alpha virt. eigenvalues --    3.03278   3.04059   3.04344   3.04764   3.05339
 Alpha virt. eigenvalues --    3.05532   3.06215   3.06528   3.06686   3.07169
 Alpha virt. eigenvalues --    3.07238   3.07780   3.08060   3.08270   3.08632
 Alpha virt. eigenvalues --    3.09082   3.09241   3.09550   3.10099   3.10303
 Alpha virt. eigenvalues --    3.10940   3.11459   3.11771   3.11800   3.11997
 Alpha virt. eigenvalues --    3.12130   3.12422   3.13476   3.13748   3.13953
 Alpha virt. eigenvalues --    3.14230   3.14739   3.15276   3.15593   3.15754
 Alpha virt. eigenvalues --    3.16152   3.16185   3.16634   3.16816   3.17054
 Alpha virt. eigenvalues --    3.17526   3.17943   3.18314   3.18868   3.19211
 Alpha virt. eigenvalues --    3.19557   3.19845   3.19951   3.20632   3.20755
 Alpha virt. eigenvalues --    3.21226   3.21456   3.21656   3.21809   3.22168
 Alpha virt. eigenvalues --    3.22438   3.23292   3.23480   3.23648   3.23709
 Alpha virt. eigenvalues --    3.23918   3.24509   3.24561   3.25231   3.25461
 Alpha virt. eigenvalues --    3.25505   3.25860   3.26224   3.26533   3.26702
 Alpha virt. eigenvalues --    3.26933   3.27279   3.27524   3.27725   3.28457
 Alpha virt. eigenvalues --    3.28616   3.28810   3.29180   3.29544   3.29884
 Alpha virt. eigenvalues --    3.29917   3.30269   3.30564   3.30859   3.31085
 Alpha virt. eigenvalues --    3.31412   3.31799   3.32050   3.32363   3.32696
 Alpha virt. eigenvalues --    3.32884   3.33265   3.33716   3.33896   3.34088
 Alpha virt. eigenvalues --    3.34558   3.34660   3.35039   3.35361   3.35629
 Alpha virt. eigenvalues --    3.35751   3.35996   3.36382   3.36652   3.37090
 Alpha virt. eigenvalues --    3.37160   3.37360   3.37688   3.38271   3.38455
 Alpha virt. eigenvalues --    3.38869   3.39022   3.39563   3.39661   3.40061
 Alpha virt. eigenvalues --    3.40242   3.40690   3.40737   3.41052   3.41386
 Alpha virt. eigenvalues --    3.41632   3.42103   3.43302   3.43608   3.43988
 Alpha virt. eigenvalues --    3.44267   3.44986   3.45281   3.45737   3.45987
 Alpha virt. eigenvalues --    3.46066   3.46438   3.46833   3.47094   3.47435
 Alpha virt. eigenvalues --    3.48037   3.48689   3.48881   3.49554   3.50150
 Alpha virt. eigenvalues --    3.50292   3.51444   3.51725   3.51894   3.52459
 Alpha virt. eigenvalues --    3.52658   3.53145   3.53479   3.54106   3.54423
 Alpha virt. eigenvalues --    3.54914   3.55299   3.55826   3.55893   3.56498
 Alpha virt. eigenvalues --    3.56816   3.57215   3.57690   3.58040   3.58548
 Alpha virt. eigenvalues --    3.59242   3.59500   3.60314   3.60463   3.61667
 Alpha virt. eigenvalues --    3.61777   3.62239   3.62610   3.63548   3.63788
 Alpha virt. eigenvalues --    3.64319   3.64345   3.64637   3.65503   3.66003
 Alpha virt. eigenvalues --    3.66301   3.66667   3.66863   3.67576   3.67932
 Alpha virt. eigenvalues --    3.68338   3.68442   3.68715   3.69527   3.69792
 Alpha virt. eigenvalues --    3.71069   3.71089   3.71439   3.71918   3.72273
 Alpha virt. eigenvalues --    3.72846   3.73050   3.73907   3.74564   3.74873
 Alpha virt. eigenvalues --    3.75168   3.75268   3.75502   3.75757   3.76154
 Alpha virt. eigenvalues --    3.76347   3.76812   3.77706   3.78260   3.78483
 Alpha virt. eigenvalues --    3.78766   3.80073   3.80614   3.80933   3.81649
 Alpha virt. eigenvalues --    3.82252   3.82533   3.82756   3.83548   3.84315
 Alpha virt. eigenvalues --    3.84531   3.85151   3.85937   3.86742   3.87219
 Alpha virt. eigenvalues --    3.87821   3.88111   3.88960   3.89043   3.89882
 Alpha virt. eigenvalues --    3.90355   3.91050   3.91190   3.91418   3.92419
 Alpha virt. eigenvalues --    3.92584   3.93080   3.93425   3.93852   3.94982
 Alpha virt. eigenvalues --    3.95901   3.97083   3.97396   3.98109   3.98641
 Alpha virt. eigenvalues --    3.99644   4.00050   4.00364   4.00841   4.01357
 Alpha virt. eigenvalues --    4.01507   4.02734   4.03153   4.03320   4.04132
 Alpha virt. eigenvalues --    4.05159   4.05385   4.05801   4.06864   4.07177
 Alpha virt. eigenvalues --    4.07774   4.08926   4.09340   4.10518   4.10671
 Alpha virt. eigenvalues --    4.11143   4.11913   4.12271   4.12539   4.13826
 Alpha virt. eigenvalues --    4.14337   4.14785   4.15198   4.16175   4.16485
 Alpha virt. eigenvalues --    4.16745   4.17850   4.18564   4.18684   4.18989
 Alpha virt. eigenvalues --    4.19442   4.20303   4.20550   4.21562   4.22129
 Alpha virt. eigenvalues --    4.22654   4.23070   4.23564   4.23907   4.24738
 Alpha virt. eigenvalues --    4.24981   4.25379   4.25861   4.26660   4.26930
 Alpha virt. eigenvalues --    4.27401   4.28552   4.29184   4.30281   4.30512
 Alpha virt. eigenvalues --    4.31137   4.31270   4.31695   4.32218   4.33443
 Alpha virt. eigenvalues --    4.33835   4.34008   4.34658   4.35785   4.36045
 Alpha virt. eigenvalues --    4.36780   4.37169   4.37732   4.38468   4.38971
 Alpha virt. eigenvalues --    4.40171   4.40294   4.41071   4.41561   4.41938
 Alpha virt. eigenvalues --    4.42253   4.43605   4.43927   4.44309   4.44861
 Alpha virt. eigenvalues --    4.45081   4.45273   4.45942   4.46140   4.46592
 Alpha virt. eigenvalues --    4.47854   4.48678   4.49122   4.49542   4.51679
 Alpha virt. eigenvalues --    4.52365   4.52840   4.54350   4.55209   4.55941
 Alpha virt. eigenvalues --    4.56629   4.57415   4.57640   4.58410   4.59009
 Alpha virt. eigenvalues --    4.61080   4.61512   4.62171   4.63691   4.64676
 Alpha virt. eigenvalues --    4.65193   4.66166   4.67662   4.68773   4.69130
 Alpha virt. eigenvalues --    4.69304   4.69968   4.70031   4.70815   4.72403
 Alpha virt. eigenvalues --    4.73056   4.73597   4.74217   4.74346   4.75079
 Alpha virt. eigenvalues --    4.75987   4.76733   4.79553   4.79980   4.80811
 Alpha virt. eigenvalues --    4.81553   4.82638   4.83027   4.83296   4.83863
 Alpha virt. eigenvalues --    4.84303   4.84880   4.85049   4.86787   4.86894
 Alpha virt. eigenvalues --    4.87515   4.88827   4.89785   4.90471   4.92232
 Alpha virt. eigenvalues --    4.92693   4.93274   4.93542   4.93878   4.94217
 Alpha virt. eigenvalues --    4.95739   4.96146   4.96728   4.97947   4.99553
 Alpha virt. eigenvalues --    5.00130   5.00565   5.01628   5.03086   5.03650
 Alpha virt. eigenvalues --    5.04533   5.05079   5.05755   5.06409   5.06999
 Alpha virt. eigenvalues --    5.07317   5.08207   5.08854   5.09511   5.10887
 Alpha virt. eigenvalues --    5.14491   5.15050   5.15607   5.17361   5.18051
 Alpha virt. eigenvalues --    5.19040   5.19552   5.20571   5.21447   5.22851
 Alpha virt. eigenvalues --    5.23958   5.24953   5.25598   5.26534   5.26782
 Alpha virt. eigenvalues --    5.28475   5.29108   5.29685   5.31669   5.34456
 Alpha virt. eigenvalues --    5.35743   5.36570   5.36966   5.38108   5.38215
 Alpha virt. eigenvalues --    5.38871   5.38959   5.39694   5.40359   5.41683
 Alpha virt. eigenvalues --    5.42382   5.42817   5.46081   5.48368   5.48558
 Alpha virt. eigenvalues --    5.49099   5.50154   5.51673   5.52109   5.52873
 Alpha virt. eigenvalues --    5.55081   5.56796   5.57781   5.61209   5.61587
 Alpha virt. eigenvalues --    5.61950   5.62997   5.63604   5.64681   5.65438
 Alpha virt. eigenvalues --    5.67367   5.67661   5.68087   5.69408   5.72640
 Alpha virt. eigenvalues --    5.76711   5.77366   5.77989   5.79862   5.81848
 Alpha virt. eigenvalues --    5.89358   5.90391   5.91572   5.93024   5.95233
 Alpha virt. eigenvalues --    6.00300   6.00986   6.02482   6.06895   6.10023
 Alpha virt. eigenvalues --    6.11649   6.12809   6.13310   6.15737   6.18859
 Alpha virt. eigenvalues --    6.23988   6.26713   6.34128   6.34925   6.41277
 Alpha virt. eigenvalues --    6.47617   6.51779   6.52783   6.65104   6.97456
 Alpha virt. eigenvalues --    7.28572  22.36322  22.37449  22.43106  22.46381
 Alpha virt. eigenvalues --   22.48276  22.53268  22.53820  22.60662  22.62421
 Alpha virt. eigenvalues --   22.76286  22.85671  22.88072  22.93475  22.94688
 Alpha virt. eigenvalues --   22.96225  22.96789  22.98124  23.04312  23.04957
 Alpha virt. eigenvalues --   23.07018  23.16223  23.26967  23.27033  23.31265
 Alpha virt. eigenvalues --   23.31780  23.41369  23.43167  23.51953  23.52477
 Alpha virt. eigenvalues --   23.56834  23.74706  23.80172  23.80786  23.90072
 Alpha virt. eigenvalues --   32.39020  32.70977  32.90210  32.96994  32.99677
 Alpha virt. eigenvalues --   33.11824  44.02941
  Beta  occ. eigenvalues -- -256.27524 -30.10189 -25.94896 -25.94696 -25.93905
  Beta  occ. eigenvalues --  -19.17177 -14.43454 -14.37521 -14.34118 -14.34031
  Beta  occ. eigenvalues --  -14.33837 -14.33808 -10.27577 -10.25215 -10.22455
  Beta  occ. eigenvalues --  -10.22004 -10.21179 -10.21122 -10.21092 -10.20757
  Beta  occ. eigenvalues --  -10.20409 -10.20256 -10.20235 -10.20169 -10.19168
  Beta  occ. eigenvalues --  -10.19007 -10.18835 -10.18733 -10.18679 -10.18678
  Beta  occ. eigenvalues --  -10.18514 -10.18494 -10.18467 -10.18423 -10.18151
  Beta  occ. eigenvalues --  -10.18141 -10.18111 -10.18107 -10.17855 -10.17797
  Beta  occ. eigenvalues --  -10.17776 -10.17683 -10.17677 -10.17501 -10.16380
  Beta  occ. eigenvalues --  -10.15960  -3.43747  -2.20452  -2.20064  -2.16778
  Beta  occ. eigenvalues --   -1.06985  -1.05285  -0.97087  -0.96162  -0.96017
  Beta  occ. eigenvalues --   -0.95118  -0.92683  -0.81699  -0.81587  -0.81467
  Beta  occ. eigenvalues --   -0.81141  -0.80662  -0.80366  -0.79223  -0.78800
  Beta  occ. eigenvalues --   -0.76248  -0.75151  -0.73957  -0.73253  -0.73174
  Beta  occ. eigenvalues --   -0.72829  -0.70620  -0.69690  -0.68250  -0.67923
  Beta  occ. eigenvalues --   -0.67544  -0.66284  -0.63797  -0.63444  -0.62840
  Beta  occ. eigenvalues --   -0.60897  -0.60173  -0.59651  -0.57504  -0.57277
  Beta  occ. eigenvalues --   -0.56401  -0.54249  -0.53531  -0.52956  -0.52618
  Beta  occ. eigenvalues --   -0.50977  -0.50877  -0.50441  -0.49283  -0.48918
  Beta  occ. eigenvalues --   -0.48549  -0.47484  -0.47091  -0.45284  -0.44648
  Beta  occ. eigenvalues --   -0.44569  -0.44345  -0.44209  -0.44149  -0.43957
  Beta  occ. eigenvalues --   -0.43542  -0.43253  -0.43031  -0.42887  -0.42734
  Beta  occ. eigenvalues --   -0.42404  -0.42278  -0.41876  -0.41587  -0.41261
  Beta  occ. eigenvalues --   -0.41170  -0.41019  -0.40113  -0.40073  -0.39965
  Beta  occ. eigenvalues --   -0.39455  -0.39373  -0.39163  -0.38920  -0.38234
  Beta  occ. eigenvalues --   -0.37849  -0.37805  -0.37402  -0.37252  -0.37020
  Beta  occ. eigenvalues --   -0.36836  -0.36068  -0.36049  -0.35519  -0.35054
  Beta  occ. eigenvalues --   -0.34305  -0.34280  -0.33828  -0.33301  -0.33145
  Beta  occ. eigenvalues --   -0.31618  -0.31019  -0.30712  -0.30411  -0.29316
  Beta  occ. eigenvalues --   -0.28644  -0.26365  -0.25595  -0.25551  -0.25147
  Beta  occ. eigenvalues --   -0.23315  -0.22879  -0.22045  -0.21553  -0.17951
  Beta  occ. eigenvalues --   -0.17194
  Beta virt. eigenvalues --   -0.08600  -0.07745  -0.04946  -0.04169  -0.01818
  Beta virt. eigenvalues --   -0.01184   0.00245   0.00657   0.01171   0.01887
  Beta virt. eigenvalues --    0.02985   0.03288   0.04018   0.04722   0.05252
  Beta virt. eigenvalues --    0.05641   0.06090   0.06193   0.06272   0.07097
  Beta virt. eigenvalues --    0.07910   0.08425   0.08537   0.09003   0.09135
  Beta virt. eigenvalues --    0.09588   0.09787   0.10007   0.10337   0.10443
  Beta virt. eigenvalues --    0.11127   0.11187   0.11606   0.11960   0.12059
  Beta virt. eigenvalues --    0.12260   0.12349   0.12724   0.13032   0.13207
  Beta virt. eigenvalues --    0.13425   0.13470   0.13736   0.14073   0.14490
  Beta virt. eigenvalues --    0.14533   0.14702   0.14931   0.15202   0.15428
  Beta virt. eigenvalues --    0.15708   0.15834   0.15992   0.16149   0.16267
  Beta virt. eigenvalues --    0.16540   0.16775   0.16974   0.17198   0.17418
  Beta virt. eigenvalues --    0.17783   0.18069   0.18313   0.18496   0.19153
  Beta virt. eigenvalues --    0.19474   0.19612   0.19894   0.20104   0.20658
  Beta virt. eigenvalues --    0.20802   0.21165   0.21498   0.21918   0.22130
  Beta virt. eigenvalues --    0.22301   0.22702   0.22767   0.22912   0.23263
  Beta virt. eigenvalues --    0.23331   0.23892   0.24193   0.24580   0.24782
  Beta virt. eigenvalues --    0.25121   0.25481   0.25676   0.25795   0.26133
  Beta virt. eigenvalues --    0.26345   0.26508   0.26825   0.27153   0.27220
  Beta virt. eigenvalues --    0.27431   0.27589   0.27896   0.28206   0.28791
  Beta virt. eigenvalues --    0.29109   0.29230   0.29448   0.29567   0.30107
  Beta virt. eigenvalues --    0.30403   0.30647   0.31010   0.31140   0.31335
  Beta virt. eigenvalues --    0.31459   0.31805   0.32422   0.32530   0.32835
  Beta virt. eigenvalues --    0.32999   0.33605   0.33772   0.34241   0.34410
  Beta virt. eigenvalues --    0.34565   0.34702   0.34859   0.34969   0.35406
  Beta virt. eigenvalues --    0.35978   0.36144   0.36384   0.36788   0.36957
  Beta virt. eigenvalues --    0.37128   0.37437   0.37742   0.38028   0.38192
  Beta virt. eigenvalues --    0.38452   0.38607   0.39165   0.39396   0.39452
  Beta virt. eigenvalues --    0.39577   0.40004   0.40146   0.40500   0.40661
  Beta virt. eigenvalues --    0.40839   0.41054   0.41424   0.41478   0.41610
  Beta virt. eigenvalues --    0.41866   0.42042   0.42582   0.42614   0.42743
  Beta virt. eigenvalues --    0.42882   0.43019   0.43325   0.43609   0.43836
  Beta virt. eigenvalues --    0.44216   0.44306   0.44583   0.44635   0.44748
  Beta virt. eigenvalues --    0.45127   0.45394   0.45619   0.45733   0.46000
  Beta virt. eigenvalues --    0.46301   0.46473   0.46619   0.46789   0.46994
  Beta virt. eigenvalues --    0.47436   0.47625   0.47848   0.48089   0.48337
  Beta virt. eigenvalues --    0.48507   0.48615   0.48864   0.49260   0.49365
  Beta virt. eigenvalues --    0.49520   0.49764   0.50070   0.50308   0.50378
  Beta virt. eigenvalues --    0.50460   0.50720   0.50889   0.51253   0.51726
  Beta virt. eigenvalues --    0.51950   0.52188   0.52538   0.52786   0.52928
  Beta virt. eigenvalues --    0.52949   0.53227   0.53562   0.53732   0.53881
  Beta virt. eigenvalues --    0.54071   0.54447   0.54609   0.54995   0.55363
  Beta virt. eigenvalues --    0.55496   0.55652   0.55969   0.56139   0.56386
  Beta virt. eigenvalues --    0.56802   0.56937   0.57125   0.57222   0.57670
  Beta virt. eigenvalues --    0.57760   0.58327   0.58663   0.58722   0.59116
  Beta virt. eigenvalues --    0.59591   0.59641   0.59930   0.60426   0.60953
  Beta virt. eigenvalues --    0.61197   0.61294   0.61851   0.62364   0.62662
  Beta virt. eigenvalues --    0.62865   0.63429   0.63719   0.63991   0.64061
  Beta virt. eigenvalues --    0.64301   0.64653   0.64993   0.65086   0.65386
  Beta virt. eigenvalues --    0.65431   0.65868   0.66176   0.66402   0.66911
  Beta virt. eigenvalues --    0.67152   0.67604   0.67724   0.68146   0.68207
  Beta virt. eigenvalues --    0.68681   0.68977   0.69371   0.69796   0.70494
  Beta virt. eigenvalues --    0.70786   0.70965   0.71137   0.71601   0.72036
  Beta virt. eigenvalues --    0.72628   0.72885   0.73000   0.73139   0.73569
  Beta virt. eigenvalues --    0.73859   0.73935   0.74474   0.74661   0.75062
  Beta virt. eigenvalues --    0.75702   0.75771   0.75893   0.76440   0.76995
  Beta virt. eigenvalues --    0.77258   0.77385   0.77903   0.78145   0.78321
  Beta virt. eigenvalues --    0.78672   0.79378   0.79404   0.79700   0.79744
  Beta virt. eigenvalues --    0.80020   0.80189   0.80587   0.81200   0.81630
  Beta virt. eigenvalues --    0.81790   0.82154   0.82892   0.83266   0.83549
  Beta virt. eigenvalues --    0.83807   0.84334   0.84784   0.85025   0.85175
  Beta virt. eigenvalues --    0.85958   0.86497   0.86965   0.87454   0.87734
  Beta virt. eigenvalues --    0.88001   0.88478   0.88809   0.89127   0.89855
  Beta virt. eigenvalues --    0.90035   0.90449   0.90849   0.90990   0.91224
  Beta virt. eigenvalues --    0.91557   0.92172   0.92773   0.92946   0.93507
  Beta virt. eigenvalues --    0.93712   0.93907   0.94869   0.95295   0.95493
  Beta virt. eigenvalues --    0.95585   0.96037   0.96293   0.96609   0.96871
  Beta virt. eigenvalues --    0.97294   0.97479   0.97647   0.98282   0.98466
  Beta virt. eigenvalues --    0.99045   0.99213   0.99746   1.00011   1.00466
  Beta virt. eigenvalues --    1.00567   1.00899   1.01395   1.01500   1.01860
  Beta virt. eigenvalues --    1.02204   1.02414   1.02512   1.02951   1.03512
  Beta virt. eigenvalues --    1.03694   1.03841   1.04027   1.04386   1.04711
  Beta virt. eigenvalues --    1.04897   1.05497   1.05828   1.06212   1.06488
  Beta virt. eigenvalues --    1.07083   1.07411   1.07695   1.08545   1.08931
  Beta virt. eigenvalues --    1.09784   1.10067   1.10454   1.10732   1.10918
  Beta virt. eigenvalues --    1.11211   1.11403   1.12323   1.12341   1.12664
  Beta virt. eigenvalues --    1.13424   1.13764   1.14608   1.14735   1.15145
  Beta virt. eigenvalues --    1.15657   1.16189   1.16530   1.16588   1.17349
  Beta virt. eigenvalues --    1.17478   1.18161   1.19070   1.19232   1.19495
  Beta virt. eigenvalues --    1.19964   1.20124   1.20415   1.20631   1.20834
  Beta virt. eigenvalues --    1.21639   1.21903   1.22055   1.22950   1.23118
  Beta virt. eigenvalues --    1.23555   1.24335   1.24547   1.24905   1.25346
  Beta virt. eigenvalues --    1.26026   1.26570   1.26838   1.27086   1.27338
  Beta virt. eigenvalues --    1.28242   1.28506   1.28575   1.28932   1.29306
  Beta virt. eigenvalues --    1.29835   1.30226   1.30482   1.31098   1.31341
  Beta virt. eigenvalues --    1.31886   1.32072   1.32203   1.32603   1.33518
  Beta virt. eigenvalues --    1.33940   1.34090   1.35137   1.35865   1.36231
  Beta virt. eigenvalues --    1.36792   1.37201   1.37786   1.38059   1.38234
  Beta virt. eigenvalues --    1.38869   1.39318   1.39832   1.41089   1.41445
  Beta virt. eigenvalues --    1.42720   1.43127   1.43595   1.43976   1.44148
  Beta virt. eigenvalues --    1.44677   1.45393   1.45725   1.46044   1.46394
  Beta virt. eigenvalues --    1.47132   1.47383   1.47616   1.47793   1.48262
  Beta virt. eigenvalues --    1.48578   1.49145   1.49323   1.49865   1.49911
  Beta virt. eigenvalues --    1.50018   1.50339   1.50745   1.51306   1.51339
  Beta virt. eigenvalues --    1.51425   1.51937   1.52202   1.52463   1.52744
  Beta virt. eigenvalues --    1.53112   1.53323   1.53742   1.53794   1.54328
  Beta virt. eigenvalues --    1.54389   1.54548   1.54678   1.54774   1.55196
  Beta virt. eigenvalues --    1.55316   1.55778   1.55888   1.56274   1.56545
  Beta virt. eigenvalues --    1.57026   1.57289   1.57621   1.57849   1.58097
  Beta virt. eigenvalues --    1.58216   1.58374   1.58821   1.58865   1.59411
  Beta virt. eigenvalues --    1.59709   1.60150   1.60398   1.60818   1.61075
  Beta virt. eigenvalues --    1.61491   1.61836   1.62134   1.62454   1.62502
  Beta virt. eigenvalues --    1.63067   1.63483   1.63665   1.63923   1.64165
  Beta virt. eigenvalues --    1.64558   1.64852   1.65216   1.65541   1.66134
  Beta virt. eigenvalues --    1.66274   1.66400   1.66767   1.67455   1.67570
  Beta virt. eigenvalues --    1.67789   1.68510   1.68664   1.68867   1.69092
  Beta virt. eigenvalues --    1.69583   1.69797   1.70395   1.70767   1.71230
  Beta virt. eigenvalues --    1.71459   1.71591   1.72538   1.72895   1.73075
  Beta virt. eigenvalues --    1.73634   1.73961   1.74124   1.74923   1.75102
  Beta virt. eigenvalues --    1.75681   1.76243   1.76532   1.77437   1.78120
  Beta virt. eigenvalues --    1.78199   1.78948   1.79963   1.80204   1.80824
  Beta virt. eigenvalues --    1.81489   1.81906   1.82143   1.82754   1.83275
  Beta virt. eigenvalues --    1.83425   1.83807   1.84362   1.85297   1.85627
  Beta virt. eigenvalues --    1.85739   1.86160   1.86738   1.87202   1.87319
  Beta virt. eigenvalues --    1.87585   1.88176   1.88392   1.89119   1.90400
  Beta virt. eigenvalues --    1.90629   1.90740   1.91148   1.91570   1.92032
  Beta virt. eigenvalues --    1.92519   1.93146   1.93319   1.93694   1.94041
  Beta virt. eigenvalues --    1.94286   1.95015   1.95344   1.96261   1.96669
  Beta virt. eigenvalues --    1.97381   1.97743   1.98514   1.98741   1.99381
  Beta virt. eigenvalues --    1.99736   2.00103   2.00214   2.01009   2.01091
  Beta virt. eigenvalues --    2.01600   2.01875   2.02273   2.02661   2.02954
  Beta virt. eigenvalues --    2.03772   2.04302   2.04504   2.04928   2.05992
  Beta virt. eigenvalues --    2.06479   2.07115   2.07365   2.07719   2.08281
  Beta virt. eigenvalues --    2.08490   2.09033   2.09417   2.09595   2.10068
  Beta virt. eigenvalues --    2.10371   2.11269   2.11496   2.11751   2.12494
  Beta virt. eigenvalues --    2.12637   2.13152   2.13421   2.13735   2.14091
  Beta virt. eigenvalues --    2.14811   2.15190   2.15391   2.15939   2.16735
  Beta virt. eigenvalues --    2.17398   2.17840   2.18094   2.18670   2.19177
  Beta virt. eigenvalues --    2.19417   2.19756   2.20257   2.20742   2.20960
  Beta virt. eigenvalues --    2.22222   2.22511   2.23125   2.23704   2.24224
  Beta virt. eigenvalues --    2.24595   2.25438   2.25987   2.26163   2.26590
  Beta virt. eigenvalues --    2.27133   2.28019   2.28142   2.28779   2.29079
  Beta virt. eigenvalues --    2.29289   2.29773   2.30081   2.30614   2.30840
  Beta virt. eigenvalues --    2.31247   2.32002   2.32181   2.32578   2.32840
  Beta virt. eigenvalues --    2.33743   2.34025   2.34133   2.34944   2.35091
  Beta virt. eigenvalues --    2.35676   2.35816   2.36165   2.36373   2.36860
  Beta virt. eigenvalues --    2.37308   2.37775   2.38010   2.38666   2.39386
  Beta virt. eigenvalues --    2.39878   2.40260   2.40363   2.40989   2.41437
  Beta virt. eigenvalues --    2.41668   2.41937   2.42840   2.43385   2.43672
  Beta virt. eigenvalues --    2.44103   2.44467   2.45206   2.45354   2.45841
  Beta virt. eigenvalues --    2.46023   2.46253   2.46632   2.46977   2.47469
  Beta virt. eigenvalues --    2.47984   2.48394   2.48804   2.49084   2.49333
  Beta virt. eigenvalues --    2.50046   2.51103   2.51359   2.52012   2.52391
  Beta virt. eigenvalues --    2.52840   2.53116   2.53244   2.53431   2.54269
  Beta virt. eigenvalues --    2.54924   2.55390   2.55556   2.55784   2.56165
  Beta virt. eigenvalues --    2.56357   2.56758   2.57086   2.57399   2.57614
  Beta virt. eigenvalues --    2.58072   2.58403   2.58720   2.59413   2.59683
  Beta virt. eigenvalues --    2.60208   2.60782   2.61197   2.61464   2.61620
  Beta virt. eigenvalues --    2.62764   2.63045   2.63261   2.63829   2.63988
  Beta virt. eigenvalues --    2.64184   2.64567   2.65187   2.65391   2.65664
  Beta virt. eigenvalues --    2.66592   2.66827   2.67116   2.67516   2.68001
  Beta virt. eigenvalues --    2.68349   2.68679   2.69240   2.69401   2.70250
  Beta virt. eigenvalues --    2.70306   2.70541   2.71032   2.71384   2.71789
  Beta virt. eigenvalues --    2.72691   2.72854   2.73265   2.73847   2.74409
  Beta virt. eigenvalues --    2.75298   2.75513   2.76044   2.76270   2.76453
  Beta virt. eigenvalues --    2.76684   2.77377   2.77926   2.78076   2.78538
  Beta virt. eigenvalues --    2.78938   2.79254   2.79896   2.80807   2.81098
  Beta virt. eigenvalues --    2.81244   2.81740   2.82304   2.82842   2.83057
  Beta virt. eigenvalues --    2.83441   2.83958   2.84569   2.84848   2.85265
  Beta virt. eigenvalues --    2.86084   2.86293   2.86622   2.86980   2.87332
  Beta virt. eigenvalues --    2.87811   2.88040   2.88296   2.88573   2.89308
  Beta virt. eigenvalues --    2.89634   2.90056   2.90441   2.91028   2.91216
  Beta virt. eigenvalues --    2.91695   2.92074   2.92424   2.92821   2.93270
  Beta virt. eigenvalues --    2.93851   2.94057   2.94180   2.94447   2.95054
  Beta virt. eigenvalues --    2.95220   2.95813   2.95873   2.96209   2.96541
  Beta virt. eigenvalues --    2.96780   2.96915   2.97210   2.97843   2.98303
  Beta virt. eigenvalues --    2.98439   2.98969   2.99510   2.99854   3.00058
  Beta virt. eigenvalues --    3.00300   3.00910   3.01100   3.01310   3.01934
  Beta virt. eigenvalues --    3.02147   3.02518   3.02989   3.03245   3.03515
  Beta virt. eigenvalues --    3.04254   3.04530   3.05000   3.05588   3.05744
  Beta virt. eigenvalues --    3.06445   3.06769   3.06868   3.07318   3.07449
  Beta virt. eigenvalues --    3.07964   3.08236   3.08461   3.08818   3.09249
  Beta virt. eigenvalues --    3.09414   3.09710   3.10337   3.10449   3.11115
  Beta virt. eigenvalues --    3.11669   3.11968   3.12018   3.12189   3.12389
  Beta virt. eigenvalues --    3.12624   3.13645   3.13958   3.14163   3.14473
  Beta virt. eigenvalues --    3.14894   3.15441   3.15771   3.15954   3.16311
  Beta virt. eigenvalues --    3.16344   3.16816   3.16931   3.17300   3.17691
  Beta virt. eigenvalues --    3.18227   3.18513   3.19037   3.19486   3.19714
  Beta virt. eigenvalues --    3.20055   3.20128   3.20806   3.20917   3.21404
  Beta virt. eigenvalues --    3.21691   3.21880   3.21998   3.22393   3.22602
  Beta virt. eigenvalues --    3.23474   3.23677   3.23830   3.23910   3.24061
  Beta virt. eigenvalues --    3.24627   3.24781   3.25442   3.25660   3.25723
  Beta virt. eigenvalues --    3.26142   3.26375   3.26707   3.26838   3.27164
  Beta virt. eigenvalues --    3.27501   3.27667   3.27931   3.28611   3.28806
  Beta virt. eigenvalues --    3.28983   3.29311   3.29709   3.30068   3.30128
  Beta virt. eigenvalues --    3.30382   3.30702   3.30970   3.31184   3.31638
  Beta virt. eigenvalues --    3.31987   3.32260   3.32522   3.32865   3.33079
  Beta virt. eigenvalues --    3.33501   3.33871   3.34074   3.34253   3.34784
  Beta virt. eigenvalues --    3.34817   3.35300   3.35554   3.35847   3.35932
  Beta virt. eigenvalues --    3.36231   3.36574   3.36807   3.37253   3.37379
  Beta virt. eigenvalues --    3.37606   3.37831   3.38457   3.38584   3.39085
  Beta virt. eigenvalues --    3.39255   3.39811   3.39854   3.40382   3.40442
  Beta virt. eigenvalues --    3.40858   3.41098   3.41249   3.41680   3.41818
  Beta virt. eigenvalues --    3.42360   3.43478   3.43835   3.44258   3.44576
  Beta virt. eigenvalues --    3.45171   3.45470   3.45978   3.46229   3.46289
  Beta virt. eigenvalues --    3.46655   3.47044   3.47299   3.47635   3.48197
  Beta virt. eigenvalues --    3.48921   3.49071   3.49799   3.50428   3.50537
  Beta virt. eigenvalues --    3.51595   3.51890   3.52073   3.52644   3.52939
  Beta virt. eigenvalues --    3.53310   3.53810   3.54350   3.54699   3.55091
  Beta virt. eigenvalues --    3.55521   3.56098   3.56469   3.56862   3.57083
  Beta virt. eigenvalues --    3.57444   3.58008   3.58269   3.58935   3.59549
  Beta virt. eigenvalues --    3.59735   3.60597   3.60653   3.61836   3.61993
  Beta virt. eigenvalues --    3.62631   3.62891   3.63732   3.64062   3.64475
  Beta virt. eigenvalues --    3.64546   3.65019   3.66027   3.66409   3.66794
  Beta virt. eigenvalues --    3.66893   3.67206   3.68017   3.68362   3.68592
[...]
  1385. RY*(   7) N  76                  0.00023     2.00176   
  1386. RY*(   8) N  76                  0.00015     3.32542   
  1387. RY*(   9) N  76                  0.00005     2.83880   
  1388. RY*(  10) N  76                  0.00005     2.98332   
  1389. RY*(  11) N  76                  0.00003     3.22957   
  1390. RY*(  12) N  76                  0.00002     3.13956   
  1391. RY*(  13) N  76                  0.00001     2.81850   
  1392. RY*(  14) N  76                  0.00001     3.42862   
  1393. RY*(  15) N  76                  0.00001     4.76889   
  1394. RY*(  16) N  76                  0.00001     4.88037   
  1395. RY*(  17) N  76                  0.00000     4.83000   
  1396. RY*(  18) N  76                  0.00001     4.41835   
  1397. RY*(  19) N  76                  0.00000    31.50420   
  1398. RY*(  20) N  76                  0.00000     4.36796   
  1399. RY*(  21) N  76                  0.00001     4.98775   
  1400. RY*(  22) N  76                  0.00000     4.12263   
  1401. RY*(  23) N  76                  0.00000     4.66046   
  1402. RY*(  24) N  76                  0.00000     4.68194   
  1403. RY*(  25) N  76                  0.00000     4.49883   
  1404. RY*(  26) N  76                  0.00000     4.55514   
  1405. RY*(   1) C  77                  0.00198     1.45853   
  1406. RY*(   2) C  77                  0.00115     0.70977   
  1407. RY*(   3) C  77                  0.00083     1.85338   
  1408. RY*(   4) C  77                  0.00031     1.83829   
  1409. RY*(   5) C  77                  0.00028     1.73930   
  1410. RY*(   6) C  77                  0.00019     2.17164   
  1411. RY*(   7) C  77                  0.00017     1.97852   
  1412. RY*(   8) C  77                  0.00012     1.88106   
  1413. RY*(   9) C  77                  0.00009     1.68571   
  1414. RY*(  10) C  77                  0.00006     1.30041   
  1415. RY*(  11) C  77                  0.00006     1.68129   
  1416. RY*(  12) C  77                  0.00003     2.73468   
  1417. RY*(  13) C  77                  0.00003     1.93631   
  1418. RY*(  14) C  77                  0.00001     2.21538   
  1419. RY*(  15) C  77                  0.00001     1.55707   
  1420. RY*(  16) C  77                  0.00002     3.32585   
  1421. RY*(  17) C  77                  0.00000     3.52979   
  1422. RY*(  18) C  77                  0.00000    21.37135   
  1423. RY*(  19) C  77                  0.00000     3.40404   
  1424. RY*(  20) C  77                  0.00000     3.99646   
  1425. RY*(  21) C  77                  0.00000     3.81749   
  1426. RY*(  22) C  77                  0.00000     3.47150   
  1427. RY*(  23) C  77                  0.00000     3.66933   
  1428. RY*(  24) C  77                  0.00000     3.46899   
  1429. RY*(  25) C  77                  0.00000     3.49093   
  1430. RY*(  26) C  77                  0.00000     3.60612   
  1431. RY*(   1) H  78                  0.00029     1.22685   
  1432. RY*(   2) H  78                  0.00015     1.83458   
  1433. RY*(   3) H  78                  0.00012     2.27892   
  1434. RY*(   4) H  78                  0.00003     2.71271   
  1435. RY*(   5) H  78                  0.00000     3.09889   
  1436. BD*(   1)Fe   1 - N   3          0.04163     0.36010   
  1437. BD*(   1)Fe   1 - N   5          0.04120     0.35890   
  1438. BD*(   1)Fe   1 - N  76          0.04442     0.21689   
  1439. BD*(   1) N   2 - C   6          0.01378     0.51297   
  1440. BD*(   2) N   2 - C   6          0.34278     0.00891  158(v),1454(v),1459(v)
                                                    296(g),192(g),149(r),153(r)
                                                    152(r),710(v),151(r)
  1441. BD*(   1) N   2 - C   9          0.01355     0.50968   
  1442. BD*(   1) N   3 - C  10          0.01414     0.51305   
  1443. BD*(   2) N   3 - C  10          0.31065     0.02463  1459(v),1463(v),156(v)
                                                    151(v),400(g),218(g),152(v)
                                                    742(v),1449(r)
  1444. BD*(   1) N   3 - C  13          0.01380     0.51861   
  1445. BD*(   1) N   4 - C  14          0.01365     0.51316   
  1446. BD*(   2) N   4 - C  14          0.34189     0.01419  159(v),1471(v),1476(v)
                                                    504(g),244(g),153(r),773(v)
                                                    149(r),503(g),152(r)
  1447. BD*(   1) N   4 - C  17          0.01285     0.52120   
  1448. BD*(   1) N   5 - C  18          0.01378     0.51959   
  1449. BD*(   2) N   5 - C  18          0.30441     0.02653  1476(v),1480(v),157(v)
                                                    151(v),608(g),270(g),152(v)
                                                    804(v),1443(r)
  1450. BD*(   1) N   5 - C  21          0.01402     0.51288   
  1451. BD*(   1) C   6 - C   7          0.01703     0.50598   
  1452. BD*(   1) C   6 - C  22          0.01055     0.58699   
  1453. BD*(   1) C   7 - C   8          0.01100     0.60720   
  1454. BD*(   2) C   7 - C   8          0.12627     0.07884  1459(v),1440(v),1490(v)
                                                    1489(v),1493(v),1492(v)
  1455. BD*(   1) C   7 - C  34          0.00859     0.42093   
  1456. BD*(   1) C   8 - C   9          0.01705     0.50209   
  1457. BD*(   1) C   8 - C  30          0.00828     0.41743   
  1458. BD*(   1) C   9 - C  24          0.01035     0.58507   
  1459. BD*(   2) C   9 - C  24          0.19959     0.05750  1443(v),1454(v),1440(v)
                                                    742(g),376(g)
  1460. BD*(   1) C  10 - C  11          0.01668     0.50599   
  1461. BD*(   1) C  10 - C  24          0.01036     0.58040   
  1462. BD*(   1) C  11 - C  12          0.01234     0.60309   
  1463. BD*(   2) C  11 - C  12          0.14097     0.07793  1500(v),1443(v),156(v)
                                                    1495(v),1496(v),1498(v)
  1464. BD*(   1) C  11 - C  38          0.00811     0.42367   
  1465. BD*(   1) C  12 - C  13          0.01706     0.49600   
  1466. BD*(   1) C  12 - C  42          0.01335     0.50736   
  1467. BD*(   1) C  13 - C  26          0.01028     0.59547   
  1468. BD*(   1) C  14 - C  15          0.01665     0.51132   
  1469. BD*(   1) C  14 - C  26          0.01066     0.59081   
  1470. BD*(   1) C  15 - C  16          0.01217     0.60337   
  1471. BD*(   2) C  15 - C  16          0.13546     0.08142  1508(v),1476(v),1446(v)
                                                    1503(v),1504(v)
  1472. BD*(   1) C  15 - C  47          0.00822     0.42909   
  1473. BD*(   1) C  16 - C  17          0.01675     0.49914   
  1474. BD*(   1) C  16 - C  51          0.01319     0.50763   
  1475. BD*(   1) C  17 - C  28          0.01034     0.58641   
  1476. BD*(   2) C  17 - C  28          0.19783     0.06125  1449(v),1471(v),1446(v)
                                                    1508(r),804(g),584(g)
  1477. BD*(   1) C  18 - C  19          0.01714     0.49916   
  1478. BD*(   1) C  18 - C  28          0.01037     0.58733   
  1479. BD*(   1) C  19 - C  20          0.01120     0.61624   
  1480. BD*(   2) C  19 - C  20          0.12257     0.07977  1449(v),157(v),1514(v)
                                                    1516(v),1512(v),1511(v)
  1481. BD*(   1) C  19 - C  56          0.00847     0.42037   
  1482. BD*(   1) C  20 - C  21          0.01732     0.49779   
  1483. BD*(   1) C  20 - C  60          0.00870     0.42119   
  1484. BD*(   1) C  21 - C  22          0.01031     0.58954   
  1485. BD*(   1) C  22 - H  23          0.00666     0.44619   
  1486. BD*(   1) C  24 - H  25          0.00688     0.44024   
  1487. BD*(   1) C  26 - H  27          0.00706     0.45019   
  1488. BD*(   1) C  28 - H  29          0.00659     0.44072   
  1489. BD*(   1) C  30 - H  31          0.00517     0.38160   
  1490. BD*(   1) C  30 - H  32          0.00529     0.38238   
  1491. BD*(   1) C  30 - H  33          0.00298     0.39708   
  1492. BD*(   1) C  34 - H  35          0.00455     0.38508   
  1493. BD*(   1) C  34 - H  36          0.00493     0.38531   
  1494. BD*(   1) C  34 - H  37          0.00280     0.39496   
  1495. BD*(   1) C  38 - H  39          0.00628     0.38340   
  1496. BD*(   1) C  38 - H  40          0.00510     0.39132   
  1497. BD*(   1) C  38 - H  41          0.00415     0.40036   
  1498. BD*(   1) C  42 - H  43          0.01032     0.43409   
  1499. BD*(   1) C  42 - C  44          0.00384     0.64095   
  1500. BD*(   2) C  42 - C  44          0.03314     0.06978   
  1501. BD*(   1) C  44 - H  45          0.00563     0.44390   
  1502. BD*(   1) C  44 - H  46          0.00435     0.44431   
  1503. BD*(   1) C  47 - H  48          0.00550     0.38891   
  1504. BD*(   1) C  47 - H  49          0.00462     0.39822   
  1505. BD*(   1) C  47 - H  50          0.00402     0.40398   
  1506. BD*(   1) C  51 - H  52          0.01073     0.43041   
  1507. BD*(   1) C  51 - C  53          0.00392     0.63867   
  1508. BD*(   2) C  51 - C  53          0.03861     0.06793   
  1509. BD*(   1) C  53 - H  54          0.00555     0.44290   
  1510. BD*(   1) C  53 - H  55          0.00431     0.44218   
  1511. BD*(   1) C  56 - H  57          0.00530     0.38422   
  1512. BD*(   1) C  56 - H  58          0.00555     0.38458   
  1513. BD*(   1) C  56 - H  59          0.00338     0.39466   
  1514. BD*(   1) C  60 - H  61          0.00498     0.38494   
  1515. BD*(   1) C  60 - H  62          0.00329     0.39617   
  1516. BD*(   1) C  60 - H  63          0.00490     0.38756   
  1519. BD*(   1) C  67 - H  68          0.00557     0.35017   
  1520. BD*(   1) C  67 - H  69          0.00165     0.36469   
  1521. BD*(   1) C  67 - H  70          0.00567     0.35043   
  1522. BD*(   1) C  67 - C  73          0.00651     0.37738   
  1523. BD*(   1) N  71 - H  72          0.00678     0.35437   
  1524. BD*(   1) N  71 - C  73          0.01358     0.41439   
  1525. BD*(   2) N  71 - C  73          0.38521    -0.06083  1530(v),1521(v),1519(v)
                                                    1291(g),1323(g),1328(g)
                                                    1410(v)
  1526. BD*(   1) N  71 - C  74          0.01069     0.42915   
  1527. BD*(   1) C  73 - C  77          0.01037     0.55080   
  1528. BD*(   1) C  74 - H  75          0.00852     0.37510   
  1529. BD*(   1) C  74 - N  76          0.00848     0.51355   
  1530. BD*(   2) C  74 - N  76          0.21118    -0.02508  151(v),1525(v),1349(g)
                                                    153(v)
  1531. BD*(   1) N  76 - C  77          0.00804     0.46184   
  1532. BD*(   1) C  77 - H  78          0.00689     0.41844   
       -------------------------------
              Total Lewis  145.96165  ( 96.6010%)
        Valence non-Lewis    4.84131  (  3.2041%)
        Rydberg non-Lewis    0.29456  (  0.1949%)
       -------------------------------
            Total unit  1  151.09751  (100.0000%)
           Charge unit  1    1.90249
 
 Molecular unit  2  (H2O)
    82. BD (   1) O  64 - H  65          0.99423    -0.81291  152(r),150(r),1438(r),164(r)
                                                    1247(v),1246(v),1380(r)
                                                    165(r),247(r),195(r),167(r)
                                                    243(r),177(r)
    83. BD (   1) O  64 - H  66          0.99701    -0.87583  152(r),164(r),153(r),1438(r)
                                                    1242(v),195(r),167(r)
                                                    1382(r),165(r),191(r)
                                                    1380(r),150(r),193(r),221(r)
   141. CR (   1) O  64                  0.99991   -18.96132  152(r),1242(v),1438(r)
                                                    1247(v),153(r),167(r),149(r)
                                                    150(r)
   160. LP (   1) O  64                  0.98701    -0.33353  151(r),1245(v),1436(r)
                                                    1241(v),1437(r),1381(r)
                                                    220(r),272(r),150(r)
   161. LP (   2) O  64                  0.91810    -0.50219  152(r),1438(r),153(r)
                                                    1246(v),1517(g),1240(v)
                                                    1518(g),149(r),167(r),169(r)
                                                    150(r),1382(r),191(r),271(r)
                                                    219(r),243(r),217(r),269(r)
                                                    270(r),193(r),218(r),172(r)
                                                    245(r),1444(r)
  1214. RY*(   1) O  64                  0.00026     1.51067   
  1215. RY*(   2) O  64                  0.00022     0.68651   
  1216. RY*(   3) O  64                  0.00013     1.17687   
  1217. RY*(   4) O  64                  0.00010     0.81304   
  1218. RY*(   5) O  64                  0.00002     2.35908   
  1219. RY*(   6) O  64                  0.00002     2.25604   
  1220. RY*(   7) O  64                  0.00000     3.01719   
  1221. RY*(   8) O  64                  0.00000     4.56577   
  1222. RY*(   9) O  64                  0.00001     3.22866   
  1223. RY*(  10) O  64                  0.00001     2.73248   
  1224. RY*(  11) O  64                  0.00000     6.37355   
  1225. RY*(  12) O  64                  0.00000     3.19209   
  1226. RY*(  13) O  64                  0.00000     6.52205   
  1227. RY*(  14) O  64                  0.00000    42.84118   
  1228. RY*(  15) O  64                  0.00000     6.47495   
  1229. RY*(  16) O  64                  0.00001     2.17388   
  1230. RY*(  17) O  64                  0.00000     6.19178   
  1231. RY*(  18) O  64                  0.00000     2.44623   
  1232. RY*(  19) O  64                  0.00000     6.47746   
  1233. RY*(  20) O  64                  0.00000     5.34281   
  1234. RY*(  21) O  64                  0.00000     5.56051   
  1235. RY*(  22) O  64                  0.00000     5.38523   
  1236. RY*(  23) O  64                  0.00000     5.29439   
  1237. RY*(  24) O  64                  0.00000     5.65090   
  1238. RY*(  25) O  64                  0.00000     5.37719   
  1239. RY*(  26) O  64                  0.00000     5.60263   
  1240. RY*(   1) H  65                  0.00044     1.15718   
  1241. RY*(   2) H  65                  0.00040     1.99235   
  1242. RY*(   3) H  65                  0.00024     2.05524   
  1243. RY*(   4) H  65                  0.00009     1.98118   
  1244. RY*(   5) H  65                  0.00001     2.88201   
  1245. RY*(   1) H  66                  0.00047     2.00354   
  1246. RY*(   2) H  66                  0.00042     1.74167   
  1247. RY*(   3) H  66                  0.00026     1.61720   
  1248. RY*(   4) H  66                  0.00013     1.68214   
  1249. RY*(   5) H  66                  0.00000     3.01316   
  1517. BD*(   1) O  64 - H  65          0.00166     0.42876   
  1518. BD*(   1) O  64 - H  66          0.00124     0.59976   
       -------------------------------
              Total Lewis    4.89626  ( 99.8750%)
        Valence non-Lewis    0.00289  (  0.0590%)
        Rydberg non-Lewis    0.00324  (  0.0661%)
       -------------------------------
            Total unit  2    4.90239  (100.0000%)
           Charge unit  2    0.09761
 Unable to Open any file for archive entry.
 1\1\GINC-BGN1017\SP\UAPFD\def2TZVP\C34H36Fe1N6O1(5)\BECSLEIP\03-Sep-20
 24\0\\# apfd/def2TZVP guess=read scf=maxcycle=999 geom=check pop=nbo\\
 2r5l_II_Q\\0,5\Fe,0,9.6523261691,2.3148984223,26.562358647\N,0,8.71055
 59514,2.4350670879,28.3400802157\N,0,9.6770339044,4.3068667882,26.4476
 220569\N,0,10.260546568,2.2051263999,24.6259887917\N,0,9.4215231741,0.
 3261720216,26.5535500971\C,0,8.3574512869,1.3870334459,29.1306336623\C
 ,0,7.9089438902,1.8522180034,30.4191926873\C,0,7.9966031034,3.21190394
 85,30.3920539576\C,0,8.4976291629,3.5581277439,29.0822608744\C,0,9.213
 7306,5.1841304709,27.3815828966\C,0,9.3561713678,6.5446558377,26.92834
 68629\C,0,9.889575525,6.4758499808,25.6699485025\C,0,10.0724589554,5.0
 632126203,25.3907739353\C,0,10.67882973,3.2462153257,23.855192338\C,0,
 11.3115847387,2.7761962587,22.6495306222\C,0,11.1862795006,1.411400633
 2,22.6615331091\C,0,10.5420100732,1.0827532784,23.9180379205\C,0,9.671
 682445,-0.5364748513,25.5342955765\C,0,9.2188469045,-1.8705659544,25.8
 62689836\C,0,8.6592364693,-1.7885250935,27.0984069116\C,0,8.793022588,
 -0.4080624741,27.5131770229\C,0,8.3660965462,0.0585381251,28.742286701
 \H,0,7.9718986132,-0.6642277952,29.4410036019\C,0,8.7234266376,4.84512
 87113,28.6320620513\H,0,8.4735101086,5.65943153,29.2952760187\C,0,10.5
 658687935,4.5836362221,24.1940218977\H,0,10.9090184945,5.3090507603,23
 .4720948955\C,0,10.2776038717,-0.207651849,24.3367199421\H,0,10.505307
 3189,-1.0137987154,23.6560698746\C,0,7.6394384172,4.1542315071,31.4924
 278367\H,0,8.2385395337,3.9465326578,32.3797503345\H,0,6.5889324274,4.
 0439300937,31.7644001665\H,0,7.8101214111,5.1868667158,31.2027521047\C
 ,0,7.4424027978,0.9789391223,31.5335309041\H,0,8.2070881545,0.24790957
 01,31.797900456\H,0,6.5429141175,0.4336089414,31.2448072917\H,0,7.2150
 724737,1.5756319082,32.4134377647\C,0,8.8969518989,7.7501085902,27.672
 5467801\H,0,9.6335458234,8.049937822,28.4199192958\H,0,7.9565902833,7.
 5525747909,28.1855995429\H,0,8.7494784875,8.5797427246,26.9839583095\C
 ,0,10.1985261738,7.5468898645,24.748453191\H,0,10.0494073533,7.3198496
 041,23.6990852202\C,0,10.6436079426,8.7524494231,25.0877192104\H,0,10.
 8546262317,9.0190669208,26.108689459\H,0,10.8384609749,9.509983688,24.
 3466371605\C,0,11.8540174884,3.6444927652,21.5681749074\H,0,12.8668982
 606,3.9734881619,21.8065200916\H,0,11.2360128143,4.5313418397,21.43583
 53589\H,0,11.8826546207,3.0975564848,20.6279299075\C,0,11.6158658856,0
 .4431260302,21.6779491707\H,0,10.9892139317,-0.4365140818,21.584347427
 9\C,0,12.6951277252,0.547680603,20.9090174636\H,0,13.3802097599,1.3731
 614831,20.9925378636\H,0,12.9462924971,-0.2091820928,20.1843815461\C,0
 ,9.3480576548,-3.047666229,24.957938121\H,0,10.3941711971,-3.224896890
 3,24.7074805798\H,0,8.802709868,-2.8784529824,24.0290951202\H,0,8.9519
 324879,-3.9441405078,25.4288034527\C,0,8.0121542154,-2.8553461216,27.9
 140793454\H,0,8.5349444622,-2.9867452671,28.8620108402\H,0,8.021726093
 9,-3.8049860678,27.3848530814\H,0,6.9764580324,-2.5953409405,28.133318
 4532\O,0,7.509,2.45,25.778\H,0,6.995,2.686,26.5499999999\H,0,7.198,2.3
 43,24.952\C,0,15.0682256826,2.9334663296,27.6375851303\H,0,15.36356600
 5,3.3905776294,28.5819076576\H,0,15.2175492777,3.6542427706,26.8399387
 45\H,0,15.7147171781,2.0745474177,27.4575771021\N,0,13.157242067,1.626
 8799428,28.5918278047\H,0,13.6945755358,1.1732779528,29.3121912106\C,0
 ,13.642308548,2.5208304537,27.6735939384\C,0,11.8353385364,1.467701493
 2,28.3502398821\H,0,11.1917472786,0.8243617151,28.9141582637\N,0,11.45
 55285519,2.2066994083,27.3352908592\C,0,12.5687547901,2.8679907011,26.
 9043521953\H,0,12.5198637139,3.5439068191,26.0754765489\\Version=ES64L
 -G16RevC.02\State=5-A\HF=-2983.9854511\S2=6.07877\S2-1=0.\S2A=6.00178\
 RMSD=1.149e-09\Dipole=1.2436491,-0.682099,1.6069031\Quadrupole=10.6495
 52,-8.2737264,-2.3758256,-1.2756509,9.4989579,-0.9723255\PG=C01 [X(C34
 H36Fe1N6O1)]\\@
 The archive entry for this job was punched.


    THE DOUGHNUT CREED
 AS YOU RAMBLE ON THROUGH LIFE, BROTHER
 WHATEVER BE YOUR GOAL
 KEEP YOUR EYE UPON THE DOUGHNUT
 AND NOT UPON THE HOLE.
 Job cpu time:       0 days 23 hours 31 minutes 43.8 seconds.
 Elapsed time:       0 days  0 hours 22 minutes  7.9 seconds.
 File lengths (MBytes):  RWF=   2166 Int=      0 D2E=      0 Chk=    197 Scr=      1
 Normal termination of Gaussian 16 at Tue Sep  3 12:41:23 2024.
