 Entering Gaussian System, Link 0=g16
 Input=2rbt12re.com
 Output=2rbt12re.log
 Initial command:
 /sw/chem/gaussian/g16_C02/a100/g16/l1.exe "/local/becsleip_8001832/Gau-60797.inp" -scrdir="/local/becsleip_8001832/"
 Entering Link 1 = /sw/chem/gaussian/g16_C02/a100/g16/l1.exe PID=     60798.
  
 Copyright (c) 1988-2021, Gaussian, Inc.  All Rights Reserved.
  
 This is part of the Gaussian(R) 16 program.  It is based on
 the Gaussian(R) 09 system (copyright 2009, Gaussian, Inc.),
 the Gaussian(R) 03 system (copyright 2003, Gaussian, Inc.),
 the Gaussian(R) 98 system (copyright 1998, Gaussian, Inc.),
 the Gaussian(R) 94 system (copyright 1995, Gaussian, Inc.),
 the Gaussian 92(TM) system (copyright 1992, Gaussian, Inc.),
 the Gaussian 90(TM) system (copyright 1990, Gaussian, Inc.),
 the Gaussian 88(TM) system (copyright 1988, Gaussian, Inc.),
 the Gaussian 86(TM) system (copyright 1986, Carnegie Mellon
 University), and the Gaussian 82(TM) system (copyright 1983,
 Carnegie Mellon University). Gaussian is a federally registered
 trademark of Gaussian, Inc.
  
 This software contains proprietary and confidential information,
 including trade secrets, belonging to Gaussian, Inc.
  
 This software is provided under written license and may be
 used, copied, transmitted, or stored only in accord with that
 written license.
  
 The following legend is applicable only to US Government
 contracts under FAR:
  
                    RESTRICTED RIGHTS LEGEND
  
 Use, reproduction and disclosure by the US Government is
 subject to restrictions as set forth in subparagraphs (a)
 and (c) of the Commercial Computer Software - Restricted
 Rights clause in FAR 52.227-19.
  
 Gaussian, Inc.
 340 Quinnipiac St., Bldg. 40, Wallingford CT 06492
  
  
 ---------------------------------------------------------------
 Warning -- This program may not be used in any manner that
 competes with the business of Gaussian, Inc. or will provide
 assistance to any competitor of Gaussian, Inc.  The licensee
 of this program is prohibited from giving any competitor of
 Gaussian, Inc. access to this program.  By using this program,
 the user acknowledges that Gaussian, Inc. is engaged in the
 business of creating and licensing software in the field of
 computational chemistry and represents and warrants to the
 licensee that it is not a competitor of Gaussian, Inc. and that
 it will not use this program in any manner prohibited above.
 ---------------------------------------------------------------
  

 Cite this work as:
 Gaussian 16, Revision C.02,
 M. J. Frisch, G. W. Trucks, H. B. Schlegel, G. E. Scuseria, 
 M. A. Robb, J. R. Cheeseman, G. Scalmani, V. Barone, 
 G. A. Petersson, H. Nakatsuji, X. Li, M. Caricato, A. V. Marenich, 
 J. Bloino, B. G. Janesko, R. Gomperts, B. Mennucci, H. P. Hratchian, 
 J. V. Ortiz, A. F. Izmaylov, J. L. Sonnenberg, D. Williams-Young, 
 F. Ding, F. Lipparini, F. Egidi, J. Goings, B. Peng, A. Petrone, 
 T. Henderson, D. Ranasinghe, V. G. Zakrzewski, J. Gao, N. Rega, 
 G. Zheng, W. Liang, M. Hada, M. Ehara, K. Toyota, R. Fukuda, 
 J. Hasegawa, M. Ishida, T. Nakajima, Y. Honda, O. Kitao, H. Nakai, 
 T. Vreven, K. Throssell, J. A. Montgomery, Jr., J. E. Peralta, 
 F. Ogliaro, M. J. Bearpark, J. J. Heyd, E. N. Brothers, K. N. Kudin, 
 V. N. Staroverov, T. A. Keith, R. Kobayashi, J. Normand, 
 K. Raghavachari, A. P. Rendell, J. C. Burant, S. S. Iyengar, 
 J. Tomasi, M. Cossi, J. M. Millam, M. Klene, C. Adamo, R. Cammi, 
 J. W. Ochterski, R. L. Martin, K. Morokuma, O. Farkas, 
 J. B. Foresman, and D. J. Fox, Gaussian, Inc., Wallingford CT, 2019.
 
 ******************************************
 Gaussian 16:  ES64L-G16RevC.02  7-Dec-2021
                 3-Sep-2024 
 ******************************************
 %mem=16GB
 %CPU=0-71
 SetSPE:  set environment variable "OMP_PROC_BIND" = "true"
 SetSPE:  set environment variable "OMP_PLACES" = "{0},{1},{2},{3},{4},{5},{6},{7},{8},{9},{10},{11},{12},{13},{14},{15},{16},{17},{18},{19},{20},{21},{22},{23},{24},{25},{26},{27},{28},{29},{30},{31},{32},{33},{34},{35},{36},{37},{38},{39},{40},{41},{42},{43},{44},{45},{46},{47},{48},{49},{50},{51},{52},{53},{54},{55},{56},{57},{58},{59},{60},{61},{62},{63},{64},{65},{66},{67},{68},{69},{70},{71}"
 Will use up to   72 processors via shared memory.
 %gpucpu=0,1,2,3=0,1,2,3
 Will use    4 GPUs:
 Thread  CPU   GPU
      0    0     0
      1    1     1
      2    2     2
      3    3     3
      4    4    -1
      5    5    -1
      6    6    -1
      7    7    -1
      8    8    -1
      9    9    -1
     10   10    -1
     11   11    -1
     12   12    -1
     13   13    -1
     14   14    -1
     15   15    -1
     16   16    -1
     17   17    -1
     18   18    -1
     19   19    -1
     20   20    -1
     21   21    -1
     22   22    -1
     23   23    -1
     24   24    -1
     25   25    -1
     26   26    -1
     27   27    -1
     28   28    -1
     29   29    -1
     30   30    -1
     31   31    -1
     32   32    -1
     33   33    -1
     34   34    -1
     35   35    -1
     36   36    -1
     37   37    -1
     38   38    -1
     39   39    -1
     40   40    -1
     41   41    -1
     42   42    -1
     43   43    -1
     44   44    -1
     45   45    -1
     46   46    -1
     47   47    -1
     48   48    -1
     49   49    -1
     50   50    -1
     51   51    -1
     52   52    -1
     53   53    -1
     54   54    -1
     55   55    -1
     56   56    -1
     57   57    -1
     58   58    -1
     59   59    -1
     60   60    -1
     61   61    -1
     62   62    -1
     63   63    -1
     64   64    -1
     65   65    -1
     66   66    -1
     67   67    -1
     68   68    -1
     69   69    -1
     70   70    -1
     71   71    -1
 SetGPE:  set environment variable "OMP_PROC_BIND" = "true"
 SetGPE:  set environment variable "OMP_PLACES" = "{0},{1},{2},{3},{4},{5},{6},{7},{8},{9},{10},{11},{12},{13},{14},{15},{16},{17},{18},{19},{20},{21},{22},{23},{24},{25},{26},{27},{28},{29},{30},{31},{32},{33},{34},{35},{36},{37},{38},{39},{40},{41},{42},{43},{44},{45},{46},{47},{48},{49},{50},{51},{52},{53},{54},{55},{56},{57},{58},{59},{60},{61},{62},{63},{64},{65},{66},{67},{68},{69},{70},{71}"
 %oldchk=2rbt_II_S.chk
 %chk=2rbt_II_Sre.chk
 Properties for Device   0
 Minimum vector length:                              32
 Maximum vector length:                            1024
 Number of SMPs:                                    108
 Maximum number of threads per SMP:                2048
 Number of ASync Engines:                             5
 Memory:                                           9207742464
 Properties for Device   1
 Minimum vector length:                              32
 Maximum vector length:                            1024
 Number of SMPs:                                    108
 Maximum number of threads per SMP:                2048
 Number of ASync Engines:                             5
 Memory:                                           9207742464
 Properties for Device   2
 Minimum vector length:                              32
 Maximum vector length:                            1024
 Number of SMPs:                                    108
 Maximum number of threads per SMP:                2048
 Number of ASync Engines:                             5
 Memory:                                           9207742464
 Properties for Device   3
 Minimum vector length:                              32
 Maximum vector length:                            1024
 Number of SMPs:                                    108
 Maximum number of threads per SMP:                2048
 Number of ASync Engines:                             5
 Memory:                                           9207742464
   8286968217 words of memory will be used on each GPU.
 Copying data from "2rbt_II_S.chk" to current chk file "2rbt_II_Sre.chk"
 IOpt=  2 FromEx=T IUOpen= 4 IOptOp= 5 NList=   0 IFRang= 0 IUIn= 4 IUOut= 2.
 --------------------------------------
 # apfd/gen scf=maxcycle=999 geom=check
 --------------------------------------
 1/29=2,38=1,172=1/1;
 2/12=2,40=1/2;
 3/5=7,11=2,14=-4,25=1,30=1,74=-44/1,2,3;
 4//1;
 5/5=2,7=999,38=5/2;
 6/7=2,8=2,9=2,10=2,28=1/1;
 99/5=1,9=1/99;
 ----------
 2rbt_III_D
 ----------
 Structure from the checkpoint file:  "2rbt_II_Sre.chk"
 Charge =  1 Multiplicity = 2
 Z-Matrix found in chk file.
 Fe,0,11.5061458846,-2.8169271971,1.5763648799
 N,0,12.1119262966,-1.1717085646,2.5495312493
 N,0,9.8580506334,-2.8745271758,2.711120081
 N,0,10.872888209,-4.4113093511,0.5585503179
 N,0,13.1298423094,-2.7144944226,0.4097126761
 C,0,13.2660044494,-0.4817460059,2.3499745428
 C,0,13.3106244727,0.6942676899,3.1893397008
 C,0,12.1741038379,0.6740832463,3.937136103
 C,0,11.4374184385,-0.4988270596,3.5224311237
 C,0,9.4985740334,-1.9950883688,3.6857498901
 C,0,8.2811151126,-2.4127163949,4.3320846397
 C,0,7.9033380542,-3.5800763582,3.722641291
 C,0,8.8955316319,-3.8320397485,2.6943996564
 C,0,9.7357416368,-5.123550004,0.7847407892
 C,0,9.5520527023,-6.1322733431,-0.2277344018
 C,0,10.639209503,-6.0469654533,-1.057070617
 C,0,11.4579931492,-4.9718661821,-0.5300360309
 C,0,13.4946418952,-3.6088968734,-0.5453423967
 C,0,14.8477423195,-3.3620401684,-0.9929402385
 C,0,15.2913650633,-2.289153624,-0.2855106621
 C,0,14.2064792121,-1.9047710243,0.5912516613
 C,0,14.2639620931,-0.8318058102,1.459347037
 H,0,15.1575887421,-0.2264973351,1.4487515169
 C,0,10.2211466617,-0.8737191445,4.0588386587
 H,0,9.8138518022,-0.2554931307,4.8444907492
 C,0,8.8431578631,-4.8975448659,1.8180062924
 H,0,8.0181414584,-5.5862549787,1.9176134478
 C,0,12.682302071,-4.6040587496,-1.0577659859
 H,0,13.0688484887,-5.18748224,-1.8798243917
 C,0,11.7064636114,1.639618688,4.972274154
 H,0,12.4252892886,2.4447952994,5.1028730455
 H,0,11.5749277619,1.1394626674,5.9322787852
 H,0,10.7494058996,2.0772223952,4.6866896125
 C,0,14.4279581439,1.6806822795,3.1959507888
 H,0,14.5690735236,2.1059984661,2.2022218294
 H,0,15.3612344908,1.2011549223,3.4927916975
 H,0,14.224541909,2.4923866178,3.8902521558
 C,0,7.5706752202,-1.6522592988,5.3975770547
 H,0,7.6342251208,-0.5807162037,5.2137453279
 H,0,8.0058424471,-1.8524407003,6.3784312705
 H,0,6.5213584755,-1.9391305124,5.4236511199
 C,0,6.7486782754,-4.410908058,3.9796516879
 H,0,6.3307789533,-4.9140528353,3.1154994781
 C,0,6.1854255089,-4.604356612,5.1681878917
 H,0,6.5836555546,-4.1712131779,6.0691061175
 H,0,5.3155468139,-5.2294754079,5.2841948065
 C,0,8.3643733762,-7.0228336588,-0.3447933693
 H,0,7.4542732217,-6.4881028269,-0.077162191
 H,0,8.4569252716,-7.8847457041,0.3182820444
 H,0,8.2678612884,-7.3842613134,-1.3666073533
 C,0,10.9529420209,-6.8113630471,-2.2437956371
 H,0,11.4922888427,-6.2743717135,-3.015804876
 C,0,10.6452210958,-8.0888230957,-2.4450136342
 H,0,10.153525764,-8.6850188017,-1.6963777479
 H,0,10.9002942934,-8.5915983469,-3.363322782
 C,0,15.5493123697,-4.1669980739,-2.0327375901
 H,0,15.0323755691,-4.0910840235,-2.9898825152
 H,0,15.5788998798,-5.2190488085,-1.7483781435
 H,0,16.5705644146,-3.8192489814,-2.1681295087
 C,0,16.6146244406,-1.6052624761,-0.3364306876
 H,0,17.2761714773,-2.0945334447,-1.0471715823
 H,0,17.0916636109,-1.6191094696,0.6437497084
 H,0,16.4963693774,-0.5645851404,-0.6397090981
 O,0,10.43,-1.417,0.156
 H,0,10.592,-0.526,0.467
 H,0,9.927,-1.647,-0.54
 C,0,14.6780736825,-6.702116374,4.023544409
 H,0,14.9491636857,-7.176036887,3.0853844791
 H,0,14.1900837552,-7.4403974587,4.6598299227
 H,0,15.5880971297,-6.369712035,4.523053921
 N,0,13.269780936,-4.7659102963,4.7578204134
 H,0,13.4487205616,-4.8782473263,5.7421715151
 C,0,13.7738023409,-5.5548557493,3.757225181
 C,0,12.4924555647,-3.8209758429,4.182272674
 H,0,11.9666302194,-3.0630623545,4.7253095663
 N,0,12.4743944343,-3.9631611959,2.8790879406
 C,0,13.26598739,-5.0383638381,2.5996651107
 H,0,13.4165120119,-5.3656607478,1.5917563525
 Recover connectivity data from disk.
 Stoichiometry    C34H36FeN6O(1+,2)
 Framework group  C1[X(C34H36FeN6O)]
 Deg. of freedom   228
 Full point group                 C1      NOp   1
 Largest Abelian subgroup         C1      NOp   1
 Largest concise Abelian subgroup C1      NOp   1
                         Standard orientation:                         
 ---------------------------------------------------------------------
 Center     Atomic      Atomic             Coordinates (Angstroms)
 Number     Number       Type             X           Y           Z
 ---------------------------------------------------------------------
      1         26           0        0.075010   -0.163408   -0.442941
      2          7           0        1.467900   -1.605771   -0.457515
      3          7           0        1.518391    1.222066   -0.377218
      4          7           0       -1.311396    1.269624   -0.500504
      5          7           0       -1.357117   -1.556792   -0.567261
      6          6           0        1.255038   -2.948236   -0.473165
      7          6           0        2.507954   -3.663887   -0.560221
      8          6           0        3.488810   -2.720966   -0.549846
      9          6           0        2.819311   -1.441070   -0.486283
     10          6           0        2.862972    1.010849   -0.382476
     11          6           0        3.579461    2.253008   -0.248112
     12          6           0        2.630041    3.236649   -0.159127
     13          6           0        1.348680    2.564786   -0.268340
     14          6           0       -1.098121    2.612427   -0.446226
     15          6           0       -2.329792    3.335781   -0.636267
     16          6           0       -3.314598    2.391677   -0.762009
     17          6           0       -2.649699    1.106920   -0.655630
     18          6           0       -2.697819   -1.340450   -0.537628
     19          6           0       -3.417410   -2.584853   -0.376962
     20          6           0       -2.474851   -3.562651   -0.315012
     21          6           0       -1.194056   -2.899007   -0.427170
     22          6           0        0.017311   -3.562884   -0.429355
     23          1           0       -0.002580   -4.641153   -0.384423
     24          6           0        3.478789   -0.228042   -0.450979
     25          1           0        4.558067   -0.249931   -0.455673
     26          6           0        0.133407    3.219912   -0.273822
     27          1           0        0.144970    4.294987   -0.179087
     28          6           0       -3.309933   -0.108125   -0.677316
     29          1           0       -4.388284   -0.091213   -0.726858
     30          6           0        4.968077   -2.895143   -0.612211
     31          1           0        5.231497   -3.948657   -0.665056
     32          1           0        5.442557   -2.467844    0.271729
     33          1           0        5.378361   -2.394572   -1.489771
     34          6           0        2.625762   -5.148360   -0.623085
     35          1           0        2.081086   -5.539599   -1.482483
     36          1           0        2.209624   -5.604586    0.275666
     37          1           0        3.666369   -5.451444   -0.710115
     38          6           0        5.061556    2.396674   -0.280505
     39          1           0        5.500365    1.702757   -0.996021
     40          1           0        5.496758    2.190833    0.699161
     41          1           0        5.331511    3.410611   -0.568769
     42          6           0        2.806518    4.664922   -0.023234
     43          1           0        2.057297    5.278780   -0.509444
     44          6           0        3.788464    5.261741    0.645260
     45          1           0        4.533204    4.706285    1.188109
     46          1           0        3.865093    6.335354    0.694281
     47          6           0       -2.447321    4.816893   -0.735650
     48          1           0       -1.596585    5.235587   -1.271179
     49          1           0       -2.479733    5.272460    0.255579
     50          1           0       -3.358635    5.084416   -1.266673
     51          6           0       -4.732171    2.565838   -0.988290
     52          1           0       -5.208329    1.793853   -1.582063
     53          6           0       -5.471913    3.568925   -0.526030
     54          1           0       -5.064565    4.337347    0.107424
     55          1           0       -6.524144    3.640959   -0.746841
     56          6           0       -4.902078   -2.694252   -0.305345
     57          1           0       -5.357278   -2.348150   -1.233849
     58          1           0       -5.292962   -2.084232    0.509291
     59          1           0       -5.207012   -3.724629   -0.139353
     60          6           0       -2.648658   -5.033642   -0.149810
     61          1           0       -3.700752   -5.290837   -0.054241
     62          1           0       -2.126335   -5.384119    0.740614
     63          1           0       -2.243229   -5.566172   -1.010630
     64          8           0        0.239144   -0.168585   -2.703108
     65          1           0        0.900530   -0.821745   -2.932883
     66          1           0       -0.201280    0.355029   -3.270717
     67          6           0       -1.546356   -0.334785    4.894316
     68          1           0       -2.603272   -0.293290    4.650514
     69          1           0       -1.301948    0.512529    5.534923
     70          1           0       -1.351915   -1.251024    5.451850
     71          7           0        0.623165   -0.339504    3.643515
     72          1           0        1.210326   -0.391889    4.459654
     73          6           0       -0.746512   -0.298880    3.643796
     74          6           0        1.034168   -0.292627    2.356165
     75          1           0        2.060401   -0.308576    2.052180
     76          7           0        0.008713   -0.225654    1.542046
     77          6           0       -1.105930   -0.227524    2.328383
     78          1           0       -2.084788   -0.178312    1.898176
 ---------------------------------------------------------------------
 Rotational constants (GHZ):           0.0939675           0.0919206           0.0593727
 General basis read from cards:  (5D, 7F)
 There are   723 symmetry adapted cartesian basis functions of A   symmetry.
 There are   679 symmetry adapted basis functions of A   symmetry.
   679 basis functions,  1378 primitive gaussians,   723 cartesian basis functions
   158 alpha electrons      157 beta electrons
       nuclear repulsion energy      5976.0727797239 Hartrees.
 NAtoms=   78 NActive=   78 NUniq=   78 SFac= 1.00D+00 NAtFMM=   60 NAOKFM=T Big=T
 Integral buffers will be    131072 words long.
 Raffenetti 2 integral format.
 Two-electron integral symmetry is turned on.
 R6APFD:  NTU= -4 IXU= 1 FactS= 1.050
 Nuclear repulsion after empirical dispersion term =     5975.9193834685 Hartrees.
 One-electron integrals computed using PRISM.
 NBasis=   679 RedAO= T EigKep=  2.56D-04  NBF=   679
 NBsUse=   679 1.00D-06 EigRej= -1.00D+00 NBFU=   679
 ExpMin= 4.20D-02 ExpMax= 3.01D+05 ExpMxC= 2.91D+03 IAcc=3 IRadAn=         5 AccDes= 0.00D+00
 Harris functional with IExCor= 3731 and IRadAn=       5 diagonalized for initial guess.
 HarFok:  IExCor= 3731 AccDes= 0.00D+00 IRadAn=         5 IDoV= 1 UseB2=F ITyADJ=14
 ICtDFT=  3500011 ScaDFX=  1.000000  1.000000  1.000000  1.000000
 FoFCou: FMM=F IPFlag=           0 FMFlag=      100000 FMFlg1=        2001
         NFxFlg=           0 DoJE=T BraDBF=F KetDBF=T FulRan=T
         wScrn=  0.000000 ICntrl=       500 IOpCl=  0 I1Cent=   200000004 NGrid=           0
         NMat0=    1 NMatS0=      1 NMatT0=    0 NMatD0=    1 NMtDS0=    0 NMtDT0=    0
 Petite list used in FoFCou.
 Initial guess <Sx>= 0.0000 <Sy>= 0.0000 <Sz>= 0.5000 <S**2>= 0.7500 S= 0.5000
 Requested convergence on RMS density matrix=1.00D-08 within 999 cycles.
 Requested convergence on MAX density matrix=1.00D-06.
 Requested convergence on             energy=1.00D-06.
 No special actions if energy rises.
 EnCoef did   100 forward-backward iterations
 EnCoef did   100 forward-backward iterations
 EnCoef did   100 forward-backward iterations
 EnCoef did   100 forward-backward iterations
 EnCoef did     3 forward-backward iterations
 EnCoef did     4 forward-backward iterations
 EnCoef did     2 forward-backward iterations
 EnCoef did     3 forward-backward iterations
 Restarting incremental Fock formation.
 Rare condition: small coef for last iteration:  0.000D+00
 Rare condition: small coef for last iteration:  0.000D+00
 Rare condition: small coef for last iteration:  0.000D+00
 Rare condition: small coef for last iteration:  0.000D+00
 Rare condition: small coef for last iteration:  0.000D+00
 Restarting incremental Fock formation.
 Restarting incremental Fock formation.
 SCF Done:  E(UAPFD) =  -2983.21063412     A.U. after   69 cycles
            NFock= 69  Conv=0.39D-08     -V/T= 2.0038
 <Sx>= 0.0000 <Sy>= 0.0000 <Sz>= 0.5000 <S**2>= 0.7958 S= 0.5226
 <L.S>=  0.00000000000    
 Annihilation of the first spin contaminant:
 S**2 before annihilation     0.7958,   after     0.7507

 **********************************************************************

            Population analysis using the SCF Density.

 **********************************************************************

 Orbital symmetries:
 Alpha Orbitals:
       Occupied  (A) (A) (A) (A) (A) (A) (A) (A) (A) (A) (A) (A)
                 (A) (A) (A) (A) (A) (A) (A) (A) (A) (A) (A) (A)
                 (A) (A) (A) (A) (A) (A) (A) (A) (A) (A) (A) (A)
                 (A) (A) (A) (A) (A) (A) (A) (A) (A) (A) (A) (A)
                 (A) (A) (A) (A) (A) (A) (A) (A) (A) (A) (A) (A)
                 (A) (A) (A) (A) (A) (A) (A) (A) (A) (A) (A) (A)
                 (A) (A) (A) (A) (A) (A) (A) (A) (A) (A) (A) (A)
                 (A) (A) (A) (A) (A) (A) (A) (A) (A) (A) (A) (A)
                 (A) (A) (A) (A) (A) (A) (A) (A) (A) (A) (A) (A)
                 (A) (A) (A) (A) (A) (A) (A) (A) (A) (A) (A) (A)
                 (A) (A) (A) (A) (A) (A) (A) (A) (A) (A) (A) (A)
                 (A) (A) (A) (A) (A) (A) (A) (A) (A) (A) (A) (A)
                 (A) (A) (A) (A) (A) (A) (A) (A) (A) (A) (A) (A)
                 (A) (A)
       Virtual   (A) (A) (A) (A) (A) (A) (A) (A) (A) (A) (A) (A)
                 (A) (A) (A) (A) (A) (A) (A) (A) (A) (A) (A) (A)
                 (A) (A) (A) (A) (A) (A) (A) (A) (A) (A) (A) (A)
                 (A) (A) (A) (A) (A) (A) (A) (A) (A) (A) (A) (A)
                 (A) (A) (A) (A) (A) (A) (A) (A) (A) (A) (A) (A)
                 (A) (A) (A) (A) (A) (A) (A) (A) (A) (A) (A) (A)
                 (A) (A) (A) (A) (A) (A) (A) (A) (A) (A) (A) (A)
                 (A) (A) (A) (A) (A) (A) (A) (A) (A) (A) (A) (A)
                 (A) (A) (A) (A) (A) (A) (A) (A) (A) (A) (A) (A)
                 (A) (A) (A) (A) (A) (A) (A) (A) (A) (A) (A) (A)
                 (A) (A) (A) (A) (A) (A) (A) (A) (A) (A) (A) (A)
                 (A) (A) (A) (A) (A) (A) (A) (A) (A) (A) (A) (A)
                 (A) (A) (A) (A) (A) (A) (A) (A) (A) (A) (A) (A)
                 (A) (A) (A) (A) (A) (A) (A) (A) (A) (A) (A) (A)
                 (A) (A) (A) (A) (A) (A) (A) (A) (A) (A) (A) (A)
                 (A) (A) (A) (A) (A) (A) (A) (A) (A) (A) (A) (A)
                 (A) (A) (A) (A) (A) (A) (A) (A) (A) (A) (A) (A)
                 (A) (A) (A) (A) (A) (A) (A) (A) (A) (A) (A) (A)
                 (A) (A) (A) (A) (A) (A) (A) (A) (A) (A) (A) (A)
                 (A) (A) (A) (A) (A) (A) (A) (A) (A) (A) (A) (A)
                 (A) (A) (A) (A) (A) (A) (A) (A) (A) (A) (A) (A)
                 (A) (A) (A) (A) (A) (A) (A) (A) (A) (A) (A) (A)
                 (A) (A) (A) (A) (A) (A) (A) (A) (A) (A) (A) (A)
                 (A) (A) (A) (A) (A) (A) (A) (A) (A) (A) (A) (A)
                 (A) (A) (A) (A) (A) (A) (A) (A) (A) (A) (A) (A)
                 (A) (A) (A) (A) (A) (A) (A) (A) (A) (A) (A) (A)
                 (A) (A) (A) (A) (A) (A) (A) (A) (A) (A) (A) (A)
                 (A) (A) (A) (A) (A) (A) (A) (A) (A) (A) (A) (A)
                 (A) (A) (A) (A) (A) (A) (A) (A) (A) (A) (A) (A)
                 (A) (A) (A) (A) (A) (A) (A) (A) (A) (A) (A) (A)
                 (A) (A) (A) (A) (A) (A) (A) (A) (A) (A) (A) (A)
                 (A) (A) (A) (A) (A) (A) (A) (A) (A) (A) (A) (A)
                 (A) (A) (A) (A) (A) (A) (A) (A) (A) (A) (A) (A)
                 (A) (A) (A) (A) (A) (A) (A) (A) (A) (A) (A) (A)
                 (A) (A) (A) (A) (A) (A) (A) (A) (A) (A) (A) (A)
                 (A) (A) (A) (A) (A) (A) (A) (A) (A) (A) (A) (A)
                 (A) (A) (A) (A) (A) (A) (A) (A) (A) (A) (A) (A)
                 (A) (A) (A) (A) (A) (A) (A) (A) (A) (A) (A) (A)
                 (A) (A) (A) (A) (A) (A) (A) (A) (A) (A) (A) (A)
                 (A) (A) (A) (A) (A) (A) (A) (A) (A) (A) (A) (A)
                 (A) (A) (A) (A) (A) (A) (A) (A) (A) (A) (A) (A)
                 (A) (A) (A) (A) (A) (A) (A) (A) (A) (A) (A) (A)
                 (A) (A) (A) (A) (A) (A) (A) (A) (A) (A) (A) (A)
                 (A) (A) (A) (A) (A)
 Beta  Orbitals:
       Occupied  (A) (A) (A) (A) (A) (A) (A) (A) (A) (A) (A) (A)
                 (A) (A) (A) (A) (A) (A) (A) (A) (A) (A) (A) (A)
                 (A) (A) (A) (A) (A) (A) (A) (A) (A) (A) (A) (A)
                 (A) (A) (A) (A) (A) (A) (A) (A) (A) (A) (A) (A)
                 (A) (A) (A) (A) (A) (A) (A) (A) (A) (A) (A) (A)
                 (A) (A) (A) (A) (A) (A) (A) (A) (A) (A) (A) (A)
                 (A) (A) (A) (A) (A) (A) (A) (A) (A) (A) (A) (A)
                 (A) (A) (A) (A) (A) (A) (A) (A) (A) (A) (A) (A)
                 (A) (A) (A) (A) (A) (A) (A) (A) (A) (A) (A) (A)
                 (A) (A) (A) (A) (A) (A) (A) (A) (A) (A) (A) (A)
                 (A) (A) (A) (A) (A) (A) (A) (A) (A) (A) (A) (A)
                 (A) (A) (A) (A) (A) (A) (A) (A) (A) (A) (A) (A)
                 (A) (A) (A) (A) (A) (A) (A) (A) (A) (A) (A) (A)
                 (A)
       Virtual   (A) (A) (A) (A) (A) (A) (A) (A) (A) (A) (A) (A)
                 (A) (A) (A) (A) (A) (A) (A) (A) (A) (A) (A) (A)
                 (A) (A) (A) (A) (A) (A) (A) (A) (A) (A) (A) (A)
                 (A) (A) (A) (A) (A) (A) (A) (A) (A) (A) (A) (A)
                 (A) (A) (A) (A) (A) (A) (A) (A) (A) (A) (A) (A)
                 (A) (A) (A) (A) (A) (A) (A) (A) (A) (A) (A) (A)
                 (A) (A) (A) (A) (A) (A) (A) (A) (A) (A) (A) (A)
                 (A) (A) (A) (A) (A) (A) (A) (A) (A) (A) (A) (A)
                 (A) (A) (A) (A) (A) (A) (A) (A) (A) (A) (A) (A)
                 (A) (A) (A) (A) (A) (A) (A) (A) (A) (A) (A) (A)
                 (A) (A) (A) (A) (A) (A) (A) (A) (A) (A) (A) (A)
                 (A) (A) (A) (A) (A) (A) (A) (A) (A) (A) (A) (A)
                 (A) (A) (A) (A) (A) (A) (A) (A) (A) (A) (A) (A)
                 (A) (A) (A) (A) (A) (A) (A) (A) (A) (A) (A) (A)
                 (A) (A) (A) (A) (A) (A) (A) (A) (A) (A) (A) (A)
                 (A) (A) (A) (A) (A) (A) (A) (A) (A) (A) (A) (A)
                 (A) (A) (A) (A) (A) (A) (A) (A) (A) (A) (A) (A)
                 (A) (A) (A) (A) (A) (A) (A) (A) (A) (A) (A) (A)
                 (A) (A) (A) (A) (A) (A) (A) (A) (A) (A) (A) (A)
                 (A) (A) (A) (A) (A) (A) (A) (A) (A) (A) (A) (A)
                 (A) (A) (A) (A) (A) (A) (A) (A) (A) (A) (A) (A)
                 (A) (A) (A) (A) (A) (A) (A) (A) (A) (A) (A) (A)
                 (A) (A) (A) (A) (A) (A) (A) (A) (A) (A) (A) (A)
                 (A) (A) (A) (A) (A) (A) (A) (A) (A) (A) (A) (A)
                 (A) (A) (A) (A) (A) (A) (A) (A) (A) (A) (A) (A)
                 (A) (A) (A) (A) (A) (A) (A) (A) (A) (A) (A) (A)
                 (A) (A) (A) (A) (A) (A) (A) (A) (A) (A) (A) (A)
                 (A) (A) (A) (A) (A) (A) (A) (A) (A) (A) (A) (A)
                 (A) (A) (A) (A) (A) (A) (A) (A) (A) (A) (A) (A)
                 (A) (A) (A) (A) (A) (A) (A) (A) (A) (A) (A) (A)
                 (A) (A) (A) (A) (A) (A) (A) (A) (A) (A) (A) (A)
                 (A) (A) (A) (A) (A) (A) (A) (A) (A) (A) (A) (A)
                 (A) (A) (A) (A) (A) (A) (A) (A) (A) (A) (A) (A)
                 (A) (A) (A) (A) (A) (A) (A) (A) (A) (A) (A) (A)
                 (A) (A) (A) (A) (A) (A) (A) (A) (A) (A) (A) (A)
                 (A) (A) (A) (A) (A) (A) (A) (A) (A) (A) (A) (A)
                 (A) (A) (A) (A) (A) (A) (A) (A) (A) (A) (A) (A)
                 (A) (A) (A) (A) (A) (A) (A) (A) (A) (A) (A) (A)
                 (A) (A) (A) (A) (A) (A) (A) (A) (A) (A) (A) (A)
                 (A) (A) (A) (A) (A) (A) (A) (A) (A) (A) (A) (A)
                 (A) (A) (A) (A) (A) (A) (A) (A) (A) (A) (A) (A)
                 (A) (A) (A) (A) (A) (A) (A) (A) (A) (A) (A) (A)
                 (A) (A) (A) (A) (A) (A) (A) (A) (A) (A) (A) (A)
                 (A) (A) (A) (A) (A) (A)
 The electronic state is 2-A.
 Alpha  occ. eigenvalues -- -256.37967 -30.24897 -26.09614 -26.09373 -26.06553
 Alpha  occ. eigenvalues --  -19.30543 -14.54298 -14.51235 -14.47248 -14.47057
 Alpha  occ. eigenvalues --  -14.46847 -14.46726 -10.38430 -10.35534 -10.33210
 Alpha  occ. eigenvalues --  -10.33207 -10.33031 -10.33022 -10.33004 -10.32991
 Alpha  occ. eigenvalues --  -10.32964 -10.32896 -10.32779 -10.30631 -10.30356
 Alpha  occ. eigenvalues --  -10.30184 -10.30079 -10.30013 -10.30011 -10.29976
 Alpha  occ. eigenvalues --  -10.29928 -10.29877 -10.29845 -10.29818 -10.29763
 Alpha  occ. eigenvalues --  -10.29483 -10.29252 -10.28959 -10.28169 -10.28143
 Alpha  occ. eigenvalues --  -10.28118 -10.28050 -10.28040 -10.27934 -10.27646
 Alpha  occ. eigenvalues --  -10.27588  -3.63588  -2.41964  -2.41404  -2.35464
 Alpha  occ. eigenvalues --   -1.17161  -1.16690  -1.08639  -1.07773  -1.07467
 Alpha  occ. eigenvalues --   -1.06638  -1.02963  -0.93154  -0.91931  -0.91424
 Alpha  occ. eigenvalues --   -0.91080  -0.90876  -0.90691  -0.90405  -0.90281
 Alpha  occ. eigenvalues --   -0.86415  -0.85140  -0.84880  -0.84009  -0.82707
 Alpha  occ. eigenvalues --   -0.82368  -0.80892  -0.79869  -0.78273  -0.78073
 Alpha  occ. eigenvalues --   -0.77867  -0.76139  -0.74784  -0.74738  -0.72534
 Alpha  occ. eigenvalues --   -0.72327  -0.70376  -0.69672  -0.68352  -0.67867
 Alpha  occ. eigenvalues --   -0.67087  -0.64812  -0.64064  -0.63240  -0.62938
 Alpha  occ. eigenvalues --   -0.61515  -0.61394  -0.61034  -0.59151  -0.58857
 Alpha  occ. eigenvalues --   -0.58308  -0.57878  -0.57672  -0.55723  -0.55077
 Alpha  occ. eigenvalues --   -0.54775  -0.54366  -0.53984  -0.53847  -0.53682
 Alpha  occ. eigenvalues --   -0.53509  -0.53151  -0.52959  -0.52894  -0.52470
 Alpha  occ. eigenvalues --   -0.52230  -0.52038  -0.51905  -0.51638  -0.51355
 Alpha  occ. eigenvalues --   -0.50455  -0.50351  -0.50205  -0.50086  -0.49873
 Alpha  occ. eigenvalues --   -0.49842  -0.49490  -0.49290  -0.49090  -0.48805
 Alpha  occ. eigenvalues --   -0.48328  -0.48042  -0.47805  -0.47629  -0.47534
 Alpha  occ. eigenvalues --   -0.47170  -0.46835  -0.46358  -0.46228  -0.45860
 Alpha  occ. eigenvalues --   -0.45412  -0.44599  -0.44366  -0.43879  -0.43320
 Alpha  occ. eigenvalues --   -0.42848  -0.42604  -0.42026  -0.41317  -0.40990
 Alpha  occ. eigenvalues --   -0.39616  -0.39181  -0.39099  -0.38591  -0.36934
 Alpha  occ. eigenvalues --   -0.36625  -0.34684  -0.33399  -0.32896  -0.31857
 Alpha  occ. eigenvalues --   -0.31287  -0.29186  -0.28276
 Alpha virt. eigenvalues --   -0.19027  -0.16959  -0.16903  -0.13959  -0.11314
 Alpha virt. eigenvalues --   -0.09025  -0.07641  -0.06377  -0.04901  -0.04275
 Alpha virt. eigenvalues --   -0.03515  -0.01709  -0.01445  -0.00495   0.01120
 Alpha virt. eigenvalues --    0.01404   0.02093   0.02621   0.03253   0.03538
 Alpha virt. eigenvalues --    0.04221   0.04464   0.04859   0.04999   0.05108
 Alpha virt. eigenvalues --    0.05337   0.05702   0.05929   0.06431   0.06640
 Alpha virt. eigenvalues --    0.06889   0.07113   0.07631   0.07801   0.08135
 Alpha virt. eigenvalues --    0.08257   0.08627   0.08808   0.09320   0.09381
 Alpha virt. eigenvalues --    0.09506   0.09738   0.10035   0.10499   0.10569
 Alpha virt. eigenvalues --    0.10816   0.11534   0.11845   0.12084   0.12360
 Alpha virt. eigenvalues --    0.12520   0.12954   0.13048   0.13542   0.13895
 Alpha virt. eigenvalues --    0.14338   0.15254   0.15347   0.15813   0.16344
 Alpha virt. eigenvalues --    0.16660   0.16925   0.17189   0.17504   0.18172
 Alpha virt. eigenvalues --    0.18212   0.19705   0.20096   0.20610   0.21001
 Alpha virt. eigenvalues --    0.21812   0.22052   0.23248   0.23709   0.23875
 Alpha virt. eigenvalues --    0.25313   0.25786   0.26041   0.26504   0.27238
 Alpha virt. eigenvalues --    0.27492   0.28999   0.29700   0.30467   0.31082
 Alpha virt. eigenvalues --    0.31787   0.33138   0.33637   0.33954   0.34393
 Alpha virt. eigenvalues --    0.34706   0.36356   0.38070   0.38187   0.38539
 Alpha virt. eigenvalues --    0.39139   0.39430   0.39917   0.40276   0.40806
 Alpha virt. eigenvalues --    0.41312   0.41835   0.41894   0.42278   0.42908
 Alpha virt. eigenvalues --    0.43010   0.43536   0.43840   0.44250   0.44711
 Alpha virt. eigenvalues --    0.45234   0.45535   0.45679   0.45891   0.46504
 Alpha virt. eigenvalues --    0.46617   0.47104   0.47781   0.48314   0.48772
 Alpha virt. eigenvalues --    0.49136   0.49475   0.49861   0.50610   0.50793
 Alpha virt. eigenvalues --    0.51116   0.51582   0.52249   0.52616   0.52952
 Alpha virt. eigenvalues --    0.53109   0.53648   0.54313   0.54637   0.55003
 Alpha virt. eigenvalues --    0.55468   0.55792   0.56123   0.56475   0.56498
 Alpha virt. eigenvalues --    0.57029   0.57227   0.57517   0.57817   0.58101
 Alpha virt. eigenvalues --    0.58257   0.58514   0.59989   0.60298   0.60571
 Alpha virt. eigenvalues --    0.61685   0.61785   0.62088   0.62913   0.63070
 Alpha virt. eigenvalues --    0.63462   0.63723   0.64418   0.64947   0.65392
 Alpha virt. eigenvalues --    0.66249   0.66493   0.66841   0.67064   0.67870
 Alpha virt. eigenvalues --    0.68084   0.68598   0.68746   0.69123   0.69439
 Alpha virt. eigenvalues --    0.69644   0.69758   0.70359   0.70535   0.71221
 Alpha virt. eigenvalues --    0.71674   0.72187   0.72984   0.73800   0.73990
 Alpha virt. eigenvalues --    0.74677   0.75140   0.76291   0.76486   0.76835
 Alpha virt. eigenvalues --    0.77451   0.77899   0.78468   0.78545   0.78784
 Alpha virt. eigenvalues --    0.79251   0.79426   0.79836   0.80188   0.80637
 Alpha virt. eigenvalues --    0.81121   0.81343   0.81612   0.82108   0.82451
 Alpha virt. eigenvalues --    0.83117   0.83323   0.83699   0.84160   0.84353
 Alpha virt. eigenvalues --    0.84711   0.84921   0.85622   0.86008   0.86234
 Alpha virt. eigenvalues --    0.86701   0.87049   0.87304   0.87562   0.87986
 Alpha virt. eigenvalues --    0.88440   0.88689   0.89261   0.89979   0.90172
 Alpha virt. eigenvalues --    0.90567   0.90889   0.91338   0.91564   0.92085
 Alpha virt. eigenvalues --    0.92398   0.92665   0.93148   0.93617   0.93971
 Alpha virt. eigenvalues --    0.94337   0.95087   0.95558   0.96697   0.96950
 Alpha virt. eigenvalues --    0.97156   0.97784   0.98039   0.98829   0.99631
 Alpha virt. eigenvalues --    1.00331   1.01481   1.01972   1.03377   1.04400
 Alpha virt. eigenvalues --    1.05281   1.05472   1.06228   1.07307   1.07791
 Alpha virt. eigenvalues --    1.08253   1.08567   1.09065   1.09487   1.10234
 Alpha virt. eigenvalues --    1.10314   1.10823   1.10957   1.11247   1.11757
 Alpha virt. eigenvalues --    1.12643   1.13192   1.14290   1.14754   1.15378
 Alpha virt. eigenvalues --    1.16116   1.17437   1.17926   1.18444   1.19439
 Alpha virt. eigenvalues --    1.19995   1.20582   1.20762   1.22039   1.22427
 Alpha virt. eigenvalues --    1.23121   1.23642   1.23884   1.24927   1.26058
 Alpha virt. eigenvalues --    1.26863   1.27400   1.27484   1.28000   1.28056
 Alpha virt. eigenvalues --    1.28288   1.28895   1.29161   1.29680   1.30655
 Alpha virt. eigenvalues --    1.31577   1.32622   1.33483   1.33708   1.34313
 Alpha virt. eigenvalues --    1.35359   1.35666   1.37138   1.37631   1.38184
 Alpha virt. eigenvalues --    1.39304   1.39874   1.40389   1.40782   1.41792
 Alpha virt. eigenvalues --    1.42221   1.43361   1.43636   1.44546   1.45257
 Alpha virt. eigenvalues --    1.45807   1.46339   1.47636   1.48958   1.49954
 Alpha virt. eigenvalues --    1.51486   1.51794   1.52741   1.53503   1.54426
 Alpha virt. eigenvalues --    1.54660   1.55704   1.56313   1.57353   1.57959
 Alpha virt. eigenvalues --    1.59468   1.60575   1.60834   1.61987   1.62616
 Alpha virt. eigenvalues --    1.64104   1.64977   1.65678   1.69178   1.69691
 Alpha virt. eigenvalues --    1.70453   1.70794   1.71388   1.71576   1.71846
 Alpha virt. eigenvalues --    1.72519   1.72892   1.72928   1.73115   1.74159
 Alpha virt. eigenvalues --    1.74429   1.75338   1.75937   1.76556   1.77129
 Alpha virt. eigenvalues --    1.77557   1.78051   1.78610   1.79425   1.80024
 Alpha virt. eigenvalues --    1.80412   1.81429   1.81825   1.82928   1.83656
 Alpha virt. eigenvalues --    1.83967   1.85122   1.85349   1.85944   1.86049
 Alpha virt. eigenvalues --    1.86338   1.87306   1.88734   1.89026   1.89332
 Alpha virt. eigenvalues --    1.90792   1.90852   1.91406   1.91867   1.92399
 Alpha virt. eigenvalues --    1.94035   1.94968   1.95445   1.95870   1.96304
 Alpha virt. eigenvalues --    1.96794   1.97051   1.97638   1.98274   1.99083
 Alpha virt. eigenvalues --    1.99402   2.00949   2.01490   2.02084   2.03139
 Alpha virt. eigenvalues --    2.03936   2.04725   2.04856   2.06269   2.06935
 Alpha virt. eigenvalues --    2.07182   2.07419   2.08957   2.09468   2.09871
 Alpha virt. eigenvalues --    2.11627   2.11747   2.12593   2.13375   2.13594
 Alpha virt. eigenvalues --    2.14080   2.14638   2.15736   2.16425   2.16531
 Alpha virt. eigenvalues --    2.17027   2.17236   2.17616   2.19039   2.19173
 Alpha virt. eigenvalues --    2.19942   2.19999   2.20491   2.20652   2.20878
 Alpha virt. eigenvalues --    2.21739   2.22590   2.22715   2.23650   2.24740
 Alpha virt. eigenvalues --    2.25323   2.25567   2.26151   2.26413   2.27222
 Alpha virt. eigenvalues --    2.27544   2.28043   2.28789   2.28997   2.29575
 Alpha virt. eigenvalues --    2.29956   2.31394   2.31508   2.32651   2.32917
 Alpha virt. eigenvalues --    2.33311   2.33797   2.34398   2.34605   2.35422
 Alpha virt. eigenvalues --    2.35685   2.36730   2.38026   2.38655   2.40866
 Alpha virt. eigenvalues --    2.41051   2.42803   2.43361   2.43702   2.43875
 Alpha virt. eigenvalues --    2.44247   2.45518   2.45706   2.46255   2.47416
 Alpha virt. eigenvalues --    2.47520   2.47819   2.48831   2.50254   2.50664
 Alpha virt. eigenvalues --    2.51155   2.53223   2.54605   2.55459   2.57060
 Alpha virt. eigenvalues --    2.58282   2.59191   2.59802   2.60563   2.61413
 Alpha virt. eigenvalues --    2.62104   2.64732   2.65445   2.66424   2.68652
 Alpha virt. eigenvalues --    2.69709   2.70487   2.71346   2.71627   2.77167
 Alpha virt. eigenvalues --    2.78045   2.78674   2.79761   2.81585   2.83003
 Alpha virt. eigenvalues --    2.83432   2.86110   2.87007   2.87508   2.89336
 Alpha virt. eigenvalues --    2.89800   2.90673   2.90948   2.93717   2.95368
 Alpha virt. eigenvalues --    2.96130   2.97263   3.03031   3.04442   3.04883
 Alpha virt. eigenvalues --    3.11086   3.13641   3.15581   3.20700   3.20746
 Alpha virt. eigenvalues --    3.28914   3.29579   3.30861   3.36841   3.36971
 Alpha virt. eigenvalues --    3.48222   3.54943   3.74346   3.78590   4.05343
 Alpha virt. eigenvalues --    4.15760
  Beta  occ. eigenvalues -- -256.37932 -30.22694 -26.07196 -26.06980 -26.05849
  Beta  occ. eigenvalues --  -19.30536 -14.54297 -14.51321 -14.47289 -14.47092
  Beta  occ. eigenvalues --  -14.46907 -14.46790 -10.38416 -10.35536 -10.33204
  Beta  occ. eigenvalues --  -10.33199 -10.33026 -10.33021 -10.32993 -10.32988
  Beta  occ. eigenvalues --  -10.32959 -10.32893 -10.32774 -10.30631 -10.30333
  Beta  occ. eigenvalues --  -10.30194 -10.30059 -10.29995 -10.29991 -10.29987
  Beta  occ. eigenvalues --  -10.29938 -10.29888 -10.29847 -10.29823 -10.29767
  Beta  occ. eigenvalues --  -10.29484 -10.29260 -10.28960 -10.28169 -10.28144
  Beta  occ. eigenvalues --  -10.28120 -10.28050 -10.28042 -10.27921 -10.27645
  Beta  occ. eigenvalues --  -10.27588  -3.58240  -2.34411  -2.34236  -2.33155
  Beta  occ. eigenvalues --   -1.17180  -1.16675  -1.08658  -1.07761  -1.07525
  Beta  occ. eigenvalues --   -1.06664  -1.03016  -0.93159  -0.91906  -0.91436
  Beta  occ. eigenvalues --   -0.91061  -0.90878  -0.90695  -0.90417  -0.90292
  Beta  occ. eigenvalues --   -0.86408  -0.85137  -0.84902  -0.84006  -0.82706
  Beta  occ. eigenvalues --   -0.82371  -0.80892  -0.79873  -0.78279  -0.78080
  Beta  occ. eigenvalues --   -0.77881  -0.76173  -0.74785  -0.74737  -0.72538
  Beta  occ. eigenvalues --   -0.72322  -0.70372  -0.69678  -0.68345  -0.67871
  Beta  occ. eigenvalues --   -0.67089  -0.64815  -0.64075  -0.63241  -0.62938
  Beta  occ. eigenvalues --   -0.61528  -0.61417  -0.61049  -0.59141  -0.58829
  Beta  occ. eigenvalues --   -0.58254  -0.57885  -0.57661  -0.55718  -0.55057
  Beta  occ. eigenvalues --   -0.54711  -0.54328  -0.53905  -0.53727  -0.53627
  Beta  occ. eigenvalues --   -0.53460  -0.53134  -0.52974  -0.52873  -0.52412
  Beta  occ. eigenvalues --   -0.52204  -0.52017  -0.51906  -0.51628  -0.51370
  Beta  occ. eigenvalues --   -0.50441  -0.50322  -0.50143  -0.49876  -0.49824
  Beta  occ. eigenvalues --   -0.49551  -0.49410  -0.49260  -0.49012  -0.48731
  Beta  occ. eigenvalues --   -0.48305  -0.48047  -0.47731  -0.47529  -0.47422
  Beta  occ. eigenvalues --   -0.47044  -0.46710  -0.46231  -0.45849  -0.45391
  Beta  occ. eigenvalues --   -0.44806  -0.44523  -0.43915  -0.43526  -0.43031
  Beta  occ. eigenvalues --   -0.42501  -0.41925  -0.41173  -0.41104  -0.39194
  Beta  occ. eigenvalues --   -0.38800  -0.38252  -0.37169  -0.36767  -0.36341
  Beta  occ. eigenvalues --   -0.34633  -0.33605  -0.32933  -0.31946  -0.31130
  Beta  occ. eigenvalues --   -0.29193  -0.28192
  Beta virt. eigenvalues --   -0.20240  -0.16897  -0.16745  -0.15936  -0.11294
  Beta virt. eigenvalues --   -0.10911  -0.08844  -0.07543  -0.06346  -0.04801
  Beta virt. eigenvalues --   -0.04259  -0.03462  -0.01679  -0.01284  -0.00393
  Beta virt. eigenvalues --    0.01158   0.01450   0.02093   0.02621   0.03259
  Beta virt. eigenvalues --    0.03545   0.04223   0.04499   0.04886   0.05025
  Beta virt. eigenvalues --    0.05127   0.05368   0.05711   0.05943   0.06435
  Beta virt. eigenvalues --    0.06657   0.06932   0.07120   0.07636   0.07808
  Beta virt. eigenvalues --    0.08139   0.08266   0.08641   0.08812   0.09337
  Beta virt. eigenvalues --    0.09383   0.09520   0.09748   0.10051   0.10521
  Beta virt. eigenvalues --    0.10580   0.10827   0.11550   0.11875   0.12094
  Beta virt. eigenvalues --    0.12368   0.12526   0.12965   0.13069   0.13562
  Beta virt. eigenvalues --    0.13926   0.14370   0.15280   0.15364   0.15829
  Beta virt. eigenvalues --    0.16383   0.16674   0.16919   0.17198   0.17548
  Beta virt. eigenvalues --    0.18176   0.18236   0.19861   0.20358   0.20847
  Beta virt. eigenvalues --    0.21014   0.21887   0.22135   0.23330   0.23756
  Beta virt. eigenvalues --    0.23953   0.25345   0.25822   0.26063   0.26527
  Beta virt. eigenvalues --    0.27259   0.27497   0.29036   0.29838   0.30525
  Beta virt. eigenvalues --    0.31217   0.31843   0.33294   0.33641   0.33965
  Beta virt. eigenvalues --    0.34398   0.34747   0.36552   0.38177   0.38240
  Beta virt. eigenvalues --    0.38559   0.39189   0.39524   0.39949   0.40343
  Beta virt. eigenvalues --    0.40821   0.41362   0.41891   0.42027   0.42309
  Beta virt. eigenvalues --    0.42921   0.43018   0.43545   0.43865   0.44262
  Beta virt. eigenvalues --    0.44733   0.45290   0.45590   0.45737   0.45925
  Beta virt. eigenvalues --    0.46544   0.46711   0.47194   0.47784   0.48330
  Beta virt. eigenvalues --    0.48785   0.49193   0.49513   0.49899   0.50628
  Beta virt. eigenvalues --    0.50796   0.51132   0.51662   0.52261   0.52637
  Beta virt. eigenvalues --    0.52960   0.53174   0.53652   0.54370   0.54669
  Beta virt. eigenvalues --    0.55091   0.55624   0.55821   0.56122   0.56491
  Beta virt. eigenvalues --    0.56539   0.57141   0.57393   0.57534   0.57836
  Beta virt. eigenvalues --    0.58153   0.58321   0.58536   0.60012   0.60348
  Beta virt. eigenvalues --    0.60600   0.61737   0.61912   0.62170   0.62945
  Beta virt. eigenvalues --    0.63122   0.63543   0.63825   0.64447   0.65012
  Beta virt. eigenvalues --    0.65418   0.66259   0.66501   0.66863   0.67109
  Beta virt. eigenvalues --    0.67895   0.68222   0.68623   0.68777   0.69154
  Beta virt. eigenvalues --    0.69464   0.69670   0.69873   0.70460   0.70771
  Beta virt. eigenvalues --    0.71362   0.71707   0.72285   0.73005   0.73832
  Beta virt. eigenvalues --    0.74004   0.74688   0.75139   0.76308   0.76502
  Beta virt. eigenvalues --    0.76852   0.77473   0.77901   0.78486   0.78563
  Beta virt. eigenvalues --    0.78812   0.79275   0.79436   0.79881   0.80215
  Beta virt. eigenvalues --    0.80673   0.81142   0.81417   0.81624   0.82139
  Beta virt. eigenvalues --    0.82469   0.83135   0.83342   0.83735   0.84224
  Beta virt. eigenvalues --    0.84466   0.84754   0.84965   0.85671   0.86035
  Beta virt. eigenvalues --    0.86621   0.86752   0.87093   0.87316   0.87623
  Beta virt. eigenvalues --    0.87999   0.88509   0.88738   0.89335   0.90001
  Beta virt. eigenvalues --    0.90234   0.90631   0.90903   0.91362   0.91596
  Beta virt. eigenvalues --    0.92102   0.92446   0.92672   0.93184   0.93639
  Beta virt. eigenvalues --    0.94008   0.94344   0.95175   0.95622   0.96716
  Beta virt. eigenvalues --    0.96976   0.97211   0.97801   0.98077   0.98869
  Beta virt. eigenvalues --    0.99661   1.00404   1.01538   1.01997   1.03527
  Beta virt. eigenvalues --    1.04456   1.05286   1.05510   1.06324   1.07384
  Beta virt. eigenvalues --    1.07843   1.08261   1.08627   1.09143   1.09573
  Beta virt. eigenvalues --    1.10256   1.10390   1.10842   1.10966   1.11264
  Beta virt. eigenvalues --    1.11776   1.12686   1.13196   1.14342   1.14877
  Beta virt. eigenvalues --    1.15441   1.16363   1.17466   1.17952   1.18474
  Beta virt. eigenvalues --    1.19480   1.20043   1.20588   1.20783   1.22054
  Beta virt. eigenvalues --    1.22452   1.23146   1.23664   1.23917   1.25012
  Beta virt. eigenvalues --    1.26087   1.26880   1.27416   1.27515   1.28045
  Beta virt. eigenvalues --    1.28067   1.28295   1.28902   1.29217   1.29693
  Beta virt. eigenvalues --    1.30786   1.31598   1.32650   1.33506   1.33738
  Beta virt. eigenvalues --    1.34320   1.35358   1.35691   1.37153   1.37648
  Beta virt. eigenvalues --    1.38224   1.39322   1.39888   1.40454   1.40840
  Beta virt. eigenvalues --    1.41818   1.42212   1.43395   1.43634   1.44556
  Beta virt. eigenvalues --    1.45273   1.45816   1.46337   1.47678   1.49025
  Beta virt. eigenvalues --    1.49963   1.51572   1.51855   1.52770   1.53521
  Beta virt. eigenvalues --    1.54499   1.54706   1.55735   1.56345   1.57437
  Beta virt. eigenvalues --    1.58003   1.59472   1.60648   1.60852   1.62089
  Beta virt. eigenvalues --    1.62654   1.64347   1.65000   1.65706   1.69171
  Beta virt. eigenvalues --    1.69706   1.70458   1.70802   1.71388   1.71600
  Beta virt. eigenvalues --    1.71917   1.72534   1.72900   1.72909   1.73155
  Beta virt. eigenvalues --    1.74170   1.74427   1.75384   1.75947   1.76551
  Beta virt. eigenvalues --    1.77120   1.77547   1.78050   1.78620   1.79436
  Beta virt. eigenvalues --    1.80063   1.80416   1.81442   1.81848   1.82969
  Beta virt. eigenvalues --    1.83750   1.84002   1.85188   1.85407   1.86086
  Beta virt. eigenvalues --    1.86136   1.86383   1.87418   1.88853   1.89137
  Beta virt. eigenvalues --    1.89726   1.90867   1.90922   1.91415   1.91926
  Beta virt. eigenvalues --    1.92462   1.94087   1.95012   1.95483   1.95914
  Beta virt. eigenvalues --    1.96347   1.96850   1.97111   1.97677   1.98353
  Beta virt. eigenvalues --    1.99174   1.99460   2.01112   2.01557   2.02111
  Beta virt. eigenvalues --    2.03162   2.04109   2.04749   2.04873   2.06287
  Beta virt. eigenvalues --    2.06950   2.07203   2.07442   2.08994   2.09528
  Beta virt. eigenvalues --    2.10160   2.11729   2.11768   2.12661   2.13410
  Beta virt. eigenvalues --    2.13653   2.14122   2.14707   2.15830   2.16480
  Beta virt. eigenvalues --    2.16552   2.17064   2.17243   2.17637   2.19055
  Beta virt. eigenvalues --    2.19190   2.19976   2.20019   2.20515   2.20832
  Beta virt. eigenvalues --    2.20959   2.22131   2.22615   2.22743   2.23743
  Beta virt. eigenvalues --    2.24838   2.25409   2.25671   2.26346   2.26454
  Beta virt. eigenvalues --    2.27248   2.27555   2.28080   2.28862   2.29059
  Beta virt. eigenvalues --    2.29682   2.30087   2.31410   2.31584   2.32727
  Beta virt. eigenvalues --    2.32932   2.33378   2.33860   2.34449   2.34646
  Beta virt. eigenvalues --    2.35447   2.35805   2.36900   2.38135   2.38686
  Beta virt. eigenvalues --    2.40949   2.41435   2.42829   2.43426   2.43745
  Beta virt. eigenvalues --    2.43995   2.44304   2.45524   2.45833   2.46371
  Beta virt. eigenvalues --    2.47445   2.47566   2.47838   2.48856   2.50361
  Beta virt. eigenvalues --    2.50696   2.51209   2.53249   2.54627   2.55460
  Beta virt. eigenvalues --    2.57069   2.58334   2.59206   2.59790   2.60604
  Beta virt. eigenvalues --    2.61461   2.62098   2.64735   2.65478   2.66436
  Beta virt. eigenvalues --    2.68662   2.69729   2.70495   2.71351   2.71626
  Beta virt. eigenvalues --    2.77138   2.78058   2.78685   2.79768   2.81598
  Beta virt. eigenvalues --    2.83026   2.83435   2.86112   2.87000   2.87497
  Beta virt. eigenvalues --    2.89320   2.89798   2.90691   2.90972   2.93780
  Beta virt. eigenvalues --    2.95346   2.96124   2.97338   3.03023   3.04464
  Beta virt. eigenvalues --    3.04887   3.11076   3.13662   3.15672   3.20705
  Beta virt. eigenvalues --    3.20755   3.28897   3.29576   3.30923   3.36878
  Beta virt. eigenvalues --    3.36956   3.53649   3.58949   3.76999   3.80113
  Beta virt. eigenvalues --    4.06590   4.17464
          Condensed to atoms (all electrons):
          Atomic-Atomic Spin Densities.
 Mulliken charges and spin densities:
               1          2
     1  Fe   0.890516   1.073382
     2  N   -0.661900  -0.027535
     3  N   -0.674939  -0.026584
     4  N   -0.664870  -0.028643
     5  N   -0.659748  -0.024384
     6  C    0.307617   0.004337
     7  C    0.035794  -0.002039
     8  C    0.040191  -0.000013
     9  C    0.282170   0.003708
    10  C    0.301820   0.004703
    11  C    0.042368   0.015042
    12  C    0.005476   0.011477
    13  C    0.327387   0.005706
    14  C    0.314802   0.005053
    15  C    0.039790  -0.002450
    16  C    0.006948  -0.000125
    17  C    0.300568   0.005119
    18  C    0.298038   0.006692
    19  C    0.043214   0.013507
    20  C    0.041598   0.012544
    21  C    0.325009   0.004765
    22  C   -0.300156  -0.007675
    23  H    0.190142   0.000352
    24  C   -0.313559  -0.006933
    25  H    0.189648   0.000320
    26  C   -0.295432  -0.007414
    27  H    0.191900   0.000324
    28  C   -0.295819  -0.007956
    29  H    0.191636   0.000368
    30  C   -0.610096  -0.000099
    31  H    0.203855  -0.000100
    32  H    0.198071   0.000052
    33  H    0.203180   0.000054
    34  C   -0.610871  -0.000053
    35  H    0.203076  -0.000016
    36  H    0.201460  -0.000010
    37  H    0.202660  -0.000124
    38  C   -0.614106  -0.001487
    39  H    0.197776   0.000561
    40  H    0.200484   0.001064
    41  H    0.214359   0.000146
    42  C   -0.150047  -0.005897
    43  H    0.180374   0.000451
    44  C   -0.392182   0.009548
    45  H    0.185321  -0.000473
    46  H    0.193886  -0.000487
    47  C   -0.613714  -0.000030
    48  H    0.193215  -0.000049
    49  H    0.204424  -0.000027
    50  H    0.211598  -0.000097
    51  C   -0.155094  -0.000468
    52  H    0.178185   0.000022
    53  C   -0.391450   0.000922
    54  H    0.187258  -0.000041
    55  H    0.192072  -0.000075
    56  C   -0.610979  -0.001309
    57  H    0.207078   0.000861
    58  H    0.200893   0.000832
    59  H    0.203627  -0.000054
    60  C   -0.611711  -0.001478
    61  H    0.203423  -0.000113
    62  H    0.201929   0.000870
    63  H    0.206210   0.000842
    64  O   -0.806053  -0.001159
    65  H    0.481192   0.000025
    66  H    0.469831   0.000111
    67  C   -0.602534  -0.000158
    68  H    0.222658  -0.000027
    69  H    0.215683   0.000050
    70  H    0.214295  -0.000107
    71  N   -0.630781   0.001076
    72  H    0.388940  -0.000236
    73  C    0.282005  -0.001113
    74  C    0.266613   0.009032
    75  H    0.238088  -0.000550
    76  N   -0.432468  -0.037598
    77  C   -0.038965   0.001493
    78  H    0.217116  -0.000224
 Sum of Mulliken charges =   1.00000   1.00000
 Mulliken charges and spin densities with hydrogens summed into heavy atoms:
               1          2
     1  Fe   0.890516   1.073382
     2  N   -0.661900  -0.027535
     3  N   -0.674939  -0.026584
     4  N   -0.664870  -0.028643
     5  N   -0.659748  -0.024384
     6  C    0.307617   0.004337
     7  C    0.035794  -0.002039
     8  C    0.040191  -0.000013
     9  C    0.282170   0.003708
    10  C    0.301820   0.004703
    11  C    0.042368   0.015042
    12  C    0.005476   0.011477
    13  C    0.327387   0.005706
    14  C    0.314802   0.005053
    15  C    0.039790  -0.002450
    16  C    0.006948  -0.000125
    17  C    0.300568   0.005119
    18  C    0.298038   0.006692
    19  C    0.043214   0.013507
    20  C    0.041598   0.012544
    21  C    0.325009   0.004765
    22  C   -0.110015  -0.007323
    24  C   -0.123911  -0.006614
    26  C   -0.103532  -0.007091
    28  C   -0.104182  -0.007588
    30  C   -0.004990  -0.000093
    34  C   -0.003674  -0.000203
    38  C   -0.001487   0.000285
    42  C    0.030328  -0.005447
    44  C   -0.012975   0.008588
    47  C   -0.004477  -0.000203
    51  C    0.023090  -0.000446
    53  C   -0.012120   0.000807
    56  C    0.000620   0.000330
    60  C   -0.000149   0.000121
    64  O    0.144970  -0.001023
    67  C    0.050103  -0.000242
    71  N   -0.241841   0.000839
    73  C    0.282005  -0.001113
    74  C    0.504701   0.008482
    76  N   -0.432468  -0.037598
    77  C    0.178152   0.001269
 Electronic spatial extent (au):  <R**2>=          19807.5044
 Charge=              1.0000 electrons
 Dipole moment (field-independent basis, Debye):
    X=              1.1025    Y=             -1.4952    Z=              3.6008  Tot=              4.0517
 Quadrupole moment (field-independent basis, Debye-Ang):
   XX=           -183.8957   YY=           -191.3110   ZZ=           -199.8251
   XY=             -0.4054   XZ=              3.4532   YZ=             -0.2409
 Traceless Quadrupole moment (field-independent basis, Debye-Ang):
   XX=              7.7815   YY=              0.3663   ZZ=             -8.1478
   XY=             -0.4054   XZ=              3.4532   YZ=             -0.2409
 Octapole moment (field-independent basis, Debye-Ang**2):
  XXX=             -4.2096  YYY=             -7.7100  ZZZ=            121.0945  XYY=              6.1031
  XXY=              1.1867  XXZ=             -4.0413  XZZ=             15.1383  YZZ=            -25.3293
  YYZ=            -18.2468  XYZ=             18.6092
 Hexadecapole moment (field-independent basis, Debye-Ang**3):
 XXXX=         -10371.3742 YYYY=         -10032.0787 ZZZZ=          -2203.6150 XXXY=            -61.8805
 XXXZ=            114.7292 YYYX=             71.9439 YYYZ=             89.0909 ZZZX=              0.3260
 ZZZY=            -60.3195 XXYY=          -3245.2997 XXZZ=          -2452.2320 YYZZ=          -2525.2473
 XXYZ=             62.9470 YYXZ=             14.9635 ZZXY=            -19.8392
 N-N= 5.975919383469D+03 E-N=-1.892645978643D+04  KE= 2.971978398892D+03
                          Isotropic Fermi Contact Couplings
        Atom                 a.u.       MegaHertz       Gauss      10(-4) cm-1
     1  Fe(57)             0.11334      16.43853       5.86568       5.48330
     2  N(14)             -0.02201      -7.11190      -2.53770      -2.37228
     3  N(14)             -0.02154      -6.95990      -2.48347      -2.32157
     4  N(14)             -0.02241      -7.24146      -2.58393      -2.41549
     5  N(14)             -0.01952      -6.30774      -2.25076      -2.10404
     6  C(13)             -0.00038      -0.42662      -0.15223      -0.14230
     7  C(13)             -0.00094      -1.05955      -0.37807      -0.35343
     8  C(13)             -0.00051      -0.57760      -0.20610      -0.19267
     9  C(13)             -0.00007      -0.07730      -0.02758      -0.02579
    10  C(13)              0.00067       0.75857       0.27068       0.25303
    11  C(13)              0.00151       1.69204       0.60376       0.56440
    12  C(13)              0.00066       0.73888       0.26365       0.24647
    13  C(13)             -0.00107      -1.20717      -0.43075      -0.40267
    14  C(13)             -0.00025      -0.28634      -0.10217      -0.09551
    15  C(13)             -0.00099      -1.11147      -0.39660      -0.37075
    16  C(13)             -0.00059      -0.66637      -0.23778      -0.22228
    17  C(13)              0.00010       0.11036       0.03938       0.03681
    18  C(13)              0.00107       1.20130       0.42865       0.40071
    19  C(13)              0.00132       1.48100       0.52846       0.49401
    20  C(13)              0.00083       0.93562       0.33385       0.31209
    21  C(13)             -0.00101      -1.14058      -0.40699      -0.38046
    22  C(13)             -0.00113      -1.27475      -0.45486      -0.42521
    23  H(1)               0.00012       0.55804       0.19912       0.18614
    24  C(13)             -0.00116      -1.30275      -0.46485      -0.43455
    25  H(1)               0.00011       0.49022       0.17492       0.16352
    26  C(13)             -0.00114      -1.28378      -0.45808      -0.42822
    27  H(1)               0.00012       0.54705       0.19520       0.18248
    28  C(13)             -0.00131      -1.47471      -0.52621      -0.49191
    29  H(1)               0.00013       0.57484       0.20512       0.19175
    30  C(13)             -0.00004      -0.04952      -0.01767      -0.01652
    31  H(1)              -0.00004      -0.19011      -0.06784      -0.06341
    32  H(1)               0.00003       0.15497       0.05530       0.05169
    33  H(1)               0.00004       0.16729       0.05969       0.05580
    34  C(13)             -0.00006      -0.06848      -0.02444      -0.02284
    35  H(1)               0.00000       0.00823       0.00294       0.00275
    36  H(1)               0.00000       0.00371       0.00132       0.00124
    37  H(1)              -0.00005      -0.23960      -0.08549      -0.07992
    38  C(13)             -0.00053      -0.60108      -0.21448      -0.20050
    39  H(1)               0.00023       1.04995       0.37465       0.35023
    40  H(1)               0.00054       2.41217       0.86072       0.80461
    41  H(1)               0.00004       0.19641       0.07009       0.06552
    42  C(13)             -0.00121      -1.35676      -0.48413      -0.45257
    43  H(1)               0.00016       0.72593       0.25903       0.24214
    44  C(13)              0.00127       1.43129       0.51072       0.47743
    45  H(1)              -0.00014      -0.64117      -0.22879      -0.21387
    46  H(1)              -0.00016      -0.70235      -0.25062      -0.23428
    47  C(13)             -0.00005      -0.05060      -0.01805      -0.01688
    48  H(1)              -0.00002      -0.09415      -0.03360      -0.03141
    49  H(1)              -0.00001      -0.04537      -0.01619      -0.01513
    50  H(1)              -0.00004      -0.17617      -0.06286      -0.05876
    51  C(13)             -0.00011      -0.11833      -0.04222      -0.03947
    52  H(1)               0.00001       0.06585       0.02350       0.02197
    53  C(13)              0.00007       0.08009       0.02858       0.02672
    54  H(1)              -0.00001      -0.05982      -0.02134      -0.01995
    55  H(1)              -0.00003      -0.11620      -0.04146      -0.03876
    56  C(13)             -0.00049      -0.55131      -0.19672      -0.18390
    57  H(1)               0.00040       1.80051       0.64247       0.60059
    58  H(1)               0.00038       1.70835       0.60958       0.56984
    59  H(1)              -0.00003      -0.12118      -0.04324      -0.04042
    60  C(13)             -0.00061      -0.68719      -0.24521      -0.22922
    61  H(1)              -0.00005      -0.24223      -0.08643      -0.08080
    62  H(1)               0.00040       1.78603       0.63730       0.59576
    63  H(1)               0.00039       1.73716       0.61986       0.57945
    64  O(17)              0.00111      -0.67220      -0.23986      -0.22422
    65  H(1)              -0.00014      -0.62317      -0.22236      -0.20787
    66  H(1)              -0.00009      -0.42262      -0.15080      -0.14097
    67  C(13)             -0.00007      -0.08026      -0.02864      -0.02677
    68  H(1)              -0.00002      -0.07237      -0.02582      -0.02414
    69  H(1)               0.00003       0.15196       0.05422       0.05069
    70  H(1)              -0.00004      -0.18150      -0.06476      -0.06054
    71  N(14)             -0.00135      -0.43571      -0.15547      -0.14534
    72  H(1)              -0.00011      -0.51296      -0.18304      -0.17111
    73  C(13)             -0.00126      -1.41558      -0.50512      -0.47219
    74  C(13)              0.00044       0.49513       0.17667       0.16516
    75  H(1)              -0.00026      -1.16200      -0.41463      -0.38760
    76  N(14)             -0.03880     -12.53613      -4.47320      -4.18160
    77  C(13)             -0.00006      -0.06405      -0.02285      -0.02136
    78  H(1)              -0.00016      -0.72928      -0.26022      -0.24326
 --------------------------------------------------------
       Center         ----  Spin Dipole Couplings  ----
                      3XX-RR        3YY-RR        3ZZ-RR
 --------------------------------------------------------
     1   Atom       -1.324837     -0.027624      1.352461
     2   Atom        0.004093      0.000602     -0.004695
     3   Atom       -0.002396     -0.012723      0.015120
     4   Atom        0.006569      0.000923     -0.007492
     5   Atom       -0.005008     -0.015626      0.020633
     6   Atom       -0.003243      0.001914      0.001329
     7   Atom       -0.000772      0.002119     -0.001347
     8   Atom        0.001152     -0.001248      0.000095
     9   Atom        0.003623     -0.002798     -0.000825
    10   Atom        0.004865     -0.005906      0.001040
    11   Atom       -0.007217     -0.009612      0.016829
    12   Atom       -0.008970     -0.005356      0.014326
    13   Atom       -0.005068      0.000110      0.004957
    14   Atom       -0.003382      0.001558      0.001824
    15   Atom       -0.000648      0.002287     -0.001639
    16   Atom        0.001092     -0.001307      0.000215
    17   Atom        0.002934     -0.003365      0.000431
    18   Atom        0.004367     -0.006912      0.002544
    19   Atom       -0.006266     -0.008510      0.014776
    20   Atom       -0.009662     -0.005694      0.015356
    21   Atom       -0.004663      0.001063      0.003600
    22   Atom       -0.000374      0.010431     -0.010057
    23   Atom       -0.001038      0.002635     -0.001597
    24   Atom        0.009945     -0.000605     -0.009340
    25   Atom        0.002634     -0.001026     -0.001608
    26   Atom       -0.000586      0.010160     -0.009574
    27   Atom       -0.001105      0.002678     -0.001572
    28   Atom        0.010401     -0.000180     -0.010221
    29   Atom        0.002616     -0.000997     -0.001619
    30   Atom        0.000811     -0.000198     -0.000613
    31   Atom        0.000472      0.000037     -0.000509
    32   Atom        0.000976     -0.000330     -0.000646
    33   Atom        0.000993     -0.000358     -0.000635
    34   Atom       -0.000180      0.000764     -0.000585
    35   Atom       -0.000408      0.001047     -0.000638
    36   Atom       -0.000368      0.001010     -0.000643
    37   Atom       -0.000038      0.000537     -0.000498
    38   Atom        0.001310     -0.000708     -0.000603
    39   Atom        0.001459     -0.000617     -0.000842
    40   Atom        0.001222     -0.000570     -0.000652
    41   Atom        0.000894     -0.000139     -0.000755
    42   Atom       -0.000173      0.003189     -0.003016
    43   Atom       -0.000544      0.001403     -0.000859
    44   Atom        0.000314     -0.003705      0.003391
    45   Atom        0.000337      0.000125     -0.000462
    46   Atom       -0.000533      0.001087     -0.000554
    47   Atom       -0.000206      0.000768     -0.000562
    48   Atom       -0.000503      0.001193     -0.000691
    49   Atom       -0.000239      0.000851     -0.000612
    50   Atom       -0.000035      0.000555     -0.000520
    51   Atom        0.000952     -0.000158     -0.000794
    52   Atom        0.001091     -0.000420     -0.000671
    53   Atom       -0.000015      0.000132     -0.000117
    54   Atom        0.000244      0.000163     -0.000406
    55   Atom        0.000435     -0.000099     -0.000336
    56   Atom        0.001396     -0.000707     -0.000689
    57   Atom        0.001329     -0.000595     -0.000734
    58   Atom        0.001428     -0.000641     -0.000787
    59   Atom        0.000939     -0.000220     -0.000720
    60   Atom       -0.000519      0.001062     -0.000543
    61   Atom       -0.000169      0.000862     -0.000693
    62   Atom       -0.000581      0.001292     -0.000711
    63   Atom       -0.000538      0.001315     -0.000777
    64   Atom       -0.000206     -0.001038      0.001245
    65   Atom       -0.004983     -0.005815      0.010798
    66   Atom       -0.005950     -0.005405      0.011355
    67   Atom       -0.000473     -0.000569      0.001042
    68   Atom       -0.000298     -0.000711      0.001009
    69   Atom       -0.000470     -0.000594      0.001064
    70   Atom       -0.000483     -0.000589      0.001072
    71   Atom       -0.003857      0.004627     -0.000771
    72   Atom       -0.001043     -0.001068      0.002111
    73   Atom       -0.001016     -0.001179      0.002195
    74   Atom       -0.009738      0.004997      0.004742
    75   Atom        0.000957     -0.004150      0.003192
    76   Atom        0.011774      0.004672     -0.016446
    77   Atom       -0.003609     -0.003653      0.007262
    78   Atom        0.001354     -0.004232      0.002879
 --------------------------------------------------------
                        XY            XZ            YZ
 --------------------------------------------------------
     1   Atom        2.090566     -0.214545      0.235912
     2   Atom        0.005778      0.004720     -0.007275
     3   Atom       -0.001038      0.012249      0.014111
     4   Atom        0.005478     -0.005571      0.010450
     5   Atom       -0.001225     -0.014665     -0.013115
     6   Atom       -0.005770      0.000124     -0.000405
     7   Atom       -0.001355      0.000092     -0.000060
     8   Atom       -0.001685      0.000175     -0.000302
     9   Atom       -0.005574      0.000586      0.000087
    10   Atom        0.005114      0.000730     -0.000484
    11   Atom        0.001626      0.000439     -0.002910
    12   Atom        0.001456     -0.002234     -0.002680
    13   Atom        0.005928     -0.000840     -0.002602
    14   Atom       -0.005804     -0.001083     -0.000350
    15   Atom       -0.001303      0.000333     -0.000334
    16   Atom       -0.001615      0.000196     -0.000335
    17   Atom       -0.005629     -0.000206     -0.000484
    18   Atom        0.005452      0.002294      0.001918
    19   Atom        0.002000      0.002222      0.004435
    20   Atom        0.001514      0.002966      0.003491
    21   Atom        0.005759      0.000785      0.003892
    22   Atom       -0.000232      0.000196     -0.001011
    23   Atom       -0.000119     -0.000008     -0.000138
    24   Atom       -0.000588      0.000848     -0.000005
    25   Atom       -0.000270      0.000017      0.000033
    26   Atom       -0.000295      0.000238      0.001851
    27   Atom       -0.000122      0.000017      0.000325
    28   Atom       -0.000649      0.000602     -0.000175
    29   Atom       -0.000261      0.000244     -0.000060
    30   Atom       -0.000906     -0.000030      0.000019
    31   Atom       -0.000764     -0.000036      0.000030
    32   Atom       -0.000738      0.000212     -0.000094
    33   Atom       -0.000735     -0.000306      0.000141
    34   Atom       -0.000813     -0.000023      0.000057
    35   Atom       -0.000688     -0.000135      0.000291
    36   Atom       -0.000692      0.000102     -0.000200
    37   Atom       -0.000727     -0.000027      0.000046
    38   Atom        0.000740      0.000050      0.000002
    39   Atom        0.000471     -0.000309      0.000003
    40   Atom        0.000568      0.000517      0.000090
    41   Atom        0.000934     -0.000125      0.000025
    42   Atom        0.000962      0.003070      0.000348
    43   Atom        0.000748      0.000061      0.000105
    44   Atom        0.001170     -0.006568     -0.000570
    45   Atom        0.000317      0.000398      0.000102
    46   Atom        0.000489     -0.000191      0.000195
    47   Atom       -0.000779      0.000064     -0.000104
    48   Atom       -0.000665      0.000108     -0.000253
    49   Atom       -0.000710     -0.000098      0.000173
    50   Atom       -0.000723      0.000085     -0.000162
    51   Atom       -0.001038      0.000219      0.000122
    52   Atom       -0.000727      0.000353     -0.000155
    53   Atom       -0.000482     -0.000055     -0.000741
    54   Atom       -0.000589     -0.000048      0.000086
    55   Atom       -0.000415      0.000044     -0.000046
    56   Atom        0.000809      0.000108      0.000073
    57   Atom        0.000556      0.000395      0.000021
    58   Atom        0.000472     -0.000493     -0.000034
    59   Atom        0.000959     -0.000119     -0.000066
    60   Atom        0.000746      0.000053      0.000079
    61   Atom        0.000988     -0.000093     -0.000150
    62   Atom        0.000579     -0.000089     -0.000573
    63   Atom        0.000591      0.000014      0.000261
    64   Atom        0.018890      0.003942     -0.000484
    65   Atom       -0.001681     -0.006897      0.005731
    66   Atom        0.000072      0.002441     -0.003912
    67   Atom       -0.000002     -0.000547      0.000100
    68   Atom        0.000028     -0.000871     -0.000002
    69   Atom       -0.000036     -0.000407      0.000189
    70   Atom        0.000109     -0.000403     -0.000290
    71   Atom        0.000999      0.001177     -0.000677
    72   Atom        0.000050      0.000894     -0.000162
    73   Atom        0.000795     -0.001422      0.001287
    74   Atom       -0.002449      0.004199     -0.003353
    75   Atom       -0.000450      0.005998     -0.000855
    76   Atom        0.003448      0.002637     -0.001579
    77   Atom       -0.001725     -0.004771      0.002381
    78   Atom       -0.000084     -0.006582      0.000377
 --------------------------------------------------------


 ---------------------------------------------------------------------------------
              Anisotropic Spin Dipole Couplings in Principal Axis System
 ---------------------------------------------------------------------------------

       Atom             a.u.   MegaHertz   Gauss  10(-4) cm-1        Axes

              Baa    -2.8882   -50.002   -17.842   -16.679  0.8023 -0.5924  0.0735
     1 Fe(57) Bbb     1.3513    23.395     8.348     7.804 -0.2698 -0.2499  0.9299
              Bcc     1.5369    26.607     9.494     8.875  0.5325  0.7659  0.3603
 
              Baa    -0.0129    -0.496    -0.177    -0.166 -0.3938  0.5618  0.7275
     2 N(14)  Bbb     0.0044     0.171     0.061     0.057  0.5086 -0.5260  0.6816
              Bcc     0.0084     0.325     0.116     0.108  0.7656  0.6385 -0.0786
 
              Baa    -0.0207    -0.799    -0.285    -0.266  0.3435  0.8279 -0.4434
     3 N(14)  Bbb    -0.0047    -0.181    -0.065    -0.060  0.8619 -0.4654 -0.2013
              Bcc     0.0254     0.980     0.350     0.327  0.3731  0.3130  0.8734
 
              Baa    -0.0171    -0.658    -0.235    -0.219  0.3102 -0.5466  0.7778
     4 N(14)  Bbb     0.0071     0.273     0.097     0.091 -0.5288  0.5808  0.6190
              Bcc     0.0100     0.385     0.137     0.128  0.7901  0.6033  0.1089
 
              Baa    -0.0223    -0.860    -0.307    -0.287  0.3886  0.8356  0.3881
     5 N(14)  Bbb    -0.0079    -0.306    -0.109    -0.102  0.8459 -0.4906  0.2091
              Bcc     0.0302     1.165     0.416     0.389 -0.3652 -0.2471  0.8976
 
              Baa    -0.0070    -0.937    -0.334    -0.313  0.8387  0.5444  0.0140
     6 C(13)  Bbb     0.0013     0.173     0.062     0.058 -0.0623  0.0704  0.9956
              Bcc     0.0057     0.764     0.273     0.255 -0.5410  0.8359 -0.0930
 
              Baa    -0.0014    -0.187    -0.067    -0.062 -0.5518 -0.1989  0.8099
     7 C(13)  Bbb    -0.0013    -0.169    -0.060    -0.056  0.7484  0.3103  0.5861
              Bcc     0.0027     0.356     0.127     0.119 -0.3679  0.9296 -0.0224
 
              Baa    -0.0021    -0.286    -0.102    -0.095  0.4512  0.8884  0.0851
     8 C(13)  Bbb     0.0001     0.009     0.003     0.003 -0.1709 -0.0075  0.9853
              Bcc     0.0021     0.277     0.099     0.092  0.8759 -0.4590  0.1484
 
              Baa    -0.0060    -0.811    -0.289    -0.271  0.5014  0.8623 -0.0706
     9 C(13)  Bbb    -0.0008    -0.111    -0.040    -0.037 -0.0168  0.0912  0.9957
              Bcc     0.0069     0.922     0.329     0.308  0.8650 -0.4981  0.0602
 
              Baa    -0.0080    -1.074    -0.383    -0.358 -0.3720  0.9248  0.0795
    10 C(13)  Bbb     0.0011     0.142     0.051     0.047 -0.0492 -0.1051  0.9932
              Bcc     0.0069     0.932     0.333     0.311  0.9269  0.3656  0.0846
 
              Baa    -0.0107    -1.438    -0.513    -0.480 -0.4293  0.8974  0.1016
    11 C(13)  Bbb    -0.0064    -0.863    -0.308    -0.288  0.9031  0.4279  0.0365
              Bcc     0.0171     2.301     0.821     0.768  0.0107 -0.1074  0.9942
 
              Baa    -0.0096    -1.282    -0.457    -0.428  0.9538 -0.2951  0.0561
    12 C(13)  Bbb    -0.0054    -0.721    -0.257    -0.241  0.2831  0.9455  0.1607
              Bcc     0.0149     2.003     0.715     0.668 -0.1005 -0.1374  0.9854
 
              Baa    -0.0090    -1.206    -0.430    -0.402  0.8295 -0.5559 -0.0538
    13 C(13)  Bbb     0.0018     0.243     0.087     0.081  0.4576  0.6213  0.6361
              Bcc     0.0072     0.963     0.343     0.321 -0.3202 -0.5523  0.7697
 
              Baa    -0.0074    -0.986    -0.352    -0.329  0.8298  0.5453  0.1187
    14 C(13)  Bbb     0.0019     0.259     0.092     0.086 -0.0507 -0.1381  0.9891
              Bcc     0.0054     0.728     0.260     0.243 -0.5557  0.8268  0.0869
 
              Baa    -0.0017    -0.234    -0.083    -0.078 -0.3176 -0.0242  0.9479
    15 C(13)  Bbb    -0.0011    -0.145    -0.052    -0.048  0.8781  0.3699  0.3037
              Bcc     0.0028     0.379     0.135     0.126 -0.3579  0.9288 -0.0963
 
              Baa    -0.0021    -0.287    -0.102    -0.096  0.4409  0.8930  0.0904
    16 C(13)  Bbb     0.0002     0.023     0.008     0.008 -0.2053  0.0023  0.9787
              Bcc     0.0020     0.264     0.094     0.088  0.8738 -0.4501  0.1843
 
              Baa    -0.0067    -0.900    -0.321    -0.300  0.5042  0.8605  0.0729
    17 C(13)  Bbb     0.0005     0.063     0.022     0.021 -0.0469 -0.0570  0.9973
              Bcc     0.0062     0.837     0.299     0.279  0.8623 -0.5062  0.0116
 
              Baa    -0.0092    -1.233    -0.440    -0.411 -0.3599  0.9294 -0.0816
    18 C(13)  Bbb     0.0011     0.152     0.054     0.051 -0.4584 -0.1000  0.8831
              Bcc     0.0081     1.081     0.386     0.361  0.8126  0.3552  0.4620
 
              Baa    -0.0100    -1.345    -0.480    -0.449 -0.4073  0.9047 -0.1253
    19 C(13)  Bbb    -0.0059    -0.787    -0.281    -0.262  0.9061  0.3830 -0.1799
              Bcc     0.0159     2.132     0.761     0.711  0.1147  0.1868  0.9757
 
              Baa    -0.0103    -1.383    -0.493    -0.461  0.9629 -0.2587 -0.0761
    20 C(13)  Bbb    -0.0060    -0.806    -0.287    -0.269  0.2408  0.9520 -0.1890
              Bcc     0.0163     2.188     0.781     0.730  0.1214  0.1637  0.9790
 
              Baa    -0.0084    -1.128    -0.403    -0.376  0.8240 -0.5526  0.1253
    21 C(13)  Bbb     0.0005     0.065     0.023     0.022 -0.4490 -0.5018  0.7394
              Bcc     0.0079     1.063     0.379     0.355  0.3457  0.6654  0.6616
 
              Baa    -0.0101    -1.357    -0.484    -0.453 -0.0189  0.0490  0.9986
    22 C(13)  Bbb    -0.0004    -0.050    -0.018    -0.017  0.9996  0.0231  0.0178
              Bcc     0.0105     1.407     0.502     0.469 -0.0222  0.9985 -0.0494
 
              Baa    -0.0016    -0.855    -0.305    -0.285  0.0214  0.0331  0.9992
    23 H(1)   Bbb    -0.0010    -0.556    -0.198    -0.185  0.9993  0.0314 -0.0224
              Bcc     0.0026     1.410     0.503     0.470 -0.0321  0.9990 -0.0324
 
              Baa    -0.0094    -1.258    -0.449    -0.420 -0.0439 -0.0024  0.9990
    24 C(13)  Bbb    -0.0006    -0.085    -0.031    -0.029  0.0551  0.9985  0.0048
              Bcc     0.0100     1.344     0.480     0.448  0.9975 -0.0552  0.0437
 
              Baa    -0.0016    -0.859    -0.307    -0.287 -0.0078 -0.0606  0.9981
    25 H(1)   Bbb    -0.0010    -0.557    -0.199    -0.186  0.0729  0.9955  0.0611
              Bcc     0.0027     1.416     0.505     0.472  0.9973 -0.0732  0.0033
 
              Baa    -0.0098    -1.309    -0.467    -0.437 -0.0288 -0.0929  0.9953
    26 C(13)  Bbb    -0.0006    -0.079    -0.028    -0.026  0.9993  0.0221  0.0310
              Bcc     0.0103     1.387     0.495     0.463 -0.0248  0.9954  0.0922
 
              Baa    -0.0016    -0.853    -0.304    -0.284 -0.0544 -0.0771  0.9955
    27 H(1)   Bbb    -0.0011    -0.591    -0.211    -0.197  0.9980  0.0273  0.0566
              Bcc     0.0027     1.444     0.515     0.482 -0.0315  0.9966  0.0755
 
              Baa    -0.0102    -1.374    -0.490    -0.458 -0.0287  0.0156  0.9995
    28 C(13)  Bbb    -0.0002    -0.029    -0.010    -0.010  0.0617  0.9980 -0.0138
              Bcc     0.0105     1.403     0.501     0.468  0.9977 -0.0613  0.0296
 
              Baa    -0.0016    -0.873    -0.312    -0.291 -0.0526  0.0719  0.9960
    29 H(1)   Bbb    -0.0010    -0.540    -0.193    -0.180  0.0762  0.9948 -0.0678
              Bcc     0.0026     1.414     0.504     0.472  0.9957 -0.0723  0.0578
 
              Baa    -0.0007    -0.098    -0.035    -0.033  0.5065  0.8621 -0.0130
    30 C(13)  Bbb    -0.0006    -0.082    -0.029    -0.027  0.0222  0.0020  0.9998
              Bcc     0.0013     0.180     0.064     0.060  0.8619 -0.5067 -0.0182
 
              Baa    -0.0005    -0.288    -0.103    -0.096  0.5997  0.7976 -0.0643
    31 H(1)   Bbb    -0.0005    -0.272    -0.097    -0.091  0.0626  0.0333  0.9975
              Bcc     0.0011     0.560     0.200     0.187  0.7977 -0.6022 -0.0300
 
              Baa    -0.0007    -0.359    -0.128    -0.120 -0.1529 -0.0580  0.9865
    32 H(1)   Bbb    -0.0007    -0.353    -0.126    -0.118  0.3957  0.9112  0.1149
              Bcc     0.0013     0.713     0.254     0.238  0.9056 -0.4080  0.1163
 
              Baa    -0.0007    -0.370    -0.132    -0.124 -0.0352 -0.4516  0.8915
    33 H(1)   Bbb    -0.0007    -0.362    -0.129    -0.121  0.4287  0.7990  0.4216
              Bcc     0.0014     0.732     0.261     0.244  0.9028 -0.3970 -0.1655
 
              Baa    -0.0006    -0.087    -0.031    -0.029  0.8562  0.4981 -0.1371
    34 C(13)  Bbb    -0.0006    -0.079    -0.028    -0.026  0.1354  0.0398  0.9900
              Bcc     0.0012     0.166     0.059     0.055 -0.4986  0.8662  0.0333
 
              Baa    -0.0007    -0.375    -0.134    -0.125  0.6349  0.1231  0.7627
    35 H(1)   Bbb    -0.0007    -0.356    -0.127    -0.119  0.6801  0.3793 -0.6273
              Bcc     0.0014     0.732     0.261     0.244 -0.3666  0.9170  0.1571
 
              Baa    -0.0007    -0.363    -0.129    -0.121 -0.5624 -0.1339  0.8160
    36 H(1)   Bbb    -0.0006    -0.343    -0.122    -0.114  0.7332  0.3754  0.5669
              Bcc     0.0013     0.706     0.252     0.236 -0.3822  0.9171 -0.1130
 
              Baa    -0.0005    -0.284    -0.102    -0.095  0.8211  0.5623 -0.0983
    37 H(1)   Bbb    -0.0005    -0.267    -0.095    -0.089  0.1008  0.0267  0.9946
              Bcc     0.0010     0.551     0.197     0.184 -0.5618  0.8265  0.0348
 
              Baa    -0.0010    -0.128    -0.046    -0.043 -0.3117  0.9493  0.0403
    38 C(13)  Bbb    -0.0006    -0.081    -0.029    -0.027 -0.0088 -0.0453  0.9989
              Bcc     0.0016     0.209     0.074     0.070  0.9501  0.3110  0.0225
 
              Baa    -0.0009    -0.483    -0.172    -0.161  0.1842 -0.3126  0.9318
    39 H(1)   Bbb    -0.0007    -0.370    -0.132    -0.123 -0.1540  0.9272  0.3415
              Bcc     0.0016     0.853     0.304     0.284  0.9707  0.2064 -0.1227
 
              Baa    -0.0008    -0.436    -0.155    -0.145 -0.3406  0.4946  0.7996
    40 H(1)   Bbb    -0.0007    -0.371    -0.132    -0.124 -0.0960  0.8277 -0.5529
              Bcc     0.0015     0.807     0.288     0.269  0.9353  0.2651  0.2344
 
              Baa    -0.0008    -0.435    -0.155    -0.145  0.3122 -0.4607  0.8309
    41 H(1)   Bbb    -0.0006    -0.338    -0.120    -0.113 -0.4005  0.7293  0.5548
              Bcc     0.0014     0.773     0.276     0.258  0.8615  0.5059 -0.0432
 
              Baa    -0.0050    -0.669    -0.239    -0.223 -0.5417  0.0280  0.8401
    42 C(13)  Bbb     0.0013     0.170     0.061     0.057  0.7391 -0.4601  0.4919
              Bcc     0.0037     0.498     0.178     0.166  0.4003  0.8874  0.2286
 
              Baa    -0.0009    -0.465    -0.166    -0.155 -0.3005  0.0548  0.9522
    43 H(1)   Bbb    -0.0008    -0.422    -0.150    -0.141  0.8979 -0.3204  0.3018
              Bcc     0.0017     0.887     0.317     0.296  0.3217  0.9457  0.0471
 
              Baa    -0.0051    -0.689    -0.246    -0.230  0.7417 -0.3902  0.5455
    44 C(13)  Bbb    -0.0036    -0.480    -0.171    -0.160  0.2520  0.9159  0.3124
              Bcc     0.0087     1.169     0.417     0.390 -0.6216 -0.0942  0.7777
 
              Baa    -0.0006    -0.335    -0.119    -0.112 -0.3922  0.0409  0.9190
    45 H(1)   Bbb    -0.0001    -0.036    -0.013    -0.012 -0.4493  0.8632 -0.2301
              Bcc     0.0007     0.371     0.132     0.124  0.8027  0.5032  0.3202
 
              Baa    -0.0009    -0.458    -0.163    -0.153  0.7406 -0.2488  0.6242
    46 H(1)   Bbb    -0.0004    -0.200    -0.072    -0.067 -0.6204  0.1038  0.7774
              Bcc     0.0012     0.658     0.235     0.220  0.2582  0.9630  0.0775
 
              Baa    -0.0006    -0.086    -0.031    -0.029  0.8745  0.4783 -0.0806
    47 C(13)  Bbb    -0.0006    -0.076    -0.027    -0.026  0.0374  0.0991  0.9944
              Bcc     0.0012     0.162     0.058     0.054 -0.4836  0.8726 -0.0688
 
              Baa    -0.0007    -0.399    -0.143    -0.133  0.7491  0.1729 -0.6395
    48 H(1)   Bbb    -0.0007    -0.378    -0.135    -0.126  0.5775  0.3027  0.7582
              Bcc     0.0015     0.778     0.278     0.259 -0.3247  0.9373 -0.1268
 
              Baa    -0.0006    -0.339    -0.121    -0.113  0.2519  0.0077  0.9677
    49 H(1)   Bbb    -0.0006    -0.313    -0.112    -0.104  0.8618  0.4530 -0.2280
              Bcc     0.0012     0.652     0.233     0.218 -0.4402  0.8915  0.1075
 
              Baa    -0.0006    -0.295    -0.105    -0.098  0.3833  0.3733  0.8448
    50 H(1)   Bbb    -0.0005    -0.271    -0.097    -0.091  0.7400  0.4233 -0.5228
              Bcc     0.0011     0.566     0.202     0.189 -0.5528  0.8255 -0.1140
 
              Baa    -0.0010    -0.135    -0.048    -0.045 -0.3847 -0.5737  0.7231
    51 C(13)  Bbb    -0.0006    -0.077    -0.027    -0.026  0.3377  0.6416  0.6887
              Bcc     0.0016     0.212     0.076     0.071  0.8591 -0.5091  0.0531
 
              Baa    -0.0007    -0.398    -0.142    -0.133 -0.0285  0.3777  0.9255
    52 H(1)   Bbb    -0.0007    -0.378    -0.135    -0.126  0.4086  0.8494 -0.3341
              Bcc     0.0015     0.776     0.277     0.259  0.9123 -0.3686  0.1785
 
              Baa    -0.0009    -0.120    -0.043    -0.040  0.3964  0.6516  0.6467
    53 C(13)  Bbb     0.0000     0.001     0.000     0.000  0.8400  0.0268 -0.5419
              Bcc     0.0009     0.120     0.043     0.040 -0.3704  0.7581 -0.5367
 
              Baa    -0.0004    -0.231    -0.082    -0.077 -0.3236 -0.4404  0.8375
    54 H(1)   Bbb    -0.0004    -0.196    -0.070    -0.065  0.6051  0.5841  0.5410
              Bcc     0.0008     0.427     0.152     0.142  0.7274 -0.6818 -0.0775
 
              Baa    -0.0004    -0.189    -0.067    -0.063  0.2366  0.5350  0.8111
    55 H(1)   Bbb    -0.0003    -0.166    -0.059    -0.056  0.4210  0.6959 -0.5818
              Bcc     0.0007     0.355     0.127     0.118  0.8757 -0.4791  0.0606
 
              Baa    -0.0010    -0.132    -0.047    -0.044 -0.3145  0.9420 -0.1168
    56 C(13)  Bbb    -0.0007    -0.093    -0.033    -0.031 -0.0875  0.0938  0.9917
              Bcc     0.0017     0.225     0.080     0.075  0.9452  0.3221  0.0529
 
              Baa    -0.0009    -0.458    -0.163    -0.153 -0.2789  0.5274  0.8026
    57 H(1)   Bbb    -0.0007    -0.366    -0.131    -0.122 -0.1118  0.8122 -0.5725
              Bcc     0.0015     0.824     0.294     0.275  0.9538  0.2494  0.1676
 
              Baa    -0.0009    -0.488    -0.174    -0.163  0.2579 -0.3322  0.9073
    58 H(1)   Bbb    -0.0007    -0.382    -0.136    -0.127 -0.1178  0.9212  0.3708
              Bcc     0.0016     0.870     0.310     0.290  0.9590  0.2025 -0.1984
 
              Baa    -0.0008    -0.406    -0.145    -0.135 -0.4934  0.8684 -0.0488
    59 H(1)   Bbb    -0.0007    -0.388    -0.139    -0.130  0.0295  0.0728  0.9969
              Bcc     0.0015     0.794     0.283     0.265  0.8693  0.4904 -0.0615
 
              Baa    -0.0008    -0.110    -0.039    -0.037  0.9279 -0.3654 -0.0738
    60 C(13)  Bbb    -0.0005    -0.073    -0.026    -0.024  0.0508 -0.0722  0.9961
              Bcc     0.0014     0.183     0.065     0.061  0.3693  0.9280  0.0484
 
              Baa    -0.0008    -0.410    -0.146    -0.137  0.8559 -0.5166  0.0235
    61 H(1)   Bbb    -0.0007    -0.377    -0.135    -0.126  0.0219  0.0817  0.9964
              Bcc     0.0015     0.787     0.281     0.263  0.5167  0.8523 -0.0812
 
              Baa    -0.0009    -0.474    -0.169    -0.158 -0.3619  0.3258  0.8734
    62 H(1)   Bbb    -0.0007    -0.380    -0.136    -0.127  0.8957 -0.1380  0.4226
              Bcc     0.0016     0.854     0.305     0.285  0.2582  0.9353 -0.2419
 
              Baa    -0.0008    -0.445    -0.159    -0.148  0.3880 -0.2156  0.8961
    63 H(1)   Bbb    -0.0007    -0.364    -0.130    -0.121  0.8794 -0.2043 -0.4300
              Bcc     0.0015     0.809     0.289     0.270  0.2757  0.9549  0.1104
 
              Baa    -0.0200     1.445     0.516     0.482 -0.6985  0.7006  0.1458
    64 O(17)  Bbb     0.0013    -0.097    -0.035    -0.032 -0.0007 -0.2043  0.9789
              Bcc     0.0186    -1.348    -0.481    -0.450  0.7156  0.6837  0.1432
 
              Baa    -0.0080    -4.251    -1.517    -1.418 -0.6209  0.6563 -0.4286
    65 H(1)   Bbb    -0.0071    -3.798    -1.355    -1.267  0.7096  0.7029  0.0483
              Bcc     0.0151     8.049     2.872     2.685 -0.3330  0.2741  0.9022
 
              Baa    -0.0069    -3.659    -1.306    -1.220  0.6956 -0.6776 -0.2388
    66 H(1)   Bbb    -0.0057    -3.025    -1.079    -1.009  0.7071  0.7045  0.0605
              Bcc     0.0125     6.684     2.385     2.229  0.1272 -0.2109  0.9692
 
              Baa    -0.0007    -0.088    -0.032    -0.029  0.8974 -0.3169  0.3071
    67 C(13)  Bbb    -0.0006    -0.076    -0.027    -0.025  0.3175  0.9470  0.0493
              Bcc     0.0012     0.164     0.059     0.055 -0.3065  0.0532  0.9504
 
              Baa    -0.0007    -0.399    -0.143    -0.133  0.7544 -0.5400  0.3732
    68 H(1)   Bbb    -0.0007    -0.371    -0.132    -0.124  0.4804  0.8416  0.2467
              Bcc     0.0014     0.771     0.275     0.257 -0.4473 -0.0067  0.8943
 
              Baa    -0.0006    -0.329    -0.117    -0.110 -0.1918  0.9690 -0.1555
    69 H(1)   Bbb    -0.0006    -0.304    -0.108    -0.101  0.9518  0.2223  0.2114
              Bcc     0.0012     0.633     0.226     0.211 -0.2394  0.1074  0.9650
 
              Baa    -0.0007    -0.351    -0.125    -0.117 -0.4561  0.8889  0.0428
    70 H(1)   Bbb    -0.0006    -0.301    -0.107    -0.100  0.8578  0.4263  0.2870
              Bcc     0.0012     0.652     0.233     0.218 -0.2369 -0.1677  0.9570
 
              Baa    -0.0044    -0.170    -0.061    -0.057  0.9363 -0.1281 -0.3271
    71 N(14)  Bbb    -0.0004    -0.015    -0.005    -0.005  0.3365  0.0598  0.9398
              Bcc     0.0048     0.185     0.066     0.062  0.1008  0.9900 -0.0991
 
              Baa    -0.0013    -0.700    -0.250    -0.234  0.9013 -0.3522 -0.2521
    72 H(1)   Bbb    -0.0010    -0.555    -0.198    -0.185  0.3510  0.9350 -0.0515
              Bcc     0.0024     1.255     0.448     0.419  0.2538 -0.0420  0.9663
 
              Baa    -0.0027    -0.356    -0.127    -0.119 -0.6454  0.6698 -0.3673
    73 C(13)  Bbb    -0.0003    -0.041    -0.015    -0.014  0.7084  0.7047  0.0403
              Bcc     0.0030     0.397     0.142     0.132 -0.2858  0.2342  0.9292
 
              Baa    -0.0110    -1.478    -0.527    -0.493  0.9666  0.0983 -0.2367
    74 C(13)  Bbb     0.0016     0.219     0.078     0.073  0.0898  0.7352  0.6719
              Bcc     0.0094     1.259     0.449     0.420  0.2400 -0.6707  0.7018
 
              Baa    -0.0043    -2.319    -0.827    -0.773 -0.3659  0.8463  0.3871
    75 H(1)   Bbb    -0.0039    -2.082    -0.743    -0.694  0.6792  0.5272 -0.5107
              Bcc     0.0082     4.401     1.570     1.468  0.6363 -0.0760  0.7677
 
              Baa    -0.0169    -0.650    -0.232    -0.217 -0.1019  0.0890  0.9908
    76 N(14)  Bbb     0.0036     0.138     0.049     0.046 -0.3517  0.9285 -0.1196
              Bcc     0.0133     0.513     0.183     0.171  0.9305  0.3606  0.0634
 
              Baa    -0.0058    -0.776    -0.277    -0.259  0.8676  0.4368  0.2376
    77 C(13)  Bbb    -0.0039    -0.521    -0.186    -0.174 -0.3485  0.8750 -0.3362
              Bcc     0.0097     1.297     0.463     0.433 -0.3547  0.2089  0.9113
 
              Baa    -0.0046    -2.458    -0.877    -0.820  0.6561 -0.4578  0.6000
    78 H(1)   Bbb    -0.0041    -2.211    -0.789    -0.738  0.3574  0.8887  0.2872
              Bcc     0.0088     4.669     1.666     1.557 -0.6647  0.0260  0.7467
 

 ---------------------------------------------------------------------------------

 Unable to Open any file for archive entry.
 1\1\GINC-BGN1009\SP\UAPFD\Gen\C34H36Fe1N6O1(1+,2)\BECSLEIP\03-Sep-2024
 \0\\# apfd/gen scf=maxcycle=999 geom=check\\2rbt_III_D\\1,2\Fe,0,11.50
 61458846,-2.8169271971,1.5763648799\N,0,12.1119262966,-1.1717085646,2.
 5495312493\N,0,9.8580506334,-2.8745271758,2.711120081\N,0,10.872888209
 ,-4.4113093511,0.5585503179\N,0,13.1298423094,-2.7144944226,0.40971267
 61\C,0,13.2660044494,-0.4817460059,2.3499745428\C,0,13.3106244727,0.69
 42676899,3.1893397008\C,0,12.1741038379,0.6740832463,3.937136103\C,0,1
 1.4374184385,-0.4988270596,3.5224311237\C,0,9.4985740334,-1.9950883688
 ,3.6857498901\C,0,8.2811151126,-2.4127163949,4.3320846397\C,0,7.903338
 0542,-3.5800763582,3.722641291\C,0,8.8955316319,-3.8320397485,2.694399
 6564\C,0,9.7357416368,-5.123550004,0.7847407892\C,0,9.5520527023,-6.13
 22733431,-0.2277344018\C,0,10.639209503,-6.0469654533,-1.057070617\C,0
 ,11.4579931492,-4.9718661821,-0.5300360309\C,0,13.4946418952,-3.608896
 8734,-0.5453423967\C,0,14.8477423195,-3.3620401684,-0.9929402385\C,0,1
 5.2913650633,-2.289153624,-0.2855106621\C,0,14.2064792121,-1.904771024
 3,0.5912516613\C,0,14.2639620931,-0.8318058102,1.459347037\H,0,15.1575
 887421,-0.2264973351,1.4487515169\C,0,10.2211466617,-0.8737191445,4.05
 88386587\H,0,9.8138518022,-0.2554931307,4.8444907492\C,0,8.8431578631,
 -4.8975448659,1.8180062924\H,0,8.0181414584,-5.5862549787,1.9176134478
 \C,0,12.682302071,-4.6040587496,-1.0577659859\H,0,13.0688484887,-5.187
 48224,-1.8798243917\C,0,11.7064636114,1.639618688,4.972274154\H,0,12.4
 252892886,2.4447952994,5.1028730455\H,0,11.5749277619,1.1394626674,5.9
 322787852\H,0,10.7494058996,2.0772223952,4.6866896125\C,0,14.427958143
 9,1.6806822795,3.1959507888\H,0,14.5690735236,2.1059984661,2.202221829
 4\H,0,15.3612344908,1.2011549223,3.4927916975\H,0,14.224541909,2.49238
 66178,3.8902521558\C,0,7.5706752202,-1.6522592988,5.3975770547\H,0,7.6
 342251208,-0.5807162037,5.2137453279\H,0,8.0058424471,-1.8524407003,6.
 3784312705\H,0,6.5213584755,-1.9391305124,5.4236511199\C,0,6.748678275
 4,-4.410908058,3.9796516879\H,0,6.3307789533,-4.9140528353,3.115499478
 1\C,0,6.1854255089,-4.604356612,5.1681878917\H,0,6.5836555546,-4.17121
 31779,6.0691061175\H,0,5.3155468139,-5.2294754079,5.2841948065\C,0,8.3
 643733762,-7.0228336588,-0.3447933693\H,0,7.4542732217,-6.4881028269,-
 0.077162191\H,0,8.4569252716,-7.8847457041,0.3182820444\H,0,8.26786128
 84,-7.3842613134,-1.3666073533\C,0,10.9529420209,-6.8113630471,-2.2437
 956371\H,0,11.4922888427,-6.2743717135,-3.015804876\C,0,10.6452210958,
 -8.0888230957,-2.4450136342\H,0,10.153525764,-8.6850188017,-1.69637774
 79\H,0,10.9002942934,-8.5915983469,-3.363322782\C,0,15.5493123697,-4.1
 669980739,-2.0327375901\H,0,15.0323755691,-4.0910840235,-2.9898825152\
 H,0,15.5788998798,-5.2190488085,-1.7483781435\H,0,16.5705644146,-3.819
 2489814,-2.1681295087\C,0,16.6146244406,-1.6052624761,-0.3364306876\H,
 0,17.2761714773,-2.0945334447,-1.0471715823\H,0,17.0916636109,-1.61910
 94696,0.6437497084\H,0,16.4963693774,-0.5645851404,-0.6397090981\O,0,1
 0.43,-1.417,0.156\H,0,10.592,-0.526,0.467\H,0,9.927,-1.647,-0.54\C,0,1
 4.6780736825,-6.702116374,4.023544409\H,0,14.9491636857,-7.176036887,3
 .0853844791\H,0,14.1900837552,-7.4403974587,4.6598299227\H,0,15.588097
 1297,-6.369712035,4.523053921\N,0,13.269780936,-4.7659102963,4.7578204
 134\H,0,13.4487205616,-4.8782473263,5.7421715151\C,0,13.7738023409,-5.
 5548557493,3.757225181\C,0,12.4924555647,-3.8209758429,4.182272674\H,0
 ,11.9666302194,-3.0630623545,4.7253095663\N,0,12.4743944343,-3.9631611
 959,2.8790879406\C,0,13.26598739,-5.0383638381,2.5996651107\H,0,13.416
 5120119,-5.3656607478,1.5917563525\\Version=ES64L-G16RevC.02\State=2-A
 \HF=-2983.2106341\S2=0.795756\S2-1=0.\S2A=0.750718\RMSD=3.881e-09\Dipo
 le=0.9391839,-0.2255211,1.26813\Quadrupole=-1.1254144,-1.6987935,2.824
 2078,1.6924723,-3.084004,4.8368167\PG=C01 [X(C34H36Fe1N6O1)]\\@
 The archive entry for this job was punched.


 COMMON SENSE IS NOT SO COMMON.   -- VOLTAIRE
 Job cpu time:       0 days  4 hours 15 minutes 27.2 seconds.
 Elapsed time:       0 days  0 hours  4 minutes 26.1 seconds.
 File lengths (MBytes):  RWF=    430 Int=      0 D2E=      0 Chk=    155 Scr=      1
 Normal termination of Gaussian 16 at Tue Sep  3 04:13:50 2024.
