 Entering Gaussian System, Link 0=g16
 Input=2rbt16re.com
 Output=2rbt16re.log
 Initial command:
 /sw/chem/gaussian/g16_C02/a100/g16/l1.exe "/local/becsleip_8004184/Gau-2085131.inp" -scrdir="/local/becsleip_8004184/"
 Entering Link 1 = /sw/chem/gaussian/g16_C02/a100/g16/l1.exe PID=   2085132.
  
 Copyright (c) 1988-2021, Gaussian, Inc.  All Rights Reserved.
  
 This is part of the Gaussian(R) 16 program.  It is based on
 the Gaussian(R) 09 system (copyright 2009, Gaussian, Inc.),
 the Gaussian(R) 03 system (copyright 2003, Gaussian, Inc.),
 the Gaussian(R) 98 system (copyright 1998, Gaussian, Inc.),
 the Gaussian(R) 94 system (copyright 1995, Gaussian, Inc.),
 the Gaussian 92(TM) system (copyright 1992, Gaussian, Inc.),
 the Gaussian 90(TM) system (copyright 1990, Gaussian, Inc.),
 the Gaussian 88(TM) system (copyright 1988, Gaussian, Inc.),
 the Gaussian 86(TM) system (copyright 1986, Carnegie Mellon
 University), and the Gaussian 82(TM) system (copyright 1983,
 Carnegie Mellon University). Gaussian is a federally registered
 trademark of Gaussian, Inc.
  
 This software contains proprietary and confidential information,
 including trade secrets, belonging to Gaussian, Inc.
  
 This software is provided under written license and may be
 used, copied, transmitted, or stored only in accord with that
 written license.
  
 The following legend is applicable only to US Government
 contracts under FAR:
  
                    RESTRICTED RIGHTS LEGEND
  
 Use, reproduction and disclosure by the US Government is
 subject to restrictions as set forth in subparagraphs (a)
 and (c) of the Commercial Computer Software - Restricted
 Rights clause in FAR 52.227-19.
  
 Gaussian, Inc.
 340 Quinnipiac St., Bldg. 40, Wallingford CT 06492
  
  
 ---------------------------------------------------------------
 Warning -- This program may not be used in any manner that
 competes with the business of Gaussian, Inc. or will provide
 assistance to any competitor of Gaussian, Inc.  The licensee
 of this program is prohibited from giving any competitor of
 Gaussian, Inc. access to this program.  By using this program,
 the user acknowledges that Gaussian, Inc. is engaged in the
 business of creating and licensing software in the field of
 computational chemistry and represents and warrants to the
 licensee that it is not a competitor of Gaussian, Inc. and that
 it will not use this program in any manner prohibited above.
 ---------------------------------------------------------------
  

 Cite this work as:
 Gaussian 16, Revision C.02,
 M. J. Frisch, G. W. Trucks, H. B. Schlegel, G. E. Scuseria, 
 M. A. Robb, J. R. Cheeseman, G. Scalmani, V. Barone, 
 G. A. Petersson, H. Nakatsuji, X. Li, M. Caricato, A. V. Marenich, 
 J. Bloino, B. G. Janesko, R. Gomperts, B. Mennucci, H. P. Hratchian, 
 J. V. Ortiz, A. F. Izmaylov, J. L. Sonnenberg, D. Williams-Young, 
 F. Ding, F. Lipparini, F. Egidi, J. Goings, B. Peng, A. Petrone, 
 T. Henderson, D. Ranasinghe, V. G. Zakrzewski, J. Gao, N. Rega, 
 G. Zheng, W. Liang, M. Hada, M. Ehara, K. Toyota, R. Fukuda, 
 J. Hasegawa, M. Ishida, T. Nakajima, Y. Honda, O. Kitao, H. Nakai, 
 T. Vreven, K. Throssell, J. A. Montgomery, Jr., J. E. Peralta, 
 F. Ogliaro, M. J. Bearpark, J. J. Heyd, E. N. Brothers, K. N. Kudin, 
 V. N. Staroverov, T. A. Keith, R. Kobayashi, J. Normand, 
 K. Raghavachari, A. P. Rendell, J. C. Burant, S. S. Iyengar, 
 J. Tomasi, M. Cossi, J. M. Millam, M. Klene, C. Adamo, R. Cammi, 
 J. W. Ochterski, R. L. Martin, K. Morokuma, O. Farkas, 
 J. B. Foresman, and D. J. Fox, Gaussian, Inc., Wallingford CT, 2019.
 
 ******************************************
 Gaussian 16:  ES64L-G16RevC.02  7-Dec-2021
                 3-Sep-2024 
 ******************************************
 %mem=16GB
 %CPU=0-71
 SetSPE:  set environment variable "OMP_PROC_BIND" = "true"
 SetSPE:  set environment variable "OMP_PLACES" = "{0},{1},{2},{3},{4},{5},{6},{7},{8},{9},{10},{11},{12},{13},{14},{15},{16},{17},{18},{19},{20},{21},{22},{23},{24},{25},{26},{27},{28},{29},{30},{31},{32},{33},{34},{35},{36},{37},{38},{39},{40},{41},{42},{43},{44},{45},{46},{47},{48},{49},{50},{51},{52},{53},{54},{55},{56},{57},{58},{59},{60},{61},{62},{63},{64},{65},{66},{67},{68},{69},{70},{71}"
 Will use up to   72 processors via shared memory.
 %gpucpu=0,1,2,3=0,1,2,3
 Will use    4 GPUs:
 Thread  CPU   GPU
      0    0     0
      1    1     1
      2    2     2
      3    3     3
      4    4    -1
      5    5    -1
      6    6    -1
      7    7    -1
      8    8    -1
      9    9    -1
     10   10    -1
     11   11    -1
     12   12    -1
     13   13    -1
     14   14    -1
     15   15    -1
     16   16    -1
     17   17    -1
     18   18    -1
     19   19    -1
     20   20    -1
     21   21    -1
     22   22    -1
     23   23    -1
     24   24    -1
     25   25    -1
     26   26    -1
     27   27    -1
     28   28    -1
     29   29    -1
     30   30    -1
     31   31    -1
     32   32    -1
     33   33    -1
     34   34    -1
     35   35    -1
     36   36    -1
     37   37    -1
     38   38    -1
     39   39    -1
     40   40    -1
     41   41    -1
     42   42    -1
     43   43    -1
     44   44    -1
     45   45    -1
     46   46    -1
     47   47    -1
     48   48    -1
     49   49    -1
     50   50    -1
     51   51    -1
     52   52    -1
     53   53    -1
     54   54    -1
     55   55    -1
     56   56    -1
     57   57    -1
     58   58    -1
     59   59    -1
     60   60    -1
     61   61    -1
     62   62    -1
     63   63    -1
     64   64    -1
     65   65    -1
     66   66    -1
     67   67    -1
     68   68    -1
     69   69    -1
     70   70    -1
     71   71    -1
 SetGPE:  set environment variable "OMP_PROC_BIND" = "true"
 SetGPE:  set environment variable "OMP_PLACES" = "{0},{1},{2},{3},{4},{5},{6},{7},{8},{9},{10},{11},{12},{13},{14},{15},{16},{17},{18},{19},{20},{21},{22},{23},{24},{25},{26},{27},{28},{29},{30},{31},{32},{33},{34},{35},{36},{37},{38},{39},{40},{41},{42},{43},{44},{45},{46},{47},{48},{49},{50},{51},{52},{53},{54},{55},{56},{57},{58},{59},{60},{61},{62},{63},{64},{65},{66},{67},{68},{69},{70},{71}"
 %oldchk=2rbt_III_D.chk
 %chk=2rbt_III_Dre.chk
 Properties for Device   0
 Minimum vector length:                              32
 Maximum vector length:                            1024
 Number of SMPs:                                    108
 Maximum number of threads per SMP:                2048
 Number of ASync Engines:                             5
 Memory:                                           9207742464
 Properties for Device   1
 Minimum vector length:                              32
 Maximum vector length:                            1024
 Number of SMPs:                                    108
 Maximum number of threads per SMP:                2048
 Number of ASync Engines:                             5
 Memory:                                           9207742464
 Properties for Device   2
 Minimum vector length:                              32
 Maximum vector length:                            1024
 Number of SMPs:                                    108
 Maximum number of threads per SMP:                2048
 Number of ASync Engines:                             5
 Memory:                                           9207742464
 Properties for Device   3
 Minimum vector length:                              32
 Maximum vector length:                            1024
 Number of SMPs:                                    108
 Maximum number of threads per SMP:                2048
 Number of ASync Engines:                             5
 Memory:                                           9207742464
   8286968217 words of memory will be used on each GPU.
 Copying data from "2rbt_III_D.chk" to current chk file "2rbt_III_Dre.chk"
 IOpt=  2 FromEx=T IUOpen= 4 IOptOp= 5 NList=   0 IFRang= 0 IUIn= 4 IUOut= 2.
 --------------------------------------
 # apfd/gen scf=maxcycle=999 geom=check
 --------------------------------------
 1/29=2,38=1,172=1/1;
 2/12=2,40=1/2;
 3/5=7,11=2,14=-4,25=1,30=1,74=-44/1,2,3;
 4//1;
 5/5=2,7=999,38=5/2;
 6/7=2,8=2,9=2,10=2,28=1/1;
 99/5=1,9=1/99;
 ----------
 2rbt_III_H
 ----------
 Structure from the checkpoint file:  "2rbt_III_Dre.chk"
 Charge =  1 Multiplicity = 6
 Z-Matrix found in chk file.
 Fe,0,11.5061458846,-2.8169271971,1.5763648799
 N,0,12.1119262966,-1.1717085646,2.5495312493
 N,0,9.8580506334,-2.8745271758,2.711120081
 N,0,10.872888209,-4.4113093511,0.5585503179
 N,0,13.1298423094,-2.7144944226,0.4097126761
 C,0,13.2660044494,-0.4817460059,2.3499745428
 C,0,13.3106244727,0.6942676899,3.1893397008
 C,0,12.1741038379,0.6740832463,3.937136103
 C,0,11.4374184385,-0.4988270596,3.5224311237
 C,0,9.4985740334,-1.9950883688,3.6857498901
 C,0,8.2811151126,-2.4127163949,4.3320846397
 C,0,7.9033380542,-3.5800763582,3.722641291
 C,0,8.8955316319,-3.8320397485,2.6943996564
 C,0,9.7357416368,-5.123550004,0.7847407892
 C,0,9.5520527023,-6.1322733431,-0.2277344018
 C,0,10.639209503,-6.0469654533,-1.057070617
 C,0,11.4579931492,-4.9718661821,-0.5300360309
 C,0,13.4946418952,-3.6088968734,-0.5453423967
 C,0,14.8477423195,-3.3620401684,-0.9929402385
 C,0,15.2913650633,-2.289153624,-0.2855106621
 C,0,14.2064792121,-1.9047710243,0.5912516613
 C,0,14.2639620931,-0.8318058102,1.459347037
 H,0,15.1575887421,-0.2264973351,1.4487515169
 C,0,10.2211466617,-0.8737191445,4.0588386587
 H,0,9.8138518022,-0.2554931307,4.8444907492
 C,0,8.8431578631,-4.8975448659,1.8180062924
 H,0,8.0181414584,-5.5862549787,1.9176134478
 C,0,12.682302071,-4.6040587496,-1.0577659859
 H,0,13.0688484887,-5.18748224,-1.8798243917
 C,0,11.7064636114,1.639618688,4.972274154
 H,0,12.4252892886,2.4447952994,5.1028730455
 H,0,11.5749277619,1.1394626674,5.9322787852
 H,0,10.7494058996,2.0772223952,4.6866896125
 C,0,14.4279581439,1.6806822795,3.1959507888
 H,0,14.5690735236,2.1059984661,2.2022218294
 H,0,15.3612344908,1.2011549223,3.4927916975
 H,0,14.224541909,2.4923866178,3.8902521558
 C,0,7.5706752202,-1.6522592988,5.3975770547
 H,0,7.6342251208,-0.5807162037,5.2137453279
 H,0,8.0058424471,-1.8524407003,6.3784312705
 H,0,6.5213584755,-1.9391305124,5.4236511199
 C,0,6.7486782754,-4.410908058,3.9796516879
 H,0,6.3307789533,-4.9140528353,3.1154994781
 C,0,6.1854255089,-4.604356612,5.1681878917
 H,0,6.5836555546,-4.1712131779,6.0691061175
 H,0,5.3155468139,-5.2294754079,5.2841948065
 C,0,8.3643733762,-7.0228336588,-0.3447933693
 H,0,7.4542732217,-6.4881028269,-0.077162191
 H,0,8.4569252716,-7.8847457041,0.3182820444
 H,0,8.2678612884,-7.3842613134,-1.3666073533
 C,0,10.9529420209,-6.8113630471,-2.2437956371
 H,0,11.4922888427,-6.2743717135,-3.015804876
 C,0,10.6452210958,-8.0888230957,-2.4450136342
 H,0,10.153525764,-8.6850188017,-1.6963777479
 H,0,10.9002942934,-8.5915983469,-3.363322782
 C,0,15.5493123697,-4.1669980739,-2.0327375901
 H,0,15.0323755691,-4.0910840235,-2.9898825152
 H,0,15.5788998798,-5.2190488085,-1.7483781435
 H,0,16.5705644146,-3.8192489814,-2.1681295087
 C,0,16.6146244406,-1.6052624761,-0.3364306876
 H,0,17.2761714773,-2.0945334447,-1.0471715823
 H,0,17.0916636109,-1.6191094696,0.6437497084
 H,0,16.4963693774,-0.5645851404,-0.6397090981
 O,0,10.43,-1.417,0.156
 H,0,10.592,-0.526,0.467
 H,0,9.927,-1.647,-0.54
 C,0,14.6780736825,-6.702116374,4.023544409
 H,0,14.9491636857,-7.176036887,3.0853844791
 H,0,14.1900837552,-7.4403974587,4.6598299227
 H,0,15.5880971297,-6.369712035,4.523053921
 N,0,13.269780936,-4.7659102963,4.7578204134
 H,0,13.4487205616,-4.8782473263,5.7421715151
 C,0,13.7738023409,-5.5548557493,3.757225181
 C,0,12.4924555647,-3.8209758429,4.182272674
 H,0,11.9666302194,-3.0630623545,4.7253095663
 N,0,12.4743944343,-3.9631611959,2.8790879406
 C,0,13.26598739,-5.0383638381,2.5996651107
 H,0,13.4165120119,-5.3656607478,1.5917563525
 Recover connectivity data from disk.
 Stoichiometry    C34H36FeN6O(1+,6)
 Framework group  C1[X(C34H36FeN6O)]
 Deg. of freedom   228
 Full point group                 C1      NOp   1
 Largest Abelian subgroup         C1      NOp   1
 Largest concise Abelian subgroup C1      NOp   1
                         Standard orientation:                         
 ---------------------------------------------------------------------
 Center     Atomic      Atomic             Coordinates (Angstroms)
 Number     Number       Type             X           Y           Z
 ---------------------------------------------------------------------
      1         26           0        0.075010   -0.163408   -0.442941
      2          7           0        1.467900   -1.605771   -0.457515
      3          7           0        1.518391    1.222066   -0.377218
      4          7           0       -1.311396    1.269624   -0.500504
      5          7           0       -1.357117   -1.556792   -0.567261
      6          6           0        1.255038   -2.948236   -0.473165
      7          6           0        2.507954   -3.663887   -0.560221
      8          6           0        3.488810   -2.720966   -0.549846
      9          6           0        2.819311   -1.441070   -0.486283
     10          6           0        2.862972    1.010849   -0.382476
     11          6           0        3.579461    2.253008   -0.248112
     12          6           0        2.630041    3.236649   -0.159127
     13          6           0        1.348680    2.564786   -0.268340
     14          6           0       -1.098121    2.612427   -0.446226
     15          6           0       -2.329792    3.335781   -0.636267
     16          6           0       -3.314598    2.391677   -0.762009
     17          6           0       -2.649699    1.106920   -0.655630
     18          6           0       -2.697819   -1.340450   -0.537628
     19          6           0       -3.417410   -2.584853   -0.376962
     20          6           0       -2.474851   -3.562651   -0.315012
     21          6           0       -1.194056   -2.899007   -0.427170
     22          6           0        0.017311   -3.562884   -0.429355
     23          1           0       -0.002580   -4.641153   -0.384423
     24          6           0        3.478789   -0.228042   -0.450979
     25          1           0        4.558067   -0.249931   -0.455673
     26          6           0        0.133407    3.219912   -0.273822
     27          1           0        0.144970    4.294987   -0.179087
     28          6           0       -3.309933   -0.108125   -0.677316
     29          1           0       -4.388284   -0.091213   -0.726858
     30          6           0        4.968077   -2.895143   -0.612211
     31          1           0        5.231497   -3.948657   -0.665056
     32          1           0        5.442557   -2.467844    0.271729
     33          1           0        5.378361   -2.394572   -1.489771
     34          6           0        2.625762   -5.148360   -0.623085
     35          1           0        2.081086   -5.539599   -1.482483
     36          1           0        2.209624   -5.604586    0.275666
     37          1           0        3.666369   -5.451444   -0.710115
     38          6           0        5.061556    2.396674   -0.280505
     39          1           0        5.500365    1.702757   -0.996021
     40          1           0        5.496758    2.190833    0.699161
     41          1           0        5.331511    3.410611   -0.568769
     42          6           0        2.806518    4.664922   -0.023234
     43          1           0        2.057297    5.278780   -0.509444
     44          6           0        3.788464    5.261741    0.645260
     45          1           0        4.533204    4.706285    1.188109
     46          1           0        3.865093    6.335354    0.694281
     47          6           0       -2.447321    4.816893   -0.735650
     48          1           0       -1.596585    5.235587   -1.271179
     49          1           0       -2.479733    5.272460    0.255579
     50          1           0       -3.358635    5.084416   -1.266673
     51          6           0       -4.732171    2.565838   -0.988290
     52          1           0       -5.208329    1.793853   -1.582063
     53          6           0       -5.471913    3.568925   -0.526030
     54          1           0       -5.064565    4.337347    0.107424
     55          1           0       -6.524144    3.640959   -0.746841
     56          6           0       -4.902078   -2.694252   -0.305345
     57          1           0       -5.357278   -2.348150   -1.233849
     58          1           0       -5.292962   -2.084232    0.509291
     59          1           0       -5.207012   -3.724629   -0.139353
     60          6           0       -2.648658   -5.033642   -0.149810
     61          1           0       -3.700752   -5.290837   -0.054241
     62          1           0       -2.126335   -5.384119    0.740614
     63          1           0       -2.243229   -5.566172   -1.010630
     64          8           0        0.239144   -0.168585   -2.703108
     65          1           0        0.900530   -0.821745   -2.932883
     66          1           0       -0.201280    0.355029   -3.270717
     67          6           0       -1.546356   -0.334785    4.894316
     68          1           0       -2.603272   -0.293290    4.650514
     69          1           0       -1.301948    0.512529    5.534923
     70          1           0       -1.351915   -1.251024    5.451850
     71          7           0        0.623165   -0.339504    3.643515
     72          1           0        1.210326   -0.391889    4.459654
     73          6           0       -0.746512   -0.298880    3.643796
     74          6           0        1.034168   -0.292627    2.356165
     75          1           0        2.060401   -0.308576    2.052180
     76          7           0        0.008713   -0.225654    1.542046
     77          6           0       -1.105930   -0.227524    2.328383
     78          1           0       -2.084788   -0.178312    1.898176
 ---------------------------------------------------------------------
 Rotational constants (GHZ):           0.0939675           0.0919206           0.0593727
 General basis read from cards:  (5D, 7F)
 There are   723 symmetry adapted cartesian basis functions of A   symmetry.
 There are   679 symmetry adapted basis functions of A   symmetry.
   679 basis functions,  1378 primitive gaussians,   723 cartesian basis functions
   160 alpha electrons      155 beta electrons
       nuclear repulsion energy      5976.0727797239 Hartrees.
 NAtoms=   78 NActive=   78 NUniq=   78 SFac= 1.00D+00 NAtFMM=   60 NAOKFM=T Big=T
 Integral buffers will be    131072 words long.
 Raffenetti 2 integral format.
 Two-electron integral symmetry is turned on.
 R6APFD:  NTU= -4 IXU= 1 FactS= 1.050
 Nuclear repulsion after empirical dispersion term =     5975.9193834685 Hartrees.
 One-electron integrals computed using PRISM.
 NBasis=   679 RedAO= T EigKep=  2.56D-04  NBF=   679
 NBsUse=   679 1.00D-06 EigRej= -1.00D+00 NBFU=   679
 ExpMin= 4.20D-02 ExpMax= 3.01D+05 ExpMxC= 2.91D+03 IAcc=3 IRadAn=         5 AccDes= 0.00D+00
 Harris functional with IExCor= 3731 and IRadAn=       5 diagonalized for initial guess.
 HarFok:  IExCor= 3731 AccDes= 0.00D+00 IRadAn=         5 IDoV= 1 UseB2=F ITyADJ=14
 ICtDFT=  3500011 ScaDFX=  1.000000  1.000000  1.000000  1.000000
 FoFCou: FMM=F IPFlag=           0 FMFlag=      100000 FMFlg1=        2001
         NFxFlg=           0 DoJE=T BraDBF=F KetDBF=T FulRan=T
         wScrn=  0.000000 ICntrl=       500 IOpCl=  0 I1Cent=   200000004 NGrid=           0
         NMat0=    1 NMatS0=      1 NMatT0=    0 NMatD0=    1 NMtDS0=    0 NMtDT0=    0
 Petite list used in FoFCou.
 Initial guess <Sx>= 0.0000 <Sy>= 0.0000 <Sz>= 2.5000 <S**2>= 8.7500 S= 2.5000
 Requested convergence on RMS density matrix=1.00D-08 within 999 cycles.
 Requested convergence on MAX density matrix=1.00D-06.
 Requested convergence on             energy=1.00D-06.
 No special actions if energy rises.
 EnCoef did   100 forward-backward iterations
 EnCoef did   100 forward-backward iterations
 EnCoef did   100 forward-backward iterations
 EnCoef did   100 forward-backward iterations
 EnCoef did     2 forward-backward iterations
 Restarting incremental Fock formation.
 SCF Done:  E(UAPFD) =  -2983.20995227     A.U. after   31 cycles
            NFock= 31  Conv=0.74D-08     -V/T= 2.0034
 <Sx>= 0.0000 <Sy>= 0.0000 <Sz>= 2.5000 <S**2>= 8.7584 S= 2.5014
 <L.S>=  0.00000000000    
 Annihilation of the first spin contaminant:
 S**2 before annihilation     8.7584,   after     8.7500

 **********************************************************************

            Population analysis using the SCF Density.

 **********************************************************************

 Orbital symmetries:
 Alpha Orbitals:
       Occupied  (A) (A) (A) (A) (A) (A) (A) (A) (A) (A) (A) (A)
                 (A) (A) (A) (A) (A) (A) (A) (A) (A) (A) (A) (A)
                 (A) (A) (A) (A) (A) (A) (A) (A) (A) (A) (A) (A)
                 (A) (A) (A) (A) (A) (A) (A) (A) (A) (A) (A) (A)
                 (A) (A) (A) (A) (A) (A) (A) (A) (A) (A) (A) (A)
                 (A) (A) (A) (A) (A) (A) (A) (A) (A) (A) (A) (A)
                 (A) (A) (A) (A) (A) (A) (A) (A) (A) (A) (A) (A)
                 (A) (A) (A) (A) (A) (A) (A) (A) (A) (A) (A) (A)
                 (A) (A) (A) (A) (A) (A) (A) (A) (A) (A) (A) (A)
                 (A) (A) (A) (A) (A) (A) (A) (A) (A) (A) (A) (A)
                 (A) (A) (A) (A) (A) (A) (A) (A) (A) (A) (A) (A)
                 (A) (A) (A) (A) (A) (A) (A) (A) (A) (A) (A) (A)
                 (A) (A) (A) (A) (A) (A) (A) (A) (A) (A) (A) (A)
                 (A) (A) (A) (A)
       Virtual   (A) (A) (A) (A) (A) (A) (A) (A) (A) (A) (A) (A)
                 (A) (A) (A) (A) (A) (A) (A) (A) (A) (A) (A) (A)
                 (A) (A) (A) (A) (A) (A) (A) (A) (A) (A) (A) (A)
                 (A) (A) (A) (A) (A) (A) (A) (A) (A) (A) (A) (A)
                 (A) (A) (A) (A) (A) (A) (A) (A) (A) (A) (A) (A)
                 (A) (A) (A) (A) (A) (A) (A) (A) (A) (A) (A) (A)
                 (A) (A) (A) (A) (A) (A) (A) (A) (A) (A) (A) (A)
                 (A) (A) (A) (A) (A) (A) (A) (A) (A) (A) (A) (A)
                 (A) (A) (A) (A) (A) (A) (A) (A) (A) (A) (A) (A)
                 (A) (A) (A) (A) (A) (A) (A) (A) (A) (A) (A) (A)
                 (A) (A) (A) (A) (A) (A) (A) (A) (A) (A) (A) (A)
                 (A) (A) (A) (A) (A) (A) (A) (A) (A) (A) (A) (A)
                 (A) (A) (A) (A) (A) (A) (A) (A) (A) (A) (A) (A)
                 (A) (A) (A) (A) (A) (A) (A) (A) (A) (A) (A) (A)
                 (A) (A) (A) (A) (A) (A) (A) (A) (A) (A) (A) (A)
                 (A) (A) (A) (A) (A) (A) (A) (A) (A) (A) (A) (A)
                 (A) (A) (A) (A) (A) (A) (A) (A) (A) (A) (A) (A)
                 (A) (A) (A) (A) (A) (A) (A) (A) (A) (A) (A) (A)
                 (A) (A) (A) (A) (A) (A) (A) (A) (A) (A) (A) (A)
                 (A) (A) (A) (A) (A) (A) (A) (A) (A) (A) (A) (A)
                 (A) (A) (A) (A) (A) (A) (A) (A) (A) (A) (A) (A)
                 (A) (A) (A) (A) (A) (A) (A) (A) (A) (A) (A) (A)
                 (A) (A) (A) (A) (A) (A) (A) (A) (A) (A) (A) (A)
                 (A) (A) (A) (A) (A) (A) (A) (A) (A) (A) (A) (A)
                 (A) (A) (A) (A) (A) (A) (A) (A) (A) (A) (A) (A)
                 (A) (A) (A) (A) (A) (A) (A) (A) (A) (A) (A) (A)
                 (A) (A) (A) (A) (A) (A) (A) (A) (A) (A) (A) (A)
                 (A) (A) (A) (A) (A) (A) (A) (A) (A) (A) (A) (A)
                 (A) (A) (A) (A) (A) (A) (A) (A) (A) (A) (A) (A)
                 (A) (A) (A) (A) (A) (A) (A) (A) (A) (A) (A) (A)
                 (A) (A) (A) (A) (A) (A) (A) (A) (A) (A) (A) (A)
                 (A) (A) (A) (A) (A) (A) (A) (A) (A) (A) (A) (A)
                 (A) (A) (A) (A) (A) (A) (A) (A) (A) (A) (A) (A)
                 (A) (A) (A) (A) (A) (A) (A) (A) (A) (A) (A) (A)
                 (A) (A) (A) (A) (A) (A) (A) (A) (A) (A) (A) (A)
                 (A) (A) (A) (A) (A) (A) (A) (A) (A) (A) (A) (A)
                 (A) (A) (A) (A) (A) (A) (A) (A) (A) (A) (A) (A)
                 (A) (A) (A) (A) (A) (A) (A) (A) (A) (A) (A) (A)
                 (A) (A) (A) (A) (A) (A) (A) (A) (A) (A) (A) (A)
                 (A) (A) (A) (A) (A) (A) (A) (A) (A) (A) (A) (A)
                 (A) (A) (A) (A) (A) (A) (A) (A) (A) (A) (A) (A)
                 (A) (A) (A) (A) (A) (A) (A) (A) (A) (A) (A) (A)
                 (A) (A) (A) (A) (A) (A) (A) (A) (A) (A) (A) (A)
                 (A) (A) (A)
 Beta  Orbitals:
       Occupied  (A) (A) (A) (A) (A) (A) (A) (A) (A) (A) (A) (A)
                 (A) (A) (A) (A) (A) (A) (A) (A) (A) (A) (A) (A)
                 (A) (A) (A) (A) (A) (A) (A) (A) (A) (A) (A) (A)
                 (A) (A) (A) (A) (A) (A) (A) (A) (A) (A) (A) (A)
                 (A) (A) (A) (A) (A) (A) (A) (A) (A) (A) (A) (A)
                 (A) (A) (A) (A) (A) (A) (A) (A) (A) (A) (A) (A)
                 (A) (A) (A) (A) (A) (A) (A) (A) (A) (A) (A) (A)
                 (A) (A) (A) (A) (A) (A) (A) (A) (A) (A) (A) (A)
                 (A) (A) (A) (A) (A) (A) (A) (A) (A) (A) (A) (A)
                 (A) (A) (A) (A) (A) (A) (A) (A) (A) (A) (A) (A)
                 (A) (A) (A) (A) (A) (A) (A) (A) (A) (A) (A) (A)
                 (A) (A) (A) (A) (A) (A) (A) (A) (A) (A) (A) (A)
                 (A) (A) (A) (A) (A) (A) (A) (A) (A) (A) (A)
       Virtual   (A) (A) (A) (A) (A) (A) (A) (A) (A) (A) (A) (A)
                 (A) (A) (A) (A) (A) (A) (A) (A) (A) (A) (A) (A)
                 (A) (A) (A) (A) (A) (A) (A) (A) (A) (A) (A) (A)
                 (A) (A) (A) (A) (A) (A) (A) (A) (A) (A) (A) (A)
                 (A) (A) (A) (A) (A) (A) (A) (A) (A) (A) (A) (A)
                 (A) (A) (A) (A) (A) (A) (A) (A) (A) (A) (A) (A)
                 (A) (A) (A) (A) (A) (A) (A) (A) (A) (A) (A) (A)
                 (A) (A) (A) (A) (A) (A) (A) (A) (A) (A) (A) (A)
                 (A) (A) (A) (A) (A) (A) (A) (A) (A) (A) (A) (A)
                 (A) (A) (A) (A) (A) (A) (A) (A) (A) (A) (A) (A)
                 (A) (A) (A) (A) (A) (A) (A) (A) (A) (A) (A) (A)
                 (A) (A) (A) (A) (A) (A) (A) (A) (A) (A) (A) (A)
                 (A) (A) (A) (A) (A) (A) (A) (A) (A) (A) (A) (A)
                 (A) (A) (A) (A) (A) (A) (A) (A) (A) (A) (A) (A)
                 (A) (A) (A) (A) (A) (A) (A) (A) (A) (A) (A) (A)
                 (A) (A) (A) (A) (A) (A) (A) (A) (A) (A) (A) (A)
                 (A) (A) (A) (A) (A) (A) (A) (A) (A) (A) (A) (A)
                 (A) (A) (A) (A) (A) (A) (A) (A) (A) (A) (A) (A)
                 (A) (A) (A) (A) (A) (A) (A) (A) (A) (A) (A) (A)
                 (A) (A) (A) (A) (A) (A) (A) (A) (A) (A) (A) (A)
                 (A) (A) (A) (A) (A) (A) (A) (A) (A) (A) (A) (A)
                 (A) (A) (A) (A) (A) (A) (A) (A) (A) (A) (A) (A)
                 (A) (A) (A) (A) (A) (A) (A) (A) (A) (A) (A) (A)
                 (A) (A) (A) (A) (A) (A) (A) (A) (A) (A) (A) (A)
                 (A) (A) (A) (A) (A) (A) (A) (A) (A) (A) (A) (A)
                 (A) (A) (A) (A) (A) (A) (A) (A) (A) (A) (A) (A)
                 (A) (A) (A) (A) (A) (A) (A) (A) (A) (A) (A) (A)
                 (A) (A) (A) (A) (A) (A) (A) (A) (A) (A) (A) (A)
                 (A) (A) (A) (A) (A) (A) (A) (A) (A) (A) (A) (A)
                 (A) (A) (A) (A) (A) (A) (A) (A) (A) (A) (A) (A)
                 (A) (A) (A) (A) (A) (A) (A) (A) (A) (A) (A) (A)
                 (A) (A) (A) (A) (A) (A) (A) (A) (A) (A) (A) (A)
                 (A) (A) (A) (A) (A) (A) (A) (A) (A) (A) (A) (A)
                 (A) (A) (A) (A) (A) (A) (A) (A) (A) (A) (A) (A)
                 (A) (A) (A) (A) (A) (A) (A) (A) (A) (A) (A) (A)
                 (A) (A) (A) (A) (A) (A) (A) (A) (A) (A) (A) (A)
                 (A) (A) (A) (A) (A) (A) (A) (A) (A) (A) (A) (A)
                 (A) (A) (A) (A) (A) (A) (A) (A) (A) (A) (A) (A)
                 (A) (A) (A) (A) (A) (A) (A) (A) (A) (A) (A) (A)
                 (A) (A) (A) (A) (A) (A) (A) (A) (A) (A) (A) (A)
                 (A) (A) (A) (A) (A) (A) (A) (A) (A) (A) (A) (A)
                 (A) (A) (A) (A) (A) (A) (A) (A) (A) (A) (A) (A)
                 (A) (A) (A) (A) (A) (A) (A) (A) (A) (A) (A) (A)
                 (A) (A) (A) (A) (A) (A) (A) (A)
 The electronic state is 6-A.
 Alpha  occ. eigenvalues -- -256.41427 -30.32539 -26.15540 -26.15423 -26.15383
 Alpha  occ. eigenvalues --  -19.29899 -14.53674 -14.48864 -14.46112 -14.46042
 Alpha  occ. eigenvalues --  -14.45858 -14.45674 -10.37709 -10.34908 -10.33303
 Alpha  occ. eigenvalues --  -10.33199 -10.33162 -10.33138 -10.33126 -10.33047
 Alpha  occ. eigenvalues --  -10.32955 -10.32928 -10.32293 -10.30286 -10.30234
 Alpha  occ. eigenvalues --  -10.30233 -10.30220 -10.30145 -10.30143 -10.29960
 Alpha  occ. eigenvalues --  -10.29951 -10.29946 -10.29928 -10.29899 -10.29878
 Alpha  occ. eigenvalues --  -10.29876 -10.29236 -10.29201 -10.28358 -10.28237
 Alpha  occ. eigenvalues --  -10.28069 -10.28045 -10.27994 -10.27972 -10.27894
 Alpha  occ. eigenvalues --  -10.27842  -3.78073  -2.54717  -2.54650  -2.54574
 Alpha  occ. eigenvalues --   -1.16525  -1.16428  -1.08825  -1.07897  -1.07666
 Alpha  occ. eigenvalues --   -1.06807  -1.02315  -0.93261  -0.92038  -0.91753
 Alpha  occ. eigenvalues --   -0.91285  -0.90932  -0.90484  -0.90400  -0.90260
 Alpha  occ. eigenvalues --   -0.86532  -0.85306  -0.84962  -0.84137  -0.82792
 Alpha  occ. eigenvalues --   -0.81856  -0.81038  -0.80090  -0.78495  -0.78245
 Alpha  occ. eigenvalues --   -0.78047  -0.75746  -0.74893  -0.74822  -0.72169
 Alpha  occ. eigenvalues --   -0.71990  -0.70569  -0.69953  -0.68552  -0.68138
 Alpha  occ. eigenvalues --   -0.66652  -0.64952  -0.64289  -0.63716  -0.63520
 Alpha  occ. eigenvalues --   -0.61820  -0.61686  -0.61505  -0.61187  -0.59969
 Alpha  occ. eigenvalues --   -0.58372  -0.58194  -0.58040  -0.57853  -0.56281
 Alpha  occ. eigenvalues --   -0.55938  -0.55793  -0.55663  -0.54936  -0.54649
 Alpha  occ. eigenvalues --   -0.54386  -0.54119  -0.53532  -0.53325  -0.53156
 Alpha  occ. eigenvalues --   -0.52957  -0.52923  -0.52745  -0.52601  -0.52064
 Alpha  occ. eigenvalues --   -0.51967  -0.51564  -0.51493  -0.51459  -0.50915
 Alpha  occ. eigenvalues --   -0.50585  -0.50325  -0.49900  -0.49856  -0.49543
 Alpha  occ. eigenvalues --   -0.49407  -0.49061  -0.48928  -0.48688  -0.48454
 Alpha  occ. eigenvalues --   -0.48388  -0.48143  -0.47642  -0.47490  -0.46754
 Alpha  occ. eigenvalues --   -0.46718  -0.46048  -0.45574  -0.45106  -0.44647
 Alpha  occ. eigenvalues --   -0.44314  -0.43567  -0.43287  -0.42586  -0.42286
 Alpha  occ. eigenvalues --   -0.41783  -0.41004  -0.39400  -0.38954  -0.37529
 Alpha  occ. eigenvalues --   -0.36973  -0.36908  -0.34301  -0.33528  -0.33197
 Alpha  occ. eigenvalues --   -0.32231  -0.32035  -0.31706  -0.29098  -0.28357
 Alpha virt. eigenvalues --   -0.17160  -0.17093  -0.11451  -0.08530  -0.07791
 Alpha virt. eigenvalues --   -0.06505  -0.04685  -0.04155  -0.03760  -0.01707
 Alpha virt. eigenvalues --   -0.01332  -0.00633   0.00983   0.01297   0.02071
 Alpha virt. eigenvalues --    0.02518   0.03241   0.03753   0.04130   0.04327
 Alpha virt. eigenvalues --    0.04707   0.04938   0.05045   0.05359   0.05788
 Alpha virt. eigenvalues --    0.05872   0.06508   0.06584   0.06796   0.07018
 Alpha virt. eigenvalues --    0.07629   0.07675   0.08012   0.08184   0.08591
 Alpha virt. eigenvalues --    0.08711   0.09172   0.09545   0.09660   0.09738
 Alpha virt. eigenvalues --    0.09945   0.10323   0.10472   0.10725   0.11495
 Alpha virt. eigenvalues --    0.11875   0.12073   0.12211   0.12512   0.12982
 Alpha virt. eigenvalues --    0.13138   0.13425   0.13697   0.13999   0.15009
 Alpha virt. eigenvalues --    0.15196   0.15541   0.15962   0.16402   0.16873
 Alpha virt. eigenvalues --    0.16944   0.17284   0.17999   0.18047   0.18170
 Alpha virt. eigenvalues --    0.19606   0.20120   0.20884   0.21525   0.21669
 Alpha virt. eigenvalues --    0.22837   0.23224   0.23654   0.25008   0.25659
 Alpha virt. eigenvalues --    0.25807   0.26162   0.26998   0.27349   0.28796
 Alpha virt. eigenvalues --    0.29322   0.30161   0.30647   0.31682   0.32819
 Alpha virt. eigenvalues --    0.33533   0.33901   0.34294   0.34422   0.35577
 Alpha virt. eigenvalues --    0.37439   0.37856   0.38289   0.38919   0.39097
 Alpha virt. eigenvalues --    0.39782   0.40086   0.40600   0.41200   0.41601
 Alpha virt. eigenvalues --    0.41698   0.42152   0.42905   0.43089   0.43478
 Alpha virt. eigenvalues --    0.43771   0.44113   0.44765   0.45155   0.45480
 Alpha virt. eigenvalues --    0.45609   0.45833   0.46358   0.46486   0.46928
 Alpha virt. eigenvalues --    0.47947   0.48271   0.48813   0.48985   0.49402
 Alpha virt. eigenvalues --    0.49829   0.50564   0.50728   0.50969   0.51356
 Alpha virt. eigenvalues --    0.52189   0.52463   0.52881   0.52904   0.53585
 Alpha virt. eigenvalues --    0.54216   0.54269   0.54799   0.55544   0.55770
 Alpha virt. eigenvalues --    0.55982   0.56198   0.56369   0.56880   0.57207
 Alpha virt. eigenvalues --    0.57611   0.57701   0.58047   0.58205   0.58421
 Alpha virt. eigenvalues --    0.59729   0.60060   0.60648   0.61256   0.61448
 Alpha virt. eigenvalues --    0.61881   0.62638   0.62933   0.63247   0.63423
 Alpha virt. eigenvalues --    0.64202   0.64799   0.65339   0.66052   0.66440
 Alpha virt. eigenvalues --    0.66759   0.67049   0.67781   0.68004   0.68434
 Alpha virt. eigenvalues --    0.68605   0.69034   0.69300   0.69464   0.69551
 Alpha virt. eigenvalues --    0.70122   0.70355   0.71037   0.71523   0.72100
 Alpha virt. eigenvalues --    0.72905   0.73779   0.73895   0.74623   0.75103
 Alpha virt. eigenvalues --    0.76173   0.76664   0.76750   0.77350   0.77864
 Alpha virt. eigenvalues --    0.78349   0.78529   0.78715   0.79068   0.79343
 Alpha virt. eigenvalues --    0.79770   0.80001   0.80579   0.81064   0.81236
 Alpha virt. eigenvalues --    0.81661   0.82105   0.82369   0.82877   0.83241
 Alpha virt. eigenvalues --    0.83595   0.83968   0.84277   0.84605   0.84761
 Alpha virt. eigenvalues --    0.85503   0.85771   0.85874   0.86573   0.86891
 Alpha virt. eigenvalues --    0.87333   0.87524   0.87903   0.88264   0.88498
 Alpha virt. eigenvalues --    0.89121   0.89751   0.90030   0.90373   0.90832
 Alpha virt. eigenvalues --    0.91006   0.91508   0.92018   0.92297   0.92501
 Alpha virt. eigenvalues --    0.93006   0.93373   0.93588   0.94238   0.94945
 Alpha virt. eigenvalues --    0.95397   0.96422   0.96804   0.96962   0.97594
 Alpha virt. eigenvalues --    0.97840   0.98410   0.99262   0.99898   1.01123
 Alpha virt. eigenvalues --    1.01725   1.02706   1.04185   1.04617   1.05020
 Alpha virt. eigenvalues --    1.05376   1.06285   1.07446   1.08092   1.08139
 Alpha virt. eigenvalues --    1.08432   1.09275   1.10019   1.10134   1.10671
 Alpha virt. eigenvalues --    1.10798   1.11181   1.11670   1.12057   1.12820
 Alpha virt. eigenvalues --    1.13121   1.14246   1.15047   1.15655   1.17262
 Alpha virt. eigenvalues --    1.17767   1.18211   1.19299   1.19823   1.20710
 Alpha virt. eigenvalues --    1.20739   1.22131   1.22358   1.22902   1.23541
 Alpha virt. eigenvalues --    1.23780   1.25038   1.25977   1.26753   1.27258
 Alpha virt. eigenvalues --    1.27452   1.27744   1.27930   1.28125   1.28729
 Alpha virt. eigenvalues --    1.28947   1.29530   1.30356   1.31579   1.32400
 Alpha virt. eigenvalues --    1.33255   1.33438   1.34236   1.35201   1.35383
 Alpha virt. eigenvalues --    1.37082   1.37351   1.38002   1.39144   1.39707
 Alpha virt. eigenvalues --    1.39982   1.40464   1.41994   1.42317   1.43295
 Alpha virt. eigenvalues --    1.43475   1.44405   1.45033   1.45645   1.46191
 Alpha virt. eigenvalues --    1.47346   1.48715   1.49819   1.50912   1.51554
 Alpha virt. eigenvalues --    1.52621   1.53199   1.54181   1.54411   1.55571
 Alpha virt. eigenvalues --    1.56108   1.57351   1.57918   1.59364   1.60449
 Alpha virt. eigenvalues --    1.60609   1.61745   1.62392   1.63941   1.65102
 Alpha virt. eigenvalues --    1.65492   1.68919   1.69566   1.70352   1.70650
 Alpha virt. eigenvalues --    1.71274   1.71536   1.71877   1.72401   1.72705
 Alpha virt. eigenvalues --    1.72812   1.72889   1.74023   1.74579   1.75051
 Alpha virt. eigenvalues --    1.75690   1.76406   1.76948   1.77521   1.77957
 Alpha virt. eigenvalues --    1.78635   1.79572   1.80073   1.80550   1.81280
 Alpha virt. eigenvalues --    1.81570   1.82658   1.83405   1.83735   1.84505
 Alpha virt. eigenvalues --    1.84936   1.85311   1.85657   1.86048   1.86883
 Alpha virt. eigenvalues --    1.87934   1.88459   1.88890   1.90537   1.90741
 Alpha virt. eigenvalues --    1.91169   1.91669   1.92028   1.93790   1.94573
 Alpha virt. eigenvalues --    1.95140   1.95575   1.96011   1.96417   1.96604
 Alpha virt. eigenvalues --    1.97501   1.97924   1.98927   1.99205   2.00365
 Alpha virt. eigenvalues --    2.01777   2.02145   2.02981   2.03601   2.04448
 Alpha virt. eigenvalues --    2.05273   2.06189   2.06666   2.07060   2.07111
 Alpha virt. eigenvalues --    2.08279   2.08918   2.09484   2.11310   2.12112
 Alpha virt. eigenvalues --    2.12416   2.13160   2.13535   2.13752   2.14294
 Alpha virt. eigenvalues --    2.15205   2.16131   2.16381   2.17025   2.17429
 Alpha virt. eigenvalues --    2.17550   2.18057   2.18842   2.19181   2.19662
 Alpha virt. eigenvalues --    2.20202   2.20395   2.20727   2.21177   2.22400
 Alpha virt. eigenvalues --    2.22551   2.23317   2.24380   2.24690   2.25389
 Alpha virt. eigenvalues --    2.25432   2.26252   2.27175   2.27463   2.27891
 Alpha virt. eigenvalues --    2.28586   2.28938   2.29283   2.29932   2.31224
 Alpha virt. eigenvalues --    2.31546   2.32529   2.32800   2.33085   2.33494
 Alpha virt. eigenvalues --    2.34265   2.34510   2.35143   2.35372   2.36454
 Alpha virt. eigenvalues --    2.36999   2.39049   2.39863   2.40349   2.42636
 Alpha virt. eigenvalues --    2.43089   2.43385   2.43571   2.43942   2.44954
 Alpha virt. eigenvalues --    2.45355   2.45965   2.47208   2.47332   2.47839
 Alpha virt. eigenvalues --    2.48756   2.50061   2.50527   2.50910   2.53078
 Alpha virt. eigenvalues --    2.54927   2.55336   2.56919   2.58022   2.58891
 Alpha virt. eigenvalues --    2.59682   2.60181   2.61219   2.62024   2.64843
 Alpha virt. eigenvalues --    2.65741   2.66378   2.68303   2.69287   2.70356
 Alpha virt. eigenvalues --    2.71161   2.71412   2.77403   2.77889   2.78512
 Alpha virt. eigenvalues --    2.79679   2.81243   2.82721   2.83253   2.85906
 Alpha virt. eigenvalues --    2.86794   2.87324   2.89123   2.89684   2.90439
 Alpha virt. eigenvalues --    2.90717   2.93897   2.95195   2.95839   2.97468
 Alpha virt. eigenvalues --    3.02762   3.04186   3.05461   3.10908   3.13394
 Alpha virt. eigenvalues --    3.14948   3.20424   3.20765   3.28693   3.29448
 Alpha virt. eigenvalues --    3.29967   3.36469   3.36745   3.41219   3.46436
 Alpha virt. eigenvalues --    3.67701   3.69547   3.96307   4.05713
  Beta  occ. eigenvalues -- -256.41265 -30.22863 -26.07454 -26.07325 -26.07305
  Beta  occ. eigenvalues --  -19.29749 -14.53658 -14.48527 -14.45819 -14.45742
  Beta  occ. eigenvalues --  -14.45565 -14.45383 -10.37690 -10.34893 -10.33281
  Beta  occ. eigenvalues --  -10.33181 -10.33141 -10.33114 -10.33108 -10.33025
  Beta  occ. eigenvalues --  -10.32933 -10.32904 -10.32290 -10.30250 -10.30218
  Beta  occ. eigenvalues --  -10.30199 -10.30199 -10.30145 -10.30114 -10.29965
  Beta  occ. eigenvalues --  -10.29931 -10.29914 -10.29912 -10.29882 -10.29868
  Beta  occ. eigenvalues --  -10.29845 -10.29244 -10.29207 -10.28358 -10.28236
  Beta  occ. eigenvalues --  -10.28069 -10.28045 -10.27975 -10.27972 -10.27880
  Beta  occ. eigenvalues --  -10.27842  -3.55316  -2.30561  -2.30274  -2.30217
  Beta  occ. eigenvalues --   -1.16276  -1.16227  -1.08451  -1.07527  -1.07304
  Beta  occ. eigenvalues --   -1.06416  -1.01963  -0.93200  -0.91865  -0.91595
  Beta  occ. eigenvalues --   -0.91103  -0.90766  -0.90368  -0.90303  -0.90209
  Beta  occ. eigenvalues --   -0.86469  -0.85231  -0.84905  -0.84079  -0.82761
  Beta  occ. eigenvalues --   -0.81762  -0.80929  -0.79947  -0.78322  -0.78127
  Beta  occ. eigenvalues --   -0.77850  -0.75377  -0.74802  -0.74730  -0.72004
  Beta  occ. eigenvalues --   -0.71877  -0.70389  -0.69792  -0.68399  -0.67735
  Beta  occ. eigenvalues --   -0.66451  -0.64820  -0.64071  -0.63291  -0.63017
  Beta  occ. eigenvalues --   -0.61489  -0.61427  -0.60997  -0.58894  -0.58455
  Beta  occ. eigenvalues --   -0.58013  -0.57730  -0.57429  -0.55756  -0.54857
  Beta  occ. eigenvalues --   -0.54440  -0.54360  -0.53850  -0.53543  -0.53240
  Beta  occ. eigenvalues --   -0.53234  -0.53094  -0.52892  -0.52794  -0.52274
  Beta  occ. eigenvalues --   -0.52052  -0.51919  -0.51736  -0.51612  -0.50966
  Beta  occ. eigenvalues --   -0.50565  -0.50314  -0.49994  -0.49899  -0.49818
  Beta  occ. eigenvalues --   -0.49451  -0.49276  -0.49222  -0.49058  -0.48770
  Beta  occ. eigenvalues --   -0.48322  -0.48008  -0.47472  -0.47388  -0.47228
  Beta  occ. eigenvalues --   -0.46791  -0.46632  -0.46120  -0.45735  -0.45420
  Beta  occ. eigenvalues --   -0.44594  -0.44521  -0.43899  -0.43437  -0.42584
  Beta  occ. eigenvalues --   -0.42394  -0.42026  -0.41171  -0.40665  -0.39059
  Beta  occ. eigenvalues --   -0.38784  -0.37086  -0.36987  -0.34404  -0.33531
  Beta  occ. eigenvalues --   -0.33321  -0.32108  -0.31636  -0.29090  -0.28237
  Beta virt. eigenvalues --   -0.20543  -0.20292  -0.19165  -0.15898  -0.15863
  Beta virt. eigenvalues --   -0.13627  -0.11317  -0.10885  -0.08034  -0.07609
  Beta virt. eigenvalues --   -0.06331  -0.04287  -0.03831  -0.03393  -0.01319
  Beta virt. eigenvalues --   -0.01202  -0.00290   0.01110   0.01407   0.02086
  Beta virt. eigenvalues --    0.02540   0.03269   0.03815   0.04184   0.04510
  Beta virt. eigenvalues --    0.04904   0.05114   0.05164   0.05433   0.05916
  Beta virt. eigenvalues --    0.05957   0.06588   0.06693   0.06910   0.07066
  Beta virt. eigenvalues --    0.07671   0.07754   0.08088   0.08296   0.08674
  Beta virt. eigenvalues --    0.08786   0.09294   0.09638   0.09733   0.09763
  Beta virt. eigenvalues --    0.10018   0.10480   0.10521   0.10784   0.11548
  Beta virt. eigenvalues --    0.12018   0.12183   0.12350   0.12575   0.13033
  Beta virt. eigenvalues --    0.13430   0.13611   0.13899   0.14321   0.15254
  Beta virt. eigenvalues --    0.15331   0.15797   0.16459   0.16699   0.17056
  Beta virt. eigenvalues --    0.17286   0.17521   0.18081   0.18227   0.19844
  Beta virt. eigenvalues --    0.20282   0.20803   0.20982   0.21931   0.22263
  Beta virt. eigenvalues --    0.23375   0.23709   0.23900   0.25351   0.25933
  Beta virt. eigenvalues --    0.26054   0.26443   0.27207   0.27490   0.29033
  Beta virt. eigenvalues --    0.29937   0.30432   0.31233   0.32147   0.33430
  Beta virt. eigenvalues --    0.33626   0.33980   0.34385   0.34741   0.36687
  Beta virt. eigenvalues --    0.38083   0.38254   0.38481   0.39220   0.39554
  Beta virt. eigenvalues --    0.40044   0.40471   0.40883   0.41380   0.41890
  Beta virt. eigenvalues --    0.42271   0.42381   0.43037   0.43234   0.43551
  Beta virt. eigenvalues --    0.43937   0.44232   0.44855   0.45284   0.45613
  Beta virt. eigenvalues --    0.45889   0.45978   0.46496   0.46710   0.47349
  Beta virt. eigenvalues --    0.48011   0.48461   0.48926   0.49158   0.49546
  Beta virt. eigenvalues --    0.49973   0.50634   0.50787   0.51057   0.51669
  Beta virt. eigenvalues --    0.52279   0.52597   0.52987   0.53172   0.53718
  Beta virt. eigenvalues --    0.54404   0.54660   0.55190   0.55852   0.55964
  Beta virt. eigenvalues --    0.56124   0.56475   0.56557   0.57336   0.57396
  Beta virt. eigenvalues --    0.57720   0.57801   0.58199   0.58266   0.58535
  Beta virt. eigenvalues --    0.59950   0.60328   0.60727   0.61758   0.61884
  Beta virt. eigenvalues --    0.62151   0.62834   0.63125   0.63582   0.63786
  Beta virt. eigenvalues --    0.64421   0.65002   0.65488   0.66156   0.66552
  Beta virt. eigenvalues --    0.66883   0.67194   0.67911   0.68259   0.68564
  Beta virt. eigenvalues --    0.68924   0.69164   0.69578   0.69666   0.69842
  Beta virt. eigenvalues --    0.70369   0.70741   0.71385   0.71666   0.72357
  Beta virt. eigenvalues --    0.72988   0.73876   0.73965   0.74760   0.75326
  Beta virt. eigenvalues --    0.76352   0.76814   0.76854   0.77508   0.77940
  Beta virt. eigenvalues --    0.78581   0.78588   0.78896   0.79277   0.79452
  Beta virt. eigenvalues --    0.79952   0.80212   0.80766   0.81124   0.81471
  Beta virt. eigenvalues --    0.81781   0.82326   0.82458   0.83011   0.83343
  Beta virt. eigenvalues --    0.83734   0.84146   0.84567   0.84760   0.85028
  Beta virt. eigenvalues --    0.85724   0.86004   0.86675   0.86805   0.87263
  Beta virt. eigenvalues --    0.87508   0.87631   0.88029   0.88579   0.88821
  Beta virt. eigenvalues --    0.89345   0.89992   0.90256   0.90710   0.90899
  Beta virt. eigenvalues --    0.91278   0.91610   0.92081   0.92561   0.92627
  Beta virt. eigenvalues --    0.93213   0.93542   0.94072   0.94297   0.95269
  Beta virt. eigenvalues --    0.95642   0.96680   0.97123   0.97289   0.97770
  Beta virt. eigenvalues --    0.98153   0.98974   0.99736   1.00498   1.01512
  Beta virt. eigenvalues --    1.02026   1.03579   1.04525   1.05205   1.05517
  Beta virt. eigenvalues --    1.06401   1.07254   1.07798   1.08224   1.08568
  Beta virt. eigenvalues --    1.09107   1.09697   1.10304   1.10428   1.10797
  Beta virt. eigenvalues --    1.10881   1.11309   1.11884   1.12710   1.13206
  Beta virt. eigenvalues --    1.14254   1.14671   1.15333   1.16188   1.17495
  Beta virt. eigenvalues --    1.18028   1.18435   1.19516   1.20054   1.20814
  Beta virt. eigenvalues --    1.20856   1.22234   1.22551   1.23139   1.23714
  Beta virt. eigenvalues --    1.24015   1.25426   1.26080   1.26866   1.27352
  Beta virt. eigenvalues --    1.27629   1.27980   1.28047   1.28229   1.28834
  Beta virt. eigenvalues --    1.29248   1.29740   1.30957   1.31778   1.32658
  Beta virt. eigenvalues --    1.33514   1.33774   1.34376   1.35367   1.35609
  Beta virt. eigenvalues --    1.37242   1.37689   1.38260   1.39358   1.39866
  Beta virt. eigenvalues --    1.40612   1.40970   1.42200   1.42639   1.43471
  Beta virt. eigenvalues --    1.43624   1.44518   1.45220   1.45832   1.46326
  Beta virt. eigenvalues --    1.47634   1.48951   1.50007   1.51535   1.51862
  Beta virt. eigenvalues --    1.52979   1.53516   1.54569   1.54753   1.55895
  Beta virt. eigenvalues --    1.56347   1.57604   1.58084   1.59484   1.60626
  Beta virt. eigenvalues --    1.60770   1.62064   1.62647   1.64459   1.65309
  Beta virt. eigenvalues --    1.65710   1.69131   1.69670   1.70452   1.70802
  Beta virt. eigenvalues --    1.71440   1.71654   1.72215   1.72578   1.72810
  Beta virt. eigenvalues --    1.72975   1.73249   1.74208   1.74727   1.75374
  Beta virt. eigenvalues --    1.75935   1.76541   1.77081   1.77678   1.78122
  Beta virt. eigenvalues --    1.78742   1.79776   1.80232   1.80725   1.81450
  Beta virt. eigenvalues --    1.81751   1.82947   1.83765   1.84077   1.85102
  Beta virt. eigenvalues --    1.85397   1.86080   1.86170   1.86381   1.87491
  Beta virt. eigenvalues --    1.88852   1.89144   1.89711   1.90830   1.90979
  Beta virt. eigenvalues --    1.91311   1.91984   1.92363   1.94098   1.94972
  Beta virt. eigenvalues --    1.95471   1.95878   1.96362   1.96904   1.97368
  Beta virt. eigenvalues --    1.97977   1.98286   1.99277   1.99568   2.01235
  Beta virt. eigenvalues --    2.02007   2.02396   2.03192   2.04126   2.04797
  Beta virt. eigenvalues --    2.05370   2.06297   2.06868   2.07189   2.07420
  Beta virt. eigenvalues --    2.08970   2.09537   2.10118   2.11743   2.12354
  Beta virt. eigenvalues --    2.12701   2.13374   2.14037   2.14116   2.14615
  Beta virt. eigenvalues --    2.15830   2.16404   2.16606   2.17114   2.17511
  Beta virt. eigenvalues --    2.17707   2.19031   2.19209   2.19866   2.20445
  Beta virt. eigenvalues --    2.20522   2.20769   2.21053   2.22047   2.22614
  Beta virt. eigenvalues --    2.22709   2.23655   2.24845   2.25406   2.25658
  Beta virt. eigenvalues --    2.26417   2.26469   2.27299   2.27663   2.28046
  Beta virt. eigenvalues --    2.29131   2.29294   2.29736   2.30281   2.31476
  Beta virt. eigenvalues --    2.31847   2.32805   2.32991   2.33326   2.34009
  Beta virt. eigenvalues --    2.34523   2.34637   2.35479   2.35704   2.37054
  Beta virt. eigenvalues --    2.37954   2.39163   2.40816   2.41447   2.42817
  Beta virt. eigenvalues --    2.43371   2.43644   2.44034   2.44272   2.45535
  Beta virt. eigenvalues --    2.45836   2.46344   2.47389   2.47660   2.48130
  Beta virt. eigenvalues --    2.49064   2.50558   2.50699   2.51166   2.53200
  Beta virt. eigenvalues --    2.55234   2.55435   2.57040   2.58377   2.59285
  Beta virt. eigenvalues --    2.59824   2.60721   2.61498   2.62241   2.65106
  Beta virt. eigenvalues --    2.66043   2.66686   2.68523   2.69758   2.70461
  Beta virt. eigenvalues --    2.71219   2.71566   2.77605   2.78123   2.78722
  Beta virt. eigenvalues --    2.79941   2.81521   2.83001   2.83560   2.86131
  Beta virt. eigenvalues --    2.86953   2.87507   2.89228   2.89801   2.90689
  Beta virt. eigenvalues --    2.91119   2.94548   2.95454   2.96018   2.98012
  Beta virt. eigenvalues --    3.03005   3.04448   3.05544   3.11033   3.13614
  Beta virt. eigenvalues --    3.15664   3.20502   3.20838   3.28876   3.29542
  Beta virt. eigenvalues --    3.31011   3.36816   3.36983   3.54291   3.59193
  Beta virt. eigenvalues --    3.77356   3.81363   4.06797   4.16082
          Condensed to atoms (all electrons):
          Atomic-Atomic Spin Densities.
 Mulliken charges and spin densities:
               1          2
     1  Fe   1.184165   4.316624
     2  N   -0.741125   0.081030
     3  N   -0.732630   0.081803
     4  N   -0.748085   0.084385
     5  N   -0.717456   0.081885
     6  C    0.318177   0.007968
     7  C    0.037836   0.015050
     8  C    0.042582   0.020700
     9  C    0.291968   0.003871
    10  C    0.306989   0.004191
    11  C    0.042036   0.019740
    12  C    0.005821   0.016729
    13  C    0.332472   0.006189
    14  C    0.324575   0.005718
    15  C    0.042401   0.020024
    16  C    0.009526   0.021644
    17  C    0.310876   0.006553
    18  C    0.303422   0.007319
    19  C    0.043036   0.019598
    20  C    0.041605   0.017795
    21  C    0.330552   0.008020
    22  C   -0.300670  -0.004607
    23  H    0.190201   0.000468
    24  C   -0.313562  -0.001086
    25  H    0.189381   0.000287
    26  C   -0.295902  -0.001917
    27  H    0.191734   0.000336
    28  C   -0.295830  -0.004488
    29  H    0.191468   0.000422
    30  C   -0.610843  -0.000877
    31  H    0.204356   0.000419
    32  H    0.200437   0.000843
    33  H    0.205092   0.000900
    34  C   -0.611570  -0.000494
    35  H    0.204904   0.000631
    36  H    0.203694   0.000699
    37  H    0.203151   0.000408
    38  C   -0.614394  -0.000781
    39  H    0.197016   0.000539
    40  H    0.200450   0.001027
    41  H    0.213832   0.000502
    42  C   -0.150451  -0.005210
    43  H    0.179474   0.000437
    44  C   -0.391846   0.009930
    45  H    0.185482  -0.000490
    46  H    0.193490  -0.000350
    47  C   -0.614504  -0.000884
    48  H    0.195569   0.000631
    49  H    0.206777   0.001103
    50  H    0.211935   0.000521
    51  C   -0.155216  -0.007006
    52  H    0.180555   0.000603
    53  C   -0.389640   0.012946
    54  H    0.188677  -0.000632
    55  H    0.194090  -0.000482
    56  C   -0.611319  -0.000834
    57  H    0.206242   0.000904
    58  H    0.200754   0.000779
    59  H    0.203250   0.000415
    60  C   -0.612019  -0.000742
    61  H    0.203045   0.000407
    62  H    0.201778   0.000768
    63  H    0.205443   0.000809
    64  O   -0.819449   0.026675
    65  H    0.477525   0.001318
    66  H    0.466749   0.002269
    67  C   -0.602595   0.000762
    68  H    0.220441   0.000045
    69  H    0.213363   0.000269
    70  H    0.212155   0.000289
    71  N   -0.629590   0.004872
    72  H    0.384855   0.001508
    73  C    0.281288   0.006939
    74  C    0.263748   0.006228
    75  H    0.232381   0.000709
    76  N   -0.484205   0.096559
    77  C   -0.040667  -0.003503
    78  H    0.210749   0.001371
 Sum of Mulliken charges =   1.00000   5.00000
 Mulliken charges and spin densities with hydrogens summed into heavy atoms:
               1          2
     1  Fe   1.184165   4.316624
     2  N   -0.741125   0.081030
     3  N   -0.732630   0.081803
     4  N   -0.748085   0.084385
     5  N   -0.717456   0.081885
     6  C    0.318177   0.007968
     7  C    0.037836   0.015050
     8  C    0.042582   0.020700
     9  C    0.291968   0.003871
    10  C    0.306989   0.004191
    11  C    0.042036   0.019740
    12  C    0.005821   0.016729
    13  C    0.332472   0.006189
    14  C    0.324575   0.005718
    15  C    0.042401   0.020024
    16  C    0.009526   0.021644
    17  C    0.310876   0.006553
    18  C    0.303422   0.007319
    19  C    0.043036   0.019598
    20  C    0.041605   0.017795
    21  C    0.330552   0.008020
    22  C   -0.110469  -0.004140
    24  C   -0.124182  -0.000800
    26  C   -0.104168  -0.001580
    28  C   -0.104362  -0.004066
    30  C   -0.000958   0.001284
    34  C    0.000179   0.001244
    38  C   -0.003096   0.001286
    42  C    0.029023  -0.004773
    44  C   -0.012874   0.009090
    47  C   -0.000223   0.001371
    51  C    0.025339  -0.006403
    53  C   -0.006872   0.011832
    56  C   -0.001074   0.001264
    60  C   -0.001752   0.001243
    64  O    0.124825   0.030263
    67  C    0.043365   0.001365
    71  N   -0.244735   0.006379
    73  C    0.281288   0.006939
    74  C    0.496129   0.006938
    76  N   -0.484205   0.096559
    77  C    0.170082  -0.002131
 Electronic spatial extent (au):  <R**2>=          19808.5261
 Charge=              1.0000 electrons
 Dipole moment (field-independent basis, Debye):
    X=              1.0278    Y=             -1.3737    Z=              3.1428  Tot=              3.5806
 Quadrupole moment (field-independent basis, Debye-Ang):
   XX=           -183.1419   YY=           -190.3872   ZZ=           -202.8770
   XY=             -2.8825   XZ=              3.7649   YZ=             -0.2208
 Traceless Quadrupole moment (field-independent basis, Debye-Ang):
   XX=              8.9934   YY=              1.7482   ZZ=            -10.7416
   XY=             -2.8825   XZ=              3.7649   YZ=             -0.2208
 Octapole moment (field-independent basis, Debye-Ang**2):
  XXX=             -7.5782  YYY=             -6.1146  ZZZ=            116.3813  XYY=              4.9441
  XXY=              3.8894  XXZ=             -5.7007  XZZ=             15.6622  YZZ=            -24.3871
  YYZ=            -18.9692  XYZ=             19.8998
 Hexadecapole moment (field-independent basis, Debye-Ang**3):
 XXXX=         -10326.2162 YYYY=          -9998.4879 ZZZZ=          -2251.7316 XXXY=           -106.9814
 XXXZ=            118.9931 YYYX=             34.7783 YYYZ=             88.1010 ZZZX=              6.3827
 ZZZY=            -58.6813 XXYY=          -3223.1874 XXZZ=          -2454.9491 YYZZ=          -2524.6556
 XXYZ=             61.6480 YYXZ=             15.9022 ZZXY=            -22.7690
 N-N= 5.975919383469D+03 E-N=-1.892632036603D+04  KE= 2.973070536851D+03
                          Isotropic Fermi Contact Couplings
        Atom                 a.u.       MegaHertz       Gauss      10(-4) cm-1
     1  Fe(57)             0.52663      15.27636       5.45098       5.09564
     2  N(14)              0.13287       8.58618       3.06376       2.86404
     3  N(14)              0.13383       8.64829       3.08593       2.88476
     4  N(14)              0.13258       8.56750       3.05710       2.85781
     5  N(14)              0.13117       8.47606       3.02447       2.82731
     6  C(13)              0.00591       1.32878       0.47414       0.44323
     7  C(13)              0.00538       1.21074       0.43202       0.40386
     8  C(13)              0.00620       1.39352       0.49724       0.46483
     9  C(13)              0.00559       1.25741       0.44868       0.41943
    10  C(13)              0.00562       1.26349       0.45085       0.42146
    11  C(13)              0.00620       1.39293       0.49703       0.46463
    12  C(13)              0.00568       1.27703       0.45568       0.42597
    13  C(13)              0.00568       1.27690       0.45563       0.42593
    14  C(13)              0.00561       1.26144       0.45011       0.42077
    15  C(13)              0.00611       1.37462       0.49050       0.45853
    16  C(13)              0.00641       1.44108       0.51421       0.48069
    17  C(13)              0.00592       1.33108       0.47496       0.44400
    18  C(13)              0.00588       1.32124       0.47145       0.44072
    19  C(13)              0.00599       1.34688       0.48060       0.44927
    20  C(13)              0.00571       1.28302       0.45781       0.42797
    21  C(13)              0.00593       1.33292       0.47562       0.44461
    22  C(13)             -0.00107      -0.24107      -0.08602      -0.08041
    23  H(1)               0.00015       0.13830       0.04935       0.04613
    24  C(13)             -0.00030      -0.06771      -0.02416      -0.02258
    25  H(1)               0.00009       0.08274       0.02952       0.02760
    26  C(13)             -0.00067      -0.15170      -0.05413      -0.05060
    27  H(1)               0.00010       0.09285       0.03313       0.03097
    28  C(13)             -0.00091      -0.20512      -0.07319      -0.06842
    29  H(1)               0.00015       0.13147       0.04691       0.04385
    30  C(13)             -0.00009      -0.02112      -0.00754      -0.00705
    31  H(1)               0.00016       0.14226       0.05076       0.04745
    32  H(1)               0.00042       0.37727       0.13462       0.12585
    33  H(1)               0.00045       0.40621       0.14495       0.13550
    34  C(13)              0.00004       0.00977       0.00349       0.00326
    35  H(1)               0.00031       0.27722       0.09892       0.09247
    36  H(1)               0.00035       0.31157       0.11118       0.10393
    37  H(1)               0.00015       0.13770       0.04913       0.04593
    38  C(13)             -0.00003      -0.00648      -0.00231      -0.00216
    39  H(1)               0.00026       0.23648       0.08438       0.07888
    40  H(1)               0.00053       0.47597       0.16984       0.15877
    41  H(1)               0.00019       0.16717       0.05965       0.05576
    42  C(13)             -0.00059      -0.13178      -0.04702      -0.04396
    43  H(1)               0.00017       0.15061       0.05374       0.05024
    44  C(13)              0.00164       0.36965       0.13190       0.12330
    45  H(1)              -0.00015      -0.13106      -0.04677      -0.04372
    46  H(1)              -0.00010      -0.08761      -0.03126      -0.02923
    47  C(13)             -0.00010      -0.02261      -0.00807      -0.00754
    48  H(1)               0.00029       0.25988       0.09273       0.08669
    49  H(1)               0.00057       0.51140       0.18248       0.17059
    50  H(1)               0.00019       0.17075       0.06093       0.05696
    51  C(13)             -0.00096      -0.21595      -0.07706      -0.07203
    52  H(1)               0.00023       0.20371       0.07269       0.06795
    53  C(13)              0.00208       0.46713       0.16668       0.15582
    54  H(1)              -0.00019      -0.16971      -0.06056      -0.05661
    55  H(1)              -0.00014      -0.12300      -0.04389      -0.04103
    56  C(13)             -0.00012      -0.02594      -0.00926      -0.00865
    57  H(1)               0.00047       0.41723       0.14888       0.13917
    58  H(1)               0.00039       0.34639       0.12360       0.11554
    59  H(1)               0.00016       0.14286       0.05097       0.04765
    60  C(13)             -0.00008      -0.01891      -0.00675      -0.00631
    61  H(1)               0.00016       0.13989       0.04992       0.04666
    62  H(1)               0.00038       0.33806       0.12063       0.11276
    63  H(1)               0.00041       0.36919       0.13174       0.12315
    64  O(17)              0.08738     -10.59414      -3.78025      -3.53382
    65  H(1)               0.00004       0.03453       0.01232       0.01152
    66  H(1)               0.00086       0.76704       0.27370       0.25586
    67  C(13)              0.00053       0.11973       0.04272       0.03994
    68  H(1)               0.00004       0.03879       0.01384       0.01294
    69  H(1)               0.00015       0.13502       0.04818       0.04504
    70  H(1)               0.00016       0.14450       0.05156       0.04820
    71  N(14)              0.00862       0.55729       0.19886       0.18589
    72  H(1)               0.00060       0.53675       0.19152       0.17904
    73  C(13)              0.00490       1.10270       0.39347       0.36782
    74  C(13)              0.00591       1.32961       0.47444       0.44351
    75  H(1)               0.00019       0.17422       0.06217       0.05811
    76  N(14)              0.17583      11.36234       4.05437       3.79007
    77  C(13)              0.00121       0.27242       0.09720       0.09087
    78  H(1)               0.00049       0.43693       0.15591       0.14574
 --------------------------------------------------------
       Center         ----  Spin Dipole Couplings  ----
                      3XX-RR        3YY-RR        3ZZ-RR
 --------------------------------------------------------
     1   Atom       -0.003826      0.053768     -0.049942
     2   Atom        0.043931      0.059124     -0.103054
     3   Atom        0.062671      0.048241     -0.110912
     4   Atom        0.038238      0.057381     -0.095620
     5   Atom        0.061181      0.047037     -0.108219
     6   Atom       -0.022831      0.047447     -0.024616
     7   Atom       -0.003795      0.002786      0.001009
     8   Atom       -0.000832     -0.004897      0.005729
     9   Atom        0.047999     -0.019087     -0.028912
    10   Atom        0.049853     -0.020918     -0.028936
    11   Atom        0.000830     -0.005839      0.005010
    12   Atom       -0.003142      0.000972      0.002169
    13   Atom       -0.020483      0.046576     -0.026093
    14   Atom       -0.022260      0.048864     -0.026604
    15   Atom       -0.006261      0.000521      0.005740
    16   Atom       -0.000900     -0.005392      0.006292
    17   Atom        0.046915     -0.021030     -0.025886
    18   Atom        0.048134     -0.022504     -0.025630
    19   Atom        0.000731     -0.005892      0.005161
    20   Atom       -0.003894      0.000284      0.003610
    21   Atom       -0.021580      0.045539     -0.023959
    22   Atom       -0.011637      0.036155     -0.024518
    23   Atom       -0.007013      0.015471     -0.008457
    24   Atom        0.034503     -0.013445     -0.021058
    25   Atom        0.015558     -0.007155     -0.008403
    26   Atom       -0.013183      0.035290     -0.022106
    27   Atom       -0.007225      0.015663     -0.008438
    28   Atom        0.035783     -0.011798     -0.023985
    29   Atom        0.015411     -0.007029     -0.008382
    30   Atom        0.006623     -0.002171     -0.004452
    31   Atom        0.003033      0.000085     -0.003118
    32   Atom        0.005725     -0.002131     -0.003594
    33   Atom        0.005643     -0.002235     -0.003408
    34   Atom       -0.002497      0.007058     -0.004561
    35   Atom       -0.002495      0.005944     -0.003449
    36   Atom       -0.002345      0.005910     -0.003565
    37   Atom       -0.000236      0.003344     -0.003107
    38   Atom        0.007036     -0.002458     -0.004578
    39   Atom        0.006593     -0.002682     -0.003910
    40   Atom        0.005131     -0.002065     -0.003066
    41   Atom        0.003359     -0.000177     -0.003182
    42   Atom       -0.001794      0.008702     -0.006908
    43   Atom       -0.002448      0.006505     -0.004057
    44   Atom       -0.000013     -0.001830      0.001843
    45   Atom        0.000881      0.001113     -0.001994
    46   Atom       -0.000899      0.002746     -0.001847
    47   Atom       -0.002530      0.007153     -0.004623
    48   Atom       -0.002922      0.006854     -0.003933
    49   Atom       -0.001855      0.005102     -0.003247
    50   Atom       -0.000406      0.003485     -0.003078
    51   Atom        0.009240     -0.001529     -0.007711
    52   Atom        0.006239     -0.002532     -0.003707
    53   Atom       -0.002555     -0.000436      0.002991
    54   Atom        0.001282      0.000983     -0.002265
    55   Atom        0.003006     -0.001052     -0.001954
    56   Atom        0.007108     -0.002611     -0.004497
    57   Atom        0.005804     -0.002317     -0.003487
    58   Atom        0.006273     -0.002632     -0.003641
    59   Atom        0.003414     -0.000268     -0.003146
    60   Atom       -0.002159      0.006619     -0.004460
    61   Atom        0.000067      0.003055     -0.003122
    62   Atom       -0.002295      0.005674     -0.003379
    63   Atom       -0.002128      0.005775     -0.003647
    64   Atom       -0.103329     -0.107996      0.211326
    65   Atom       -0.023104     -0.026490      0.049594
    66   Atom       -0.027887     -0.024704      0.052592
    67   Atom       -0.003533     -0.005011      0.008544
    68   Atom       -0.001013     -0.003972      0.004985
    69   Atom       -0.002710     -0.002986      0.005696
    70   Atom       -0.002687     -0.002787      0.005475
    71   Atom       -0.015180     -0.007305      0.022485
    72   Atom       -0.004577     -0.006158      0.010735
    73   Atom       -0.011714     -0.008315      0.020029
    74   Atom       -0.010461     -0.026164      0.036625
    75   Atom        0.005121     -0.021262      0.016141
    76   Atom       -0.184034     -0.149077      0.333111
    77   Atom       -0.003827     -0.035611      0.039439
    78   Atom        0.009267     -0.021559      0.012293
 --------------------------------------------------------
                        XY            XZ            YZ
 --------------------------------------------------------
     1   Atom        0.000716      0.014018      0.009587
     2   Atom       -0.225050     -0.012439      0.016733
     3   Atom        0.228071     -0.003806     -0.010638
     4   Atom       -0.224579      0.017032     -0.032021
     5   Atom        0.227113      0.015709      0.022553
     6   Atom       -0.023309      0.000266     -0.001530
     7   Atom       -0.016058     -0.000428      0.000031
     8   Atom       -0.016352      0.000400     -0.001203
     9   Atom       -0.025544      0.000267      0.000587
    10   Atom        0.023125     -0.000231      0.000052
    11   Atom        0.016062      0.001932     -0.001329
    12   Atom        0.016359      0.000529     -0.000339
    13   Atom        0.025543      0.000322      0.002993
    14   Atom       -0.023297     -0.000659      0.001023
    15   Atom       -0.016350     -0.002784     -0.000141
    16   Atom       -0.016499     -0.002315     -0.001439
    17   Atom       -0.025423      0.004535     -0.002232
    18   Atom        0.023440      0.001917      0.002162
    19   Atom        0.016227     -0.000482      0.000336
    20   Atom        0.016371     -0.000837      0.000847
    21   Atom        0.025880      0.000454     -0.001237
    22   Atom        0.000758     -0.000972     -0.000142
    23   Atom        0.000395     -0.000038     -0.000164
    24   Atom       -0.000880     -0.001626      0.001639
    25   Atom       -0.000441     -0.000198      0.000097
    26   Atom        0.000785      0.001937      0.002349
    27   Atom        0.000367      0.000150      0.001283
    28   Atom       -0.000545      0.005673     -0.001396
    29   Atom       -0.000323      0.001611     -0.000090
    30   Atom       -0.005531     -0.000435      0.000161
    31   Atom       -0.004209     -0.000294      0.000215
    32   Atom       -0.003617      0.001464     -0.000369
    33   Atom       -0.003524     -0.002145      0.000621
    34   Atom       -0.005179     -0.000209      0.000469
    35   Atom       -0.003228     -0.000547      0.002139
    36   Atom       -0.003365      0.000344     -0.001462
    37   Atom       -0.004050     -0.000232      0.000362
    38   Atom        0.005261      0.000330      0.000201
    39   Atom        0.003150     -0.001346     -0.000241
    40   Atom        0.003386      0.002008      0.000635
    41   Atom        0.004125     -0.000289     -0.000133
    42   Atom        0.005687      0.003584      0.001405
    43   Atom        0.003545      0.000047     -0.000107
    44   Atom        0.003959     -0.005797      0.000714
    45   Atom        0.002953      0.001358      0.001085
    46   Atom        0.002216      0.000117      0.000708
    47   Atom       -0.005210      0.000162     -0.000707
    48   Atom       -0.002821      0.000409     -0.001867
    49   Atom       -0.003661     -0.000423      0.001366
    50   Atom       -0.004005      0.000718     -0.001171
    51   Atom       -0.006705      0.002461      0.003080
    52   Atom       -0.003566      0.002252     -0.000680
    53   Atom       -0.002076     -0.002202     -0.008367
    54   Atom       -0.003013     -0.000287      0.000759
    55   Atom       -0.002173      0.000425     -0.000451
    56   Atom        0.005189     -0.000456     -0.000115
    57   Atom        0.003373      0.001657      0.000410
    58   Atom        0.003197     -0.002014     -0.000453
    59   Atom        0.004110     -0.000400     -0.000261
    60   Atom        0.005540     -0.000350     -0.000880
    61   Atom        0.004229     -0.000340     -0.000511
    62   Atom        0.003629     -0.000712     -0.002411
    63   Atom        0.003574      0.000307      0.001218
    64   Atom        0.016028     -0.035570      0.017601
    65   Atom       -0.012814     -0.029421      0.023587
    66   Atom       -0.006053      0.010779     -0.018280
    67   Atom        0.000153     -0.004449     -0.000451
    68   Atom        0.000114     -0.004824     -0.000223
    69   Atom       -0.000209     -0.002128      0.001145
    70   Atom        0.000382     -0.002195     -0.001732
    71   Atom        0.000186      0.002801     -0.001420
    72   Atom       -0.000223      0.004469     -0.000819
    73   Atom        0.000215     -0.004637     -0.001183
    74   Atom       -0.001960      0.031843     -0.003300
    75   Atom       -0.001857      0.030074     -0.002164
    76   Atom        0.001757     -0.018309     -0.017724
    77   Atom        0.000530     -0.035901     -0.001855
    78   Atom        0.000173     -0.031146     -0.000244
 --------------------------------------------------------


 ---------------------------------------------------------------------------------
              Anisotropic Spin Dipole Couplings in Principal Axis System
 ---------------------------------------------------------------------------------

       Atom             a.u.   MegaHertz   Gauss  10(-4) cm-1        Axes

              Baa    -0.0546    -0.946    -0.337    -0.315 -0.2640 -0.0832  0.9609
     1 Fe(57) Bbb    -0.0001    -0.002    -0.001    -0.001  0.9639 -0.0590  0.2597
              Bcc     0.0547     0.947     0.338     0.316  0.0351  0.9948  0.0958
 
              Baa    -0.1738    -6.701    -2.391    -2.235  0.7172  0.6958 -0.0385
     2 N(14)  Bbb    -0.1041    -4.014    -1.432    -1.339  0.0654 -0.0122  0.9978
              Bcc     0.2778    10.715     3.823     3.574 -0.6938  0.7181  0.0542
 
              Baa    -0.1731    -6.677    -2.383    -2.227 -0.6923  0.7171  0.0803
     3 N(14)  Bbb    -0.1108    -4.272    -1.524    -1.425  0.0743 -0.0398  0.9964
              Bcc     0.2839    10.949     3.907     3.652  0.7178  0.6958 -0.0257
 
              Baa    -0.1782    -6.872    -2.452    -2.292  0.7100  0.6935  0.1225
     4 N(14)  Bbb    -0.0977    -3.767    -1.344    -1.257 -0.1531 -0.0177  0.9880
              Bcc     0.2759    10.640     3.797     3.549 -0.6874  0.7202 -0.0936
 
              Baa    -0.1735    -6.693    -2.388    -2.233 -0.6901  0.7190 -0.0823
     5 N(14)  Bbb    -0.1096    -4.229    -1.509    -1.411 -0.1066  0.0114  0.9942
              Bcc     0.2832    10.922     3.897     3.643  0.7158  0.6949  0.0688
 
              Baa    -0.0299    -4.008    -1.430    -1.337  0.9566  0.2891  0.0358
     6 C(13)  Bbb    -0.0246    -3.306    -1.180    -1.103 -0.0399  0.0083  0.9992
              Bcc     0.0545     7.314     2.610     2.440 -0.2886  0.9573 -0.0195
 
              Baa    -0.0169    -2.268    -0.809    -0.757  0.7748  0.6319  0.0174
     7 C(13)  Bbb     0.0010     0.135     0.048     0.045 -0.0010 -0.0263  0.9997
              Bcc     0.0159     2.133     0.761     0.711 -0.6322  0.7746  0.0198
 
              Baa    -0.0194    -2.598    -0.927    -0.867  0.6612  0.7498  0.0254
     8 C(13)  Bbb     0.0056     0.751     0.268     0.250 -0.1182  0.0707  0.9905
              Bcc     0.0138     1.847     0.659     0.616  0.7408 -0.6579  0.1354
 
              Baa    -0.0292    -3.917    -1.398    -1.307 -0.1275 -0.3758  0.9179
     9 C(13)  Bbb    -0.0274    -3.681    -1.313    -1.228  0.2932  0.8698  0.3968
              Bcc     0.0566     7.598     2.711     2.534  0.9475 -0.3197  0.0008
 
              Baa    -0.0289    -3.885    -1.386    -1.296  0.0310 -0.0957  0.9949
    10 C(13)  Bbb    -0.0278    -3.729    -1.331    -1.244 -0.2837  0.9536  0.1006
              Bcc     0.0567     7.614     2.717     2.540  0.9584  0.2854 -0.0024
 
              Baa    -0.0191    -2.566    -0.915    -0.856 -0.6299  0.7711  0.0929
    11 C(13)  Bbb     0.0052     0.694     0.248     0.231  0.0003 -0.1194  0.9929
              Bcc     0.0139     1.872     0.668     0.624  0.7767  0.6254  0.0749
 
              Baa    -0.0176    -2.361    -0.842    -0.787  0.7496 -0.6611 -0.0314
    12 C(13)  Bbb     0.0022     0.294     0.105     0.098  0.0188 -0.0262  0.9995
              Bcc     0.0154     2.067     0.738     0.690  0.6616  0.7498  0.0072
 
              Baa    -0.0292    -3.924    -1.400    -1.309  0.9242 -0.3196  0.2092
    13 C(13)  Bbb    -0.0261    -3.497    -1.248    -1.166 -0.2096  0.0334  0.9772
              Bcc     0.0553     7.421     2.648     2.475  0.3193  0.9470  0.0361
 
              Baa    -0.0293    -3.926    -1.401    -1.309  0.9509  0.2819  0.1275
    14 C(13)  Bbb    -0.0266    -3.566    -1.273    -1.190 -0.1181 -0.0499  0.9917
              Bcc     0.0558     7.492     2.673     2.499 -0.2860  0.9581  0.0142
 
              Baa    -0.0198    -2.653    -0.946    -0.885  0.7753  0.6254  0.0881
    15 C(13)  Bbb     0.0056     0.753     0.269     0.251  0.0560 -0.2070  0.9767
              Bcc     0.0142     1.900     0.678     0.634 -0.6291  0.7523  0.1955
 
              Baa    -0.0201    -2.691    -0.960    -0.898  0.6562  0.7481  0.0985
    16 C(13)  Bbb     0.0065     0.867     0.309     0.289  0.0198 -0.1475  0.9889
              Bcc     0.0136     1.824     0.651     0.609  0.7543 -0.6470 -0.1116
 
              Baa    -0.0296    -3.975    -1.419    -1.326  0.2987  0.9341  0.1954
    17 C(13)  Bbb    -0.0261    -3.497    -1.248    -1.166 -0.1189 -0.1667  0.9788
              Bcc     0.0557     7.472     2.666     2.492  0.9469 -0.3156  0.0613
 
              Baa    -0.0301    -4.039    -1.441    -1.347 -0.2640  0.9078 -0.3260
    18 C(13)  Bbb    -0.0252    -3.379    -1.206    -1.127 -0.1219  0.3039  0.9449
              Bcc     0.0553     7.418     2.647     2.474  0.9568  0.2892  0.0304
 
              Baa    -0.0192    -2.570    -0.917    -0.857 -0.6324  0.7743 -0.0232
    19 C(13)  Bbb     0.0052     0.694     0.248     0.231 -0.0005  0.0296  0.9996
              Bcc     0.0140     1.876     0.670     0.626  0.7746  0.6321 -0.0183
 
              Baa    -0.0184    -2.466    -0.880    -0.822  0.7493 -0.6600  0.0539
    20 C(13)  Bbb     0.0037     0.493     0.176     0.164 -0.0454  0.0300  0.9985
              Bcc     0.0147     1.973     0.704     0.658  0.6606  0.7507  0.0075
 
              Baa    -0.0305    -4.093    -1.461    -1.365  0.9385 -0.3215 -0.1258
    21 C(13)  Bbb    -0.0239    -3.203    -1.143    -1.068  0.1233 -0.0283  0.9920
              Bcc     0.0544     7.296     2.603     2.434  0.3224  0.9465 -0.0131
 
              Baa    -0.0246    -3.300    -1.177    -1.101  0.0747  0.0014  0.9972
    22 C(13)  Bbb    -0.0116    -1.553    -0.554    -0.518  0.9971 -0.0160 -0.0747
              Bcc     0.0362     4.853     1.732     1.619  0.0159  0.9999 -0.0026
 
              Baa    -0.0085    -4.514    -1.611    -1.506  0.0243  0.0064  0.9997
    23 H(1)   Bbb    -0.0070    -3.745    -1.336    -1.249  0.9996 -0.0177 -0.0242
              Bcc     0.0155     8.259     2.947     2.755  0.0176  0.9998 -0.0069
 
              Baa    -0.0214    -2.876    -1.026    -0.959  0.0254 -0.1983  0.9798
    24 C(13)  Bbb    -0.0131    -1.763    -0.629    -0.588  0.0248  0.9800  0.1976
              Bcc     0.0346     4.639     1.655     1.547  0.9994 -0.0193 -0.0298
 
              Baa    -0.0084    -4.488    -1.601    -1.497  0.0069 -0.0745  0.9972
    25 H(1)   Bbb    -0.0072    -3.818    -1.363    -1.274  0.0200  0.9970  0.0743
              Bcc     0.0156     8.306     2.964     2.771  0.9998 -0.0194 -0.0083
 
              Baa    -0.0226    -3.031    -1.082    -1.011 -0.1986 -0.0371  0.9794
    26 C(13)  Bbb    -0.0128    -1.719    -0.614    -0.574  0.9799 -0.0256  0.1977
              Bcc     0.0354     4.750     1.695     1.585  0.0178  0.9990  0.0414
 
              Baa    -0.0085    -4.545    -1.622    -1.516 -0.1007 -0.0512  0.9936
    27 H(1)   Bbb    -0.0072    -3.851    -1.374    -1.285  0.9948 -0.0215  0.0997
              Bcc     0.0157     8.396     2.996     2.801  0.0163  0.9985  0.0531
 
              Baa    -0.0247    -3.309    -1.181    -1.104 -0.0920  0.1036  0.9904
    28 C(13)  Bbb    -0.0117    -1.566    -0.559    -0.522  0.0236  0.9945 -0.1018
              Bcc     0.0363     4.875     1.739     1.626  0.9955 -0.0140  0.0940
 
              Baa    -0.0085    -4.532    -1.617    -1.512 -0.0666  0.0465  0.9967
    29 H(1)   Bbb    -0.0070    -3.751    -1.338    -1.251  0.0177  0.9988 -0.0454
              Bcc     0.0155     8.283     2.956     2.763  0.9976 -0.0146  0.0673
 
              Baa    -0.0048    -0.650    -0.232    -0.217  0.4351  0.8931  0.1146
    30 C(13)  Bbb    -0.0045    -0.599    -0.214    -0.200 -0.0198 -0.1178  0.9928
              Bcc     0.0093     1.249     0.446     0.417  0.9002 -0.4343 -0.0335
 
              Baa    -0.0031    -1.671    -0.596    -0.558  0.0203 -0.0401  0.9990
    31 H(1)   Bbb    -0.0029    -1.548    -0.552    -0.516  0.5792  0.8149  0.0209
              Bcc     0.0060     3.219     1.149     1.074  0.8150 -0.5782 -0.0398
 
              Baa    -0.0039    -2.080    -0.742    -0.694 -0.2802 -0.3903  0.8770
    32 H(1)   Bbb    -0.0034    -1.838    -0.656    -0.613  0.2610  0.8482  0.4609
              Bcc     0.0073     3.918     1.398     1.307  0.9238 -0.3581  0.1357
 
              Baa    -0.0040    -2.109    -0.752    -0.703  0.3239  0.3458  0.8806
    33 H(1)   Bbb    -0.0035    -1.864    -0.665    -0.622  0.2356  0.8720 -0.4291
              Bcc     0.0074     3.972     1.417     1.325  0.9163 -0.3464 -0.2009
 
              Baa    -0.0048    -0.640    -0.228    -0.213  0.9161  0.4007  0.0145
    34 C(13)  Bbb    -0.0046    -0.615    -0.219    -0.205  0.0015 -0.0396  0.9992
              Bcc     0.0093     1.254     0.447     0.418 -0.4010  0.9153  0.0369
 
              Baa    -0.0040    -2.115    -0.755    -0.706 -0.3213 -0.2987  0.8986
    35 H(1)   Bbb    -0.0035    -1.876    -0.669    -0.626  0.8942  0.2166  0.3917
              Bcc     0.0075     3.991     1.424     1.331 -0.3116  0.9295  0.1975
 
              Baa    -0.0039    -2.058    -0.734    -0.686  0.3981  0.2685  0.8772
    36 H(1)   Bbb    -0.0035    -1.844    -0.658    -0.615  0.8558  0.2356 -0.4605
              Bcc     0.0073     3.902     1.392     1.302 -0.3303  0.9340 -0.1360
 
              Baa    -0.0031    -1.669    -0.595    -0.557  0.0163 -0.0457  0.9988
    37 H(1)   Bbb    -0.0029    -1.534    -0.547    -0.512  0.8382  0.5453  0.0113
              Bcc     0.0060     3.203     1.143     1.068 -0.5452  0.8370  0.0472
 
              Baa    -0.0048    -0.645    -0.230    -0.215 -0.3907  0.8936 -0.2209
    38 C(13)  Bbb    -0.0046    -0.614    -0.219    -0.205 -0.1143  0.1911  0.9749
              Bcc     0.0094     1.259     0.449     0.420  0.9134  0.4062  0.0275
 
              Baa    -0.0041    -2.201    -0.785    -0.734  0.2004 -0.2806  0.9387
    39 H(1)   Bbb    -0.0036    -1.918    -0.684    -0.640 -0.2400  0.9149  0.3247
              Bcc     0.0077     4.119     1.470     1.374  0.9499  0.2904 -0.1160
 
              Baa    -0.0036    -1.928    -0.688    -0.643 -0.3686  0.4797  0.7962
    40 H(1)   Bbb    -0.0033    -1.762    -0.629    -0.588 -0.1862  0.8011 -0.5688
              Bcc     0.0069     3.690     1.317     1.231  0.9107  0.3579  0.2060
 
              Baa    -0.0032    -1.707    -0.609    -0.570  0.1140 -0.1121  0.9871
    41 H(1)   Bbb    -0.0029    -1.541    -0.550    -0.514 -0.5392  0.8276  0.1562
              Bcc     0.0061     3.249     1.159     1.084  0.8345  0.5500 -0.0339
 
              Baa    -0.0089    -1.192    -0.425    -0.398 -0.5095  0.0964  0.8551
    42 C(13)  Bbb    -0.0027    -0.365    -0.130    -0.122  0.7511 -0.4351  0.4966
              Bcc     0.0116     1.557     0.556     0.519  0.4199  0.8952  0.1493
 
              Baa    -0.0041    -2.174    -0.776    -0.725 -0.1844  0.0717  0.9802
    43 H(1)   Bbb    -0.0037    -1.956    -0.698    -0.652  0.9263 -0.3208  0.1977
              Bcc     0.0077     4.129     1.473     1.377  0.3286  0.9444 -0.0072
 
              Baa    -0.0073    -0.979    -0.349    -0.326  0.6814 -0.5561  0.4759
    44 C(13)  Bbb     0.0000     0.000     0.000     0.000  0.2703  0.7954  0.5424
              Bcc     0.0073     0.978     0.349     0.326 -0.6802 -0.2410  0.6923
 
              Baa    -0.0025    -1.355    -0.483    -0.452 -0.4206  0.0713  0.9045
    45 H(1)   Bbb    -0.0019    -1.001    -0.357    -0.334 -0.6052  0.7206 -0.3382
              Bcc     0.0044     2.356     0.841     0.786  0.6759  0.6897  0.2599
 
              Baa    -0.0021    -1.138    -0.406    -0.380  0.6180 -0.3805  0.6879
    46 H(1)   Bbb    -0.0017    -0.930    -0.332    -0.310 -0.6644  0.2150  0.7158
              Bcc     0.0039     2.068     0.738     0.690  0.4203  0.8994  0.1199
 
              Baa    -0.0049    -0.655    -0.234    -0.218  0.7743  0.3655  0.5166
    47 C(13)  Bbb    -0.0046    -0.614    -0.219    -0.205 -0.4915 -0.1668  0.8547
              Bcc     0.0095     1.269     0.453     0.423 -0.3986  0.9157 -0.0505
 
              Baa    -0.0043    -2.269    -0.810    -0.757  0.1028  0.1902  0.9763
    48 H(1)   Bbb    -0.0037    -1.955    -0.698    -0.652  0.9616  0.2319 -0.1464
              Bcc     0.0079     4.224     1.507     1.409 -0.2543  0.9540 -0.1591
 
              Baa    -0.0036    -1.913    -0.683    -0.638 -0.5873 -0.3614  0.7242
    49 H(1)   Bbb    -0.0033    -1.754    -0.626    -0.585  0.7099  0.1998  0.6754
              Bcc     0.0069     3.667     1.309     1.223 -0.3887  0.9108  0.1392
 
              Baa    -0.0033    -1.751    -0.625    -0.584 -0.0495  0.1418  0.9887
    50 H(1)   Bbb    -0.0029    -1.554    -0.555    -0.518  0.8498  0.5260 -0.0329
              Bcc     0.0062     3.305     1.179     1.103 -0.5247  0.8386 -0.1465
 
              Baa    -0.0104    -1.391    -0.496    -0.464 -0.2726 -0.4944  0.8254
    51 C(13)  Bbb    -0.0021    -0.285    -0.102    -0.095  0.3262  0.7596  0.5627
              Bcc     0.0125     1.677     0.598     0.559  0.9051 -0.4227  0.0458
 
              Baa    -0.0042    -2.246    -0.801    -0.749 -0.2662 -0.1824  0.9465
    52 H(1)   Bbb    -0.0038    -2.011    -0.718    -0.671  0.2730  0.9275  0.2555
              Bcc     0.0080     4.257     1.519     1.420  0.9244 -0.3264  0.1971
 
              Baa    -0.0087    -1.171    -0.418    -0.391  0.4379  0.6907  0.5756
    53 C(13)  Bbb    -0.0011    -0.148    -0.053    -0.050  0.8984 -0.3598 -0.2518
              Bcc     0.0098     1.319     0.471     0.440 -0.0332 -0.6273  0.7780
 
              Baa    -0.0025    -1.353    -0.483    -0.451 -0.2570 -0.4090  0.8756
    54 H(1)   Bbb    -0.0017    -0.905    -0.323    -0.302  0.6498  0.5976  0.4698
              Bcc     0.0042     2.258     0.806     0.753  0.7154 -0.6897 -0.1122
 
              Baa    -0.0022    -1.198    -0.428    -0.400  0.2178  0.6660  0.7134
    55 H(1)   Bbb    -0.0018    -0.939    -0.335    -0.313 -0.3490 -0.6295  0.6942
              Bcc     0.0040     2.137     0.762     0.713  0.9115 -0.4002  0.0953
 
              Baa    -0.0049    -0.654    -0.233    -0.218 -0.3956  0.8957 -0.2033
    56 C(13)  Bbb    -0.0045    -0.603    -0.215    -0.201 -0.0509  0.1997  0.9785
              Bcc     0.0094     1.258     0.449     0.420  0.9170  0.3974 -0.0334
 
              Baa    -0.0039    -2.055    -0.733    -0.686 -0.2917  0.4103  0.8640
    57 H(1)   Bbb    -0.0034    -1.834    -0.655    -0.612 -0.2240  0.8489 -0.4788
              Bcc     0.0073     3.889     1.388     1.297  0.9299  0.3332  0.1557
 
              Baa    -0.0041    -2.184    -0.779    -0.728  0.2753 -0.3219  0.9059
    58 H(1)   Bbb    -0.0036    -1.912    -0.682    -0.638 -0.2130  0.8985  0.3840
              Bcc     0.0077     4.096     1.461     1.366  0.9375  0.2986 -0.1788
 
              Baa    -0.0032    -1.692    -0.604    -0.564  0.0405  0.0323  0.9987
    59 H(1)   Bbb    -0.0029    -1.563    -0.558    -0.522 -0.5439  0.8391 -0.0051
              Bcc     0.0061     3.255     1.162     1.086  0.8382  0.5430 -0.0516
 
              Baa    -0.0049    -0.651    -0.232    -0.217  0.8756 -0.4384 -0.2028
    60 C(13)  Bbb    -0.0045    -0.605    -0.216    -0.202  0.2120 -0.0283  0.9769
              Bcc     0.0094     1.256     0.448     0.419  0.4340  0.8983 -0.0682
 
              Baa    -0.0032    -1.688    -0.602    -0.563 -0.0227  0.0972  0.9950
    61 H(1)   Bbb    -0.0029    -1.560    -0.557    -0.520  0.8171 -0.5717  0.0745
              Bcc     0.0061     3.248     1.159     1.083  0.5761  0.8147 -0.0665
 
              Baa    -0.0041    -2.167    -0.773    -0.723 -0.3862  0.3548  0.8514
    62 H(1)   Bbb    -0.0036    -1.914    -0.683    -0.639  0.8541 -0.2110  0.4753
              Bcc     0.0076     4.081     1.456     1.361  0.3483  0.9108 -0.2216
 
              Baa    -0.0039    -2.056    -0.734    -0.686  0.3324 -0.2389  0.9124
    63 H(1)   Bbb    -0.0034    -1.835    -0.655    -0.612  0.8735 -0.2868 -0.3933
              Bcc     0.0073     3.892     1.389     1.298  0.3557  0.9277  0.1133
 
              Baa    -0.1259     9.110     3.251     3.039 -0.6846  0.7206 -0.1098
    64 O(17)  Bbb    -0.0902     6.524     2.328     2.176  0.7209  0.6916  0.0447
              Bcc     0.2161   -15.634    -5.579    -5.215 -0.1081  0.0486  0.9929
 
              Baa    -0.0378   -20.172    -7.198    -6.729  0.7117  0.7007  0.0505
    65 H(1)   Bbb    -0.0297   -15.843    -5.653    -5.285 -0.6192  0.6596 -0.4260
              Bcc     0.0675    36.015    12.851    12.013 -0.3318  0.2719  0.9033
 
              Baa    -0.0327   -17.443    -6.224    -5.818  0.7350  0.6760  0.0520
    66 H(1)   Bbb    -0.0256   -13.677    -4.880    -4.562 -0.6642  0.7025  0.2557
              Bcc     0.0583    31.120    11.104    10.381  0.1363 -0.2225  0.9654
 
              Baa    -0.0050    -0.675    -0.241    -0.225 -0.1447  0.9894 -0.0146
    67 C(13)  Bbb    -0.0050    -0.670    -0.239    -0.224  0.9390  0.1420  0.3133
              Bcc     0.0100     1.345     0.480     0.449 -0.3120 -0.0317  0.9496
 
              Baa    -0.0040    -2.122    -0.757    -0.708  0.0181  0.9992  0.0346
    68 H(1)   Bbb    -0.0037    -1.971    -0.703    -0.657  0.8739 -0.0326  0.4849
              Bcc     0.0077     4.093     1.461     1.365 -0.4857 -0.0215  0.8739
 
              Baa    -0.0033    -1.734    -0.619    -0.578  0.8512 -0.4555  0.2608
    69 H(1)   Bbb    -0.0031    -1.653    -0.590    -0.551  0.4719  0.8816 -0.0006
              Bcc     0.0063     3.387     1.209     1.130 -0.2297  0.1236  0.9654
 
              Baa    -0.0033    -1.740    -0.621    -0.580  0.8838  0.3637  0.2942
    70 H(1)   Bbb    -0.0031    -1.659    -0.592    -0.554 -0.4023  0.9119  0.0812
              Bcc     0.0064     3.399     1.213     1.134 -0.2388 -0.1901  0.9523
 
              Baa    -0.0154    -0.594    -0.212    -0.198  0.9965 -0.0361 -0.0750
    71 N(14)  Bbb    -0.0074    -0.284    -0.101    -0.095  0.0395  0.9983  0.0438
              Bcc     0.0228     0.878     0.313     0.293  0.0733 -0.0466  0.9962
 
              Baa    -0.0062    -3.307    -1.180    -1.103  0.0160  0.9989  0.0441
    72 H(1)   Bbb    -0.0058    -3.087    -1.102    -1.030  0.9652 -0.0039 -0.2613
              Bcc     0.0120     6.394     2.281     2.133  0.2608 -0.0468  0.9642
 
              Baa    -0.0124    -1.661    -0.593    -0.554  0.9899 -0.0113  0.1412
    73 C(13)  Bbb    -0.0084    -1.122    -0.401    -0.374  0.0054  0.9991  0.0425
              Bcc     0.0207     2.783     0.993     0.928 -0.1416 -0.0413  0.9891
 
              Baa    -0.0267    -3.584    -1.279    -1.196  0.7343  0.5883 -0.3385
    74 C(13)  Bbb    -0.0262    -3.510    -1.252    -1.171 -0.5083  0.8072  0.3002
              Bcc     0.0529     7.095     2.531     2.366  0.4499 -0.0484  0.8918
 
              Baa    -0.0214   -11.414    -4.073    -3.807  0.0509  0.9986  0.0168
    75 H(1)   Bbb    -0.0199   -10.641    -3.797    -3.549  0.7670 -0.0284 -0.6410
              Bcc     0.0413    22.055     7.870     7.357  0.6396 -0.0455  0.7674
 
              Baa    -0.1847    -7.124    -2.542    -2.376  0.9989 -0.0322  0.0342
    76 N(14)  Bbb    -0.1497    -5.773    -2.060    -1.926  0.0309  0.9988  0.0378
              Bcc     0.3344    12.898     4.602     4.302 -0.0354 -0.0367  0.9987
 
              Baa    -0.0357    -4.786    -1.708    -1.596  0.0243  0.9990  0.0363
    77 C(13)  Bbb    -0.0241    -3.233    -1.154    -1.078  0.8704 -0.0390  0.4907
              Bcc     0.0598     8.019     2.861     2.675 -0.4917 -0.0197  0.8705
 
              Baa    -0.0216   -11.505    -4.105    -3.838  0.0237  0.9993  0.0290
    78 H(1)   Bbb    -0.0204   -10.885    -3.884    -3.631  0.7237 -0.0372  0.6891
              Bcc     0.0420    22.390     7.989     7.468 -0.6897 -0.0047  0.7241
 

 ---------------------------------------------------------------------------------

 Unable to Open any file for archive entry.
 1\1\GINC-BGN1040\SP\UAPFD\Gen\C34H36Fe1N6O1(1+,6)\BECSLEIP\03-Sep-2024
 \0\\# apfd/gen scf=maxcycle=999 geom=check\\2rbt_III_H\\1,6\Fe,0,11.50
 61458846,-2.8169271971,1.5763648799\N,0,12.1119262966,-1.1717085646,2.
 5495312493\N,0,9.8580506334,-2.8745271758,2.711120081\N,0,10.872888209
 ,-4.4113093511,0.5585503179\N,0,13.1298423094,-2.7144944226,0.40971267
 61\C,0,13.2660044494,-0.4817460059,2.3499745428\C,0,13.3106244727,0.69
 42676899,3.1893397008\C,0,12.1741038379,0.6740832463,3.937136103\C,0,1
 1.4374184385,-0.4988270596,3.5224311237\C,0,9.4985740334,-1.9950883688
 ,3.6857498901\C,0,8.2811151126,-2.4127163949,4.3320846397\C,0,7.903338
 0542,-3.5800763582,3.722641291\C,0,8.8955316319,-3.8320397485,2.694399
 6564\C,0,9.7357416368,-5.123550004,0.7847407892\C,0,9.5520527023,-6.13
 22733431,-0.2277344018\C,0,10.639209503,-6.0469654533,-1.057070617\C,0
 ,11.4579931492,-4.9718661821,-0.5300360309\C,0,13.4946418952,-3.608896
 8734,-0.5453423967\C,0,14.8477423195,-3.3620401684,-0.9929402385\C,0,1
 5.2913650633,-2.289153624,-0.2855106621\C,0,14.2064792121,-1.904771024
 3,0.5912516613\C,0,14.2639620931,-0.8318058102,1.459347037\H,0,15.1575
 887421,-0.2264973351,1.4487515169\C,0,10.2211466617,-0.8737191445,4.05
 88386587\H,0,9.8138518022,-0.2554931307,4.8444907492\C,0,8.8431578631,
 -4.8975448659,1.8180062924\H,0,8.0181414584,-5.5862549787,1.9176134478
 \C,0,12.682302071,-4.6040587496,-1.0577659859\H,0,13.0688484887,-5.187
 48224,-1.8798243917\C,0,11.7064636114,1.639618688,4.972274154\H,0,12.4
 252892886,2.4447952994,5.1028730455\H,0,11.5749277619,1.1394626674,5.9
 322787852\H,0,10.7494058996,2.0772223952,4.6866896125\C,0,14.427958143
 9,1.6806822795,3.1959507888\H,0,14.5690735236,2.1059984661,2.202221829
 4\H,0,15.3612344908,1.2011549223,3.4927916975\H,0,14.224541909,2.49238
 66178,3.8902521558\C,0,7.5706752202,-1.6522592988,5.3975770547\H,0,7.6
 342251208,-0.5807162037,5.2137453279\H,0,8.0058424471,-1.8524407003,6.
 3784312705\H,0,6.5213584755,-1.9391305124,5.4236511199\C,0,6.748678275
 4,-4.410908058,3.9796516879\H,0,6.3307789533,-4.9140528353,3.115499478
 1\C,0,6.1854255089,-4.604356612,5.1681878917\H,0,6.5836555546,-4.17121
 31779,6.0691061175\H,0,5.3155468139,-5.2294754079,5.2841948065\C,0,8.3
 643733762,-7.0228336588,-0.3447933693\H,0,7.4542732217,-6.4881028269,-
 0.077162191\H,0,8.4569252716,-7.8847457041,0.3182820444\H,0,8.26786128
 84,-7.3842613134,-1.3666073533\C,0,10.9529420209,-6.8113630471,-2.2437
 956371\H,0,11.4922888427,-6.2743717135,-3.015804876\C,0,10.6452210958,
 -8.0888230957,-2.4450136342\H,0,10.153525764,-8.6850188017,-1.69637774
 79\H,0,10.9002942934,-8.5915983469,-3.363322782\C,0,15.5493123697,-4.1
 669980739,-2.0327375901\H,0,15.0323755691,-4.0910840235,-2.9898825152\
 H,0,15.5788998798,-5.2190488085,-1.7483781435\H,0,16.5705644146,-3.819
 2489814,-2.1681295087\C,0,16.6146244406,-1.6052624761,-0.3364306876\H,
 0,17.2761714773,-2.0945334447,-1.0471715823\H,0,17.0916636109,-1.61910
 94696,0.6437497084\H,0,16.4963693774,-0.5645851404,-0.6397090981\O,0,1
 0.43,-1.417,0.156\H,0,10.592,-0.526,0.467\H,0,9.927,-1.647,-0.54\C,0,1
 4.6780736825,-6.702116374,4.023544409\H,0,14.9491636857,-7.176036887,3
 .0853844791\H,0,14.1900837552,-7.4403974587,4.6598299227\H,0,15.588097
 1297,-6.369712035,4.523053921\N,0,13.269780936,-4.7659102963,4.7578204
 134\H,0,13.4487205616,-4.8782473263,5.7421715151\C,0,13.7738023409,-5.
 5548557493,3.757225181\C,0,12.4924555647,-3.8209758429,4.182272674\H,0
 ,11.9666302194,-3.0630623545,4.7253095663\N,0,12.4743944343,-3.9631611
 959,2.8790879406\C,0,13.26598739,-5.0383638381,2.5996651107\H,0,13.416
 5120119,-5.3656607478,1.5917563525\\Version=ES64L-G16RevC.02\State=6-A
 \HF=-2983.2099523\S2=8.758372\S2-1=0.\S2A=8.750021\RMSD=7.444e-09\Dipo
 le=0.8313079,-0.1663423,1.1250347\Quadrupole=-1.9653619,-0.6107589,2.5
 761208,2.9965112,-2.8477447,6.7095402\PG=C01 [X(C34H36Fe1N6O1)]\\@
 The archive entry for this job was punched.


 A SCIENTIST IS SOMEONE WHOSE CURIOSITY SURVIVES
 EDUCATION'S ASSAULTS ON IT.
                          - SIR HERMANN BONDI
 Job cpu time:       0 days  1 hours 52 minutes 42.5 seconds.
 Elapsed time:       0 days  0 hours  1 minutes 56.4 seconds.
 File lengths (MBytes):  RWF=    430 Int=      0 D2E=      0 Chk=    155 Scr=      1
 Normal termination of Gaussian 16 at Tue Sep  3 22:05:16 2024.
