 Entering Gaussian System, Link 0=g16
 Input=2rbu16re.com
 Output=2rbu16re.log
 Initial command:
 /sw/chem/gaussian/g16_C02/a100/g16/l1.exe "/local/becsleip_8004187/Gau-3070486.inp" -scrdir="/local/becsleip_8004187/"
 Entering Link 1 = /sw/chem/gaussian/g16_C02/a100/g16/l1.exe PID=   3070487.
  
 Copyright (c) 1988-2021, Gaussian, Inc.  All Rights Reserved.
  
 This is part of the Gaussian(R) 16 program.  It is based on
 the Gaussian(R) 09 system (copyright 2009, Gaussian, Inc.),
 the Gaussian(R) 03 system (copyright 2003, Gaussian, Inc.),
 the Gaussian(R) 98 system (copyright 1998, Gaussian, Inc.),
 the Gaussian(R) 94 system (copyright 1995, Gaussian, Inc.),
 the Gaussian 92(TM) system (copyright 1992, Gaussian, Inc.),
 the Gaussian 90(TM) system (copyright 1990, Gaussian, Inc.),
 the Gaussian 88(TM) system (copyright 1988, Gaussian, Inc.),
 the Gaussian 86(TM) system (copyright 1986, Carnegie Mellon
 University), and the Gaussian 82(TM) system (copyright 1983,
 Carnegie Mellon University). Gaussian is a federally registered
 trademark of Gaussian, Inc.
  
 This software contains proprietary and confidential information,
 including trade secrets, belonging to Gaussian, Inc.
  
 This software is provided under written license and may be
 used, copied, transmitted, or stored only in accord with that
 written license.
  
 The following legend is applicable only to US Government
 contracts under FAR:
  
                    RESTRICTED RIGHTS LEGEND
  
 Use, reproduction and disclosure by the US Government is
 subject to restrictions as set forth in subparagraphs (a)
 and (c) of the Commercial Computer Software - Restricted
 Rights clause in FAR 52.227-19.
  
 Gaussian, Inc.
 340 Quinnipiac St., Bldg. 40, Wallingford CT 06492
  
  
 ---------------------------------------------------------------
 Warning -- This program may not be used in any manner that
 competes with the business of Gaussian, Inc. or will provide
 assistance to any competitor of Gaussian, Inc.  The licensee
 of this program is prohibited from giving any competitor of
 Gaussian, Inc. access to this program.  By using this program,
 the user acknowledges that Gaussian, Inc. is engaged in the
 business of creating and licensing software in the field of
 computational chemistry and represents and warrants to the
 licensee that it is not a competitor of Gaussian, Inc. and that
 it will not use this program in any manner prohibited above.
 ---------------------------------------------------------------
  

 Cite this work as:
 Gaussian 16, Revision C.02,
 M. J. Frisch, G. W. Trucks, H. B. Schlegel, G. E. Scuseria, 
 M. A. Robb, J. R. Cheeseman, G. Scalmani, V. Barone, 
 G. A. Petersson, H. Nakatsuji, X. Li, M. Caricato, A. V. Marenich, 
 J. Bloino, B. G. Janesko, R. Gomperts, B. Mennucci, H. P. Hratchian, 
 J. V. Ortiz, A. F. Izmaylov, J. L. Sonnenberg, D. Williams-Young, 
 F. Ding, F. Lipparini, F. Egidi, J. Goings, B. Peng, A. Petrone, 
 T. Henderson, D. Ranasinghe, V. G. Zakrzewski, J. Gao, N. Rega, 
 G. Zheng, W. Liang, M. Hada, M. Ehara, K. Toyota, R. Fukuda, 
 J. Hasegawa, M. Ishida, T. Nakajima, Y. Honda, O. Kitao, H. Nakai, 
 T. Vreven, K. Throssell, J. A. Montgomery, Jr., J. E. Peralta, 
 F. Ogliaro, M. J. Bearpark, J. J. Heyd, E. N. Brothers, K. N. Kudin, 
 V. N. Staroverov, T. A. Keith, R. Kobayashi, J. Normand, 
 K. Raghavachari, A. P. Rendell, J. C. Burant, S. S. Iyengar, 
 J. Tomasi, M. Cossi, J. M. Millam, M. Klene, C. Adamo, R. Cammi, 
 J. W. Ochterski, R. L. Martin, K. Morokuma, O. Farkas, 
 J. B. Foresman, and D. J. Fox, Gaussian, Inc., Wallingford CT, 2019.
 
 ******************************************
 Gaussian 16:  ES64L-G16RevC.02  7-Dec-2021
                 3-Sep-2024 
 ******************************************
 %mem=16GB
 %CPU=0-71
 SetSPE:  set environment variable "OMP_PROC_BIND" = "true"
 SetSPE:  set environment variable "OMP_PLACES" = "{0},{1},{2},{3},{4},{5},{6},{7},{8},{9},{10},{11},{12},{13},{14},{15},{16},{17},{18},{19},{20},{21},{22},{23},{24},{25},{26},{27},{28},{29},{30},{31},{32},{33},{34},{35},{36},{37},{38},{39},{40},{41},{42},{43},{44},{45},{46},{47},{48},{49},{50},{51},{52},{53},{54},{55},{56},{57},{58},{59},{60},{61},{62},{63},{64},{65},{66},{67},{68},{69},{70},{71}"
 Will use up to   72 processors via shared memory.
 %gpucpu=0,1,2,3=0,1,2,3
 Will use    4 GPUs:
 Thread  CPU   GPU
      0    0     0
      1    1     1
      2    2     2
      3    3     3
      4    4    -1
      5    5    -1
      6    6    -1
      7    7    -1
      8    8    -1
      9    9    -1
     10   10    -1
     11   11    -1
     12   12    -1
     13   13    -1
     14   14    -1
     15   15    -1
     16   16    -1
     17   17    -1
     18   18    -1
     19   19    -1
     20   20    -1
     21   21    -1
     22   22    -1
     23   23    -1
     24   24    -1
     25   25    -1
     26   26    -1
     27   27    -1
     28   28    -1
     29   29    -1
     30   30    -1
     31   31    -1
     32   32    -1
     33   33    -1
     34   34    -1
     35   35    -1
     36   36    -1
     37   37    -1
     38   38    -1
     39   39    -1
     40   40    -1
     41   41    -1
     42   42    -1
     43   43    -1
     44   44    -1
     45   45    -1
     46   46    -1
     47   47    -1
     48   48    -1
     49   49    -1
     50   50    -1
     51   51    -1
     52   52    -1
     53   53    -1
     54   54    -1
     55   55    -1
     56   56    -1
     57   57    -1
     58   58    -1
     59   59    -1
     60   60    -1
     61   61    -1
     62   62    -1
     63   63    -1
     64   64    -1
     65   65    -1
     66   66    -1
     67   67    -1
     68   68    -1
     69   69    -1
     70   70    -1
     71   71    -1
 SetGPE:  set environment variable "OMP_PROC_BIND" = "true"
 SetGPE:  set environment variable "OMP_PLACES" = "{0},{1},{2},{3},{4},{5},{6},{7},{8},{9},{10},{11},{12},{13},{14},{15},{16},{17},{18},{19},{20},{21},{22},{23},{24},{25},{26},{27},{28},{29},{30},{31},{32},{33},{34},{35},{36},{37},{38},{39},{40},{41},{42},{43},{44},{45},{46},{47},{48},{49},{50},{51},{52},{53},{54},{55},{56},{57},{58},{59},{60},{61},{62},{63},{64},{65},{66},{67},{68},{69},{70},{71}"
 %oldchk=2rbu_III_D.chk
 %chk=2rbu_III_Dre.chk
 Properties for Device   0
 Minimum vector length:                              32
 Maximum vector length:                            1024
 Number of SMPs:                                    108
 Maximum number of threads per SMP:                2048
 Number of ASync Engines:                             5
 Memory:                                           9207742464
 Properties for Device   1
 Minimum vector length:                              32
 Maximum vector length:                            1024
 Number of SMPs:                                    108
 Maximum number of threads per SMP:                2048
 Number of ASync Engines:                             5
 Memory:                                           9207742464
 Properties for Device   2
 Minimum vector length:                              32
 Maximum vector length:                            1024
 Number of SMPs:                                    108
 Maximum number of threads per SMP:                2048
 Number of ASync Engines:                             5
 Memory:                                           9207742464
 Properties for Device   3
 Minimum vector length:                              32
 Maximum vector length:                            1024
 Number of SMPs:                                    108
 Maximum number of threads per SMP:                2048
 Number of ASync Engines:                             5
 Memory:                                           9207742464
   8286968217 words of memory will be used on each GPU.
 Copying data from "2rbu_III_D.chk" to current chk file "2rbu_III_Dre.chk"
 IOpt=  2 FromEx=T IUOpen= 4 IOptOp= 5 NList=   0 IFRang= 0 IUIn= 4 IUOut= 2.
 --------------------------------------
 # apfd/gen scf=maxcycle=999 geom=check
 --------------------------------------
 1/29=2,38=1,172=1/1;
 2/12=2,40=1/2;
 3/5=7,11=2,14=-4,25=1,30=1,74=-44/1,2,3;
 4//1;
 5/5=2,7=999,38=5/2;
 6/7=2,8=2,9=2,10=2,28=1/1;
 99/5=1,9=1/99;
 ----------
 2rbu_III_H
 ----------
 Structure from the checkpoint file:  "2rbu_III_Dre.chk"
 Charge =  1 Multiplicity = 6
 Z-Matrix found in chk file.
 Fe,0,11.7405548885,-2.6425787735,1.4315670846
 N,0,12.3180974895,-0.9392662801,2.3289246178
 N,0,10.0441081587,-2.6177161495,2.5071692945
 N,0,11.0930978245,-4.2273945487,0.4239584898
 N,0,13.3499582449,-2.5217013653,0.230130752
 C,0,13.4622427351,-0.2405575667,2.1000570118
 C,0,13.5003718433,0.9580002627,2.908034277
 C,0,12.3541303519,0.9629797239,3.6403141841
 C,0,11.635069383,-0.237738524,3.2756807232
 C,0,9.7132916404,-1.7474778063,3.4990730502
 C,0,8.5263365569,-2.1805143825,4.1900790758
 C,0,8.1469145861,-3.3580061766,3.6006589456
 C,0,9.1087742757,-3.6018092029,2.5427669115
 C,0,9.9378199059,-4.9131389467,0.6407942444
 C,0,9.7509106136,-5.9323752232,-0.3607247419
 C,0,10.8434963546,-5.8675582427,-1.1843152172
 C,0,11.6759133959,-4.8014582224,-0.6591092714
 C,0,13.7161364468,-3.4414538807,-0.7002057548
 C,0,15.084578489,-3.2327077846,-1.1198360084
 C,0,15.5342866992,-2.1539246328,-0.4242039232
 C,0,14.4323138909,-1.7195819196,0.4055505464
 C,0,14.4769821107,-0.6198975106,1.2409451799
 H,0,15.3696165641,-0.0131536522,1.2239784532
 C,0,10.4186283168,-0.598929685,3.8204668354
 H,0,10.0141149449,0.0359083936,4.5943279335
 C,0,9.045606349,-4.6711787804,1.6709519144
 H,0,8.221182818,-5.3589885965,1.7824502614
 C,0,12.9009971248,-4.4450750591,-1.1926875327
 H,0,13.2861850515,-5.0447030266,-2.0038547421
 C,0,11.8728610383,1.9630677811,4.6355167808
 H,0,12.5774811006,2.7858098439,4.7284868745
 H,0,11.7534502415,1.5023939485,5.6167142318
 H,0,10.9072555529,2.3706086507,4.3349795543
 C,0,14.6095625555,1.9531853425,2.8821029805
 H,0,14.7465828891,2.3479994445,1.8752209546
 H,0,15.5466403737,1.4903604723,3.192924905
 H,0,14.400645239,2.784631738,3.5509187872
 C,0,7.8437704509,-1.4279959146,5.279068626
 H,0,7.8700771648,-0.3570112923,5.0826172546
 H,0,8.3278394067,-1.6056788273,6.241263275
 H,0,6.804823459,-1.7422558035,5.3550475665
 C,0,7.0189121131,-4.2091098259,3.9060497626
 H,0,6.5735871102,-4.7192805133,3.0598547627
 C,0,6.510883342,-4.4127873733,5.117423536
 H,0,6.9397882639,-3.9724374426,6.0006714509
 H,0,5.6576656136,-5.0526903549,5.2706580441
 C,0,8.5497823469,-6.8045973719,-0.4789437637
 H,0,7.6452126387,-6.2479473896,-0.2376791438
 H,0,8.6165904727,-7.6530982043,0.2044555941
 H,0,8.463524033,-7.1868448586,-1.4940314082
 C,0,11.1529255635,-6.645086722,-2.3638636927
 H,0,11.6961266005,-6.1187240412,-3.1404483524
 C,0,10.8359829877,-7.9220333434,-2.553012709
 H,0,10.3401002876,-8.5072049179,-1.7984001735
 H,0,11.0873929402,-8.435618913,-3.4663223716
 C,0,15.795677546,-4.078085285,-2.1203885473
 H,0,15.3052134281,-4.0157057288,-3.0923707817
 H,0,15.7955029474,-5.1231609222,-1.8097855608
 H,0,16.8271657728,-3.7547933118,-2.2376710659
 C,0,16.8724143894,-1.4986127784,-0.455994285
 H,0,17.5495315152,-2.032140372,-1.1186473034
 H,0,17.3121072681,-1.47684274,0.5412825974
 H,0,16.7872089002,-0.4705716018,-0.8097559584
 O,0,10.683,-1.284,-0.046
 H,0,10.856,-0.385,0.233
 H,0,10.201,-1.532,-0.751
 C,0,14.9074460694,-6.4289520702,4.0014706266
 H,0,15.2884731419,-6.8454681709,3.0738365693
 H,0,14.3917801925,-7.2169238538,4.5513613126
 H,0,15.748820862,-6.086688062,4.6041651507
 N,0,13.415430698,-4.5354923092,4.6796284244
 H,0,13.553005485,-4.6470131921,5.6706712649
 C,0,13.9849862799,-5.3053067493,3.6994474897
 C,0,12.6383525948,-3.609026608,4.0731567416
 H,0,12.0684076107,-2.8677051766,4.594437327
 N,0,12.6811448148,-3.7464377809,2.7694562714
 C,0,13.5144769616,-4.7982513496,2.5220502158
 H,0,13.7176319173,-5.1153895046,1.5199180269
 Recover connectivity data from disk.
 Stoichiometry    C34H36FeN6O(1+,6)
 Framework group  C1[X(C34H36FeN6O)]
 Deg. of freedom   228
 Full point group                 C1      NOp   1
 Largest Abelian subgroup         C1      NOp   1
 Largest concise Abelian subgroup C1      NOp   1
                         Standard orientation:                         
 ---------------------------------------------------------------------
 Center     Atomic      Atomic             Coordinates (Angstroms)
 Number     Number       Type             X           Y           Z
 ---------------------------------------------------------------------
      1         26           0        0.060637   -0.163445   -0.407514
      2          7           0        1.428235   -1.634378   -0.485709
      3          7           0        1.539619    1.195210   -0.453771
      4          7           0       -1.292362    1.287836   -0.503920
      5          7           0       -1.392892   -1.545173   -0.569753
      6          6           0        1.189964   -2.973027   -0.515527
      7          6           0        2.429086   -3.711364   -0.616791
      8          6           0        3.425794   -2.786016   -0.637578
      9          6           0        2.781946   -1.494631   -0.540042
     10          6           0        2.877809    0.954192   -0.411502
     11          6           0        3.616474    2.177384   -0.232483
     12          6           0        2.685435    3.179335   -0.148085
     13          6           0        1.394088    2.536879   -0.301126
     14          6           0       -1.051063    2.627097   -0.494771
     15          6           0       -2.270051    3.369059   -0.695719
     16          6           0       -3.272215    2.441322   -0.801630
     17          6           0       -2.633090    1.146304   -0.661008
     18          6           0       -2.728442   -1.300404   -0.525584
     19          6           0       -3.469209   -2.523696   -0.308516
     20          6           0       -2.544793   -3.518445   -0.232077
     21          6           0       -1.255608   -2.886990   -0.407454
     22          6           0       -0.054489   -3.569586   -0.431135
     23          1           0       -0.088929   -4.647172   -0.377788
     24          6           0        3.466755   -0.295705   -0.515691
     25          1           0        4.545365   -0.340801   -0.524609
     26          6           0        0.191002    3.214715   -0.328052
     27          1           0        0.221052    4.290095   -0.239496
     28          6           0       -3.315962   -0.056248   -0.670987
     29          1           0       -4.394112   -0.018261   -0.716422
     30          6           0        4.899734   -2.986709   -0.734786
     31          1           0        5.141580   -4.043787   -0.813106
     32          1           0        5.401415   -2.585368    0.146390
     33          1           0        5.300161   -2.477244   -1.611661
     34          6           0        2.517503   -5.197375   -0.689773
     35          1           0        1.953319   -5.573267   -1.543508
     36          1           0        2.105189   -5.650289    0.212335
     37          1           0        3.550727   -5.520054   -0.792683
     38          6           0        5.101491    2.289520   -0.217339
     39          1           0        5.546668    1.611398   -0.944155
     40          1           0        5.503392    2.039585    0.766389
     41          1           0        5.401184    3.306624   -0.461526
     42          6           0        2.887495    4.600007    0.027684
     43          1           0        2.169803    5.241088   -0.470883
     44          6           0        3.856571    5.159159    0.745490
     45          1           0        4.568747    4.574594    1.301442
     46          1           0        3.955248    6.229319    0.822683
     47          6           0       -2.357022    4.849254   -0.833250
     48          1           0       -1.505594    5.234016   -1.393021
     49          1           0       -2.362923    5.331103    0.146157
     50          1           0       -3.270810    5.123250   -1.356580
     51          6           0       -4.685887    2.637844   -1.035173
     52          1           0       -5.174074    1.865965   -1.619198
     53          6           0       -5.407829    3.661495   -0.590470
     54          1           0       -4.987535    4.431073    0.033123
     55          1           0       -6.457806    3.750440   -0.815745
     56          6           0       -4.953571   -2.599560   -0.197399
     57          1           0       -5.424366   -2.274619   -1.125818
     58          1           0       -5.312169   -1.954883    0.605380
     59          1           0       -5.275118   -3.617352    0.009840
     60          6           0       -2.743010   -4.979214   -0.013230
     61          1           0       -3.794741   -5.208966    0.139493
     62          1           0       -2.186367   -5.314455    0.862057
     63          1           0       -2.390654   -5.546978   -0.875068
     64          8           0        0.176872   -0.191504   -2.673141
     65          1           0        0.811035   -0.868532   -2.908597
     66          1           0       -0.277312    0.322816   -3.238866
     67          6           0       -1.473311   -0.300604    4.940235
     68          1           0       -2.531873   -0.373907    4.709482
     69          1           0       -1.306547    0.602657    5.528027
     70          1           0       -1.185918   -1.159982    5.546181
     71          7           0        0.678671   -0.252257    3.660456
     72          1           0        1.278541   -0.266975    4.468830
     73          6           0       -0.691495   -0.261354    3.678509
     74          6           0        1.071072   -0.216363    2.366343
     75          1           0        2.093113   -0.201866    2.047987
     76          7           0        0.032790   -0.201452    1.565033
     77          6           0       -1.070804   -0.228440    2.367102
     78          1           0       -2.055890   -0.223204    1.947942
 ---------------------------------------------------------------------
 Rotational constants (GHZ):           0.0937362           0.0916680           0.0595516
 General basis read from cards:  (5D, 7F)
 There are   723 symmetry adapted cartesian basis functions of A   symmetry.
 There are   679 symmetry adapted basis functions of A   symmetry.
   679 basis functions,  1378 primitive gaussians,   723 cartesian basis functions
   160 alpha electrons      155 beta electrons
       nuclear repulsion energy      5973.9289058044 Hartrees.
 NAtoms=   78 NActive=   78 NUniq=   78 SFac= 1.00D+00 NAtFMM=   60 NAOKFM=T Big=T
 Integral buffers will be    131072 words long.
 Raffenetti 2 integral format.
 Two-electron integral symmetry is turned on.
 R6APFD:  NTU= -4 IXU= 1 FactS= 1.050
 Nuclear repulsion after empirical dispersion term =     5973.7755384537 Hartrees.
 One-electron integrals computed using PRISM.
 NBasis=   679 RedAO= T EigKep=  2.57D-04  NBF=   679
 NBsUse=   679 1.00D-06 EigRej= -1.00D+00 NBFU=   679
 ExpMin= 4.20D-02 ExpMax= 3.01D+05 ExpMxC= 2.91D+03 IAcc=3 IRadAn=         5 AccDes= 0.00D+00
 Harris functional with IExCor= 3731 and IRadAn=       5 diagonalized for initial guess.
 HarFok:  IExCor= 3731 AccDes= 0.00D+00 IRadAn=         5 IDoV= 1 UseB2=F ITyADJ=14
 ICtDFT=  3500011 ScaDFX=  1.000000  1.000000  1.000000  1.000000
 FoFCou: FMM=F IPFlag=           0 FMFlag=      100000 FMFlg1=        2001
         NFxFlg=           0 DoJE=T BraDBF=F KetDBF=T FulRan=T
         wScrn=  0.000000 ICntrl=       500 IOpCl=  0 I1Cent=   200000004 NGrid=           0
         NMat0=    1 NMatS0=      1 NMatT0=    0 NMatD0=    1 NMtDS0=    0 NMtDT0=    0
 Petite list used in FoFCou.
 Initial guess <Sx>= 0.0000 <Sy>= 0.0000 <Sz>= 2.5000 <S**2>= 8.7500 S= 2.5000
 Requested convergence on RMS density matrix=1.00D-08 within 999 cycles.
 Requested convergence on MAX density matrix=1.00D-06.
 Requested convergence on             energy=1.00D-06.
 No special actions if energy rises.
 EnCoef did   100 forward-backward iterations
 EnCoef did   100 forward-backward iterations
 EnCoef did   100 forward-backward iterations
 EnCoef did   100 forward-backward iterations
 EnCoef did     4 forward-backward iterations
 Restarting incremental Fock formation.
 SCF Done:  E(UAPFD) =  -2983.20998211     A.U. after   30 cycles
            NFock= 30  Conv=0.57D-08     -V/T= 2.0034
 <Sx>= 0.0000 <Sy>= 0.0000 <Sz>= 2.5000 <S**2>= 8.7582 S= 2.5014
 <L.S>=  0.00000000000    
 Annihilation of the first spin contaminant:
 S**2 before annihilation     8.7582,   after     8.7500

 **********************************************************************

            Population analysis using the SCF Density.

 **********************************************************************

 Orbital symmetries:
 Alpha Orbitals:
       Occupied  (A) (A) (A) (A) (A) (A) (A) (A) (A) (A) (A) (A)
                 (A) (A) (A) (A) (A) (A) (A) (A) (A) (A) (A) (A)
                 (A) (A) (A) (A) (A) (A) (A) (A) (A) (A) (A) (A)
                 (A) (A) (A) (A) (A) (A) (A) (A) (A) (A) (A) (A)
                 (A) (A) (A) (A) (A) (A) (A) (A) (A) (A) (A) (A)
                 (A) (A) (A) (A) (A) (A) (A) (A) (A) (A) (A) (A)
                 (A) (A) (A) (A) (A) (A) (A) (A) (A) (A) (A) (A)
                 (A) (A) (A) (A) (A) (A) (A) (A) (A) (A) (A) (A)
                 (A) (A) (A) (A) (A) (A) (A) (A) (A) (A) (A) (A)
                 (A) (A) (A) (A) (A) (A) (A) (A) (A) (A) (A) (A)
                 (A) (A) (A) (A) (A) (A) (A) (A) (A) (A) (A) (A)
                 (A) (A) (A) (A) (A) (A) (A) (A) (A) (A) (A) (A)
                 (A) (A) (A) (A) (A) (A) (A) (A) (A) (A) (A) (A)
                 (A) (A) (A) (A)
       Virtual   (A) (A) (A) (A) (A) (A) (A) (A) (A) (A) (A) (A)
                 (A) (A) (A) (A) (A) (A) (A) (A) (A) (A) (A) (A)
                 (A) (A) (A) (A) (A) (A) (A) (A) (A) (A) (A) (A)
                 (A) (A) (A) (A) (A) (A) (A) (A) (A) (A) (A) (A)
                 (A) (A) (A) (A) (A) (A) (A) (A) (A) (A) (A) (A)
                 (A) (A) (A) (A) (A) (A) (A) (A) (A) (A) (A) (A)
                 (A) (A) (A) (A) (A) (A) (A) (A) (A) (A) (A) (A)
                 (A) (A) (A) (A) (A) (A) (A) (A) (A) (A) (A) (A)
                 (A) (A) (A) (A) (A) (A) (A) (A) (A) (A) (A) (A)
                 (A) (A) (A) (A) (A) (A) (A) (A) (A) (A) (A) (A)
                 (A) (A) (A) (A) (A) (A) (A) (A) (A) (A) (A) (A)
                 (A) (A) (A) (A) (A) (A) (A) (A) (A) (A) (A) (A)
                 (A) (A) (A) (A) (A) (A) (A) (A) (A) (A) (A) (A)
                 (A) (A) (A) (A) (A) (A) (A) (A) (A) (A) (A) (A)
                 (A) (A) (A) (A) (A) (A) (A) (A) (A) (A) (A) (A)
                 (A) (A) (A) (A) (A) (A) (A) (A) (A) (A) (A) (A)
                 (A) (A) (A) (A) (A) (A) (A) (A) (A) (A) (A) (A)
                 (A) (A) (A) (A) (A) (A) (A) (A) (A) (A) (A) (A)
                 (A) (A) (A) (A) (A) (A) (A) (A) (A) (A) (A) (A)
                 (A) (A) (A) (A) (A) (A) (A) (A) (A) (A) (A) (A)
                 (A) (A) (A) (A) (A) (A) (A) (A) (A) (A) (A) (A)
                 (A) (A) (A) (A) (A) (A) (A) (A) (A) (A) (A) (A)
                 (A) (A) (A) (A) (A) (A) (A) (A) (A) (A) (A) (A)
                 (A) (A) (A) (A) (A) (A) (A) (A) (A) (A) (A) (A)
                 (A) (A) (A) (A) (A) (A) (A) (A) (A) (A) (A) (A)
                 (A) (A) (A) (A) (A) (A) (A) (A) (A) (A) (A) (A)
                 (A) (A) (A) (A) (A) (A) (A) (A) (A) (A) (A) (A)
                 (A) (A) (A) (A) (A) (A) (A) (A) (A) (A) (A) (A)
                 (A) (A) (A) (A) (A) (A) (A) (A) (A) (A) (A) (A)
                 (A) (A) (A) (A) (A) (A) (A) (A) (A) (A) (A) (A)
                 (A) (A) (A) (A) (A) (A) (A) (A) (A) (A) (A) (A)
                 (A) (A) (A) (A) (A) (A) (A) (A) (A) (A) (A) (A)
                 (A) (A) (A) (A) (A) (A) (A) (A) (A) (A) (A) (A)
                 (A) (A) (A) (A) (A) (A) (A) (A) (A) (A) (A) (A)
                 (A) (A) (A) (A) (A) (A) (A) (A) (A) (A) (A) (A)
                 (A) (A) (A) (A) (A) (A) (A) (A) (A) (A) (A) (A)
                 (A) (A) (A) (A) (A) (A) (A) (A) (A) (A) (A) (A)
                 (A) (A) (A) (A) (A) (A) (A) (A) (A) (A) (A) (A)
                 (A) (A) (A) (A) (A) (A) (A) (A) (A) (A) (A) (A)
                 (A) (A) (A) (A) (A) (A) (A) (A) (A) (A) (A) (A)
                 (A) (A) (A) (A) (A) (A) (A) (A) (A) (A) (A) (A)
                 (A) (A) (A) (A) (A) (A) (A) (A) (A) (A) (A) (A)
                 (A) (A) (A) (A) (A) (A) (A) (A) (A) (A) (A) (A)
                 (A) (A) (A)
 Beta  Orbitals:
       Occupied  (A) (A) (A) (A) (A) (A) (A) (A) (A) (A) (A) (A)
                 (A) (A) (A) (A) (A) (A) (A) (A) (A) (A) (A) (A)
                 (A) (A) (A) (A) (A) (A) (A) (A) (A) (A) (A) (A)
                 (A) (A) (A) (A) (A) (A) (A) (A) (A) (A) (A) (A)
                 (A) (A) (A) (A) (A) (A) (A) (A) (A) (A) (A) (A)
                 (A) (A) (A) (A) (A) (A) (A) (A) (A) (A) (A) (A)
                 (A) (A) (A) (A) (A) (A) (A) (A) (A) (A) (A) (A)
                 (A) (A) (A) (A) (A) (A) (A) (A) (A) (A) (A) (A)
                 (A) (A) (A) (A) (A) (A) (A) (A) (A) (A) (A) (A)
                 (A) (A) (A) (A) (A) (A) (A) (A) (A) (A) (A) (A)
                 (A) (A) (A) (A) (A) (A) (A) (A) (A) (A) (A) (A)
                 (A) (A) (A) (A) (A) (A) (A) (A) (A) (A) (A) (A)
                 (A) (A) (A) (A) (A) (A) (A) (A) (A) (A) (A)
       Virtual   (A) (A) (A) (A) (A) (A) (A) (A) (A) (A) (A) (A)
                 (A) (A) (A) (A) (A) (A) (A) (A) (A) (A) (A) (A)
                 (A) (A) (A) (A) (A) (A) (A) (A) (A) (A) (A) (A)
                 (A) (A) (A) (A) (A) (A) (A) (A) (A) (A) (A) (A)
                 (A) (A) (A) (A) (A) (A) (A) (A) (A) (A) (A) (A)
                 (A) (A) (A) (A) (A) (A) (A) (A) (A) (A) (A) (A)
                 (A) (A) (A) (A) (A) (A) (A) (A) (A) (A) (A) (A)
                 (A) (A) (A) (A) (A) (A) (A) (A) (A) (A) (A) (A)
                 (A) (A) (A) (A) (A) (A) (A) (A) (A) (A) (A) (A)
                 (A) (A) (A) (A) (A) (A) (A) (A) (A) (A) (A) (A)
                 (A) (A) (A) (A) (A) (A) (A) (A) (A) (A) (A) (A)
                 (A) (A) (A) (A) (A) (A) (A) (A) (A) (A) (A) (A)
                 (A) (A) (A) (A) (A) (A) (A) (A) (A) (A) (A) (A)
                 (A) (A) (A) (A) (A) (A) (A) (A) (A) (A) (A) (A)
                 (A) (A) (A) (A) (A) (A) (A) (A) (A) (A) (A) (A)
                 (A) (A) (A) (A) (A) (A) (A) (A) (A) (A) (A) (A)
                 (A) (A) (A) (A) (A) (A) (A) (A) (A) (A) (A) (A)
                 (A) (A) (A) (A) (A) (A) (A) (A) (A) (A) (A) (A)
                 (A) (A) (A) (A) (A) (A) (A) (A) (A) (A) (A) (A)
                 (A) (A) (A) (A) (A) (A) (A) (A) (A) (A) (A) (A)
                 (A) (A) (A) (A) (A) (A) (A) (A) (A) (A) (A) (A)
                 (A) (A) (A) (A) (A) (A) (A) (A) (A) (A) (A) (A)
                 (A) (A) (A) (A) (A) (A) (A) (A) (A) (A) (A) (A)
                 (A) (A) (A) (A) (A) (A) (A) (A) (A) (A) (A) (A)
                 (A) (A) (A) (A) (A) (A) (A) (A) (A) (A) (A) (A)
                 (A) (A) (A) (A) (A) (A) (A) (A) (A) (A) (A) (A)
                 (A) (A) (A) (A) (A) (A) (A) (A) (A) (A) (A) (A)
                 (A) (A) (A) (A) (A) (A) (A) (A) (A) (A) (A) (A)
                 (A) (A) (A) (A) (A) (A) (A) (A) (A) (A) (A) (A)
                 (A) (A) (A) (A) (A) (A) (A) (A) (A) (A) (A) (A)
                 (A) (A) (A) (A) (A) (A) (A) (A) (A) (A) (A) (A)
                 (A) (A) (A) (A) (A) (A) (A) (A) (A) (A) (A) (A)
                 (A) (A) (A) (A) (A) (A) (A) (A) (A) (A) (A) (A)
                 (A) (A) (A) (A) (A) (A) (A) (A) (A) (A) (A) (A)
                 (A) (A) (A) (A) (A) (A) (A) (A) (A) (A) (A) (A)
                 (A) (A) (A) (A) (A) (A) (A) (A) (A) (A) (A) (A)
                 (A) (A) (A) (A) (A) (A) (A) (A) (A) (A) (A) (A)
                 (A) (A) (A) (A) (A) (A) (A) (A) (A) (A) (A) (A)
                 (A) (A) (A) (A) (A) (A) (A) (A) (A) (A) (A) (A)
                 (A) (A) (A) (A) (A) (A) (A) (A) (A) (A) (A) (A)
                 (A) (A) (A) (A) (A) (A) (A) (A) (A) (A) (A) (A)
                 (A) (A) (A) (A) (A) (A) (A) (A) (A) (A) (A) (A)
                 (A) (A) (A) (A) (A) (A) (A) (A) (A) (A) (A) (A)
                 (A) (A) (A) (A) (A) (A) (A) (A)
 The electronic state is 6-A.
 Alpha  occ. eigenvalues -- -256.41425 -30.32537 -26.15532 -26.15419 -26.15391
 Alpha  occ. eigenvalues --  -19.29341 -14.54001 -14.49264 -14.46076 -14.46072
 Alpha  occ. eigenvalues --  -14.45837 -14.45624 -10.38091 -10.35221 -10.33311
 Alpha  occ. eigenvalues --  -10.33163 -10.33143 -10.33110 -10.33106 -10.33052
 Alpha  occ. eigenvalues --  -10.32939 -10.32887 -10.32631 -10.30427 -10.30283
 Alpha  occ. eigenvalues --  -10.30242 -10.30177 -10.30122 -10.30087 -10.29968
 Alpha  occ. eigenvalues --  -10.29956 -10.29948 -10.29942 -10.29909 -10.29872
 Alpha  occ. eigenvalues --  -10.29857 -10.29228 -10.29223 -10.28307 -10.28194
 Alpha  occ. eigenvalues --  -10.28071 -10.28039 -10.27988 -10.27988 -10.27913
 Alpha  occ. eigenvalues --  -10.27831  -3.78068  -2.54716  -2.54628  -2.54581
 Alpha  occ. eigenvalues --   -1.16758  -1.16011  -1.08792  -1.07856  -1.07657
 Alpha  occ. eigenvalues --   -1.06782  -1.02674  -0.93235  -0.92036  -0.91750
 Alpha  occ. eigenvalues --   -0.91242  -0.90903  -0.90540  -0.90449  -0.90375
 Alpha  occ. eigenvalues --   -0.86526  -0.85311  -0.84936  -0.84124  -0.82769
 Alpha  occ. eigenvalues --   -0.82117  -0.81026  -0.80089  -0.78454  -0.78217
 Alpha  occ. eigenvalues --   -0.78013  -0.76091  -0.74867  -0.74805  -0.72291
 Alpha  occ. eigenvalues --   -0.71701  -0.70565  -0.69953  -0.68525  -0.68104
 Alpha  occ. eigenvalues --   -0.66929  -0.64918  -0.64259  -0.63677  -0.63515
 Alpha  occ. eigenvalues --   -0.61808  -0.61664  -0.61420  -0.61180  -0.60186
 Alpha  occ. eigenvalues --   -0.58475  -0.58210  -0.58182  -0.57937  -0.56241
 Alpha  occ. eigenvalues --   -0.55982  -0.55823  -0.55655  -0.54950  -0.54645
 Alpha  occ. eigenvalues --   -0.54468  -0.54160  -0.53583  -0.53282  -0.53128
 Alpha  occ. eigenvalues --   -0.53019  -0.52964  -0.52823  -0.52648  -0.52075
 Alpha  occ. eigenvalues --   -0.51968  -0.51671  -0.51528  -0.51469  -0.50960
 Alpha  occ. eigenvalues --   -0.50544  -0.50316  -0.49907  -0.49863  -0.49528
 Alpha  occ. eigenvalues --   -0.49424  -0.49090  -0.48925  -0.48623  -0.48468
 Alpha  occ. eigenvalues --   -0.48361  -0.48137  -0.47584  -0.47475  -0.46743
 Alpha  occ. eigenvalues --   -0.46689  -0.46055  -0.45539  -0.45040  -0.44646
 Alpha  occ. eigenvalues --   -0.44017  -0.43556  -0.43242  -0.42678  -0.42222
 Alpha  occ. eigenvalues --   -0.41657  -0.41077  -0.39417  -0.38933  -0.37639
 Alpha  occ. eigenvalues --   -0.36964  -0.36911  -0.34531  -0.33531  -0.33192
 Alpha  occ. eigenvalues --   -0.32335  -0.31977  -0.31781  -0.29031  -0.28341
 Alpha virt. eigenvalues --   -0.17157  -0.17081  -0.11435  -0.08880  -0.07782
 Alpha virt. eigenvalues --   -0.06541  -0.04831  -0.04325  -0.03325  -0.01734
 Alpha virt. eigenvalues --   -0.01488  -0.00687   0.00958   0.01309   0.02063
 Alpha virt. eigenvalues --    0.02581   0.03173   0.03605   0.04118   0.04254
 Alpha virt. eigenvalues --    0.04667   0.04802   0.05039   0.05339   0.05727
 Alpha virt. eigenvalues --    0.05753   0.06453   0.06612   0.06843   0.07033
 Alpha virt. eigenvalues --    0.07614   0.07718   0.07954   0.08251   0.08612
 Alpha virt. eigenvalues --    0.08683   0.09128   0.09319   0.09572   0.09679
 Alpha virt. eigenvalues --    0.10000   0.10322   0.10429   0.10695   0.11490
 Alpha virt. eigenvalues --    0.11748   0.12003   0.12137   0.12442   0.12969
 Alpha virt. eigenvalues --    0.13049   0.13364   0.13631   0.14016   0.15017
 Alpha virt. eigenvalues --    0.15215   0.15560   0.15970   0.16385   0.16843
 Alpha virt. eigenvalues --    0.17002   0.17182   0.18021   0.18150   0.18357
 Alpha virt. eigenvalues --    0.19634   0.20131   0.20896   0.21455   0.21523
 Alpha virt. eigenvalues --    0.22901   0.23265   0.23671   0.24981   0.25469
 Alpha virt. eigenvalues --    0.25773   0.26182   0.27010   0.27331   0.28651
 Alpha virt. eigenvalues --    0.29225   0.30148   0.30780   0.31470   0.32531
 Alpha virt. eigenvalues --    0.33483   0.33979   0.34285   0.34612   0.35407
 Alpha virt. eigenvalues --    0.37532   0.37897   0.38243   0.39018   0.39423
 Alpha virt. eigenvalues --    0.39621   0.40012   0.40703   0.41057   0.41770
 Alpha virt. eigenvalues --    0.41787   0.42326   0.42840   0.42968   0.43429
 Alpha virt. eigenvalues --    0.43780   0.44176   0.44636   0.45010   0.45320
 Alpha virt. eigenvalues --    0.45507   0.45769   0.46364   0.46481   0.46878
 Alpha virt. eigenvalues --    0.47922   0.48211   0.48712   0.49033   0.49271
 Alpha virt. eigenvalues --    0.49673   0.50428   0.50797   0.50926   0.51367
 Alpha virt. eigenvalues --    0.52149   0.52342   0.52848   0.53028   0.53488
 Alpha virt. eigenvalues --    0.54108   0.54282   0.54804   0.55333   0.55744
 Alpha virt. eigenvalues --    0.56001   0.56262   0.56419   0.56814   0.57252
 Alpha virt. eigenvalues --    0.57484   0.57758   0.58008   0.58276   0.58482
 Alpha virt. eigenvalues --    0.59755   0.59972   0.60607   0.61110   0.61355
 Alpha virt. eigenvalues --    0.61922   0.62543   0.62860   0.63064   0.63438
 Alpha virt. eigenvalues --    0.64241   0.64769   0.65315   0.65958   0.66399
 Alpha virt. eigenvalues --    0.66662   0.67067   0.67752   0.67839   0.68474
 Alpha virt. eigenvalues --    0.68598   0.69073   0.69312   0.69500   0.69631
 Alpha virt. eigenvalues --    0.70153   0.70245   0.71043   0.71492   0.71819
 Alpha virt. eigenvalues --    0.72832   0.73666   0.73851   0.74745   0.74834
 Alpha virt. eigenvalues --    0.76073   0.76529   0.76731   0.77345   0.77866
 Alpha virt. eigenvalues --    0.78262   0.78386   0.78628   0.79129   0.79307
 Alpha virt. eigenvalues --    0.79762   0.80176   0.80460   0.81073   0.81304
 Alpha virt. eigenvalues --    0.81621   0.81956   0.82317   0.82839   0.83334
 Alpha virt. eigenvalues --    0.83525   0.83983   0.84173   0.84593   0.84636
 Alpha virt. eigenvalues --    0.85463   0.85806   0.86071   0.86387   0.86793
 Alpha virt. eigenvalues --    0.87241   0.87341   0.87618   0.87967   0.88372
 Alpha virt. eigenvalues --    0.89088   0.89639   0.89913   0.90336   0.90777
 Alpha virt. eigenvalues --    0.90918   0.91409   0.91948   0.92358   0.92563
 Alpha virt. eigenvalues --    0.92973   0.93249   0.93601   0.94285   0.94834
 Alpha virt. eigenvalues --    0.95397   0.96270   0.96697   0.96892   0.97532
 Alpha virt. eigenvalues --    0.97959   0.98232   0.99165   0.99988   1.01048
 Alpha virt. eigenvalues --    1.01512   1.02850   1.03988   1.04532   1.04949
 Alpha virt. eigenvalues --    1.05413   1.06202   1.07198   1.07861   1.08025
 Alpha virt. eigenvalues --    1.08651   1.09175   1.09794   1.09964   1.10503
 Alpha virt. eigenvalues --    1.11000   1.11082   1.11795   1.12153   1.12531
 Alpha virt. eigenvalues --    1.13142   1.14336   1.14724   1.15423   1.17308
 Alpha virt. eigenvalues --    1.17880   1.18657   1.19131   1.19966   1.20326
 Alpha virt. eigenvalues --    1.20526   1.21511   1.22225   1.23041   1.23741
 Alpha virt. eigenvalues --    1.23928   1.24630   1.26022   1.26617   1.26986
 Alpha virt. eigenvalues --    1.27175   1.27708   1.27887   1.28235   1.28451
 Alpha virt. eigenvalues --    1.28626   1.29458   1.30058   1.31151   1.31902
 Alpha virt. eigenvalues --    1.32397   1.33456   1.34265   1.35313   1.35800
 Alpha virt. eigenvalues --    1.36810   1.37110   1.37881   1.38486   1.39507
 Alpha virt. eigenvalues --    1.39843   1.40489   1.41657   1.41996   1.42761
 Alpha virt. eigenvalues --    1.43119   1.44450   1.45021   1.45722   1.46164
 Alpha virt. eigenvalues --    1.47432   1.48815   1.49729   1.50912   1.51689
 Alpha virt. eigenvalues --    1.52678   1.53354   1.54131   1.54620   1.55956
 Alpha virt. eigenvalues --    1.56098   1.57501   1.58174   1.59271   1.60419
 Alpha virt. eigenvalues --    1.60646   1.61946   1.62590   1.64108   1.64908
 Alpha virt. eigenvalues --    1.65473   1.68928   1.69536   1.70358   1.70679
 Alpha virt. eigenvalues --    1.71071   1.71482   1.71820   1.72365   1.72664
 Alpha virt. eigenvalues --    1.72952   1.73107   1.74074   1.74387   1.74914
 Alpha virt. eigenvalues --    1.75348   1.76346   1.76945   1.77610   1.77829
 Alpha virt. eigenvalues --    1.78564   1.79416   1.80100   1.80545   1.81147
 Alpha virt. eigenvalues --    1.81560   1.82514   1.83189   1.83525   1.84322
 Alpha virt. eigenvalues --    1.84639   1.85296   1.85751   1.85943   1.86722
 Alpha virt. eigenvalues --    1.88075   1.88552   1.88939   1.90709   1.90810
 Alpha virt. eigenvalues --    1.90983   1.91810   1.92061   1.93576   1.94410
 Alpha virt. eigenvalues --    1.94901   1.95306   1.96171   1.96592   1.96866
 Alpha virt. eigenvalues --    1.97086   1.97830   1.98698   1.98988   2.00384
 Alpha virt. eigenvalues --    2.01378   2.01739   2.02681   2.03279   2.04461
 Alpha virt. eigenvalues --    2.05172   2.06136   2.06651   2.07082   2.07112
 Alpha virt. eigenvalues --    2.08884   2.09379   2.09600   2.11152   2.11597
 Alpha virt. eigenvalues --    2.12362   2.13028   2.13330   2.13875   2.14321
 Alpha virt. eigenvalues --    2.14899   2.16245   2.16585   2.16902   2.17176
 Alpha virt. eigenvalues --    2.17566   2.18272   2.18987   2.19052   2.19863
 Alpha virt. eigenvalues --    2.20007   2.20363   2.20768   2.21228   2.22449
 Alpha virt. eigenvalues --    2.22592   2.23298   2.24037   2.24847   2.25256
 Alpha virt. eigenvalues --    2.25550   2.26271   2.27111   2.27500   2.27837
 Alpha virt. eigenvalues --    2.28449   2.28749   2.29365   2.29774   2.31232
 Alpha virt. eigenvalues --    2.31389   2.32528   2.32799   2.32990   2.33825
 Alpha virt. eigenvalues --    2.34196   2.34527   2.35146   2.35329   2.36263
 Alpha virt. eigenvalues --    2.37166   2.38676   2.39878   2.40245   2.42669
 Alpha virt. eigenvalues --    2.43261   2.43415   2.43546   2.43842   2.44947
 Alpha virt. eigenvalues --    2.45611   2.46118   2.46875   2.47175   2.47384
 Alpha virt. eigenvalues --    2.48796   2.49925   2.50585   2.51015   2.53086
 Alpha virt. eigenvalues --    2.54784   2.55355   2.56900   2.58308   2.58747
 Alpha virt. eigenvalues --    2.59524   2.60524   2.61161   2.61847   2.64550
 Alpha virt. eigenvalues --    2.65510   2.66261   2.68338   2.69319   2.70347
 Alpha virt. eigenvalues --    2.71200   2.71569   2.77068   2.77684   2.78564
 Alpha virt. eigenvalues --    2.79575   2.81288   2.82695   2.83182   2.85817
 Alpha virt. eigenvalues --    2.86861   2.87215   2.89033   2.89636   2.90220
 Alpha virt. eigenvalues --    2.90791   2.93522   2.94957   2.95720   2.97341
 Alpha virt. eigenvalues --    3.02600   3.04116   3.05143   3.10799   3.13363
 Alpha virt. eigenvalues --    3.14423   3.20387   3.20753   3.28568   3.29356
 Alpha virt. eigenvalues --    3.29915   3.36311   3.36682   3.40948   3.45524
 Alpha virt. eigenvalues --    3.65675   3.68398   3.95988   4.03066
  Beta  occ. eigenvalues -- -256.41263 -30.22865 -26.07447 -26.07324 -26.07316
  Beta  occ. eigenvalues --  -19.29192 -14.53983 -14.48944 -14.45781 -14.45770
  Beta  occ. eigenvalues --  -14.45541 -14.45329 -10.38067 -10.35207 -10.33290
  Beta  occ. eigenvalues --  -10.33147 -10.33123 -10.33089 -10.33088 -10.33032
  Beta  occ. eigenvalues --  -10.32917 -10.32864 -10.32627 -10.30425 -10.30247
  Beta  occ. eigenvalues --  -10.30208 -10.30143 -10.30120 -10.30058 -10.29971
  Beta  occ. eigenvalues --  -10.29949 -10.29918 -10.29909 -10.29879 -10.29860
  Beta  occ. eigenvalues --  -10.29841 -10.29237 -10.29229 -10.28307 -10.28194
  Beta  occ. eigenvalues --  -10.28071 -10.28039 -10.27988 -10.27969 -10.27900
  Beta  occ. eigenvalues --  -10.27831  -3.55318  -2.30553  -2.30274  -2.30230
  Beta  occ. eigenvalues --   -1.16565  -1.15754  -1.08416  -1.07484  -1.07294
  Beta  occ. eigenvalues --   -1.06390  -1.02325  -0.93173  -0.91863  -0.91591
  Beta  occ. eigenvalues --   -0.91063  -0.90743  -0.90478  -0.90341  -0.90271
  Beta  occ. eigenvalues --   -0.86464  -0.85236  -0.84874  -0.84066  -0.82738
  Beta  occ. eigenvalues --   -0.82021  -0.80917  -0.79946  -0.78285  -0.78099
  Beta  occ. eigenvalues --   -0.77817  -0.75717  -0.74777  -0.74714  -0.72177
  Beta  occ. eigenvalues --   -0.71536  -0.70386  -0.69794  -0.68373  -0.67703
  Beta  occ. eigenvalues --   -0.66728  -0.64788  -0.64042  -0.63291  -0.62990
  Beta  occ. eigenvalues --   -0.61469  -0.61408  -0.60990  -0.58867  -0.58742
  Beta  occ. eigenvalues --   -0.58040  -0.57757  -0.57608  -0.55693  -0.54886
  Beta  occ. eigenvalues --   -0.54510  -0.54313  -0.53875  -0.53553  -0.53428
  Beta  occ. eigenvalues --   -0.53283  -0.53115  -0.53005  -0.52799  -0.52259
  Beta  occ. eigenvalues --   -0.51933  -0.51852  -0.51803  -0.51719  -0.51094
  Beta  occ. eigenvalues --   -0.50526  -0.50305  -0.50052  -0.49883  -0.49783
  Beta  occ. eigenvalues --   -0.49431  -0.49275  -0.49230  -0.48970  -0.48761
  Beta  occ. eigenvalues --   -0.48284  -0.47987  -0.47513  -0.47412  -0.47093
  Beta  occ. eigenvalues --   -0.46994  -0.46607  -0.46206  -0.45673  -0.45406
  Beta  occ. eigenvalues --   -0.44534  -0.44380  -0.43755  -0.43441  -0.42653
  Beta  occ. eigenvalues --   -0.42428  -0.41998  -0.41155  -0.40604  -0.39080
  Beta  occ. eigenvalues --   -0.38755  -0.37042  -0.36973  -0.34600  -0.33573
  Beta  occ. eigenvalues --   -0.33284  -0.32134  -0.31673  -0.29085  -0.28237
  Beta virt. eigenvalues --   -0.20547  -0.20198  -0.19166  -0.15927  -0.15877
  Beta virt. eigenvalues --   -0.13618  -0.11298  -0.11056  -0.08334  -0.07607
  Beta virt. eigenvalues --   -0.06360  -0.04358  -0.04012  -0.02996  -0.01487
  Beta virt. eigenvalues --   -0.01233  -0.00343   0.01110   0.01391   0.02078
  Beta virt. eigenvalues --    0.02606   0.03205   0.03658   0.04179   0.04410
  Beta virt. eigenvalues --    0.04804   0.05014   0.05194   0.05433   0.05782
  Beta virt. eigenvalues --    0.05904   0.06529   0.06711   0.06963   0.07097
  Beta virt. eigenvalues --    0.07661   0.07809   0.08026   0.08367   0.08686
  Beta virt. eigenvalues --    0.08766   0.09238   0.09404   0.09610   0.09765
  Beta virt. eigenvalues --    0.10073   0.10454   0.10493   0.10752   0.11571
  Beta virt. eigenvalues --    0.11981   0.12056   0.12221   0.12511   0.13041
  Beta virt. eigenvalues --    0.13299   0.13559   0.13787   0.14354   0.15260
  Beta virt. eigenvalues --    0.15340   0.15865   0.16442   0.16710   0.16975
  Beta virt. eigenvalues --    0.17164   0.17557   0.18101   0.18231   0.19885
  Beta virt. eigenvalues --    0.20502   0.20834   0.21041   0.21888   0.22141
  Beta virt. eigenvalues --    0.23399   0.23771   0.23993   0.25327   0.25771
  Beta virt. eigenvalues --    0.26005   0.26470   0.27222   0.27475   0.28920
  Beta virt. eigenvalues --    0.29925   0.30409   0.31291   0.31925   0.33253
  Beta virt. eigenvalues --    0.33582   0.34049   0.34386   0.34892   0.36312
  Beta virt. eigenvalues --    0.38022   0.38443   0.38463   0.39182   0.39822
  Beta virt. eigenvalues --    0.40056   0.40392   0.40988   0.41263   0.41975
  Beta virt. eigenvalues --    0.42254   0.42656   0.42987   0.43127   0.43502
  Beta virt. eigenvalues --    0.43917   0.44336   0.44756   0.45234   0.45496
  Beta virt. eigenvalues --    0.45716   0.45910   0.46517   0.46686   0.47243
  Beta virt. eigenvalues --    0.47987   0.48399   0.48849   0.49206   0.49367
  Beta virt. eigenvalues --    0.49845   0.50494   0.50864   0.51017   0.51685
  Beta virt. eigenvalues --    0.52226   0.52483   0.52957   0.53279   0.53625
  Beta virt. eigenvalues --    0.54282   0.54627   0.55260   0.55641   0.55927
  Beta virt. eigenvalues --    0.56139   0.56494   0.56695   0.57128   0.57457
  Beta virt. eigenvalues --    0.57560   0.57851   0.58114   0.58434   0.58694
  Beta virt. eigenvalues --    0.60056   0.60241   0.60717   0.61680   0.61731
  Beta virt. eigenvalues --    0.62226   0.62723   0.63055   0.63473   0.63690
  Beta virt. eigenvalues --    0.64445   0.64979   0.65462   0.66066   0.66507
  Beta virt. eigenvalues --    0.66780   0.67199   0.67853   0.68121   0.68593
  Beta virt. eigenvalues --    0.68892   0.69206   0.69616   0.69728   0.69885
  Beta virt. eigenvalues --    0.70318   0.70649   0.71430   0.71614   0.72101
  Beta virt. eigenvalues --    0.72920   0.73754   0.73931   0.74900   0.75033
  Beta virt. eigenvalues --    0.76255   0.76710   0.76815   0.77486   0.77930
  Beta virt. eigenvalues --    0.78437   0.78582   0.78742   0.79329   0.79414
  Beta virt. eigenvalues --    0.79935   0.80401   0.80664   0.81134   0.81522
  Beta virt. eigenvalues --    0.81724   0.82234   0.82404   0.82980   0.83471
  Beta virt. eigenvalues --    0.83637   0.84172   0.84454   0.84692   0.84899
  Beta virt. eigenvalues --    0.85710   0.86082   0.86591   0.86920   0.87012
  Beta virt. eigenvalues --    0.87317   0.87599   0.87795   0.88153   0.88654
  Beta virt. eigenvalues --    0.89376   0.89912   0.90157   0.90662   0.90865
  Beta virt. eigenvalues --    0.91147   0.91534   0.92016   0.92443   0.92911
  Beta virt. eigenvalues --    0.93144   0.93428   0.94122   0.94343   0.95180
  Beta virt. eigenvalues --    0.95618   0.96505   0.97037   0.97292   0.97633
  Beta virt. eigenvalues --    0.98260   0.98859   0.99634   1.00476   1.01484
  Beta virt. eigenvalues --    1.01724   1.03620   1.04465   1.05156   1.05579
  Beta virt. eigenvalues --    1.06155   1.07292   1.07594   1.08158   1.08577
  Beta virt. eigenvalues --    1.09238   1.09596   1.10071   1.10282   1.10665
  Beta virt. eigenvalues --    1.11123   1.11262   1.12044   1.12620   1.13151
  Beta virt. eigenvalues --    1.14148   1.14791   1.14874   1.15874   1.17525
  Beta virt. eigenvalues --    1.18144   1.18850   1.19354   1.20168   1.20420
  Beta virt. eigenvalues --    1.20706   1.21724   1.22363   1.23330   1.23927
  Beta virt. eigenvalues --    1.24187   1.25009   1.26119   1.26744   1.27152
  Beta virt. eigenvalues --    1.27330   1.28005   1.28052   1.28348   1.28550
  Beta virt. eigenvalues --    1.28893   1.29756   1.30307   1.31467   1.32020
  Beta virt. eigenvalues --    1.32835   1.33665   1.34410   1.35483   1.35998
  Beta virt. eigenvalues --    1.37027   1.37420   1.38112   1.38782   1.39627
  Beta virt. eigenvalues --    1.40241   1.41030   1.41965   1.42239   1.43035
  Beta virt. eigenvalues --    1.43287   1.44600   1.45183   1.45952   1.46268
  Beta virt. eigenvalues --    1.47755   1.49021   1.49930   1.51392   1.52048
  Beta virt. eigenvalues --    1.53024   1.53682   1.54459   1.55014   1.56179
  Beta virt. eigenvalues --    1.56391   1.57849   1.58267   1.59391   1.60585
  Beta virt. eigenvalues --    1.60801   1.62197   1.62810   1.64722   1.65106
  Beta virt. eigenvalues --    1.65683   1.69140   1.69661   1.70464   1.70805
  Beta virt. eigenvalues --    1.71266   1.71612   1.72097   1.72462   1.72812
  Beta virt. eigenvalues --    1.73146   1.73486   1.74264   1.74521   1.75274
  Beta virt. eigenvalues --    1.75536   1.76479   1.77078   1.77758   1.77996
  Beta virt. eigenvalues --    1.78655   1.79617   1.80279   1.80715   1.81306
  Beta virt. eigenvalues --    1.81747   1.82824   1.83581   1.83848   1.84961
  Beta virt. eigenvalues --    1.85254   1.85878   1.86102   1.86329   1.87218
  Beta virt. eigenvalues --    1.88575   1.89496   1.89799   1.90990   1.91159
  Beta virt. eigenvalues --    1.91253   1.91979   1.92513   1.93908   1.94969
  Beta virt. eigenvalues --    1.95190   1.95683   1.96683   1.97059   1.97436
  Beta virt. eigenvalues --    1.97530   1.98352   1.99124   1.99238   2.01261
  Beta virt. eigenvalues --    2.01644   2.02074   2.02848   2.03734   2.04748
  Beta virt. eigenvalues --    2.05291   2.06244   2.06801   2.07249   2.07328
  Beta virt. eigenvalues --    2.09099   2.09624   2.10717   2.11454   2.12219
  Beta virt. eigenvalues --    2.12716   2.13362   2.13784   2.14323   2.14539
  Beta virt. eigenvalues --    2.15483   2.16417   2.16835   2.17044   2.17330
  Beta virt. eigenvalues --    2.17778   2.19024   2.19204   2.19996   2.20223
  Beta virt. eigenvalues --    2.20504   2.20824   2.20961   2.22289   2.22715
  Beta virt. eigenvalues --    2.22779   2.23621   2.24660   2.25451   2.25689
  Beta virt. eigenvalues --    2.26329   2.26400   2.27287   2.27700   2.28095
  Beta virt. eigenvalues --    2.28894   2.29119   2.29872   2.30056   2.31430
  Beta virt. eigenvalues --    2.31737   2.32811   2.32944   2.33493   2.34114
  Beta virt. eigenvalues --    2.34511   2.34723   2.35298   2.35683   2.36911
  Beta virt. eigenvalues --    2.38063   2.38785   2.41038   2.41145   2.42880
  Beta virt. eigenvalues --    2.43510   2.43739   2.43883   2.44308   2.45556
  Beta virt. eigenvalues --    2.46164   2.46458   2.47278   2.47367   2.47526
  Beta virt. eigenvalues --    2.49084   2.50490   2.50774   2.51239   2.53198
  Beta virt. eigenvalues --    2.55076   2.55458   2.57037   2.58708   2.59173
  Beta virt. eigenvalues --    2.59804   2.61010   2.61350   2.62083   2.64811
  Beta virt. eigenvalues --    2.65873   2.66504   2.68562   2.69789   2.70475
  Beta virt. eigenvalues --    2.71254   2.71716   2.77271   2.77923   2.78767
  Beta virt. eigenvalues --    2.79819   2.81555   2.82959   2.83509   2.86039
  Beta virt. eigenvalues --    2.87021   2.87402   2.89142   2.89749   2.90459
  Beta virt. eigenvalues --    2.91208   2.94219   2.95195   2.95898   2.97833
  Beta virt. eigenvalues --    3.02845   3.04370   3.05233   3.10927   3.13582
  Beta virt. eigenvalues --    3.15078   3.20459   3.20823   3.28743   3.29444
  Beta virt. eigenvalues --    3.30953   3.36566   3.36921   3.54127   3.58385
  Beta virt. eigenvalues --    3.75258   3.80242   4.06533   4.13490
          Condensed to atoms (all electrons):
          Atomic-Atomic Spin Densities.
 Mulliken charges and spin densities:
               1          2
     1  Fe   1.194680   4.315697
     2  N   -0.739707   0.081761
     3  N   -0.722521   0.083827
     4  N   -0.752929   0.085956
     5  N   -0.711403   0.083434
     6  C    0.314999   0.007159
     7  C    0.039196   0.014631
     8  C    0.041948   0.020405
     9  C    0.293172   0.003075
    10  C    0.297913   0.003677
    11  C    0.041577   0.019036
    12  C    0.006199   0.016005
    13  C    0.327080   0.005618
    14  C    0.323216   0.005224
    15  C    0.043355   0.020210
    16  C    0.008288   0.021904
    17  C    0.314049   0.005791
    18  C    0.300580   0.006740
    19  C    0.042658   0.018450
    20  C    0.042552   0.016898
    21  C    0.325473   0.007136
    22  C   -0.299382  -0.002241
    23  H    0.190308   0.000362
    24  C   -0.308425   0.000530
    25  H    0.188712   0.000210
    26  C   -0.293890  -0.000661
    27  H    0.191803   0.000291
    28  C   -0.297184  -0.002787
    29  H    0.191508   0.000351
    30  C   -0.611118  -0.000856
    31  H    0.204302   0.000413
    32  H    0.200506   0.000856
    33  H    0.205098   0.000854
    34  C   -0.611633  -0.000471
    35  H    0.205371   0.000625
    36  H    0.203111   0.000660
    37  H    0.203120   0.000402
    38  C   -0.613806  -0.000737
    39  H    0.197970   0.000518
    40  H    0.198994   0.000974
    41  H    0.213957   0.000490
    42  C   -0.150533  -0.004844
    43  H    0.180212   0.000415
    44  C   -0.391708   0.009250
    45  H    0.184642  -0.000458
    46  H    0.193489  -0.000314
    47  C   -0.614937  -0.000893
    48  H    0.196412   0.000636
    49  H    0.206198   0.001094
    50  H    0.211878   0.000555
    51  C   -0.155603  -0.007186
    52  H    0.180700   0.000614
    53  C   -0.389265   0.013236
    54  H    0.188605  -0.000646
    55  H    0.194077  -0.000497
    56  C   -0.611042  -0.000734
    57  H    0.206522   0.000817
    58  H    0.200003   0.000727
    59  H    0.203144   0.000405
    60  C   -0.611597  -0.000674
    61  H    0.202775   0.000405
    62  H    0.201083   0.000701
    63  H    0.206016   0.000757
    64  O   -0.817483   0.026915
    65  H    0.475359   0.001169
    66  H    0.464461   0.002174
    67  C   -0.602567   0.000773
    68  H    0.221193   0.000043
    69  H    0.215919   0.000246
    70  H    0.211496   0.000268
    71  N   -0.629254   0.005462
    72  H    0.386156   0.001446
    73  C    0.283003   0.006361
    74  C    0.264646   0.008827
    75  H    0.234672   0.000544
    76  N   -0.500900   0.091325
    77  C   -0.040562  -0.002672
    78  H    0.213094   0.001339
 Sum of Mulliken charges =   1.00000   5.00000
 Mulliken charges and spin densities with hydrogens summed into heavy atoms:
               1          2
     1  Fe   1.194680   4.315697
     2  N   -0.739707   0.081761
     3  N   -0.722521   0.083827
     4  N   -0.752929   0.085956
     5  N   -0.711403   0.083434
     6  C    0.314999   0.007159
     7  C    0.039196   0.014631
     8  C    0.041948   0.020405
     9  C    0.293172   0.003075
    10  C    0.297913   0.003677
    11  C    0.041577   0.019036
    12  C    0.006199   0.016005
    13  C    0.327080   0.005618
    14  C    0.323216   0.005224
    15  C    0.043355   0.020210
    16  C    0.008288   0.021904
    17  C    0.314049   0.005791
    18  C    0.300580   0.006740
    19  C    0.042658   0.018450
    20  C    0.042552   0.016898
    21  C    0.325473   0.007136
    22  C   -0.109074  -0.001879
    24  C   -0.119713   0.000740
    26  C   -0.102088  -0.000369
    28  C   -0.105676  -0.002437
    30  C   -0.001211   0.001267
    34  C   -0.000032   0.001217
    38  C   -0.002884   0.001244
    42  C    0.029678  -0.004430
    44  C   -0.013578   0.008478
    47  C   -0.000449   0.001391
    51  C    0.025097  -0.006572
    53  C   -0.006583   0.012093
    56  C   -0.001374   0.001216
    60  C   -0.001723   0.001189
    64  O    0.122337   0.030258
    67  C    0.046041   0.001330
    71  N   -0.243098   0.006908
    73  C    0.283003   0.006361
    74  C    0.499318   0.009371
    76  N   -0.500900   0.091325
    77  C    0.172532  -0.001333
 Electronic spatial extent (au):  <R**2>=          19810.1549
 Charge=              1.0000 electrons
 Dipole moment (field-independent basis, Debye):
    X=              0.9685    Y=             -1.2874    Z=              3.6222  Tot=              3.9644
 Quadrupole moment (field-independent basis, Debye-Ang):
   XX=           -183.5428   YY=           -190.7446   ZZ=           -202.2778
   XY=             -2.7342   XZ=              4.5438   YZ=              0.4751
 Traceless Quadrupole moment (field-independent basis, Debye-Ang):
   XX=              8.6456   YY=              1.4438   ZZ=            -10.0894
   XY=             -2.7342   XZ=              4.5438   YZ=              0.4751
 Octapole moment (field-independent basis, Debye-Ang**2):
  XXX=             -8.9840  YYY=             -7.0047  ZZZ=            125.6007  XYY=              3.0774
  XXY=              3.3302  XXZ=             -3.4048  XZZ=             16.2667  YZZ=            -21.4195
  YYZ=            -19.9133  XYZ=             25.8396
 Hexadecapole moment (field-independent basis, Debye-Ang**3):
 XXXX=         -10316.8301 YYYY=          -9973.9958 ZZZZ=          -2306.6139 XXXY=           -103.4348
 XXXZ=            122.8207 YYYX=             16.5469 YYYZ=             87.3999 ZZZX=             22.9217
 ZZZY=            -38.3599 XXYY=          -3220.0759 XXZZ=          -2453.6436 YYZZ=          -2526.8063
 XXYZ=             59.0639 YYXZ=             14.2975 ZZXY=            -19.5530
 N-N= 5.973775538454D+03 E-N=-1.892197680997D+04  KE= 2.973056202649D+03
                          Isotropic Fermi Contact Couplings
        Atom                 a.u.       MegaHertz       Gauss      10(-4) cm-1
     1  Fe(57)             0.52173      15.13437       5.40032       5.04828
     2  N(14)              0.13330       8.61395       3.07367       2.87330
     3  N(14)              0.13300       8.59455       3.06675       2.86683
     4  N(14)              0.13197       8.52774       3.04291       2.84455
     5  N(14)              0.13119       8.47772       3.02506       2.82786
     6  C(13)              0.00573       1.28902       0.45995       0.42997
     7  C(13)              0.00532       1.19563       0.42663       0.39882
     8  C(13)              0.00616       1.38467       0.49408       0.46188
     9  C(13)              0.00526       1.18306       0.42215       0.39463
    10  C(13)              0.00544       1.22253       0.43623       0.40779
    11  C(13)              0.00611       1.37443       0.49043       0.45846
    12  C(13)              0.00555       1.24820       0.44539       0.41635
    13  C(13)              0.00530       1.19109       0.42501       0.39730
    14  C(13)              0.00553       1.24309       0.44357       0.41465
    15  C(13)              0.00615       1.38342       0.49364       0.46146
    16  C(13)              0.00646       1.45183       0.51805       0.48428
    17  C(13)              0.00577       1.29647       0.46261       0.43245
    18  C(13)              0.00550       1.23616       0.44109       0.41234
    19  C(13)              0.00587       1.31988       0.47097       0.44027
    20  C(13)              0.00557       1.25152       0.44657       0.41746
    21  C(13)              0.00574       1.29025       0.46039       0.43038
    22  C(13)             -0.00074      -0.16564      -0.05910      -0.05525
    23  H(1)               0.00012       0.10789       0.03850       0.03599
    24  C(13)             -0.00015      -0.03440      -0.01227      -0.01147
    25  H(1)               0.00007       0.06200       0.02212       0.02068
    26  C(13)             -0.00052      -0.11784      -0.04205      -0.03931
    27  H(1)               0.00009       0.07955       0.02838       0.02653
    28  C(13)             -0.00073      -0.16373      -0.05842      -0.05461
    29  H(1)               0.00012       0.11107       0.03963       0.03705
    30  C(13)             -0.00009      -0.02063      -0.00736      -0.00688
    31  H(1)               0.00016       0.14025       0.05005       0.04678
    32  H(1)               0.00043       0.38483       0.13732       0.12837
    33  H(1)               0.00043       0.38254       0.13650       0.12760
    34  C(13)              0.00005       0.01028       0.00367       0.00343
    35  H(1)               0.00030       0.26908       0.09601       0.08975
    36  H(1)               0.00033       0.29468       0.10515       0.09829
    37  H(1)               0.00015       0.13615       0.04858       0.04542
    38  C(13)             -0.00002      -0.00538      -0.00192      -0.00179
    39  H(1)               0.00026       0.23282       0.08308       0.07766
    40  H(1)               0.00051       0.45188       0.16124       0.15073
    41  H(1)               0.00018       0.16352       0.05835       0.05454
    42  C(13)             -0.00055      -0.12324      -0.04397      -0.04111
    43  H(1)               0.00016       0.14720       0.05252       0.04910
    44  C(13)              0.00157       0.35345       0.12612       0.11790
    45  H(1)              -0.00014      -0.12216      -0.04359      -0.04075
    46  H(1)              -0.00009      -0.07810      -0.02787      -0.02605
    47  C(13)             -0.00010      -0.02340      -0.00835      -0.00781
    48  H(1)               0.00029       0.25746       0.09187       0.08588
    49  H(1)               0.00057       0.50985       0.18193       0.17007
    50  H(1)               0.00020       0.18123       0.06467       0.06045
    51  C(13)             -0.00099      -0.22247      -0.07938      -0.07421
    52  H(1)               0.00023       0.20454       0.07299       0.06823
    53  C(13)              0.00211       0.47360       0.16899       0.15798
    54  H(1)              -0.00019      -0.17334      -0.06185      -0.05782
    55  H(1)              -0.00014      -0.12706      -0.04534      -0.04238
    56  C(13)             -0.00010      -0.02235      -0.00798      -0.00746
    57  H(1)               0.00043       0.37998       0.13559       0.12675
    58  H(1)               0.00037       0.32824       0.11712       0.10949
    59  H(1)               0.00016       0.14023       0.05004       0.04678
    60  C(13)             -0.00008      -0.01691      -0.00603      -0.00564
    61  H(1)               0.00016       0.14035       0.05008       0.04682
    62  H(1)               0.00035       0.31321       0.11176       0.10448
    63  H(1)               0.00039       0.34809       0.12421       0.11611
    64  O(17)              0.08650     -10.48713      -3.74207      -3.49813
    65  H(1)              -0.00000      -0.00289      -0.00103      -0.00096
    66  H(1)               0.00084       0.75141       0.26812       0.25064
    67  C(13)              0.00053       0.11936       0.04259       0.03981
    68  H(1)               0.00004       0.03744       0.01336       0.01249
    69  H(1)               0.00014       0.12611       0.04500       0.04207
    70  H(1)               0.00016       0.13928       0.04970       0.04646
    71  N(14)              0.00859       0.55532       0.19815       0.18523
    72  H(1)               0.00057       0.51311       0.18309       0.17116
    73  C(13)              0.00467       1.05102       0.37503       0.35058
    74  C(13)              0.00686       1.54218       0.55029       0.51442
    75  H(1)               0.00015       0.13262       0.04732       0.04424
    76  N(14)              0.16713      10.79987       3.85366       3.60245
    77  C(13)              0.00166       0.37389       0.13341       0.12472
    78  H(1)               0.00047       0.42158       0.15043       0.14062
 --------------------------------------------------------
       Center         ----  Spin Dipole Couplings  ----
                      3XX-RR        3YY-RR        3ZZ-RR
 --------------------------------------------------------
     1   Atom       -0.008493      0.044625     -0.036131
     2   Atom        0.034257      0.066201     -0.100458
     3   Atom        0.071201      0.038012     -0.109213
     4   Atom        0.029645      0.063130     -0.092775
     5   Atom        0.067406      0.038116     -0.105522
     6   Atom       -0.023184      0.048236     -0.025052
     7   Atom       -0.004153      0.003514      0.000639
     8   Atom       -0.001286     -0.004179      0.005465
     9   Atom        0.047041     -0.017625     -0.029416
    10   Atom        0.050768     -0.021626     -0.029142
    11   Atom        0.001910     -0.005869      0.003960
    12   Atom       -0.001907      0.000751      0.001156
    13   Atom       -0.019126      0.045797     -0.026671
    14   Atom       -0.023280      0.050631     -0.027351
    15   Atom       -0.007149      0.001078      0.006071
    16   Atom       -0.001649     -0.004936      0.006585
    17   Atom        0.046942     -0.020143     -0.026799
    18   Atom        0.048940     -0.022816     -0.026123
    19   Atom        0.002019     -0.005556      0.003537
    20   Atom       -0.002579      0.000473      0.002106
    21   Atom       -0.020279      0.044830     -0.024552
    22   Atom       -0.012782      0.034877     -0.022095
    23   Atom       -0.007122      0.015530     -0.008408
    24   Atom        0.033448     -0.014157     -0.019291
    25   Atom        0.015557     -0.007215     -0.008343
    26   Atom       -0.013811      0.035005     -0.021195
    27   Atom       -0.007311      0.015826     -0.008514
    28   Atom        0.035079     -0.012658     -0.022422
    29   Atom        0.015532     -0.007149     -0.008383
    30   Atom        0.006345     -0.001947     -0.004398
    31   Atom        0.002839      0.000241     -0.003080
    32   Atom        0.005618     -0.001966     -0.003652
    33   Atom        0.005387     -0.002105     -0.003282
    34   Atom       -0.002662      0.007196     -0.004534
    35   Atom       -0.002608      0.005979     -0.003372
    36   Atom       -0.002449      0.006054     -0.003606
    37   Atom       -0.000390      0.003468     -0.003078
    38   Atom        0.007211     -0.002647     -0.004564
    39   Atom        0.006647     -0.002767     -0.003880
    40   Atom        0.005317     -0.002249     -0.003068
    41   Atom        0.003511     -0.000339     -0.003172
    42   Atom       -0.001739      0.008278     -0.006539
    43   Atom       -0.002283      0.006309     -0.004027
    44   Atom        0.000603     -0.001665      0.001062
    45   Atom        0.000951      0.001009     -0.001960
    46   Atom       -0.000771      0.002607     -0.001836
    47   Atom       -0.002762      0.007350     -0.004588
    48   Atom       -0.003035      0.006866     -0.003831
    49   Atom       -0.002030      0.005376     -0.003346
    50   Atom       -0.000547      0.003585     -0.003037
    51   Atom        0.009070     -0.001183     -0.007887
    52   Atom        0.006098     -0.002433     -0.003665
    53   Atom       -0.002705     -0.000681      0.003386
    54   Atom        0.001176      0.001125     -0.002301
    55   Atom        0.002946     -0.001001     -0.001945
    56   Atom        0.007268     -0.002761     -0.004507
    57   Atom        0.005902     -0.002389     -0.003513
    58   Atom        0.006413     -0.002787     -0.003626
    59   Atom        0.003535     -0.000418     -0.003117
    60   Atom       -0.001924      0.006340     -0.004416
    61   Atom        0.000217      0.002854     -0.003070
    62   Atom       -0.002222      0.005550     -0.003327
    63   Atom       -0.001931      0.005569     -0.003638
    64   Atom       -0.106055     -0.110072      0.216128
    65   Atom       -0.025113     -0.025277      0.050390
    66   Atom       -0.027214     -0.025018      0.052232
    67   Atom       -0.003665     -0.005017      0.008682
    68   Atom       -0.001170     -0.003984      0.005154
    69   Atom       -0.002749     -0.002976      0.005725
    70   Atom       -0.002785     -0.002855      0.005641
    71   Atom       -0.016031     -0.005546      0.021577
    72   Atom       -0.004463     -0.006239      0.010702
    73   Atom       -0.011621     -0.008850      0.020471
    74   Atom       -0.011202     -0.023485      0.034687
    75   Atom        0.006541     -0.021506      0.014965
    76   Atom       -0.180102     -0.146862      0.326964
    77   Atom       -0.005709     -0.035238      0.040947
    78   Atom        0.008609     -0.021911      0.013302
 --------------------------------------------------------
                        XY            XZ            YZ
 --------------------------------------------------------
     1   Atom       -0.000392      0.010691      0.003232
     2   Atom       -0.223801     -0.013069      0.017187
     3   Atom        0.228749     -0.011478     -0.017186
     4   Atom       -0.225417      0.016384     -0.029836
     5   Atom        0.226454      0.015024      0.021753
     6   Atom       -0.021863     -0.000508     -0.000182
     7   Atom       -0.015834     -0.000489      0.000774
     8   Atom       -0.016341      0.000327     -0.000235
     9   Atom       -0.026597     -0.000908      0.001422
    10   Atom        0.021585     -0.001405     -0.000660
    11   Atom        0.016078      0.001161     -0.001606
    12   Atom        0.016565      0.000544     -0.000553
    13   Atom        0.027223     -0.000627      0.001309
    14   Atom       -0.022047      0.000313     -0.000414
    15   Atom       -0.016262     -0.001670     -0.000390
    16   Atom       -0.016640     -0.001843     -0.001657
    17   Atom       -0.026590      0.005175     -0.002932
    18   Atom        0.022490      0.003750      0.002626
    19   Atom        0.016303     -0.000192      0.000896
    20   Atom        0.016635     -0.000108      0.001463
    21   Atom        0.026855      0.001169     -0.000359
    22   Atom        0.001481     -0.001808      0.000608
    23   Atom        0.000767     -0.000073     -0.000040
    24   Atom       -0.001832     -0.003065      0.002230
    25   Atom       -0.000897     -0.000728      0.000137
    26   Atom        0.001849      0.002187      0.000718
    27   Atom        0.000848      0.000162      0.000796
    28   Atom       -0.001210      0.005916     -0.001991
    29   Atom       -0.000698      0.001745     -0.000143
    30   Atom       -0.005660     -0.000789      0.000375
    31   Atom       -0.004235     -0.000496      0.000367
    32   Atom       -0.003795      0.001187     -0.000289
    33   Atom       -0.003621     -0.002374      0.000765
    34   Atom       -0.004971     -0.000299      0.000720
    35   Atom       -0.003029     -0.000559      0.002281
    36   Atom       -0.003247      0.000269     -0.001313
    37   Atom       -0.003955     -0.000307      0.000492
    38   Atom        0.005055      0.000456      0.000218
    39   Atom        0.002959     -0.001271     -0.000206
    40   Atom        0.003248      0.002121      0.000619
    41   Atom        0.004032     -0.000164     -0.000053
    42   Atom        0.005866      0.003510      0.001452
    43   Atom        0.003726      0.000053     -0.000077
    44   Atom        0.004066     -0.005367      0.000794
    45   Atom        0.003013      0.001450      0.001147
    46   Atom        0.002295      0.000185      0.000792
    47   Atom       -0.005020      0.000302     -0.001080
    48   Atom       -0.002642      0.000450     -0.002196
    49   Atom       -0.003533     -0.000301      0.001173
    50   Atom       -0.003919      0.000788     -0.001341
    51   Atom       -0.006914      0.002782      0.002974
    52   Atom       -0.003700      0.002371     -0.000769
    53   Atom       -0.001998     -0.002417     -0.008453
    54   Atom       -0.003031     -0.000202      0.000700
    55   Atom       -0.002248      0.000484     -0.000496
    56   Atom        0.005022     -0.000682     -0.000154
    57   Atom        0.003262      0.001501      0.000344
    58   Atom        0.003044     -0.002172     -0.000465
    59   Atom        0.004025     -0.000565     -0.000355
    60   Atom        0.005690     -0.000464     -0.001115
    61   Atom        0.004257     -0.000503     -0.000710
    62   Atom        0.003759     -0.000832     -0.002594
    63   Atom        0.003737      0.000259      0.000997
    64   Atom        0.013075     -0.031152      0.020462
    65   Atom       -0.012543     -0.026822      0.025252
    66   Atom       -0.006323      0.012421     -0.017061
    67   Atom        0.000129     -0.004271     -0.000381
    68   Atom        0.000221     -0.004749     -0.000381
    69   Atom       -0.000268     -0.002168      0.001290
    70   Atom        0.000285     -0.001940     -0.001616
    71   Atom       -0.000111      0.003351     -0.000630
    72   Atom       -0.000092      0.004843     -0.000360
    73   Atom        0.000061     -0.004148     -0.000896
    74   Atom       -0.001197      0.033049     -0.001246
    75   Atom       -0.000409      0.030297     -0.000664
    76   Atom        0.000333     -0.009296     -0.010329
    77   Atom        0.000770     -0.035523     -0.001722
    78   Atom        0.000874     -0.031511     -0.000848
 --------------------------------------------------------


 ---------------------------------------------------------------------------------
              Anisotropic Spin Dipole Couplings in Principal Axis System
 ---------------------------------------------------------------------------------

       Atom             a.u.   MegaHertz   Gauss  10(-4) cm-1        Axes

              Baa    -0.0399    -0.691    -0.247    -0.230 -0.3224 -0.0377  0.9459
     1 Fe(57) Bbb    -0.0048    -0.084    -0.030    -0.028  0.9466 -0.0135  0.3221
              Bcc     0.0448     0.775     0.276     0.258  0.0007  0.9992  0.0400
 
              Baa    -0.1742    -6.719    -2.397    -2.241  0.7306  0.6822 -0.0295
     2 N(14)  Bbb    -0.1016    -3.919    -1.399    -1.307  0.0605 -0.0216  0.9979
              Bcc     0.2758    10.638     3.796     3.548 -0.6802  0.7308  0.0570
 
              Baa    -0.1751    -6.753    -2.410    -2.253 -0.6769  0.7325  0.0731
     3 N(14)  Bbb    -0.1099    -4.238    -1.512    -1.414  0.0871 -0.0190  0.9960
              Bcc     0.2850    10.991     3.922     3.666  0.7309  0.6805 -0.0510
 
              Baa    -0.1805    -6.960    -2.483    -2.322  0.7246  0.6824  0.0968
     4 N(14)  Bbb    -0.0949    -3.661    -1.306    -1.221 -0.1317 -0.0008  0.9913
              Bcc     0.2754    10.621     3.790     3.543 -0.6765  0.7310 -0.0893
 
              Baa    -0.1746    -6.735    -2.403    -2.247 -0.6782  0.7303 -0.0824
     5 N(14)  Bbb    -0.1068    -4.118    -1.470    -1.374 -0.1050  0.0148  0.9944
              Bcc     0.2814    10.854     3.873     3.620  0.7274  0.6830  0.0666
 
              Baa    -0.0294    -3.947    -1.408    -1.316  0.9552  0.2692  0.1226
     6 C(13)  Bbb    -0.0250    -3.353    -1.196    -1.118 -0.1182 -0.0328  0.9925
              Bcc     0.0544     7.300     2.605     2.435 -0.2712  0.9625 -0.0005
 
              Baa    -0.0166    -2.229    -0.795    -0.744  0.7858  0.6185 -0.0055
     7 C(13)  Bbb     0.0006     0.079     0.028     0.026  0.0408 -0.0431  0.9982
              Bcc     0.0160     2.151     0.767     0.717 -0.6171  0.7846  0.0591
 
              Baa    -0.0191    -2.568    -0.916    -0.857  0.6752  0.7376 -0.0019
     8 C(13)  Bbb     0.0054     0.731     0.261     0.244 -0.0345  0.0342  0.9988
              Bcc     0.0137     1.837     0.656     0.613  0.7368 -0.6744  0.0486
 
              Baa    -0.0298    -4.004    -1.429    -1.335 -0.1079 -0.3437  0.9329
     9 C(13)  Bbb    -0.0268    -3.591    -1.281    -1.198  0.3202  0.8763  0.3599
              Bcc     0.0566     7.595     2.710     2.533  0.9412 -0.3376 -0.0155
 
              Baa    -0.0292    -3.920    -1.399    -1.308 -0.0251  0.1573  0.9872
    10 C(13)  Bbb    -0.0275    -3.694    -1.318    -1.232 -0.2650  0.9512 -0.1583
              Bcc     0.0567     7.614     2.717     2.540  0.9639  0.2656 -0.0178
 
              Baa    -0.0187    -2.509    -0.895    -0.837 -0.6159  0.7830  0.0871
    11 C(13)  Bbb     0.0041     0.555     0.198     0.185  0.0599 -0.0637  0.9962
              Bcc     0.0146     1.954     0.697     0.652  0.7855  0.6188 -0.0077
 
              Baa    -0.0172    -2.312    -0.825    -0.771  0.7342 -0.6777 -0.0421
    12 C(13)  Bbb     0.0012     0.159     0.057     0.053  0.0326 -0.0267  0.9991
              Bcc     0.0160     2.152     0.768     0.718  0.6782  0.7349 -0.0025
 
              Baa    -0.0294    -3.948    -1.409    -1.317  0.8774 -0.3237  0.3541
    13 C(13)  Bbb    -0.0263    -3.528    -1.259    -1.177 -0.3368  0.1102  0.9351
              Bcc     0.0557     7.476     2.668     2.494  0.3417  0.9397  0.0123
 
              Baa    -0.0294    -3.942    -1.407    -1.315  0.9599  0.2640 -0.0943
    14 C(13)  Bbb    -0.0273    -3.668    -1.309    -1.224  0.0894  0.0306  0.9955
              Bcc     0.0567     7.610     2.715     2.538 -0.2657  0.9640 -0.0057
 
              Baa    -0.0199    -2.671    -0.953    -0.891  0.7884  0.6122  0.0599
    15 C(13)  Bbb     0.0061     0.818     0.292     0.273  0.0103 -0.1104  0.9938
              Bcc     0.0138     1.853     0.661     0.618 -0.6150  0.7829  0.0933
 
              Baa    -0.0202    -2.716    -0.969    -0.906  0.6691  0.7375  0.0915
    16 C(13)  Bbb     0.0068     0.913     0.326     0.304 -0.0333 -0.0933  0.9951
              Bcc     0.0134     1.803     0.643     0.602  0.7424 -0.6689 -0.0379
 
              Baa    -0.0298    -4.004    -1.429    -1.335  0.2808  0.8836  0.3746
    17 C(13)  Bbb    -0.0268    -3.593    -1.282    -1.199 -0.1851 -0.3331  0.9245
              Bcc     0.0566     7.597     2.711     2.534  0.9418 -0.3289  0.0700
 
              Baa    -0.0299    -4.013    -1.432    -1.339 -0.2361  0.8920 -0.3854
    18 C(13)  Bbb    -0.0257    -3.453    -1.232    -1.152 -0.1539  0.3573  0.9212
              Bcc     0.0556     7.466     2.664     2.490  0.9595  0.2768  0.0529
 
              Baa    -0.0185    -2.487    -0.888    -0.830 -0.6212  0.7828 -0.0372
    19 C(13)  Bbb     0.0036     0.477     0.170     0.159 -0.0510  0.0070  0.9987
              Bcc     0.0150     2.011     0.717     0.671  0.7820  0.6223  0.0356
 
              Baa    -0.0178    -2.391    -0.853    -0.797  0.7365 -0.6743  0.0535
    20 C(13)  Bbb     0.0021     0.280     0.100     0.093 -0.0894 -0.0186  0.9958
              Bcc     0.0157     2.110     0.753     0.704  0.6704  0.7383  0.0740
 
              Baa    -0.0302    -4.051    -1.446    -1.351  0.9198 -0.3303 -0.2117
    21 C(13)  Bbb    -0.0243    -3.259    -1.163    -1.087  0.1990 -0.0722  0.9773
              Bcc     0.0545     7.310     2.609     2.438  0.3381  0.9411  0.0007
 
              Baa    -0.0224    -3.012    -1.075    -1.005  0.1861 -0.0152  0.9824
    22 C(13)  Bbb    -0.0125    -1.675    -0.598    -0.559  0.9821 -0.0283 -0.1865
              Bcc     0.0349     4.687     1.672     1.563  0.0307  0.9995  0.0097
 
              Baa    -0.0084    -4.489    -1.602    -1.497  0.0569 -0.0002  0.9984
    23 H(1)   Bbb    -0.0071    -3.811    -1.360    -1.271  0.9978 -0.0339 -0.0569
              Bcc     0.0156     8.300     2.962     2.769  0.0338  0.9994 -0.0018
 
              Baa    -0.0202    -2.713    -0.968    -0.905  0.0424 -0.3336  0.9418
    24 C(13)  Bbb    -0.0135    -1.810    -0.646    -0.604  0.0584  0.9418  0.3310
              Bcc     0.0337     4.523     1.614     1.509  0.9974 -0.0409 -0.0594
 
              Baa    -0.0084    -4.469    -1.595    -1.491  0.0266 -0.0968  0.9949
    25 H(1)   Bbb    -0.0072    -3.863    -1.378    -1.288  0.0422  0.9945  0.0957
              Bcc     0.0156     8.332     2.973     2.779  0.9988 -0.0394 -0.0306
 
              Baa    -0.0218    -2.925    -1.044    -0.976 -0.2634 -0.0036  0.9647
    26 C(13)  Bbb    -0.0133    -1.784    -0.636    -0.595  0.9639 -0.0408  0.2630
              Bcc     0.0351     4.708     1.680     1.571  0.0384  0.9992  0.0142
 
              Baa    -0.0086    -4.565    -1.629    -1.523 -0.1098 -0.0286  0.9935
    27 H(1)   Bbb    -0.0073    -3.910    -1.395    -1.304  0.9933 -0.0401  0.1086
              Bcc     0.0159     8.474     3.024     2.827  0.0367  0.9988  0.0328
 
              Baa    -0.0233    -3.133    -1.118    -1.045 -0.0957  0.1718  0.9805
    28 C(13)  Bbb    -0.0124    -1.661    -0.593    -0.554  0.0461  0.9847 -0.1680
              Bcc     0.0357     4.794     1.710     1.599  0.9943 -0.0291  0.1022
 
              Baa    -0.0085    -4.544    -1.621    -1.516 -0.0702  0.0680  0.9952
    29 H(1)   Bbb    -0.0072    -3.823    -1.364    -1.275  0.0357  0.9972 -0.0656
              Bcc     0.0157     8.366     2.985     2.791  0.9969 -0.0309  0.0725
 
              Baa    -0.0048    -0.647    -0.231    -0.216  0.4548  0.8885  0.0605
    30 C(13)  Bbb    -0.0045    -0.598    -0.213    -0.199  0.0294 -0.0828  0.9961
              Bcc     0.0093     1.244     0.444     0.415  0.8901 -0.4513 -0.0638
 
              Baa    -0.0031    -1.666    -0.594    -0.556  0.0537 -0.0414  0.9977
    31 H(1)   Bbb    -0.0029    -1.542    -0.550    -0.514  0.5945  0.8041  0.0013
              Bcc     0.0060     3.208     1.145     1.070  0.8023 -0.5931 -0.0678
 
              Baa    -0.0039    -2.073    -0.740    -0.691 -0.2694 -0.4007  0.8757
    32 H(1)   Bbb    -0.0034    -1.835    -0.655    -0.612  0.2879  0.8342  0.4703
              Bcc     0.0073     3.908     1.394     1.303  0.9190 -0.3788  0.1094
 
              Baa    -0.0039    -2.104    -0.751    -0.702  0.3479  0.3182  0.8819
    33 H(1)   Bbb    -0.0035    -1.860    -0.664    -0.620  0.2469  0.8763 -0.4136
              Bcc     0.0074     3.964     1.414     1.322  0.9044 -0.3616 -0.2263
 
              Baa    -0.0047    -0.635    -0.227    -0.212  0.9229  0.3850 -0.0076
    34 C(13)  Bbb    -0.0046    -0.614    -0.219    -0.205  0.0286 -0.0490  0.9984
              Bcc     0.0093     1.249     0.446     0.417 -0.3840  0.9216  0.0562
 
              Baa    -0.0039    -2.103    -0.750    -0.702 -0.3032 -0.3005  0.9043
    35 H(1)   Bbb    -0.0035    -1.870    -0.667    -0.624  0.9069  0.2005  0.3707
              Bcc     0.0074     3.974     1.418     1.325 -0.2927  0.9325  0.2117
 
              Baa    -0.0039    -2.057    -0.734    -0.686  0.4118  0.2510  0.8760
    36 H(1)   Bbb    -0.0035    -1.845    -0.658    -0.616  0.8546  0.2273 -0.4668
              Bcc     0.0073     3.902     1.392     1.302 -0.3163  0.9409 -0.1209
 
              Baa    -0.0031    -1.662    -0.593    -0.554  0.0323 -0.0552  0.9980
    37 H(1)   Bbb    -0.0029    -1.527    -0.545    -0.509  0.8481  0.5298  0.0019
              Bcc     0.0060     3.189     1.138     1.064 -0.5288  0.8463  0.0639
 
              Baa    -0.0048    -0.642    -0.229    -0.214 -0.3818  0.9165 -0.1192
    38 C(13)  Bbb    -0.0046    -0.615    -0.219    -0.205 -0.0795  0.0959  0.9922
              Bcc     0.0094     1.256     0.448     0.419  0.9208  0.3883  0.0362
 
              Baa    -0.0041    -2.173    -0.776    -0.725  0.1884 -0.2782  0.9419
    39 H(1)   Bbb    -0.0036    -1.904    -0.679    -0.635 -0.2272  0.9207  0.3174
              Bcc     0.0076     4.077     1.455     1.360  0.9554  0.2738 -0.1103
 
              Baa    -0.0037    -1.954    -0.697    -0.652 -0.3648  0.4927  0.7900
    40 H(1)   Bbb    -0.0033    -1.782    -0.636    -0.595 -0.1603  0.8026 -0.5746
              Bcc     0.0070     3.736     1.333     1.246  0.9172  0.3363  0.2138
 
              Baa    -0.0032    -1.697    -0.606    -0.566  0.0907 -0.1101  0.9898
    41 H(1)   Bbb    -0.0029    -1.534    -0.548    -0.512 -0.5259  0.8387  0.1415
              Bcc     0.0061     3.232     1.153     1.078  0.8457  0.5333 -0.0181
 
              Baa    -0.0086    -1.148    -0.410    -0.383 -0.5294  0.1119  0.8410
    42 C(13)  Bbb    -0.0029    -0.385    -0.137    -0.128  0.7274 -0.4502  0.5178
              Bcc     0.0114     1.533     0.547     0.511  0.4366  0.8859  0.1569
 
              Baa    -0.0040    -2.157    -0.770    -0.719 -0.1891  0.0754  0.9791
    43 H(1)   Bbb    -0.0037    -1.951    -0.696    -0.651  0.9176 -0.3414  0.2035
              Bcc     0.0077     4.108     1.466     1.370  0.3496  0.9369 -0.0046
 
              Baa    -0.0070    -0.939    -0.335    -0.313  0.6548 -0.5731  0.4927
    44 C(13)  Bbb     0.0001     0.016     0.006     0.005  0.2194  0.7680  0.6017
              Bcc     0.0069     0.923     0.329     0.308  0.7232  0.2859 -0.6287
 
              Baa    -0.0026    -1.370    -0.489    -0.457 -0.4414  0.0855  0.8932
    45 H(1)   Bbb    -0.0019    -1.039    -0.371    -0.346 -0.5813  0.7311 -0.3572
              Bcc     0.0045     2.408     0.859     0.803  0.6836  0.6769  0.2730
 
              Baa    -0.0021    -1.136    -0.405    -0.379  0.5765 -0.3986  0.7133
    46 H(1)   Bbb    -0.0017    -0.932    -0.333    -0.311 -0.6867  0.2368  0.6873
              Bcc     0.0039     2.068     0.738     0.690  0.4429  0.8860  0.1371
 
              Baa    -0.0049    -0.658    -0.235    -0.220  0.7877  0.3663  0.4953
    47 C(13)  Bbb    -0.0046    -0.617    -0.220    -0.206 -0.4855 -0.1258  0.8651
              Bcc     0.0095     1.276     0.455     0.426 -0.3792  0.9220 -0.0787
 
              Baa    -0.0043    -2.279    -0.813    -0.760  0.1127  0.2179  0.9695
    48 H(1)   Bbb    -0.0037    -1.964    -0.701    -0.655  0.9650  0.2087 -0.1591
              Bcc     0.0080     4.243     1.514     1.415 -0.2369  0.9534 -0.1867
 
              Baa    -0.0036    -1.933    -0.690    -0.645 -0.5797 -0.3250  0.7472
    49 H(1)   Bbb    -0.0033    -1.765    -0.630    -0.589  0.7272  0.2074  0.6544
              Bcc     0.0069     3.698     1.320     1.234 -0.3676  0.9227  0.1161
 
              Baa    -0.0033    -1.761    -0.628    -0.587 -0.0456  0.1659  0.9851
    50 H(1)   Bbb    -0.0029    -1.553    -0.554    -0.518  0.8595  0.5091 -0.0459
              Bcc     0.0062     3.314     1.182     1.105 -0.5091  0.8446 -0.1658
 
              Baa    -0.0105    -1.415    -0.505    -0.472 -0.2857 -0.4754  0.8321
    51 C(13)  Bbb    -0.0021    -0.279    -0.099    -0.093  0.3359  0.7635  0.5516
              Bcc     0.0126     1.693     0.604     0.565  0.8975 -0.4371  0.0584
 
              Baa    -0.0042    -2.254    -0.804    -0.752 -0.2765 -0.1648  0.9468
    52 H(1)   Bbb    -0.0038    -2.020    -0.721    -0.674  0.2877  0.9258  0.2452
              Bcc     0.0080     4.274     1.525     1.426  0.9169 -0.3402  0.2086
 
              Baa    -0.0089    -1.190    -0.425    -0.397  0.4464  0.6931  0.5660
    53 C(13)  Bbb    -0.0012    -0.163    -0.058    -0.054  0.8932 -0.3833 -0.2352
              Bcc     0.0101     1.353     0.483     0.451 -0.0540 -0.6105  0.7902
 
              Baa    -0.0025    -1.360    -0.485    -0.454 -0.2698 -0.3902  0.8803
    54 H(1)   Bbb    -0.0017    -0.904    -0.323    -0.302  0.6583  0.5925  0.4644
              Bcc     0.0042     2.264     0.808     0.755 -0.7027  0.7048  0.0970
 
              Baa    -0.0023    -1.210    -0.432    -0.404  0.2270  0.6771  0.7000
    55 H(1)   Bbb    -0.0018    -0.942    -0.336    -0.314 -0.3626 -0.6084  0.7060
              Bcc     0.0040     2.152     0.768     0.718  0.9039 -0.4141  0.1075
 
              Baa    -0.0049    -0.655    -0.234    -0.219 -0.3765  0.8668 -0.3270
    56 C(13)  Bbb    -0.0045    -0.604    -0.215    -0.201 -0.0821  0.3204  0.9437
              Bcc     0.0094     1.259     0.449     0.420  0.9228  0.3822 -0.0495
 
              Baa    -0.0038    -2.038    -0.727    -0.680 -0.2726  0.4125  0.8692
    57 H(1)   Bbb    -0.0034    -1.830    -0.653    -0.610 -0.2217  0.8522 -0.4740
              Bcc     0.0072     3.868     1.380     1.290  0.9362  0.3219  0.1408
 
              Baa    -0.0041    -2.204    -0.786    -0.735  0.2783 -0.3171  0.9066
    58 H(1)   Bbb    -0.0036    -1.937    -0.691    -0.646 -0.1932  0.9061  0.3763
              Bcc     0.0078     4.140     1.477     1.381  0.9409  0.2799 -0.1909
 
              Baa    -0.0032    -1.689    -0.603    -0.563  0.0553  0.0478  0.9973
    59 H(1)   Bbb    -0.0029    -1.561    -0.557    -0.521 -0.5294  0.8483 -0.0112
              Bcc     0.0061     3.250     1.160     1.084  0.8466  0.5274 -0.0722
 
              Baa    -0.0049    -0.651    -0.232    -0.217  0.8468 -0.4576 -0.2710
    60 C(13)  Bbb    -0.0045    -0.603    -0.215    -0.201  0.2805 -0.0486  0.9586
              Bcc     0.0093     1.254     0.448     0.418  0.4519  0.8878 -0.0872
 
              Baa    -0.0032    -1.683    -0.601    -0.561 -0.0007  0.1179  0.9930
    61 H(1)   Bbb    -0.0029    -1.558    -0.556    -0.520  0.8070 -0.5864  0.0702
              Bcc     0.0061     3.241     1.157     1.081  0.5905  0.8014 -0.0947
 
              Baa    -0.0041    -2.188    -0.781    -0.730 -0.3661  0.3719  0.8530
    62 H(1)   Bbb    -0.0036    -1.940    -0.692    -0.647  0.8580 -0.2200  0.4641
              Bcc     0.0077     4.128     1.473     1.377  0.3603  0.9018 -0.2385
 
              Baa    -0.0038    -2.025    -0.723    -0.676  0.3389 -0.2323  0.9117
    63 H(1)   Bbb    -0.0034    -1.821    -0.650    -0.607  0.8611 -0.3139 -0.4000
              Bcc     0.0072     3.846     1.372     1.283  0.3791  0.9206  0.0937
 
              Baa    -0.1251     9.051     3.230     3.019 -0.6744  0.7308 -0.1054
    64 O(17)  Bbb    -0.0951     6.884     2.456     2.296  0.7325  0.6802  0.0286
              Bcc     0.2202   -15.935    -5.686    -5.315 -0.0926  0.0579  0.9940
 
              Baa    -0.0378   -20.150    -7.190    -6.721  0.7340  0.6786  0.0289
    65 H(1)   Bbb    -0.0296   -15.784    -5.632    -5.265 -0.6080  0.6755 -0.4172
              Bcc     0.0674    35.935    12.822    11.987 -0.3026  0.2886  0.9084
 
              Baa    -0.0326   -17.382    -6.202    -5.798  0.7332  0.6794  0.0293
    66 H(1)   Bbb    -0.0254   -13.544    -4.833    -4.518 -0.6618  0.7030  0.2604
              Bcc     0.0580    30.926    11.035    10.316  0.1563 -0.2103  0.9650
 
              Baa    -0.0050    -0.675    -0.241    -0.225 -0.2790  0.9584 -0.0603
    67 C(13)  Bbb    -0.0050    -0.670    -0.239    -0.224  0.9129  0.2842  0.2930
              Bcc     0.0100     1.345     0.480     0.449 -0.2979 -0.0267  0.9542
 
              Baa    -0.0040    -2.135    -0.762    -0.712 -0.0637  0.9979  0.0084
    68 H(1)   Bbb    -0.0037    -1.981    -0.707    -0.661  0.8794  0.0521  0.4732
              Bcc     0.0077     4.116     1.469     1.373 -0.4718 -0.0376  0.8809
 
              Baa    -0.0033    -1.753    -0.625    -0.585  0.9130 -0.3108  0.2642
    69 H(1)   Bbb    -0.0031    -1.679    -0.599    -0.560  0.3359  0.9403 -0.0546
              Bcc     0.0064     3.432     1.224     1.145 -0.2314  0.1386  0.9629
 
              Baa    -0.0033    -1.735    -0.619    -0.579  0.8063  0.5256  0.2714
    70 H(1)   Bbb    -0.0031    -1.657    -0.591    -0.553 -0.5531  0.8325  0.0311
              Bcc     0.0064     3.392     1.210     1.131 -0.2096 -0.1752  0.9620
 
              Baa    -0.0163    -0.630    -0.225    -0.210  0.9961  0.0052 -0.0880
    71 N(14)  Bbb    -0.0056    -0.214    -0.077    -0.072 -0.0031  0.9997  0.0236
              Bcc     0.0219     0.844     0.301     0.282  0.0881 -0.0232  0.9958
 
              Baa    -0.0062    -3.333    -1.189    -1.112 -0.0281  0.9992  0.0292
    72 H(1)   Bbb    -0.0059    -3.136    -1.119    -1.046  0.9595  0.0351 -0.2795
              Bcc     0.0121     6.469     2.308     2.158  0.2803 -0.0202  0.9597
 
              Baa    -0.0121    -1.630    -0.582    -0.544  0.9918  0.0161  0.1266
    73 C(13)  Bbb    -0.0089    -1.191    -0.425    -0.397 -0.0198  0.9994  0.0277
              Bcc     0.0210     2.821     1.007     0.941 -0.1261 -0.0300  0.9916
 
              Baa    -0.0285    -3.829    -1.366    -1.277  0.8829  0.0959 -0.4596
    74 C(13)  Bbb    -0.0235    -3.150    -1.124    -1.051 -0.0748  0.9952  0.0638
              Bcc     0.0520     6.979     2.490     2.328  0.4635 -0.0220  0.8858
 
              Baa    -0.0215   -11.485    -4.098    -3.831 -0.0490  0.9971  0.0589
    75 H(1)   Bbb    -0.0198   -10.578    -3.775    -3.529  0.7527  0.0756 -0.6540
              Bcc     0.0414    22.063     7.873     7.359  0.6566 -0.0122  0.7542
 
              Baa    -0.1803    -6.953    -2.481    -2.319  0.9998 -0.0043  0.0182
    76 N(14)  Bbb    -0.1471    -5.673    -2.024    -1.892  0.0039  0.9998  0.0219
              Bcc     0.3274    12.626     4.505     4.211 -0.0183 -0.0218  0.9996
 
              Baa    -0.0353    -4.734    -1.689    -1.579  0.0025  0.9997  0.0237
    77 C(13)  Bbb    -0.0249    -3.338    -1.191    -1.114  0.8801 -0.0135  0.4746
              Bcc     0.0602     8.072     2.880     2.693 -0.4748 -0.0197  0.8799
 
              Baa    -0.0219   -11.705    -4.176    -3.904 -0.0487  0.9986 -0.0195
    78 H(1)   Bbb    -0.0206   -11.012    -3.929    -3.673  0.7314  0.0490  0.6802
              Bcc     0.0426    22.717     8.106     7.578 -0.6802 -0.0188  0.7328
 

 ---------------------------------------------------------------------------------

 Unable to Open any file for archive entry.
 1\1\GINC-BGN1023\SP\UAPFD\Gen\C34H36Fe1N6O1(1+,6)\BECSLEIP\03-Sep-2024
 \0\\# apfd/gen scf=maxcycle=999 geom=check\\2rbu_III_H\\1,6\Fe,0,11.74
 05548885,-2.6425787735,1.4315670846\N,0,12.3180974895,-0.9392662801,2.
 3289246178\N,0,10.0441081587,-2.6177161495,2.5071692945\N,0,11.0930978
 245,-4.2273945487,0.4239584898\N,0,13.3499582449,-2.5217013653,0.23013
 0752\C,0,13.4622427351,-0.2405575667,2.1000570118\C,0,13.5003718433,0.
 9580002627,2.908034277\C,0,12.3541303519,0.9629797239,3.6403141841\C,0
 ,11.635069383,-0.237738524,3.2756807232\C,0,9.7132916404,-1.7474778063
 ,3.4990730502\C,0,8.5263365569,-2.1805143825,4.1900790758\C,0,8.146914
 5861,-3.3580061766,3.6006589456\C,0,9.1087742757,-3.6018092029,2.54276
 69115\C,0,9.9378199059,-4.9131389467,0.6407942444\C,0,9.7509106136,-5.
 9323752232,-0.3607247419\C,0,10.8434963546,-5.8675582427,-1.1843152172
 \C,0,11.6759133959,-4.8014582224,-0.6591092714\C,0,13.7161364468,-3.44
 14538807,-0.7002057548\C,0,15.084578489,-3.2327077846,-1.1198360084\C,
 0,15.5342866992,-2.1539246328,-0.4242039232\C,0,14.4323138909,-1.71958
 19196,0.4055505464\C,0,14.4769821107,-0.6198975106,1.2409451799\H,0,15
 .3696165641,-0.0131536522,1.2239784532\C,0,10.4186283168,-0.598929685,
 3.8204668354\H,0,10.0141149449,0.0359083936,4.5943279335\C,0,9.0456063
 49,-4.6711787804,1.6709519144\H,0,8.221182818,-5.3589885965,1.78245026
 14\C,0,12.9009971248,-4.4450750591,-1.1926875327\H,0,13.2861850515,-5.
 0447030266,-2.0038547421\C,0,11.8728610383,1.9630677811,4.6355167808\H
 ,0,12.5774811006,2.7858098439,4.7284868745\H,0,11.7534502415,1.5023939
 485,5.6167142318\H,0,10.9072555529,2.3706086507,4.3349795543\C,0,14.60
 95625555,1.9531853425,2.8821029805\H,0,14.7465828891,2.3479994445,1.87
 52209546\H,0,15.5466403737,1.4903604723,3.192924905\H,0,14.400645239,2
 .784631738,3.5509187872\C,0,7.8437704509,-1.4279959146,5.279068626\H,0
 ,7.8700771648,-0.3570112923,5.0826172546\H,0,8.3278394067,-1.605678827
 3,6.241263275\H,0,6.804823459,-1.7422558035,5.3550475665\C,0,7.0189121
 131,-4.2091098259,3.9060497626\H,0,6.5735871102,-4.7192805133,3.059854
 7627\C,0,6.510883342,-4.4127873733,5.117423536\H,0,6.9397882639,-3.972
 4374426,6.0006714509\H,0,5.6576656136,-5.0526903549,5.2706580441\C,0,8
 .5497823469,-6.8045973719,-0.4789437637\H,0,7.6452126387,-6.2479473896
 ,-0.2376791438\H,0,8.6165904727,-7.6530982043,0.2044555941\H,0,8.46352
 4033,-7.1868448586,-1.4940314082\C,0,11.1529255635,-6.645086722,-2.363
 8636927\H,0,11.6961266005,-6.1187240412,-3.1404483524\C,0,10.835982987
 7,-7.9220333434,-2.553012709\H,0,10.3401002876,-8.5072049179,-1.798400
 1735\H,0,11.0873929402,-8.435618913,-3.4663223716\C,0,15.795677546,-4.
 078085285,-2.1203885473\H,0,15.3052134281,-4.0157057288,-3.0923707817\
 H,0,15.7955029474,-5.1231609222,-1.8097855608\H,0,16.8271657728,-3.754
 7933118,-2.2376710659\C,0,16.8724143894,-1.4986127784,-0.455994285\H,0
 ,17.5495315152,-2.032140372,-1.1186473034\H,0,17.3121072681,-1.4768427
 4,0.5412825974\H,0,16.7872089002,-0.4705716018,-0.8097559584\O,0,10.68
 3,-1.284,-0.046\H,0,10.856,-0.385,0.233\H,0,10.201,-1.532,-0.751\C,0,1
 4.9074460694,-6.4289520702,4.0014706266\H,0,15.2884731419,-6.845468170
 9,3.0738365693\H,0,14.3917801925,-7.2169238538,4.5513613126\H,0,15.748
 820862,-6.086688062,4.6041651507\N,0,13.415430698,-4.5354923092,4.6796
 284244\H,0,13.553005485,-4.6470131921,5.6706712649\C,0,13.9849862799,-
 5.3053067493,3.6994474897\C,0,12.6383525948,-3.609026608,4.0731567416\
 H,0,12.0684076107,-2.8677051766,4.594437327\N,0,12.6811448148,-3.74643
 77809,2.7694562714\C,0,13.5144769616,-4.7982513496,2.5220502158\H,0,13
 .7176319173,-5.1153895046,1.5199180269\\Version=ES64L-G16RevC.02\State
 =6-A\HF=-2983.2099821\S2=8.758204\S2-1=0.\S2A=8.75002\RMSD=5.747e-09\D
 ipole=0.8971376,-0.2818222,1.2443399\Quadrupole=-2.6372514,-0.480417,3
 .1176684,3.0823289,-3.0867282,6.1283375\PG=C01 [X(C34H36Fe1N6O1)]\\@
 The archive entry for this job was punched.


 THERE IS SOMETHING FASCINATING ABOUT SCIENCE.
 ONE GETS SUCH WHOLESALE CONJECTURE OUT OF SUCH TRIFLING INVESTMENTS.

                                                       -- MARK TWAIN
 Job cpu time:       0 days  1 hours 49 minutes 32.8 seconds.
 Elapsed time:       0 days  0 hours  1 minutes 53.2 seconds.
 File lengths (MBytes):  RWF=    430 Int=      0 D2E=      0 Chk=    155 Scr=      1
 Normal termination of Gaussian 16 at Tue Sep  3 22:06:06 2024.
