 Entering Gaussian System, Link 0=g16
 Input=2rbx16.com
 Output=2rbx16.log
 Initial command:
 /sw/chem/gaussian/g16_C02/a100/g16/l1.exe "/local/becsleip_8004246/Gau-2090299.inp" -scrdir="/local/becsleip_8004246/"
 Entering Link 1 = /sw/chem/gaussian/g16_C02/a100/g16/l1.exe PID=   2090300.
  
 Copyright (c) 1988-2021, Gaussian, Inc.  All Rights Reserved.
  
 This is part of the Gaussian(R) 16 program.  It is based on
 the Gaussian(R) 09 system (copyright 2009, Gaussian, Inc.),
 the Gaussian(R) 03 system (copyright 2003, Gaussian, Inc.),
 the Gaussian(R) 98 system (copyright 1998, Gaussian, Inc.),
 the Gaussian(R) 94 system (copyright 1995, Gaussian, Inc.),
 the Gaussian 92(TM) system (copyright 1992, Gaussian, Inc.),
 the Gaussian 90(TM) system (copyright 1990, Gaussian, Inc.),
 the Gaussian 88(TM) system (copyright 1988, Gaussian, Inc.),
 the Gaussian 86(TM) system (copyright 1986, Carnegie Mellon
 University), and the Gaussian 82(TM) system (copyright 1983,
 Carnegie Mellon University). Gaussian is a federally registered
 trademark of Gaussian, Inc.
  
 This software contains proprietary and confidential information,
 including trade secrets, belonging to Gaussian, Inc.
  
 This software is provided under written license and may be
 used, copied, transmitted, or stored only in accord with that
 written license.
  
 The following legend is applicable only to US Government
 contracts under FAR:
  
                    RESTRICTED RIGHTS LEGEND
  
 Use, reproduction and disclosure by the US Government is
 subject to restrictions as set forth in subparagraphs (a)
 and (c) of the Commercial Computer Software - Restricted
 Rights clause in FAR 52.227-19.
  
 Gaussian, Inc.
 340 Quinnipiac St., Bldg. 40, Wallingford CT 06492
  
  
 ---------------------------------------------------------------
 Warning -- This program may not be used in any manner that
 competes with the business of Gaussian, Inc. or will provide
 assistance to any competitor of Gaussian, Inc.  The licensee
 of this program is prohibited from giving any competitor of
 Gaussian, Inc. access to this program.  By using this program,
 the user acknowledges that Gaussian, Inc. is engaged in the
 business of creating and licensing software in the field of
 computational chemistry and represents and warrants to the
 licensee that it is not a competitor of Gaussian, Inc. and that
 it will not use this program in any manner prohibited above.
 ---------------------------------------------------------------
  

 Cite this work as:
 Gaussian 16, Revision C.02,
 M. J. Frisch, G. W. Trucks, H. B. Schlegel, G. E. Scuseria, 
 M. A. Robb, J. R. Cheeseman, G. Scalmani, V. Barone, 
 G. A. Petersson, H. Nakatsuji, X. Li, M. Caricato, A. V. Marenich, 
 J. Bloino, B. G. Janesko, R. Gomperts, B. Mennucci, H. P. Hratchian, 
 J. V. Ortiz, A. F. Izmaylov, J. L. Sonnenberg, D. Williams-Young, 
 F. Ding, F. Lipparini, F. Egidi, J. Goings, B. Peng, A. Petrone, 
 T. Henderson, D. Ranasinghe, V. G. Zakrzewski, J. Gao, N. Rega, 
 G. Zheng, W. Liang, M. Hada, M. Ehara, K. Toyota, R. Fukuda, 
 J. Hasegawa, M. Ishida, T. Nakajima, Y. Honda, O. Kitao, H. Nakai, 
 T. Vreven, K. Throssell, J. A. Montgomery, Jr., J. E. Peralta, 
 F. Ogliaro, M. J. Bearpark, J. J. Heyd, E. N. Brothers, K. N. Kudin, 
 V. N. Staroverov, T. A. Keith, R. Kobayashi, J. Normand, 
 K. Raghavachari, A. P. Rendell, J. C. Burant, S. S. Iyengar, 
 J. Tomasi, M. Cossi, J. M. Millam, M. Klene, C. Adamo, R. Cammi, 
 J. W. Ochterski, R. L. Martin, K. Morokuma, O. Farkas, 
 J. B. Foresman, and D. J. Fox, Gaussian, Inc., Wallingford CT, 2019.
 
 ******************************************
 Gaussian 16:  ES64L-G16RevC.02  7-Dec-2021
                 3-Sep-2024 
 ******************************************
 %mem=16GB
 %CPU=0-71
 SetSPE:  set environment variable "OMP_PROC_BIND" = "true"
 SetSPE:  set environment variable "OMP_PLACES" = "{0},{1},{2},{3},{4},{5},{6},{7},{8},{9},{10},{11},{12},{13},{14},{15},{16},{17},{18},{19},{20},{21},{22},{23},{24},{25},{26},{27},{28},{29},{30},{31},{32},{33},{34},{35},{36},{37},{38},{39},{40},{41},{42},{43},{44},{45},{46},{47},{48},{49},{50},{51},{52},{53},{54},{55},{56},{57},{58},{59},{60},{61},{62},{63},{64},{65},{66},{67},{68},{69},{70},{71}"
 Will use up to   72 processors via shared memory.
 %gpucpu=0,1,2,3=0,1,2,3
 Will use    4 GPUs:
 Thread  CPU   GPU
      0    0     0
      1    1     1
      2    2     2
      3    3     3
      4    4    -1
      5    5    -1
      6    6    -1
      7    7    -1
      8    8    -1
      9    9    -1
     10   10    -1
     11   11    -1
     12   12    -1
     13   13    -1
     14   14    -1
     15   15    -1
     16   16    -1
     17   17    -1
     18   18    -1
     19   19    -1
     20   20    -1
     21   21    -1
     22   22    -1
     23   23    -1
     24   24    -1
     25   25    -1
     26   26    -1
     27   27    -1
     28   28    -1
     29   29    -1
     30   30    -1
     31   31    -1
     32   32    -1
     33   33    -1
     34   34    -1
     35   35    -1
     36   36    -1
     37   37    -1
     38   38    -1
     39   39    -1
     40   40    -1
     41   41    -1
     42   42    -1
     43   43    -1
     44   44    -1
     45   45    -1
     46   46    -1
     47   47    -1
     48   48    -1
     49   49    -1
     50   50    -1
     51   51    -1
     52   52    -1
     53   53    -1
     54   54    -1
     55   55    -1
     56   56    -1
     57   57    -1
     58   58    -1
     59   59    -1
     60   60    -1
     61   61    -1
     62   62    -1
     63   63    -1
     64   64    -1
     65   65    -1
     66   66    -1
     67   67    -1
     68   68    -1
     69   69    -1
     70   70    -1
     71   71    -1
 SetGPE:  set environment variable "OMP_PROC_BIND" = "true"
 SetGPE:  set environment variable "OMP_PLACES" = "{0},{1},{2},{3},{4},{5},{6},{7},{8},{9},{10},{11},{12},{13},{14},{15},{16},{17},{18},{19},{20},{21},{22},{23},{24},{25},{26},{27},{28},{29},{30},{31},{32},{33},{34},{35},{36},{37},{38},{39},{40},{41},{42},{43},{44},{45},{46},{47},{48},{49},{50},{51},{52},{53},{54},{55},{56},{57},{58},{59},{60},{61},{62},{63},{64},{65},{66},{67},{68},{69},{70},{71}"
 %oldchk=2rbx_III_Dre.chk
 %chk=2rbx_III_Hn.chk
 Properties for Device   0
 Minimum vector length:                              32
 Maximum vector length:                            1024
 Number of SMPs:                                    108
 Maximum number of threads per SMP:                2048
 Number of ASync Engines:                             5
 Memory:                                           9207742464
 Properties for Device   1
 Minimum vector length:                              32
 Maximum vector length:                            1024
 Number of SMPs:                                    108
 Maximum number of threads per SMP:                2048
 Number of ASync Engines:                             5
 Memory:                                           9207742464
 Properties for Device   2
 Minimum vector length:                              32
 Maximum vector length:                            1024
 Number of SMPs:                                    108
 Maximum number of threads per SMP:                2048
 Number of ASync Engines:                             5
 Memory:                                           9207742464
 Properties for Device   3
 Minimum vector length:                              32
 Maximum vector length:                            1024
 Number of SMPs:                                    108
 Maximum number of threads per SMP:                2048
 Number of ASync Engines:                             5
 Memory:                                           9207742464
   8286968217 words of memory will be used on each GPU.
 Copying data from "2rbx_III_Dre.chk" to current chk file "2rbx_III_Hn.chk"
 IOpt=  2 FromEx=T IUOpen= 4 IOptOp= 5 NList=   0 IFRang= 0 IUIn= 4 IUOut= 2.
 --------------------------------------------------------------
 # apfd/def2TZVP guess=read scf=maxcycle=999 geom=check pop=nbo
 --------------------------------------------------------------
 1/29=2,38=1,172=1/1;
 2/12=2,40=1/2;
 3/5=44,7=101,11=2,14=-4,25=1,30=1,74=-44,116=-2/1,2,3;
 4/5=1/1;
 5/5=2,7=999,38=6/2;
 6/7=2,8=2,9=2,10=2,28=1,40=1/1,7;
 99/5=1,9=1/99;
 ----------
 2rbx_III_H
 ----------
 Structure from the checkpoint file:  "2rbx_III_Hn.chk"
 Charge =  1 Multiplicity = 6
 Z-Matrix found in chk file.
 Fe,0,11.5066858241,-2.5261449812,1.4459406571
 N,0,12.080579074,-0.8546491182,2.4045358094
 N,0,9.8237747921,-2.551628908,2.551372505
 N,0,10.8908389819,-4.1436898296,0.4657866228
 N,0,13.1259633668,-2.4091146514,0.2876585836
 C,0,13.2241735459,-0.1501644523,2.1903169441
 C,0,13.2513526208,1.0420473579,3.0073401542
 C,0,12.0985425966,1.0375563148,3.729909875
 C,0,11.3842913194,-0.159075964,3.3452300285
 C,0,9.4688236427,-1.6790301618,3.5334524302
 C,0,8.2689138693,-2.1136552167,4.2009760943
 C,0,7.9099612908,-3.2979721313,3.6130958903
 C,0,8.8926832047,-3.5404224367,2.573705643
 C,0,9.7480715871,-4.8481739587,0.6829058975
 C,0,9.5646885515,-5.8541494458,-0.3320867869
 C,0,10.6458362359,-5.7583454894,-1.1685786618
 C,0,11.4633731202,-4.6826671297,-0.6405470412
 C,0,13.4903924082,-3.3016582491,-0.669544208
 C,0,14.8490935352,-3.0609030719,-1.1045902097
 C,0,15.2928114592,-1.9916885168,-0.3910831384
 C,0,14.1982871033,-1.5948860091,0.4675699031
 C,0,14.2410080144,-0.5134167419,1.3261066356
 H,0,15.1302104783,0.0984455328,1.317345713
 C,0,10.1620940044,-0.5283471428,3.8711286371
 H,0,9.7420812331,0.1017972016,4.640373991
 C,0,8.8565497544,-4.6229417046,1.717735381
 H,0,8.0427269052,-5.3228790355,1.8306930639
 C,0,12.6868917974,-4.3107817192,-1.1686045756
 H,0,13.0721189043,-4.8895740512,-1.994637189
 C,0,11.6046986223,2.0284833563,4.7281488659
 H,0,12.3077450353,2.850631526,4.8371467106
 H,0,11.4734734069,1.5590803223,5.7036421694
 H,0,10.6426447004,2.4385012841,4.4195887273
 C,0,14.3587594725,2.0395659617,3.003485066
 H,0,14.5114771102,2.4389825539,2.00075949
 H,0,15.2917172738,1.5776908315,3.3279661657
 H,0,14.1367516348,2.8677939632,3.6721291015
 C,0,7.5582792428,-1.3576725369,5.2694360695
 H,0,7.5977198402,-0.286738259,5.0756030297
 H,0,8.0104262738,-1.5401807461,6.2460752658
 H,0,6.5153138081,-1.6650456966,5.3122266052
 C,0,6.7795344521,-4.1522982871,3.8988275711
 H,0,6.3623278822,-4.6781959647,3.0479599999
 C,0,6.2362047826,-4.3407807871,5.09741207
 H,0,6.6349952317,-3.8843280263,5.9864937566
 H,0,5.3825080178,-4.9837855126,5.2339434591
 C,0,8.3784659266,-6.7466402218,-0.4492294605
 H,0,7.4700301191,-6.219275218,-0.1624479585
 H,0,8.4817203095,-7.6187026761,0.1989137777
 H,0,8.2709695458,-7.0925130538,-1.4754019651
 C,0,10.9525941589,-6.5113111767,-2.3640943755
 H,0,11.4893913628,-5.967258766,-3.1329142144
 C,0,10.6416505926,-7.7861014203,-2.5776833735
 H,0,10.1523935076,-8.38984343,-1.8335741128
 H,0,10.8918152521,-8.2791348198,-3.5025988234
 C,0,15.5570843062,-3.8690419495,-2.1375449647
 H,0,15.0430100523,-3.7996573178,-3.0966847715
 H,0,15.5893568477,-4.9196262632,-1.8479959441
 H,0,16.577541393,-3.5183537955,-2.2713107884
 C,0,16.6193513879,-1.3135044501,-0.4298296151
 H,0,17.2881113212,-1.8100695696,-1.1286682018
 H,0,17.0834647188,-1.3223938414,0.5565832001
 H,0,16.5090669768,-0.2743740303,-0.741545398
 O,0,10.445,-1.149,-0.009
 H,0,10.614,-0.264,0.314
 H,0,9.944,-1.366,-0.711
 C,0,14.6813909688,-6.3399964769,3.9843240841
 H,0,14.9843487123,-6.8115208703,3.0546977208
 H,0,14.1879636559,-7.084537019,4.6090779773
 H,0,15.5728601355,-5.9931287402,4.5070346853
 N,0,13.2276116706,-4.4224622753,4.6773186735
 H,0,13.3848329299,-4.5283329125,5.666067042
 C,0,13.7671343417,-5.2071353279,3.6919407411
 C,0,12.4497900798,-3.4913766264,4.0798135298
 H,0,11.8996151681,-2.7395963688,4.6070403079
 N,0,12.4644569426,-3.6388805723,2.7771448708
 C,0,13.2791126261,-4.7026471764,2.5206721805
 H,0,13.4583594256,-5.0306288943,1.5176135848
 Recover connectivity data from disk.
 Stoichiometry    C34H36FeN6O(1+,6)
 Framework group  C1[X(C34H36FeN6O)]
 Deg. of freedom   228
 Full point group                 C1      NOp   1
 Largest Abelian subgroup         C1      NOp   1
 Largest concise Abelian subgroup C1      NOp   1
                         Standard orientation:                         
 ---------------------------------------------------------------------
 Center     Atomic      Atomic             Coordinates (Angstroms)
 Number     Number       Type             X           Y           Z
 ---------------------------------------------------------------------
      1         26           0        0.057377   -0.168467   -0.428721
      2          7           0        1.453408   -1.615033   -0.455209
      3          7           0        1.523945    1.211385   -0.425996
      4          7           0       -1.307461    1.277974   -0.466752
      5          7           0       -1.371132   -1.554958   -0.548624
      6          6           0        1.229534   -2.956436   -0.477890
      7          6           0        2.475886   -3.681543   -0.580171
      8          6           0        3.462499   -2.745146   -0.609413
      9          6           0        2.804427   -1.460843   -0.522413
     10          6           0        2.866262    0.988239   -0.408920
     11          6           0        3.592566    2.222228   -0.253928
     12          6           0        2.650679    3.211802   -0.150733
     13          6           0        1.364691    2.552095   -0.276738
     14          6           0       -1.081810    2.618799   -0.441704
     15          6           0       -2.305773    3.349201   -0.652067
     16          6           0       -3.295649    2.411044   -0.785422
     17          6           0       -2.642108    1.122239   -0.658398
     18          6           0       -2.710257   -1.326530   -0.533014
     19          6           0       -3.439137   -2.562300   -0.346192
     20          6           0       -2.503971   -3.545719   -0.259301
     21          6           0       -1.218646   -2.896075   -0.395763
     22          6           0       -0.009936   -3.565021   -0.399769
     23          1           0       -0.033587   -4.642809   -0.345475
     24          6           0        3.473028   -0.252722   -0.511735
     25          1           0        4.551866   -0.282433   -0.533100
     26          6           0        0.154614    3.216524   -0.267364
     27          1           0        0.174762    4.290894   -0.165862
     28          6           0       -3.311357   -0.088578   -0.671432
     29          1           0       -4.388954   -0.064037   -0.733992
     30          6           0        4.938224   -2.929690   -0.711778
     31          1           0        5.192023   -3.984624   -0.780934
     32          1           0        5.439465   -2.513953    0.162903
     33          1           0        5.328662   -2.424335   -1.595546
     34          6           0        2.582536   -5.166914   -0.641052
     35          1           0        2.013923   -5.557844   -1.484953
     36          1           0        2.186538   -5.617215    0.269686
     37          1           0        3.618743   -5.476881   -0.752986
     38          6           0        5.075880    2.354456   -0.274280
     39          1           0        5.514612    1.666411   -0.995484
     40          1           0        5.502928    2.132962    0.705587
     41          1           0        5.355446    3.369852   -0.547959
     42          6           0        2.837942    4.635839    0.011845
     43          1           0        2.094360    5.263993   -0.464720
     44          6           0        3.823384    5.213481    0.691970
     45          1           0        4.563546    4.643207    1.225635
     46          1           0        3.908374    6.285468    0.759167
     47          6           0       -2.410329    4.829952   -0.769673
     48          1           0       -1.543171    5.237285   -1.287099
     49          1           0       -2.465400    5.295954    0.215748
     50          1           0       -3.305837    5.098241   -1.326718
     51          6           0       -4.707298    2.593925   -1.038636
     52          1           0       -5.179784    1.816606   -1.628349
     53          6           0       -5.446565    3.610464   -0.605590
     54          1           0       -5.044363    4.385733    0.022715
     55          1           0       -6.494081    3.687312   -0.846290
     56          6           0       -4.924568   -2.659750   -0.273173
     57          1           0       -5.376898   -2.319842   -1.205319
     58          1           0       -5.311201   -2.038409    0.534948
     59          1           0       -5.237166   -3.686077   -0.096699
     60          6           0       -2.688405   -5.011539   -0.063084
     61          1           0       -3.741769   -5.258516    0.044711
     62          1           0       -2.162506   -5.347898    0.830663
     63          1           0       -2.292897   -5.564627   -0.915602
     64          8           0        0.191906   -0.203135   -2.691741
     65          1           0        0.851056   -0.867009   -2.893998
     66          1           0       -0.237917    0.307515   -3.279433
     67          6           0       -1.493886   -0.298263    4.923320
     68          1           0       -2.554095   -0.276501    4.691359
     69          1           0       -1.255122    0.562791    5.547585
     70          1           0       -1.279255   -1.202422    5.493136
     71          7           0        0.661126   -0.293351    3.647956
     72          1           0        1.258193   -0.327226    4.457842
     73          6           0       -0.708908   -0.270184    3.663260
     74          6           0        1.057100   -0.258871    2.355302
     75          1           0        2.079891   -0.265814    2.039572
     76          7           0        0.021679   -0.215556    1.552218
     77          6           0       -1.084032   -0.221335    2.351224
     78          1           0       -2.068080   -0.190747    1.931054
 ---------------------------------------------------------------------
 Rotational constants (GHZ):           0.0938530           0.0918071           0.0594773
 Standard basis: def2TZVP (5D, 7F)
 There are  1744 symmetry adapted cartesian basis functions of A   symmetry.
 There are  1532 symmetry adapted basis functions of A   symmetry.
  1532 basis functions,  2481 primitive gaussians,  1744 cartesian basis functions
   160 alpha electrons      155 beta electrons
       nuclear repulsion energy      5975.8364323605 Hartrees.
 NAtoms=   78 NActive=   78 NUniq=   78 SFac= 1.00D+00 NAtFMM=   60 NAOKFM=T Big=T
 Integral buffers will be    131072 words long.
 Raffenetti 2 integral format.
 Two-electron integral symmetry is turned on.
 R6APFD:  NTU= -4 IXU= 1 FactS= 1.050
 Nuclear repulsion after empirical dispersion term =     5975.6829444507 Hartrees.
 One-electron integrals computed using PRISM.
   1 Symmetry operations used in ECPInt.
 ECPInt:  NShTT=  186355 NPrTT=  576197 LenC2=  147462 LenP2D=  301848.
 LDataN:  DoStor=T MaxTD1= 6 Len=  172
 Number of processors reduced to  23 by ecpmxn.
 NBasis=  1532 RedAO= T EigKep=  3.31D-06  NBF=  1532
 NBsUse=  1532 1.00D-06 EigRej= -1.00D+00 NBFU=  1532
 Initial guess from the checkpoint file:  "2rbx_III_Hn.chk"
 B after Tr=     0.000000   -0.000000   -0.000000
         Rot=    1.000000    0.000000    0.000000   -0.000000 Ang=   0.00 deg.
 Initial guess <Sx>= 0.0000 <Sy>= 0.0000 <Sz>= 2.5000 <S**2>= 8.7583 S= 2.5014
 Requested convergence on RMS density matrix=1.00D-08 within 999 cycles.
 Requested convergence on MAX density matrix=1.00D-06.
 Requested convergence on             energy=1.00D-06.
 No special actions if energy rises.
 SCF Done:  E(UAPFD) =  -2983.83568490     A.U. after   16 cycles
            NFock= 16  Conv=0.85D-08     -V/T= 2.0031
 <Sx>= 0.0000 <Sy>= 0.0000 <Sz>= 2.5000 <S**2>= 8.7587 S= 2.5015
 <L.S>=  0.00000000000    
 Annihilation of the first spin contaminant:
 S**2 before annihilation     8.7587,   after     8.7500

 **********************************************************************

            Population analysis using the SCF Density.

 **********************************************************************

 Orbital symmetries:
 Alpha Orbitals:
       Occupied  (A) (A) (A) (A) (A) (A) (A) (A) (A) (A) (A) (A)
                 (A) (A) (A) (A) (A) (A) (A) (A) (A) (A) (A) (A)
                 (A) (A) (A) (A) (A) (A) (A) (A) (A) (A) (A) (A)
                 (A) (A) (A) (A) (A) (A) (A) (A) (A) (A) (A) (A)
                 (A) (A) (A) (A) (A) (A) (A) (A) (A) (A) (A) (A)
                 (A) (A) (A) (A) (A) (A) (A) (A) (A) (A) (A) (A)
                 (A) (A) (A) (A) (A) (A) (A) (A) (A) (A) (A) (A)
                 (A) (A) (A) (A) (A) (A) (A) (A) (A) (A) (A) (A)
                 (A) (A) (A) (A) (A) (A) (A) (A) (A) (A) (A) (A)
                 (A) (A) (A) (A) (A) (A) (A) (A) (A) (A) (A) (A)
                 (A) (A) (A) (A) (A) (A) (A) (A) (A) (A) (A) (A)
                 (A) (A) (A) (A) (A) (A) (A) (A) (A) (A) (A) (A)
                 (A) (A) (A) (A) (A) (A) (A) (A) (A) (A) (A) (A)
                 (A) (A) (A) (A)
       Virtual   (A) (A) (A) (A) (A) (A) (A) (A) (A) (A) (A) (A)
                 (A) (A) (A) (A) (A) (A) (A) (A) (A) (A) (A) (A)
                 (A) (A) (A) (A) (A) (A) (A) (A) (A) (A) (A) (A)
                 (A) (A) (A) (A) (A) (A) (A) (A) (A) (A) (A) (A)
                 (A) (A) (A) (A) (A) (A) (A) (A) (A) (A) (A) (A)
                 (A) (A) (A) (A) (A) (A) (A) (A) (A) (A) (A) (A)
                 (A) (A) (A) (A) (A) (A) (A) (A) (A) (A) (A) (A)
                 (A) (A) (A) (A) (A) (A) (A) (A) (A) (A) (A) (A)
                 (A) (A) (A) (A) (A) (A) (A) (A) (A) (A) (A) (A)
                 (A) (A) (A) (A) (A) (A) (A) (A) (A) (A) (A) (A)
                 (A) (A) (A) (A) (A) (A) (A) (A) (A) (A) (A) (A)
                 (A) (A) (A) (A) (A) (A) (A) (A) (A) (A) (A) (A)
                 (A) (A) (A) (A) (A) (A) (A) (A) (A) (A) (A) (A)
                 (A) (A) (A) (A) (A) (A) (A) (A) (A) (A) (A) (A)
                 (A) (A) (A) (A) (A) (A) (A) (A) (A) (A) (A) (A)
                 (A) (A) (A) (A) (A) (A) (A) (A) (A) (A) (A) (A)
                 (A) (A) (A) (A) (A) (A) (A) (A) (A) (A) (A) (A)
                 (A) (A) (A) (A) (A) (A) (A) (A) (A) (A) (A) (A)
                 (A) (A) (A) (A) (A) (A) (A) (A) (A) (A) (A) (A)
                 (A) (A) (A) (A) (A) (A) (A) (A) (A) (A) (A) (A)
                 (A) (A) (A) (A) (A) (A) (A) (A) (A) (A) (A) (A)
                 (A) (A) (A) (A) (A) (A) (A) (A) (A) (A) (A) (A)
                 (A) (A) (A) (A) (A) (A) (A) (A) (A) (A) (A) (A)
                 (A) (A) (A) (A) (A) (A) (A) (A) (A) (A) (A) (A)
                 (A) (A) (A) (A) (A) (A) (A) (A) (A) (A) (A) (A)
                 (A) (A) (A) (A) (A) (A) (A) (A) (A) (A) (A) (A)
                 (A) (A) (A) (A) (A) (A) (A) (A) (A) (A) (A) (A)
                 (A) (A) (A) (A) (A) (A) (A) (A) (A) (A) (A) (A)
                 (A) (A) (A) (A) (A) (A) (A) (A) (A) (A) (A) (A)
                 (A) (A) (A) (A) (A) (A) (A) (A) (A) (A) (A) (A)
                 (A) (A) (A) (A) (A) (A) (A) (A) (A) (A) (A) (A)
                 (A) (A) (A) (A) (A) (A) (A) (A) (A) (A) (A) (A)
                 (A) (A) (A) (A) (A) (A) (A) (A) (A) (A) (A) (A)
                 (A) (A) (A) (A) (A) (A) (A) (A) (A) (A) (A) (A)
                 (A) (A) (A) (A) (A) (A) (A) (A) (A) (A) (A) (A)
                 (A) (A) (A) (A) (A) (A) (A) (A) (A) (A) (A) (A)
                 (A) (A) (A) (A) (A) (A) (A) (A) (A) (A) (A) (A)
                 (A) (A) (A) (A) (A) (A) (A) (A) (A) (A) (A) (A)
                 (A) (A) (A) (A) (A) (A) (A) (A) (A) (A) (A) (A)
                 (A) (A) (A) (A) (A) (A) (A) (A) (A) (A) (A) (A)
                 (A) (A) (A) (A) (A) (A) (A) (A) (A) (A) (A) (A)
                 (A) (A) (A) (A) (A) (A) (A) (A) (A) (A) (A) (A)
                 (A) (A) (A) (A) (A) (A) (A) (A) (A) (A) (A) (A)
                 (A) (A) (A) (A) (A) (A) (A) (A) (A) (A) (A) (A)
                 (A) (A) (A) (A) (A) (A) (A) (A) (A) (A) (A) (A)
                 (A) (A) (A) (A) (A) (A) (A) (A) (A) (A) (A) (A)
                 (A) (A) (A) (A) (A) (A) (A) (A) (A) (A) (A) (A)
                 (A) (A) (A) (A) (A) (A) (A) (A) (A) (A) (A) (A)
                 (A) (A) (A) (A) (A) (A) (A) (A) (A) (A) (A) (A)
                 (A) (A) (A) (A) (A) (A) (A) (A) (A) (A) (A) (A)
                 (A) (A) (A) (A) (A) (A) (A) (A) (A) (A) (A) (A)
                 (A) (A) (A) (A) (A) (A) (A) (A) (A) (A) (A) (A)
                 (A) (A) (A) (A) (A) (A) (A) (A) (A) (A) (A) (A)
                 (A) (A) (A) (A) (A) (A) (A) (A) (A) (A) (A) (A)
                 (A) (A) (A) (A) (A) (A) (A) (A) (A) (A) (A) (A)
                 (A) (A) (A) (A) (A) (A) (A) (A) (A) (A) (A) (A)
                 (A) (A) (A) (A) (A) (A) (A) (A) (A) (A) (A) (A)
                 (A) (A) (A) (A) (A) (A) (A) (A) (A) (A) (A) (A)
                 (A) (A) (A) (A) (A) (A) (A) (A) (A) (A) (A) (A)
                 (A) (A) (A) (A) (A) (A) (A) (A) (A) (A) (A) (A)
                 (A) (A) (A) (A) (A) (A) (A) (A) (A) (A) (A) (A)
                 (A) (A) (A) (A) (A) (A) (A) (A) (A) (A) (A) (A)
                 (A) (A) (A) (A) (A) (A) (A) (A) (A) (A) (A) (A)
                 (A) (A) (A) (A) (A) (A) (A) (A) (A) (A) (A) (A)
                 (A) (A) (A) (A) (A) (A) (A) (A) (A) (A) (A) (A)
                 (A) (A) (A) (A) (A) (A) (A) (A) (A) (A) (A) (A)
                 (A) (A) (A) (A) (A) (A) (A) (A) (A) (A) (A) (A)
                 (A) (A) (A) (A) (A) (A) (A) (A) (A) (A) (A) (A)
                 (A) (A) (A) (A) (A) (A) (A) (A) (A) (A) (A) (A)
                 (A) (A) (A) (A) (A) (A) (A) (A) (A) (A) (A) (A)
                 (A) (A) (A) (A) (A) (A) (A) (A) (A) (A) (A) (A)
                 (A) (A) (A) (A) (A) (A) (A) (A) (A) (A) (A) (A)
                 (A) (A) (A) (A) (A) (A) (A) (A) (A) (A) (A) (A)
                 (A) (A) (A) (A) (A) (A) (A) (A) (A) (A) (A) (A)
                 (A) (A) (A) (A) (A) (A) (A) (A) (A) (A) (A) (A)
                 (A) (A) (A) (A) (A) (A) (A) (A) (A) (A) (A) (A)
                 (A) (A) (A) (A) (A) (A) (A) (A) (A) (A) (A) (A)
                 (A) (A) (A) (A) (A) (A) (A) (A) (A) (A) (A) (A)
                 (A) (A) (A) (A) (A) (A) (A) (A) (A) (A) (A) (A)
                 (A) (A) (A) (A) (A) (A) (A) (A) (A) (A) (A) (A)
                 (A) (A) (A) (A) (A) (A) (A) (A) (A) (A) (A) (A)
                 (A) (A) (A) (A) (A) (A) (A) (A) (A) (A) (A) (A)
                 (A) (A) (A) (A) (A) (A) (A) (A) (A) (A) (A) (A)
                 (A) (A) (A) (A) (A) (A) (A) (A) (A) (A) (A) (A)
                 (A) (A) (A) (A) (A) (A) (A) (A) (A) (A) (A) (A)
                 (A) (A) (A) (A) (A) (A) (A) (A) (A) (A) (A) (A)
                 (A) (A) (A) (A) (A) (A) (A) (A) (A) (A) (A) (A)
                 (A) (A) (A) (A) (A) (A) (A) (A) (A) (A) (A) (A)
                 (A) (A) (A) (A) (A) (A) (A) (A) (A) (A) (A) (A)
                 (A) (A) (A) (A) (A) (A) (A) (A) (A) (A) (A) (A)
                 (A) (A) (A) (A) (A) (A) (A) (A) (A) (A) (A) (A)
                 (A) (A) (A) (A) (A) (A) (A) (A) (A) (A) (A) (A)
                 (A) (A) (A) (A) (A) (A) (A) (A) (A) (A) (A) (A)
                 (A) (A) (A) (A) (A) (A) (A) (A) (A) (A) (A) (A)
                 (A) (A) (A) (A) (A) (A) (A) (A) (A) (A) (A) (A)
                 (A) (A) (A) (A) (A) (A) (A) (A) (A) (A) (A) (A)
                 (A) (A) (A) (A) (A) (A) (A) (A) (A) (A) (A) (A)
                 (A) (A) (A) (A) (A) (A) (A) (A) (A) (A) (A) (A)
                 (A) (A) (A) (A) (A) (A) (A) (A) (A) (A) (A) (A)
                 (A) (A) (A) (A) (A) (A) (A) (A) (A) (A) (A) (A)
                 (A) (A) (A) (A) (A) (A) (A) (A) (A) (A) (A) (A)
                 (A) (A) (A) (A) (A) (A) (A) (A) (A) (A) (A) (A)
                 (A) (A) (A) (A) (A) (A) (A) (A) (A) (A) (A) (A)
                 (A) (A) (A) (A) (A) (A) (A) (A) (A) (A) (A) (A)
                 (A) (A) (A) (A) (A) (A) (A) (A) (A) (A) (A) (A)
                 (A) (A) (A) (A) (A) (A) (A) (A) (A) (A) (A) (A)
                 (A) (A) (A) (A) (A) (A) (A) (A) (A) (A) (A) (A)
                 (A) (A) (A) (A) (A) (A) (A) (A) (A) (A) (A) (A)
                 (A) (A) (A) (A) (A) (A) (A) (A) (A) (A) (A) (A)
                 (A) (A) (A) (A) (A) (A) (A) (A) (A) (A) (A) (A)
                 (A) (A) (A) (A) (A) (A) (A) (A) (A) (A) (A) (A)
                 (A) (A) (A) (A) (A) (A) (A) (A) (A) (A) (A) (A)
                 (A) (A) (A) (A) (A) (A) (A) (A) (A) (A) (A) (A)
                 (A) (A) (A) (A) (A) (A) (A) (A) (A) (A) (A) (A)
                 (A) (A) (A) (A)
 Beta  Orbitals:
       Occupied  (A) (A) (A) (A) (A) (A) (A) (A) (A) (A) (A) (A)
                 (A) (A) (A) (A) (A) (A) (A) (A) (A) (A) (A) (A)
                 (A) (A) (A) (A) (A) (A) (A) (A) (A) (A) (A) (A)
                 (A) (A) (A) (A) (A) (A) (A) (A) (A) (A) (A) (A)
                 (A) (A) (A) (A) (A) (A) (A) (A) (A) (A) (A) (A)
                 (A) (A) (A) (A) (A) (A) (A) (A) (A) (A) (A) (A)
                 (A) (A) (A) (A) (A) (A) (A) (A) (A) (A) (A) (A)
                 (A) (A) (A) (A) (A) (A) (A) (A) (A) (A) (A) (A)
                 (A) (A) (A) (A) (A) (A) (A) (A) (A) (A) (A) (A)
                 (A) (A) (A) (A) (A) (A) (A) (A) (A) (A) (A) (A)
                 (A) (A) (A) (A) (A) (A) (A) (A) (A) (A) (A) (A)
                 (A) (A) (A) (A) (A) (A) (A) (A) (A) (A) (A) (A)
                 (A) (A) (A) (A) (A) (A) (A) (A) (A) (A) (A)
       Virtual   (A) (A) (A) (A) (A) (A) (A) (A) (A) (A) (A) (A)
                 (A) (A) (A) (A) (A) (A) (A) (A) (A) (A) (A) (A)
                 (A) (A) (A) (A) (A) (A) (A) (A) (A) (A) (A) (A)
                 (A) (A) (A) (A) (A) (A) (A) (A) (A) (A) (A) (A)
                 (A) (A) (A) (A) (A) (A) (A) (A) (A) (A) (A) (A)
                 (A) (A) (A) (A) (A) (A) (A) (A) (A) (A) (A) (A)
                 (A) (A) (A) (A) (A) (A) (A) (A) (A) (A) (A) (A)
                 (A) (A) (A) (A) (A) (A) (A) (A) (A) (A) (A) (A)
                 (A) (A) (A) (A) (A) (A) (A) (A) (A) (A) (A) (A)
                 (A) (A) (A) (A) (A) (A) (A) (A) (A) (A) (A) (A)
                 (A) (A) (A) (A) (A) (A) (A) (A) (A) (A) (A) (A)
                 (A) (A) (A) (A) (A) (A) (A) (A) (A) (A) (A) (A)
                 (A) (A) (A) (A) (A) (A) (A) (A) (A) (A) (A) (A)
                 (A) (A) (A) (A) (A) (A) (A) (A) (A) (A) (A) (A)
                 (A) (A) (A) (A) (A) (A) (A) (A) (A) (A) (A) (A)
                 (A) (A) (A) (A) (A) (A) (A) (A) (A) (A) (A) (A)
                 (A) (A) (A) (A) (A) (A) (A) (A) (A) (A) (A) (A)
                 (A) (A) (A) (A) (A) (A) (A) (A) (A) (A) (A) (A)
                 (A) (A) (A) (A) (A) (A) (A) (A) (A) (A) (A) (A)
                 (A) (A) (A) (A) (A) (A) (A) (A) (A) (A) (A) (A)
                 (A) (A) (A) (A) (A) (A) (A) (A) (A) (A) (A) (A)
                 (A) (A) (A) (A) (A) (A) (A) (A) (A) (A) (A) (A)
                 (A) (A) (A) (A) (A) (A) (A) (A) (A) (A) (A) (A)
                 (A) (A) (A) (A) (A) (A) (A) (A) (A) (A) (A) (A)
                 (A) (A) (A) (A) (A) (A) (A) (A) (A) (A) (A) (A)
                 (A) (A) (A) (A) (A) (A) (A) (A) (A) (A) (A) (A)
                 (A) (A) (A) (A) (A) (A) (A) (A) (A) (A) (A) (A)
                 (A) (A) (A) (A) (A) (A) (A) (A) (A) (A) (A) (A)
                 (A) (A) (A) (A) (A) (A) (A) (A) (A) (A) (A) (A)
                 (A) (A) (A) (A) (A) (A) (A) (A) (A) (A) (A) (A)
                 (A) (A) (A) (A) (A) (A) (A) (A) (A) (A) (A) (A)
                 (A) (A) (A) (A) (A) (A) (A) (A) (A) (A) (A) (A)
                 (A) (A) (A) (A) (A) (A) (A) (A) (A) (A) (A) (A)
                 (A) (A) (A) (A) (A) (A) (A) (A) (A) (A) (A) (A)
                 (A) (A) (A) (A) (A) (A) (A) (A) (A) (A) (A) (A)
                 (A) (A) (A) (A) (A) (A) (A) (A) (A) (A) (A) (A)
                 (A) (A) (A) (A) (A) (A) (A) (A) (A) (A) (A) (A)
                 (A) (A) (A) (A) (A) (A) (A) (A) (A) (A) (A) (A)
                 (A) (A) (A) (A) (A) (A) (A) (A) (A) (A) (A) (A)
                 (A) (A) (A) (A) (A) (A) (A) (A) (A) (A) (A) (A)
                 (A) (A) (A) (A) (A) (A) (A) (A) (A) (A) (A) (A)
                 (A) (A) (A) (A) (A) (A) (A) (A) (A) (A) (A) (A)
                 (A) (A) (A) (A) (A) (A) (A) (A) (A) (A) (A) (A)
                 (A) (A) (A) (A) (A) (A) (A) (A) (A) (A) (A) (A)
                 (A) (A) (A) (A) (A) (A) (A) (A) (A) (A) (A) (A)
                 (A) (A) (A) (A) (A) (A) (A) (A) (A) (A) (A) (A)
                 (A) (A) (A) (A) (A) (A) (A) (A) (A) (A) (A) (A)
                 (A) (A) (A) (A) (A) (A) (A) (A) (A) (A) (A) (A)
                 (A) (A) (A) (A) (A) (A) (A) (A) (A) (A) (A) (A)
                 (A) (A) (A) (A) (A) (A) (A) (A) (A) (A) (A) (A)
                 (A) (A) (A) (A) (A) (A) (A) (A) (A) (A) (A) (A)
                 (A) (A) (A) (A) (A) (A) (A) (A) (A) (A) (A) (A)
                 (A) (A) (A) (A) (A) (A) (A) (A) (A) (A) (A) (A)
                 (A) (A) (A) (A) (A) (A) (A) (A) (A) (A) (A) (A)
                 (A) (A) (A) (A) (A) (A) (A) (A) (A) (A) (A) (A)
                 (A) (A) (A) (A) (A) (A) (A) (A) (A) (A) (A) (A)
                 (A) (A) (A) (A) (A) (A) (A) (A) (A) (A) (A) (A)
                 (A) (A) (A) (A) (A) (A) (A) (A) (A) (A) (A) (A)
                 (A) (A) (A) (A) (A) (A) (A) (A) (A) (A) (A) (A)
                 (A) (A) (A) (A) (A) (A) (A) (A) (A) (A) (A) (A)
                 (A) (A) (A) (A) (A) (A) (A) (A) (A) (A) (A) (A)
                 (A) (A) (A) (A) (A) (A) (A) (A) (A) (A) (A) (A)
                 (A) (A) (A) (A) (A) (A) (A) (A) (A) (A) (A) (A)
                 (A) (A) (A) (A) (A) (A) (A) (A) (A) (A) (A) (A)
                 (A) (A) (A) (A) (A) (A) (A) (A) (A) (A) (A) (A)
                 (A) (A) (A) (A) (A) (A) (A) (A) (A) (A) (A) (A)
                 (A) (A) (A) (A) (A) (A) (A) (A) (A) (A) (A) (A)
                 (A) (A) (A) (A) (A) (A) (A) (A) (A) (A) (A) (A)
                 (A) (A) (A) (A) (A) (A) (A) (A) (A) (A) (A) (A)
                 (A) (A) (A) (A) (A) (A) (A) (A) (A) (A) (A) (A)
                 (A) (A) (A) (A) (A) (A) (A) (A) (A) (A) (A) (A)
                 (A) (A) (A) (A) (A) (A) (A) (A) (A) (A) (A) (A)
                 (A) (A) (A) (A) (A) (A) (A) (A) (A) (A) (A) (A)
                 (A) (A) (A) (A) (A) (A) (A) (A) (A) (A) (A) (A)
                 (A) (A) (A) (A) (A) (A) (A) (A) (A) (A) (A) (A)
                 (A) (A) (A) (A) (A) (A) (A) (A) (A) (A) (A) (A)
                 (A) (A) (A) (A) (A) (A) (A) (A) (A) (A) (A) (A)
                 (A) (A) (A) (A) (A) (A) (A) (A) (A) (A) (A) (A)
                 (A) (A) (A) (A) (A) (A) (A) (A) (A) (A) (A) (A)
                 (A) (A) (A) (A) (A) (A) (A) (A) (A) (A) (A) (A)
                 (A) (A) (A) (A) (A) (A) (A) (A) (A) (A) (A) (A)
                 (A) (A) (A) (A) (A) (A) (A) (A) (A) (A) (A) (A)
                 (A) (A) (A) (A) (A) (A) (A) (A) (A) (A) (A) (A)
                 (A) (A) (A) (A) (A) (A) (A) (A) (A) (A) (A) (A)
                 (A) (A) (A) (A) (A) (A) (A) (A) (A) (A) (A) (A)
                 (A) (A) (A) (A) (A) (A) (A) (A) (A) (A) (A) (A)
                 (A) (A) (A) (A) (A) (A) (A) (A) (A) (A) (A) (A)
                 (A) (A) (A) (A) (A) (A) (A) (A) (A) (A) (A) (A)
                 (A) (A) (A) (A) (A) (A) (A) (A) (A) (A) (A) (A)
                 (A) (A) (A) (A) (A) (A) (A) (A) (A) (A) (A) (A)
                 (A) (A) (A) (A) (A) (A) (A) (A) (A) (A) (A) (A)
                 (A) (A) (A) (A) (A) (A) (A) (A) (A) (A) (A) (A)
                 (A) (A) (A) (A) (A) (A) (A) (A) (A) (A) (A) (A)
                 (A) (A) (A) (A) (A) (A) (A) (A) (A) (A) (A) (A)
                 (A) (A) (A) (A) (A) (A) (A) (A) (A) (A) (A) (A)
                 (A) (A) (A) (A) (A) (A) (A) (A) (A) (A) (A) (A)
                 (A) (A) (A) (A) (A) (A) (A) (A) (A) (A) (A) (A)
                 (A) (A) (A) (A) (A) (A) (A) (A) (A) (A) (A) (A)
                 (A) (A) (A) (A) (A) (A) (A) (A) (A) (A) (A) (A)
                 (A) (A) (A) (A) (A) (A) (A) (A) (A) (A) (A) (A)
                 (A) (A) (A) (A) (A) (A) (A) (A) (A) (A) (A) (A)
                 (A) (A) (A) (A) (A) (A) (A) (A) (A) (A) (A) (A)
                 (A) (A) (A) (A) (A) (A) (A) (A) (A) (A) (A) (A)
                 (A) (A) (A) (A) (A) (A) (A) (A) (A) (A) (A) (A)
                 (A) (A) (A) (A) (A) (A) (A) (A) (A) (A) (A) (A)
                 (A) (A) (A) (A) (A) (A) (A) (A) (A) (A) (A) (A)
                 (A) (A) (A) (A) (A) (A) (A) (A) (A) (A) (A) (A)
                 (A) (A) (A) (A) (A) (A) (A) (A) (A) (A) (A) (A)
                 (A) (A) (A) (A) (A) (A) (A) (A) (A) (A) (A) (A)
                 (A) (A) (A) (A) (A) (A) (A) (A) (A) (A) (A) (A)
                 (A) (A) (A) (A) (A) (A) (A) (A) (A) (A) (A) (A)
                 (A) (A) (A) (A) (A) (A) (A) (A) (A) (A) (A) (A)
                 (A) (A) (A) (A) (A) (A) (A) (A) (A) (A) (A) (A)
                 (A) (A) (A) (A) (A) (A) (A) (A) (A) (A) (A) (A)
                 (A) (A) (A) (A) (A) (A) (A) (A) (A)
 The electronic state is 6-A.
 Alpha  occ. eigenvalues -- -256.42281 -30.33202 -26.16234 -26.16098 -26.16065
 Alpha  occ. eigenvalues --  -19.29080 -14.52736 -14.47915 -14.44980 -14.44980
 Alpha  occ. eigenvalues --  -14.44753 -14.44647 -10.37296 -10.34530 -10.32879
 Alpha  occ. eigenvalues --  -10.32705 -10.32704 -10.32696 -10.32646 -10.32599
 Alpha  occ. eigenvalues --  -10.32540 -10.32517 -10.31982 -10.30079 -10.29948
 Alpha  occ. eigenvalues --  -10.29868 -10.29810 -10.29715 -10.29678 -10.29607
 Alpha  occ. eigenvalues --  -10.29589 -10.29554 -10.29532 -10.29526 -10.29510
 Alpha  occ. eigenvalues --  -10.29469 -10.28854 -10.28823 -10.28121 -10.28014
 Alpha  occ. eigenvalues --  -10.27869 -10.27857 -10.27791 -10.27668 -10.27601
 Alpha  occ. eigenvalues --  -10.27507  -3.78537  -2.55216  -2.55077  -2.55012
 Alpha  occ. eigenvalues --   -1.17112  -1.16725  -1.09101  -1.08168  -1.07944
 Alpha  occ. eigenvalues --   -1.07072  -1.02662  -0.93614  -0.92415  -0.92127
 Alpha  occ. eigenvalues --   -0.91601  -0.91267  -0.90808  -0.90737  -0.90611
 Alpha  occ. eigenvalues --   -0.86872  -0.85679  -0.85309  -0.84451  -0.83050
 Alpha  occ. eigenvalues --   -0.82199  -0.81355  -0.80396  -0.78768  -0.78520
 Alpha  occ. eigenvalues --   -0.78332  -0.76088  -0.75249  -0.75178  -0.72588
 Alpha  occ. eigenvalues --   -0.72420  -0.70926  -0.70300  -0.69036  -0.68459
 Alpha  occ. eigenvalues --   -0.67075  -0.65328  -0.64717  -0.64121  -0.63888
 Alpha  occ. eigenvalues --   -0.62247  -0.62085  -0.61942  -0.61615  -0.60458
 Alpha  occ. eigenvalues --   -0.58966  -0.58634  -0.58552  -0.58368  -0.56763
 Alpha  occ. eigenvalues --   -0.56465  -0.56313  -0.56108  -0.55426  -0.55050
 Alpha  occ. eigenvalues --   -0.54809  -0.54575  -0.53992  -0.53714  -0.53633
 Alpha  occ. eigenvalues --   -0.53398  -0.53374  -0.53187  -0.53145  -0.52491
 Alpha  occ. eigenvalues --   -0.52396  -0.52105  -0.51940  -0.51900  -0.51297
 Alpha  occ. eigenvalues --   -0.50859  -0.50622  -0.50294  -0.50242  -0.49953
 Alpha  occ. eigenvalues --   -0.49779  -0.49474  -0.49336  -0.49146  -0.48882
 Alpha  occ. eigenvalues --   -0.48811  -0.48471  -0.48141  -0.47829  -0.47164
 Alpha  occ. eigenvalues --   -0.47094  -0.46505  -0.46103  -0.45799  -0.45238
 Alpha  occ. eigenvalues --   -0.45086  -0.44008  -0.43687  -0.43150  -0.42883
 Alpha  occ. eigenvalues --   -0.42324  -0.41687  -0.40100  -0.39656  -0.38155
 Alpha  occ. eigenvalues --   -0.37655  -0.37550  -0.35035  -0.34155  -0.33819
 Alpha  occ. eigenvalues --   -0.32929  -0.32557  -0.32414  -0.29860  -0.29015
 Alpha virt. eigenvalues --   -0.18001  -0.17947  -0.12348  -0.09890  -0.09127
 Alpha virt. eigenvalues --   -0.07859  -0.07600  -0.06116  -0.05978  -0.05574
 Alpha virt. eigenvalues --   -0.04285  -0.03976  -0.03251  -0.02851  -0.02780
 Alpha virt. eigenvalues --   -0.02256  -0.02076  -0.01389  -0.00714  -0.00456
 Alpha virt. eigenvalues --   -0.00313  -0.00054   0.00284   0.00575   0.00905
 Alpha virt. eigenvalues --    0.01559   0.01861   0.02241   0.02489   0.02635
 Alpha virt. eigenvalues --    0.02810   0.02955   0.03192   0.03404   0.03724
 Alpha virt. eigenvalues --    0.03890   0.04077   0.04284   0.04377   0.04523
 Alpha virt. eigenvalues --    0.04804   0.04979   0.05425   0.05541   0.05596
 Alpha virt. eigenvalues --    0.05932   0.05943   0.06142   0.06886   0.07018
 Alpha virt. eigenvalues --    0.07221   0.07466   0.07578   0.07922   0.08074
 Alpha virt. eigenvalues --    0.08322   0.08634   0.08734   0.08754   0.08919
 Alpha virt. eigenvalues --    0.09603   0.09746   0.10024   0.10355   0.10711
 Alpha virt. eigenvalues --    0.10909   0.11119   0.11154   0.11361   0.11666
 Alpha virt. eigenvalues --    0.11796   0.12247   0.12557   0.12882   0.12960
 Alpha virt. eigenvalues --    0.13137   0.13499   0.13868   0.14187   0.14375
 Alpha virt. eigenvalues --    0.14421   0.14816   0.15007   0.15458   0.15536
 Alpha virt. eigenvalues --    0.16116   0.16656   0.16786   0.17071   0.17130
 Alpha virt. eigenvalues --    0.17459   0.17514   0.17913   0.17948   0.18335
 Alpha virt. eigenvalues --    0.18659   0.19477   0.19674   0.19967   0.20156
 Alpha virt. eigenvalues --    0.20258   0.20391   0.20577   0.20767   0.21047
 Alpha virt. eigenvalues --    0.21272   0.21469   0.21766   0.22212   0.22325
 Alpha virt. eigenvalues --    0.22550   0.23089   0.23207   0.23432   0.23537
 Alpha virt. eigenvalues --    0.23830   0.24090   0.24421   0.24647   0.24897
 Alpha virt. eigenvalues --    0.25437   0.25587   0.25748   0.25917   0.26620
 Alpha virt. eigenvalues --    0.26933   0.27235   0.27294   0.27530   0.27705
 Alpha virt. eigenvalues --    0.28353   0.28692   0.28869   0.29005   0.29290
 Alpha virt. eigenvalues --    0.29392   0.29575   0.29919   0.30172   0.30209
 Alpha virt. eigenvalues --    0.30515   0.30911   0.31103   0.31372   0.31495
 Alpha virt. eigenvalues --    0.31803   0.31958   0.32266   0.32327   0.32534
 Alpha virt. eigenvalues --    0.32578   0.32798   0.33281   0.33492   0.33603
 Alpha virt. eigenvalues --    0.33833   0.34149   0.34482   0.34711   0.34867
 Alpha virt. eigenvalues --    0.35408   0.35521   0.35781   0.36007   0.36105
 Alpha virt. eigenvalues --    0.36433   0.36639   0.37097   0.37388   0.37413
 Alpha virt. eigenvalues --    0.37668   0.37924   0.38030   0.38508   0.38585
 Alpha virt. eigenvalues --    0.38761   0.38833   0.39276   0.39386   0.39624
 Alpha virt. eigenvalues --    0.39731   0.40096   0.40257   0.40312   0.40639
 Alpha virt. eigenvalues --    0.40853   0.41244   0.41440   0.41534   0.41644
 Alpha virt. eigenvalues --    0.41879   0.42232   0.42408   0.42480   0.42758
 Alpha virt. eigenvalues --    0.42985   0.43362   0.43499   0.43673   0.43895
 Alpha virt. eigenvalues --    0.43959   0.44333   0.44757   0.44870   0.45040
 Alpha virt. eigenvalues --    0.45280   0.45418   0.45863   0.45940   0.46357
 Alpha virt. eigenvalues --    0.46579   0.46701   0.46804   0.47034   0.47618
 Alpha virt. eigenvalues --    0.47662   0.47952   0.48296   0.48540   0.48810
 Alpha virt. eigenvalues --    0.49033   0.49272   0.49666   0.50082   0.50483
 Alpha virt. eigenvalues --    0.50826   0.51279   0.51562   0.51847   0.52190
 Alpha virt. eigenvalues --    0.52426   0.52759   0.53070   0.53490   0.53557
 Alpha virt. eigenvalues --    0.53781   0.54092   0.54408   0.54666   0.54731
 Alpha virt. eigenvalues --    0.55108   0.55496   0.55570   0.55631   0.55901
 Alpha virt. eigenvalues --    0.56353   0.56532   0.57006   0.57089   0.57528
 Alpha virt. eigenvalues --    0.57990   0.58296   0.58983   0.59055   0.59462
 Alpha virt. eigenvalues --    0.59760   0.60011   0.60343   0.60878   0.60923
 Alpha virt. eigenvalues --    0.61279   0.61777   0.61898   0.62095   0.62540
 Alpha virt. eigenvalues --    0.62896   0.63169   0.63683   0.63835   0.64042
 Alpha virt. eigenvalues --    0.64436   0.64923   0.65321   0.65558   0.66189
 Alpha virt. eigenvalues --    0.66334   0.66645   0.67046   0.67368   0.67599
 Alpha virt. eigenvalues --    0.67890   0.68064   0.68362   0.68998   0.69218
 Alpha virt. eigenvalues --    0.69585   0.69707   0.70005   0.70425   0.70704
 Alpha virt. eigenvalues --    0.71073   0.71456   0.72043   0.72311   0.72450
 Alpha virt. eigenvalues --    0.73478   0.74041   0.74569   0.74613   0.74957
 Alpha virt. eigenvalues --    0.75260   0.75775   0.76051   0.76505   0.76702
 Alpha virt. eigenvalues --    0.77368   0.77492   0.78029   0.78433   0.78728
 Alpha virt. eigenvalues --    0.79243   0.79720   0.79837   0.80349   0.80800
 Alpha virt. eigenvalues --    0.81179   0.81292   0.81593   0.82203   0.82457
 Alpha virt. eigenvalues --    0.83020   0.83394   0.83936   0.84494   0.84720
 Alpha virt. eigenvalues --    0.84973   0.85042   0.85402   0.85731   0.86527
 Alpha virt. eigenvalues --    0.86688   0.86969   0.87547   0.87758   0.88077
 Alpha virt. eigenvalues --    0.88186   0.88832   0.88946   0.89404   0.89730
 Alpha virt. eigenvalues --    0.90076   0.90263   0.90476   0.90981   0.91485
 Alpha virt. eigenvalues --    0.91890   0.92141   0.92469   0.92586   0.92806
 Alpha virt. eigenvalues --    0.93044   0.93304   0.93345   0.93828   0.94301
 Alpha virt. eigenvalues --    0.94521   0.94753   0.95107   0.95766   0.95914
 Alpha virt. eigenvalues --    0.96087   0.96422   0.97023   0.97482   0.97655
 Alpha virt. eigenvalues --    0.98303   0.98534   0.98993   0.99389   0.99867
 Alpha virt. eigenvalues --    1.00283   1.00606   1.01402   1.01978   1.02552
 Alpha virt. eigenvalues --    1.02633   1.02807   1.03343   1.03919   1.04539
 Alpha virt. eigenvalues --    1.05206   1.05975   1.06192   1.06493   1.07048
 Alpha virt. eigenvalues --    1.07456   1.07777   1.08005   1.08181   1.08391
 Alpha virt. eigenvalues --    1.08729   1.09392   1.09807   1.09955   1.10317
 Alpha virt. eigenvalues --    1.10698   1.11437   1.11486   1.11609   1.11858
 Alpha virt. eigenvalues --    1.12325   1.13086   1.13314   1.14087   1.14579
 Alpha virt. eigenvalues --    1.15212   1.15637   1.15992   1.16435   1.16774
 Alpha virt. eigenvalues --    1.17183   1.17264   1.17625   1.18029   1.18305
 Alpha virt. eigenvalues --    1.18594   1.18848   1.19101   1.19955   1.20064
 Alpha virt. eigenvalues --    1.20581   1.20794   1.21440   1.21527   1.21967
 Alpha virt. eigenvalues --    1.22549   1.23300   1.23437   1.24317   1.24857
 Alpha virt. eigenvalues --    1.25509   1.26286   1.26339   1.27280   1.27765
 Alpha virt. eigenvalues --    1.28295   1.28714   1.29618   1.30071   1.30768
 Alpha virt. eigenvalues --    1.31123   1.32143   1.32371   1.32636   1.33280
 Alpha virt. eigenvalues --    1.33628   1.34504   1.34852   1.35025   1.35242
 Alpha virt. eigenvalues --    1.36311   1.36629   1.36747   1.37012   1.37295
 Alpha virt. eigenvalues --    1.37446   1.37693   1.38315   1.38485   1.39029
 Alpha virt. eigenvalues --    1.39091   1.39671   1.39857   1.40185   1.40458
 Alpha virt. eigenvalues --    1.40831   1.41174   1.41513   1.41634   1.41879
 Alpha virt. eigenvalues --    1.42796   1.42950   1.43105   1.43318   1.43617
 Alpha virt. eigenvalues --    1.43816   1.44151   1.44492   1.44845   1.44984
 Alpha virt. eigenvalues --    1.45425   1.45862   1.45905   1.46121   1.46291
 Alpha virt. eigenvalues --    1.46589   1.46722   1.46989   1.47141   1.47698
 Alpha virt. eigenvalues --    1.47993   1.48114   1.48510   1.48567   1.48849
 Alpha virt. eigenvalues --    1.49267   1.49474   1.49852   1.50223   1.50830
 Alpha virt. eigenvalues --    1.51132   1.51215   1.51640   1.51838   1.52047
 Alpha virt. eigenvalues --    1.52570   1.52655   1.52963   1.53158   1.53604
 Alpha virt. eigenvalues --    1.53870   1.54211   1.54708   1.54884   1.55037
 Alpha virt. eigenvalues --    1.55327   1.55804   1.55881   1.56431   1.56845
 Alpha virt. eigenvalues --    1.57287   1.57768   1.58050   1.58230   1.58759
 Alpha virt. eigenvalues --    1.59208   1.59298   1.59727   1.60015   1.60304
 Alpha virt. eigenvalues --    1.60527   1.60584   1.61384   1.61862   1.62325
 Alpha virt. eigenvalues --    1.62473   1.63034   1.63354   1.64130   1.64176
 Alpha virt. eigenvalues --    1.64584   1.64729   1.65271   1.65999   1.66673
 Alpha virt. eigenvalues --    1.67458   1.68250   1.68633   1.69277   1.70599
 Alpha virt. eigenvalues --    1.71098   1.71413   1.71635   1.72150   1.72607
 Alpha virt. eigenvalues --    1.73183   1.73597   1.73649   1.74335   1.74418
 Alpha virt. eigenvalues --    1.74983   1.75551   1.75751   1.76285   1.76613
 Alpha virt. eigenvalues --    1.77061   1.77352   1.77413   1.77806   1.78271
 Alpha virt. eigenvalues --    1.78785   1.79115   1.79868   1.80441   1.80800
 Alpha virt. eigenvalues --    1.81187   1.81772   1.82602   1.82970   1.83179
 Alpha virt. eigenvalues --    1.83452   1.84371   1.84901   1.85094   1.85593
 Alpha virt. eigenvalues --    1.86139   1.86857   1.87170   1.87474   1.87685
 Alpha virt. eigenvalues --    1.88402   1.88788   1.89335   1.89359   1.90259
 Alpha virt. eigenvalues --    1.90564   1.90733   1.91159   1.91374   1.91791
 Alpha virt. eigenvalues --    1.91889   1.92423   1.93437   1.93835   1.94261
 Alpha virt. eigenvalues --    1.94729   1.95340   1.96635   1.97178   1.97391
 Alpha virt. eigenvalues --    1.97682   1.98575   1.99183   1.99242   1.99432
 Alpha virt. eigenvalues --    2.00027   2.00238   2.00551   2.00906   2.01309
 Alpha virt. eigenvalues --    2.01852   2.02242   2.02509   2.03014   2.03313
 Alpha virt. eigenvalues --    2.04109   2.04371   2.05084   2.05273   2.05447
 Alpha virt. eigenvalues --    2.05717   2.06767   2.07681   2.08007   2.08375
 Alpha virt. eigenvalues --    2.08643   2.08954   2.09279   2.09676   2.10654
 Alpha virt. eigenvalues --    2.10882   2.11406   2.11481   2.11942   2.12830
 Alpha virt. eigenvalues --    2.13580   2.13830   2.14685   2.15086   2.15680
 Alpha virt. eigenvalues --    2.16421   2.16826   2.17420   2.17545   2.17942
 Alpha virt. eigenvalues --    2.18502   2.18940   2.19156   2.19512   2.19857
 Alpha virt. eigenvalues --    2.20302   2.20853   2.21242   2.21329   2.21871
 Alpha virt. eigenvalues --    2.22757   2.22884   2.23219   2.23936   2.24889
 Alpha virt. eigenvalues --    2.25317   2.25526   2.26068   2.26446   2.26810
 Alpha virt. eigenvalues --    2.27016   2.27671   2.27942   2.28439   2.28463
 Alpha virt. eigenvalues --    2.28845   2.29176   2.30048   2.30142   2.30325
 Alpha virt. eigenvalues --    2.30480   2.31267   2.31897   2.32188   2.32634
 Alpha virt. eigenvalues --    2.33414   2.33853   2.34325   2.34601   2.34977
 Alpha virt. eigenvalues --    2.35322   2.36019   2.36217   2.36489   2.36928
 Alpha virt. eigenvalues --    2.37068   2.37307   2.37958   2.38369   2.38800
 Alpha virt. eigenvalues --    2.39285   2.40288   2.40500   2.41104   2.41173
 Alpha virt. eigenvalues --    2.42189   2.42797   2.43295   2.43642   2.43720
 Alpha virt. eigenvalues --    2.43929   2.44424   2.44710   2.45042   2.45694
 Alpha virt. eigenvalues --    2.46177   2.46709   2.47085   2.47170   2.47525
 Alpha virt. eigenvalues --    2.47748   2.48132   2.48202   2.48443   2.49313
 Alpha virt. eigenvalues --    2.49760   2.50475   2.50654   2.50745   2.51025
 Alpha virt. eigenvalues --    2.51294   2.51730   2.51881   2.52958   2.53264
 Alpha virt. eigenvalues --    2.53432   2.54362   2.54539   2.55080   2.55573
 Alpha virt. eigenvalues --    2.55615   2.55921   2.56391   2.56548   2.56711
 Alpha virt. eigenvalues --    2.57298   2.57547   2.58314   2.58697   2.59092
 Alpha virt. eigenvalues --    2.59525   2.60064   2.60152   2.60502   2.61007
 Alpha virt. eigenvalues --    2.61389   2.61601   2.62147   2.62216   2.62633
 Alpha virt. eigenvalues --    2.63070   2.63932   2.63984   2.64823   2.65117
 Alpha virt. eigenvalues --    2.65434   2.65661   2.66476   2.67224   2.67559
 Alpha virt. eigenvalues --    2.67830   2.68342   2.68606   2.69270   2.69428
 Alpha virt. eigenvalues --    2.69924   2.70248   2.70730   2.71290   2.71767
 Alpha virt. eigenvalues --    2.72490   2.72846   2.73113   2.73494   2.73859
 Alpha virt. eigenvalues --    2.74110   2.74491   2.74911   2.75142   2.75827
 Alpha virt. eigenvalues --    2.76358   2.76513   2.77021   2.77406   2.77543
 Alpha virt. eigenvalues --    2.78248   2.78343   2.79014   2.79175   2.79261
 Alpha virt. eigenvalues --    2.79729   2.80328   2.80813   2.81093   2.81527
 Alpha virt. eigenvalues --    2.81726   2.82253   2.82944   2.83479   2.83806
 Alpha virt. eigenvalues --    2.83919   2.84388   2.84690   2.84922   2.85141
 Alpha virt. eigenvalues --    2.85544   2.86479   2.86669   2.86751   2.87064
 Alpha virt. eigenvalues --    2.87227   2.87940   2.88408   2.88838   2.88977
 Alpha virt. eigenvalues --    2.89420   2.89648   2.89977   2.90607   2.90785
 Alpha virt. eigenvalues --    2.91562   2.91669   2.91955   2.92430   2.92958
 Alpha virt. eigenvalues --    2.93379   2.93816   2.94208   2.94288   2.94912
 Alpha virt. eigenvalues --    2.95272   2.95629   2.96192   2.96676   2.97009
 Alpha virt. eigenvalues --    2.97141   2.97564   2.97891   2.98038   2.98325
 Alpha virt. eigenvalues --    2.98737   2.98943   2.99428   2.99775   3.00229
 Alpha virt. eigenvalues --    3.00436   3.01131   3.01368   3.01439   3.01729
 Alpha virt. eigenvalues --    3.02292   3.02358   3.02853   3.03352   3.03637
 Alpha virt. eigenvalues --    3.03994   3.04026   3.04399   3.04668   3.04992
 Alpha virt. eigenvalues --    3.05739   3.06014   3.06326   3.06688   3.07252
 Alpha virt. eigenvalues --    3.07566   3.07991   3.08077   3.08255   3.08788
 Alpha virt. eigenvalues --    3.09513   3.09701   3.09855   3.10055   3.10476
 Alpha virt. eigenvalues --    3.10592   3.10966   3.11302   3.11777   3.11799
 Alpha virt. eigenvalues --    3.11998   3.12555   3.12940   3.13009   3.13393
 Alpha virt. eigenvalues --    3.14046   3.14315   3.14685   3.14910   3.15139
 Alpha virt. eigenvalues --    3.15353   3.15704   3.15943   3.16045   3.16524
 Alpha virt. eigenvalues --    3.16898   3.16998   3.17305   3.17692   3.17905
 Alpha virt. eigenvalues --    3.18339   3.18482   3.18764   3.18985   3.19424
 Alpha virt. eigenvalues --    3.19789   3.19824   3.20335   3.20709   3.20968
 Alpha virt. eigenvalues --    3.21150   3.21360   3.21657   3.21944   3.22517
 Alpha virt. eigenvalues --    3.22737   3.22894   3.23136   3.23487   3.23719
 Alpha virt. eigenvalues --    3.24172   3.24386   3.24473   3.24899   3.25158
 Alpha virt. eigenvalues --    3.25578   3.25817   3.25936   3.26298   3.26441
 Alpha virt. eigenvalues --    3.26521   3.26807   3.27588   3.28020   3.28177
 Alpha virt. eigenvalues --    3.28477   3.28642   3.28769   3.29130   3.29329
 Alpha virt. eigenvalues --    3.29704   3.30075   3.30242   3.30719   3.31177
 Alpha virt. eigenvalues --    3.31465   3.31585   3.32218   3.32324   3.32666
 Alpha virt. eigenvalues --    3.33225   3.33509   3.33799   3.33916   3.34542
 Alpha virt. eigenvalues --    3.35488   3.35684   3.36059   3.36182   3.36503
 Alpha virt. eigenvalues --    3.37230   3.37610   3.38279   3.38586   3.38969
 Alpha virt. eigenvalues --    3.39683   3.39944   3.40915   3.41477   3.41899
 Alpha virt. eigenvalues --    3.42345   3.42617   3.43186   3.43740   3.43955
 Alpha virt. eigenvalues --    3.44150   3.44606   3.44751   3.45315   3.45605
 Alpha virt. eigenvalues --    3.46130   3.46571   3.47547   3.47823   3.48258
 Alpha virt. eigenvalues --    3.48645   3.48988   3.49569   3.49830   3.50328
 Alpha virt. eigenvalues --    3.50400   3.51292   3.52043   3.52529   3.52994
 Alpha virt. eigenvalues --    3.53525   3.54109   3.54455   3.54893   3.54959
 Alpha virt. eigenvalues --    3.55615   3.56196   3.56267   3.56688   3.56998
 Alpha virt. eigenvalues --    3.57962   3.58697   3.58962   3.59224   3.60112
 Alpha virt. eigenvalues --    3.60390   3.60874   3.61145   3.61353   3.61605
 Alpha virt. eigenvalues --    3.61747   3.62430   3.62826   3.63276   3.63426
 Alpha virt. eigenvalues --    3.64399   3.64464   3.64858   3.65297   3.65399
 Alpha virt. eigenvalues --    3.66305   3.66578   3.67057   3.68039   3.68194
 Alpha virt. eigenvalues --    3.69000   3.69302   3.69545   3.70448   3.70669
 Alpha virt. eigenvalues --    3.71046   3.71539   3.72163   3.72953   3.73206
 Alpha virt. eigenvalues --    3.73663   3.75082   3.75380   3.75939   3.76686
 Alpha virt. eigenvalues --    3.77117   3.78403   3.78579   3.79136   3.79274
 Alpha virt. eigenvalues --    3.79943   3.80268   3.80547   3.81164   3.81592
 Alpha virt. eigenvalues --    3.82138   3.82349   3.82839   3.84028   3.84180
 Alpha virt. eigenvalues --    3.84763   3.86024   3.86250   3.86651   3.87855
 Alpha virt. eigenvalues --    3.88308   3.88584   3.89356   3.89532   3.89784
 Alpha virt. eigenvalues --    3.90056   3.90627   3.90839   3.91924   3.92436
 Alpha virt. eigenvalues --    3.93131   3.93674   3.94710   3.94913   3.95304
 Alpha virt. eigenvalues --    3.96193   3.97272   3.97733   3.98389   3.99229
 Alpha virt. eigenvalues --    3.99619   4.00122   4.00538   4.01117   4.02023
 Alpha virt. eigenvalues --    4.03516   4.03867   4.04297   4.04691   4.05386
 Alpha virt. eigenvalues --    4.05835   4.06478   4.06894   4.07055   4.07584
 Alpha virt. eigenvalues --    4.08424   4.08633   4.09593   4.09809   4.10386
 Alpha virt. eigenvalues --    4.10551   4.11129   4.12162   4.12492   4.12959
 Alpha virt. eigenvalues --    4.13109   4.14018   4.15056   4.15102   4.15933
 Alpha virt. eigenvalues --    4.15998   4.16715   4.18548   4.19357   4.19601
 Alpha virt. eigenvalues --    4.20604   4.20687   4.21402   4.22029   4.22850
 Alpha virt. eigenvalues --    4.22968   4.23952   4.24471   4.24672   4.24914
 Alpha virt. eigenvalues --    4.26302   4.26931   4.27856   4.28281   4.29733
 Alpha virt. eigenvalues --    4.29848   4.30368   4.30920   4.31313   4.31708
 Alpha virt. eigenvalues --    4.31924   4.32682   4.32916   4.33566   4.33995
 Alpha virt. eigenvalues --    4.34742   4.35214   4.35374   4.35621   4.36183
 Alpha virt. eigenvalues --    4.36916   4.37798   4.37961   4.39338   4.40903
 Alpha virt. eigenvalues --    4.41250   4.42157   4.43184   4.43591   4.44799
 Alpha virt. eigenvalues --    4.45695   4.46290   4.47039   4.47594   4.48170
 Alpha virt. eigenvalues --    4.48870   4.50945   4.51833   4.52930   4.53940
 Alpha virt. eigenvalues --    4.54716   4.54980   4.57218   4.57853   4.58154
 Alpha virt. eigenvalues --    4.58640   4.58828   4.59975   4.60713   4.61316
 Alpha virt. eigenvalues --    4.62217   4.63527   4.64092   4.64742   4.65326
 Alpha virt. eigenvalues --    4.66017   4.67094   4.68460   4.69101   4.69703
 Alpha virt. eigenvalues --    4.71493   4.71932   4.72783   4.73061   4.73340
 Alpha virt. eigenvalues --    4.73568   4.74230   4.74459   4.74816   4.76706
 Alpha virt. eigenvalues --    4.77067   4.77472   4.78751   4.79730   4.80551
 Alpha virt. eigenvalues --    4.81523   4.81904   4.83230   4.83641   4.84143
 Alpha virt. eigenvalues --    4.84300   4.84673   4.85736   4.86760   4.87890
 Alpha virt. eigenvalues --    4.89230   4.90781   4.91115   4.91349   4.91974
 Alpha virt. eigenvalues --    4.93177   4.93896   4.94935   4.95732   4.96184
 Alpha virt. eigenvalues --    4.97449   4.97981   4.98839   4.99125   5.00129
 Alpha virt. eigenvalues --    5.02695   5.03590   5.04245   5.06367   5.07369
 Alpha virt. eigenvalues --    5.07660   5.08768   5.09422   5.10021   5.11196
 Alpha virt. eigenvalues --    5.12084   5.12736   5.14478   5.14810   5.15265
 Alpha virt. eigenvalues --    5.17750   5.18363   5.19671   5.21864   5.24044
 Alpha virt. eigenvalues --    5.24639   5.25527   5.26241   5.26495   5.26718
 Alpha virt. eigenvalues --    5.27386   5.28271   5.29858   5.29981   5.31464
 Alpha virt. eigenvalues --    5.32076   5.33574   5.35889   5.36948   5.38579
 Alpha virt. eigenvalues --    5.38861   5.40100   5.40413   5.40724   5.41343
 Alpha virt. eigenvalues --    5.44428   5.45585   5.48404   5.50282   5.50969
 Alpha virt. eigenvalues --    5.51118   5.52210   5.52529   5.53460   5.54332
 Alpha virt. eigenvalues --    5.56012   5.56385   5.57230   5.58970   5.61902
 Alpha virt. eigenvalues --    5.65411   5.65622   5.66976   5.69131   5.70444
 Alpha virt. eigenvalues --    5.78492   5.80684   5.81358   5.83093   5.86280
 Alpha virt. eigenvalues --    5.89293   5.90471   5.90938   5.97736   5.99314
 Alpha virt. eigenvalues --    6.00795   6.01119   6.01837   6.05827   6.07262
 Alpha virt. eigenvalues --    6.12562   6.15090   6.22781   6.23414   6.29796
 Alpha virt. eigenvalues --    6.35485   6.39776   6.42297   6.55184   6.84507
 Alpha virt. eigenvalues --    7.16177  22.26975  22.27526  22.35036  22.36724
 Alpha virt. eigenvalues --   22.37490  22.43188  22.44529  22.53081  22.53705
 Alpha virt. eigenvalues --   22.67018  22.75954  22.77654  22.81881  22.83778
 Alpha virt. eigenvalues --   22.84343  22.85627  22.86557  22.93015  22.94047
 Alpha virt. eigenvalues --   22.98517  23.04596  23.16851  23.17857  23.20078
 Alpha virt. eigenvalues --   23.21433  23.30690  23.31247  23.40106  23.40578
 Alpha virt. eigenvalues --   23.44980  23.63639  23.68675  23.69516  23.78569
 Alpha virt. eigenvalues --   32.29804  32.64687  32.78501  32.86452  32.89632
 Alpha virt. eigenvalues --   32.99547  43.94757
  Beta  occ. eigenvalues -- -256.42126 -30.23516 -26.08138 -26.07998 -26.07983
  Beta  occ. eigenvalues --  -19.28933 -14.52719 -14.47569 -14.44678 -14.44671
  Beta  occ. eigenvalues --  -14.44455 -14.44346 -10.37275 -10.34515 -10.32855
  Beta  occ. eigenvalues --  -10.32687 -10.32684 -10.32673 -10.32628 -10.32577
  Beta  occ. eigenvalues --  -10.32516 -10.32493 -10.31979 -10.30076 -10.29912
  Beta  occ. eigenvalues --  -10.29835 -10.29776 -10.29686 -10.29677 -10.29570
  Beta  occ. eigenvalues --  -10.29559 -10.29555 -10.29527 -10.29503 -10.29477
  Beta  occ. eigenvalues --  -10.29473 -10.28862 -10.28829 -10.28121 -10.28013
  Beta  occ. eigenvalues --  -10.27868 -10.27857 -10.27790 -10.27668 -10.27584
  Beta  occ. eigenvalues --  -10.27494  -3.55735  -2.31004  -2.30655  -2.30608
  Beta  occ. eigenvalues --   -1.16864  -1.16531  -1.08728  -1.07799  -1.07584
  Beta  occ. eigenvalues --   -1.06683  -1.02312  -0.93553  -0.92246  -0.91972
  Beta  occ. eigenvalues --   -0.91422  -0.91101  -0.90693  -0.90634  -0.90560
  Beta  occ. eigenvalues --   -0.86809  -0.85603  -0.85250  -0.84393  -0.83019
  Beta  occ. eigenvalues --   -0.82103  -0.81250  -0.80256  -0.78598  -0.78404
  Beta  occ. eigenvalues --   -0.78131  -0.75708  -0.75158  -0.75086  -0.72427
  Beta  occ. eigenvalues --   -0.72308  -0.70746  -0.70141  -0.68890  -0.68050
  Beta  occ. eigenvalues --   -0.66869  -0.65201  -0.64481  -0.63654  -0.63456
  Beta  occ. eigenvalues --   -0.61911  -0.61854  -0.61429  -0.59336  -0.58887
  Beta  occ. eigenvalues --   -0.58474  -0.58227  -0.58061  -0.56197  -0.55396
  Beta  occ. eigenvalues --   -0.54912  -0.54821  -0.54280  -0.54095  -0.53728
  Beta  occ. eigenvalues --   -0.53690  -0.53481  -0.53366  -0.53224  -0.52900
  Beta  occ. eigenvalues --   -0.52591  -0.52347  -0.52158  -0.52037  -0.51350
  Beta  occ. eigenvalues --   -0.50840  -0.50612  -0.50391  -0.50292  -0.50162
  Beta  occ. eigenvalues --   -0.49870  -0.49726  -0.49638  -0.49496  -0.49138
  Beta  occ. eigenvalues --   -0.48675  -0.48398  -0.47962  -0.47760  -0.47662
  Beta  occ. eigenvalues --   -0.47281  -0.47059  -0.46602  -0.46204  -0.45960
  Beta  occ. eigenvalues --   -0.45663  -0.44996  -0.44343  -0.43863  -0.43172
  Beta  occ. eigenvalues --   -0.42975  -0.42564  -0.41681  -0.41358  -0.39770
  Beta  occ. eigenvalues --   -0.39489  -0.37735  -0.37668  -0.35119  -0.34176
  Beta  occ. eigenvalues --   -0.33977  -0.32818  -0.32322  -0.29893  -0.28910
  Beta virt. eigenvalues --   -0.21083  -0.20823  -0.19523  -0.16707  -0.16672
  Beta virt. eigenvalues --   -0.14206  -0.12209  -0.11393  -0.09339  -0.08955
  Beta virt. eigenvalues --   -0.07695  -0.07291  -0.05938  -0.05736  -0.05314
  Beta virt. eigenvalues --   -0.04259  -0.03920  -0.03217  -0.02753  -0.02432
  Beta virt. eigenvalues --   -0.02026  -0.01960  -0.01305  -0.00620  -0.00399
  Beta virt. eigenvalues --   -0.00282   0.00015   0.00313   0.00647   0.00948
  Beta virt. eigenvalues --    0.01594   0.01940   0.02308   0.02593   0.02684
  Beta virt. eigenvalues --    0.02876   0.03038   0.03383   0.03495   0.03813
  Beta virt. eigenvalues --    0.03967   0.04108   0.04335   0.04441   0.04564
  Beta virt. eigenvalues --    0.04859   0.05095   0.05481   0.05594   0.05640
  Beta virt. eigenvalues --    0.05975   0.06066   0.06188   0.06953   0.07050
  Beta virt. eigenvalues --    0.07277   0.07519   0.07631   0.07966   0.08132
  Beta virt. eigenvalues --    0.08383   0.08694   0.08801   0.08897   0.08988
  Beta virt. eigenvalues --    0.09672   0.09845   0.10138   0.10465   0.10804
  Beta virt. eigenvalues --    0.10945   0.11192   0.11237   0.11442   0.11777
  Beta virt. eigenvalues --    0.11950   0.12302   0.12648   0.13003   0.13164
  Beta virt. eigenvalues --    0.13450   0.13902   0.13986   0.14267   0.14529
  Beta virt. eigenvalues --    0.14803   0.15080   0.15261   0.15751   0.15922
  Beta virt. eigenvalues --    0.16275   0.16768   0.17056   0.17214   0.17461
  Beta virt. eigenvalues --    0.17694   0.17788   0.18007   0.18140   0.18654
  Beta virt. eigenvalues --    0.18863   0.19650   0.19794   0.20222   0.20289
  Beta virt. eigenvalues --    0.20351   0.20669   0.20824   0.20901   0.21235
  Beta virt. eigenvalues --    0.21378   0.21578   0.22010   0.22439   0.22502
  Beta virt. eigenvalues --    0.22713   0.23299   0.23486   0.23639   0.23940
  Beta virt. eigenvalues --    0.23972   0.24281   0.24573   0.24733   0.25221
  Beta virt. eigenvalues --    0.25559   0.25770   0.25935   0.26161   0.26824
  Beta virt. eigenvalues --    0.27177   0.27342   0.27402   0.27629   0.27939
  Beta virt. eigenvalues --    0.28646   0.28781   0.29135   0.29174   0.29382
  Beta virt. eigenvalues --    0.29506   0.29676   0.30100   0.30401   0.30450
  Beta virt. eigenvalues --    0.30619   0.31077   0.31206   0.31555   0.31628
  Beta virt. eigenvalues --    0.31974   0.32236   0.32387   0.32446   0.32598
  Beta virt. eigenvalues --    0.32825   0.33024   0.33609   0.33700   0.33845
  Beta virt. eigenvalues --    0.34061   0.34311   0.34616   0.34825   0.35009
  Beta virt. eigenvalues --    0.35492   0.35684   0.35921   0.36156   0.36275
  Beta virt. eigenvalues --    0.36528   0.36730   0.37226   0.37468   0.37607
  Beta virt. eigenvalues --    0.37779   0.37993   0.38123   0.38577   0.38680
  Beta virt. eigenvalues --    0.38874   0.38934   0.39380   0.39515   0.39730
  Beta virt. eigenvalues --    0.39868   0.40222   0.40314   0.40438   0.40746
  Beta virt. eigenvalues --    0.40928   0.41355   0.41521   0.41635   0.41772
  Beta virt. eigenvalues --    0.41976   0.42362   0.42475   0.42599   0.42938
  Beta virt. eigenvalues --    0.43186   0.43440   0.43562   0.43776   0.44033
  Beta virt. eigenvalues --    0.44065   0.44404   0.44877   0.44937   0.45281
  Beta virt. eigenvalues --    0.45463   0.45683   0.45948   0.46129   0.46491
  Beta virt. eigenvalues --    0.46685   0.46819   0.46886   0.47163   0.47689
  Beta virt. eigenvalues --    0.47760   0.48056   0.48390   0.48644   0.48945
  Beta virt. eigenvalues --    0.49125   0.49358   0.49884   0.50260   0.50557
  Beta virt. eigenvalues --    0.51067   0.51422   0.51715   0.51970   0.52397
  Beta virt. eigenvalues --    0.52573   0.52862   0.53216   0.53582   0.53760
  Beta virt. eigenvalues --    0.53923   0.54217   0.54563   0.54792   0.54834
  Beta virt. eigenvalues --    0.55305   0.55673   0.55740   0.55873   0.56008
  Beta virt. eigenvalues --    0.56547   0.56635   0.57194   0.57205   0.57598
  Beta virt. eigenvalues --    0.58109   0.58407   0.59113   0.59303   0.59640
  Beta virt. eigenvalues --    0.59928   0.60318   0.60528   0.61050   0.61081
  Beta virt. eigenvalues --    0.61441   0.61981   0.62019   0.62445   0.62728
  Beta virt. eigenvalues --    0.63189   0.63359   0.63813   0.63957   0.64336
  Beta virt. eigenvalues --    0.64561   0.65065   0.65466   0.65710   0.66326
  Beta virt. eigenvalues --    0.66579   0.66765   0.67154   0.67451   0.67682
  Beta virt. eigenvalues --    0.68015   0.68198   0.68476   0.69195   0.69369
  Beta virt. eigenvalues --    0.69685   0.69827   0.70113   0.70600   0.70779
  Beta virt. eigenvalues --    0.71161   0.71524   0.72138   0.72423   0.72664
  Beta virt. eigenvalues --    0.73587   0.74192   0.74682   0.74802   0.75064
  Beta virt. eigenvalues --    0.75405   0.76043   0.76216   0.76579   0.76932
  Beta virt. eigenvalues --    0.77521   0.77597   0.78195   0.78639   0.78888
  Beta virt. eigenvalues --    0.79339   0.79809   0.79924   0.80499   0.81020
  Beta virt. eigenvalues --    0.81292   0.81418   0.81785   0.82325   0.82603
  Beta virt. eigenvalues --    0.83134   0.83503   0.84199   0.84560   0.84971
  Beta virt. eigenvalues --    0.85072   0.85229   0.85574   0.85901   0.86626
  Beta virt. eigenvalues --    0.86856   0.87063   0.87683   0.87943   0.88420
  Beta virt. eigenvalues --    0.88522   0.88962   0.89145   0.89544   0.89917
  Beta virt. eigenvalues --    0.90242   0.90412   0.90687   0.91193   0.91667
  Beta virt. eigenvalues --    0.92050   0.92261   0.92572   0.92718   0.93044
  Beta virt. eigenvalues --    0.93292   0.93442   0.93509   0.93968   0.94533
  Beta virt. eigenvalues --    0.94831   0.94931   0.95262   0.95960   0.96083
  Beta virt. eigenvalues --    0.96329   0.96828   0.97346   0.97818   0.98174
  Beta virt. eigenvalues --    0.98594   0.98886   0.99278   0.99768   0.99943
  Beta virt. eigenvalues --    1.00704   1.01052   1.01634   1.02139   1.02855
  Beta virt. eigenvalues --    1.03042   1.03422   1.03515   1.04253   1.04745
  Beta virt. eigenvalues --    1.05632   1.06185   1.06324   1.06615   1.07321
  Beta virt. eigenvalues --    1.07660   1.08066   1.08150   1.08428   1.08613
  Beta virt. eigenvalues --    1.09179   1.09537   1.10006   1.10070   1.10506
  Beta virt. eigenvalues --    1.10931   1.11652   1.11681   1.11759   1.12135
  Beta virt. eigenvalues --    1.12515   1.13318   1.13653   1.14213   1.14747
  Beta virt. eigenvalues --    1.15496   1.16131   1.16366   1.16868   1.16972
  Beta virt. eigenvalues --    1.17468   1.17771   1.18118   1.18374   1.18569
  Beta virt. eigenvalues --    1.18885   1.19142   1.19203   1.20164   1.20278
  Beta virt. eigenvalues --    1.20712   1.20918   1.21619   1.21857   1.22078
  Beta virt. eigenvalues --    1.22673   1.23501   1.23652   1.24466   1.25104
  Beta virt. eigenvalues --    1.25679   1.26475   1.26713   1.27486   1.27929
  Beta virt. eigenvalues --    1.28544   1.28898   1.29826   1.30307   1.30934
  Beta virt. eigenvalues --    1.31337   1.32262   1.32531   1.32799   1.33682
  Beta virt. eigenvalues --    1.34010   1.34663   1.35019   1.35139   1.35414
  Beta virt. eigenvalues --    1.36460   1.36848   1.36904   1.37334   1.37431
  Beta virt. eigenvalues --    1.37635   1.38161   1.38448   1.38692   1.39142
  Beta virt. eigenvalues --    1.39253   1.39858   1.40051   1.40365   1.40580
  Beta virt. eigenvalues --    1.41001   1.41301   1.41625   1.41815   1.42211
  Beta virt. eigenvalues --    1.42882   1.43205   1.43395   1.43507   1.43957
  Beta virt. eigenvalues --    1.44182   1.44318   1.44581   1.45022   1.45176
  Beta virt. eigenvalues --    1.45560   1.45917   1.46015   1.46233   1.46419
  Beta virt. eigenvalues --    1.46641   1.46834   1.47077   1.47199   1.47767
  Beta virt. eigenvalues --    1.48074   1.48214   1.48580   1.48638   1.48914
  Beta virt. eigenvalues --    1.49376   1.49538   1.49972   1.50335   1.50969
  Beta virt. eigenvalues --    1.51227   1.51310   1.51755   1.51969   1.52223
  Beta virt. eigenvalues --    1.52653   1.52834   1.53108   1.53280   1.53697
  Beta virt. eigenvalues --    1.53988   1.54269   1.54786   1.55022   1.55165
  Beta virt. eigenvalues --    1.55477   1.55885   1.56068   1.56516   1.56942
  Beta virt. eigenvalues --    1.57336   1.57885   1.58120   1.58329   1.58883
  Beta virt. eigenvalues --    1.59339   1.59409   1.59873   1.60145   1.60422
  Beta virt. eigenvalues --    1.60590   1.60683   1.61490   1.62004   1.62423
  Beta virt. eigenvalues --    1.62646   1.63136   1.63477   1.64247   1.64275
  Beta virt. eigenvalues --    1.64682   1.64862   1.65373   1.66256   1.66901
  Beta virt. eigenvalues --    1.67573   1.68353   1.68730   1.69379   1.70696
  Beta virt. eigenvalues --    1.71193   1.71565   1.71720   1.72273   1.72754
  Beta virt. eigenvalues --    1.73281   1.73688   1.73941   1.74459   1.74566
  Beta virt. eigenvalues --    1.75092   1.75751   1.75856   1.76423   1.76780
  Beta virt. eigenvalues --    1.77170   1.77472   1.77556   1.77884   1.78340
  Beta virt. eigenvalues --    1.78885   1.79269   1.80016   1.80692   1.81001
  Beta virt. eigenvalues --    1.81355   1.81984   1.82874   1.83168   1.83459
  Beta virt. eigenvalues --    1.83757   1.84695   1.85022   1.85348   1.85819
  Beta virt. eigenvalues --    1.86355   1.86936   1.87301   1.87869   1.88066
  Beta virt. eigenvalues --    1.88663   1.88948   1.89548   1.89609   1.90367
  Beta virt. eigenvalues --    1.90721   1.90894   1.91356   1.91523   1.91946
  Beta virt. eigenvalues --    1.92039   1.92696   1.93615   1.94030   1.94794
  Beta virt. eigenvalues --    1.95127   1.95582   1.96711   1.97515   1.97565
  Beta virt. eigenvalues --    1.97998   1.98700   1.99395   1.99412   1.99567
  Beta virt. eigenvalues --    2.00168   2.00446   2.00719   2.01119   2.01472
  Beta virt. eigenvalues --    2.02118   2.02538   2.02768   2.03381   2.03566
  Beta virt. eigenvalues --    2.04335   2.04672   2.05357   2.05504   2.05749
  Beta virt. eigenvalues --    2.05985   2.06946   2.07788   2.08181   2.08605
  Beta virt. eigenvalues --    2.08840   2.09040   2.09413   2.09786   2.10867
  Beta virt. eigenvalues --    2.10971   2.11565   2.11758   2.12163   2.13055
  Beta virt. eigenvalues --    2.13732   2.14045   2.14903   2.15197   2.15755
  Beta virt. eigenvalues --    2.16523   2.16999   2.17494   2.17645   2.18071
  Beta virt. eigenvalues --    2.18638   2.19096   2.19242   2.19670   2.20054
  Beta virt. eigenvalues --    2.20450   2.20982   2.21475   2.21934   2.22183
  Beta virt. eigenvalues --    2.22927   2.23029   2.23364   2.24090   2.25112
  Beta virt. eigenvalues --    2.25419   2.25664   2.26196   2.26519   2.26905
  Beta virt. eigenvalues --    2.27102   2.27838   2.27995   2.28504   2.28621
  Beta virt. eigenvalues --    2.29043   2.29355   2.30238   2.30312   2.30509
  Beta virt. eigenvalues --    2.30682   2.31506   2.32045   2.32379   2.32862
  Beta virt. eigenvalues --    2.33891   2.34058   2.34576   2.34801   2.35431
  Beta virt. eigenvalues --    2.35636   2.36341   2.36442   2.36633   2.37190
  Beta virt. eigenvalues --    2.37384   2.37608   2.38152   2.38763   2.38963
  Beta virt. eigenvalues --    2.39530   2.40499   2.40697   2.41374   2.41608
  Beta virt. eigenvalues --    2.42543   2.43074   2.43609   2.43797   2.43924
  Beta virt. eigenvalues --    2.44054   2.44650   2.44945   2.45274   2.45920
  Beta virt. eigenvalues --    2.46343   2.46821   2.47387   2.47434   2.47653
  Beta virt. eigenvalues --    2.47894   2.48274   2.48386   2.48741   2.49589
  Beta virt. eigenvalues --    2.49964   2.50637   2.50801   2.50875   2.51221
  Beta virt. eigenvalues --    2.51509   2.51896   2.51979   2.53106   2.53360
  Beta virt. eigenvalues --    2.53739   2.54537   2.54701   2.55220   2.55681
  Beta virt. eigenvalues --    2.55867   2.56082   2.56646   2.56892   2.56928
  Beta virt. eigenvalues --    2.57461   2.57871   2.58423   2.58871   2.59231
  Beta virt. eigenvalues --    2.59702   2.60254   2.60370   2.60654   2.61226
  Beta virt. eigenvalues --    2.61562   2.61758   2.62283   2.62420   2.62835
  Beta virt. eigenvalues --    2.63371   2.64145   2.64302   2.65213   2.65294
  Beta virt. eigenvalues --    2.65678   2.66072   2.66773   2.67433   2.67636
  Beta virt. eigenvalues --    2.67932   2.68537   2.68843   2.69430   2.69560
  Beta virt. eigenvalues --    2.70137   2.70398   2.70924   2.71509   2.72081
  Beta virt. eigenvalues --    2.72715   2.72956   2.73532   2.73682   2.74042
  Beta virt. eigenvalues --    2.74275   2.74690   2.75074   2.75450   2.76010
  Beta virt. eigenvalues --    2.76544   2.76690   2.77197   2.77640   2.77657
  Beta virt. eigenvalues --    2.78494   2.78697   2.79199   2.79398   2.79524
  Beta virt. eigenvalues --    2.79849   2.80457   2.80954   2.81253   2.81839
  Beta virt. eigenvalues --    2.82054   2.82641   2.83188   2.83612   2.84080
  Beta virt. eigenvalues --    2.84155   2.84600   2.84963   2.85181   2.85332
  Beta virt. eigenvalues --    2.85795   2.86660   2.86816   2.86847   2.87128
  Beta virt. eigenvalues --    2.87501   2.88151   2.88536   2.88998   2.89090
  Beta virt. eigenvalues --    2.89517   2.89783   2.90226   2.90774   2.91093
  Beta virt. eigenvalues --    2.91660   2.91824   2.92197   2.92506   2.93141
  Beta virt. eigenvalues --    2.93482   2.93991   2.94354   2.94748   2.95214
  Beta virt. eigenvalues --    2.95389   2.95752   2.96336   2.96775   2.97158
  Beta virt. eigenvalues --    2.97309   2.97707   2.98015   2.98183   2.98470
  Beta virt. eigenvalues --    2.98894   2.99076   2.99553   2.99953   3.00332
  Beta virt. eigenvalues --    3.00615   3.01272   3.01457   3.01546   3.01868
  Beta virt. eigenvalues --    3.02406   3.02501   3.02991   3.03508   3.03768
  Beta virt. eigenvalues --    3.04116   3.04204   3.04527   3.04771   3.05115
  Beta virt. eigenvalues --    3.05885   3.06169   3.06458   3.06835   3.07361
  Beta virt. eigenvalues --    3.07678   3.08141   3.08244   3.08361   3.08894
  Beta virt. eigenvalues --    3.09629   3.09815   3.09959   3.10202   3.10599
  Beta virt. eigenvalues --    3.10729   3.11069   3.11383   3.11896   3.11953
  Beta virt. eigenvalues --    3.12128   3.12725   3.13067   3.13149   3.13566
  Beta virt. eigenvalues --    3.14209   3.14497   3.14819   3.14992   3.15246
  Beta virt. eigenvalues --    3.15531   3.15824   3.16092   3.16186   3.16635
  Beta virt. eigenvalues --    3.16968   3.17112   3.17445   3.17835   3.18073
  Beta virt. eigenvalues --    3.18513   3.18544   3.18931   3.19107   3.19535
  Beta virt. eigenvalues --    3.19891   3.19904   3.20466   3.20776   3.21011
  Beta virt. eigenvalues --    3.21244   3.21426   3.21720   3.22044   3.22641
  Beta virt. eigenvalues --    3.22852   3.23020   3.23225   3.23606   3.23872
  Beta virt. eigenvalues --    3.24319   3.24519   3.24603   3.25062   3.25419
  Beta virt. eigenvalues --    3.25758   3.25928   3.26079   3.26394   3.26528
  Beta virt. eigenvalues --    3.26646   3.26952   3.27709   3.28151   3.28328
  Beta virt. eigenvalues --    3.28647   3.28740   3.28905   3.29316   3.29461
  Beta virt. eigenvalues --    3.29824   3.30324   3.30383   3.30940   3.31382
  Beta virt. eigenvalues --    3.31581   3.31818   3.32433   3.32623   3.32929
  Beta virt. eigenvalues --    3.33628   3.33710   3.33959   3.34199   3.34788
  Beta virt. eigenvalues --    3.35625   3.35786   3.36258   3.36461   3.36745
  Beta virt. eigenvalues --    3.37390   3.37764   3.38525   3.38805   3.39344
  Beta virt. eigenvalues --    3.39785   3.40085   3.41189   3.41630   3.42338
  Beta virt. eigenvalues --    3.42649   3.42804   3.43511   3.44009   3.44285
  Beta virt. eigenvalues --    3.44376   3.44848   3.44955   3.45481   3.45933
  Beta virt. eigenvalues --    3.46405   3.46880   3.47789   3.48088   3.48545
  Beta virt. eigenvalues --    3.48823   3.49130   3.49751   3.50282   3.50548
  Beta virt. eigenvalues --    3.50791   3.51520   3.52342   3.52836   3.53444
  Beta virt. eigenvalues --    3.53994   3.54404   3.54806   3.55222   3.55536
  Beta virt. eigenvalues --    3.55755   3.56401   3.56838   3.57120   3.57529
  Beta virt. eigenvalues --    3.58423   3.59023   3.59354   3.59680   3.60538
[...]
  1417. RY*(  18) C  77                  0.00000     3.12126   
  1418. RY*(  19) C  77                  0.00000    21.05476   
  1419. RY*(  20) C  77                  0.00000     3.91892   
  1420. RY*(  21) C  77                  0.00000     4.12789   
  1421. RY*(  22) C  77                  0.00000     3.36408   
  1422. RY*(  23) C  77                  0.00000     3.39949   
  1423. RY*(  24) C  77                  0.00000     3.42508   
  1424. RY*(  25) C  77                  0.00000     3.55086   
  1425. RY*(  26) C  77                  0.00000     3.45012   
  1426. RY*(   1) H  78                  0.00024     0.72386   
  1427. RY*(   2) H  78                  0.00015     2.17419   
  1428. RY*(   3) H  78                  0.00011     0.80498   
  1429. RY*(   4) H  78                  0.00003     1.62166   
  1430. RY*(   5) H  78                  0.00000     3.49247   
  1431. BD*(   1)Fe   1 - N   2          0.02736     0.28645   
  1432. BD*(   1)Fe   1 - N   3          0.03070     0.27806   
  1433. BD*(   1)Fe   1 - N   4          0.02736     0.28574   
  1434. BD*(   1)Fe   1 - N   5          0.03073     0.28168   
  1435. BD*(   1)Fe   1 - N  76          0.03184     0.16786   
  1436. BD*(   1) N   2 - C   6          0.01390     0.39789   
  1437. BD*(   2) N   2 - C   6          0.32665    -0.10104  1483(v),1456(v),1451(v)
                                                    293(g),153(v),154(v),155(v)
                                                    188(g),705(v)
  1438. BD*(   1) N   2 - C   9          0.01415     0.39490   
  1439. BD*(   1) N   3 - C  10          0.01396     0.39754   
  1440. BD*(   2) N   3 - C  10          0.32737    -0.09965  1456(v),1460(v),1465(v)
                                                    396(g),154(v),153(v),155(v)
                                                    1446(r),736(v),214(g),395(g)
                                                    215(g)
  1441. BD*(   1) N   3 - C  13          0.01338     0.40200   
  1442. BD*(   1) N   4 - C  14          0.01406     0.39830   
  1443. BD*(   2) N   4 - C  14          0.33156    -0.09774  1465(v),1469(v),1474(v)
                                                    153(v),154(v),241(g),1446(r)
                                                    499(g),155(v),500(g)
  1444. BD*(   1) N   4 - C  17          0.01365     0.40065   
  1445. BD*(   1) N   5 - C  18          0.01399     0.40060   
  1446. BD*(   2) N   5 - C  18          0.32565    -0.09786  1474(v),1478(v),1483(v)
                                                    604(g),154(v),153(v),1443(r)
                                                    155(v),798(v),1440(r),266(g)
                                                    267(g)
  1447. BD*(   1) N   5 - C  21          0.01374     0.40220   
  1448. BD*(   1) C   6 - C   7          0.01727     0.38416   
  1449. BD*(   1) C   6 - C  22          0.01009     0.46695   
  1450. BD*(   1) C   7 - C   8          0.01167     0.49330   
  1451. BD*(   2) C   7 - C   8          0.12044    -0.03389  1456(v),1437(v),1492(v)
                                                    1489(v),1490(v),1491(v)
  1452. BD*(   1) C   7 - C  34          0.00810     0.31746   
  1453. BD*(   1) C   8 - C   9          0.01771     0.37544   
  1454. BD*(   1) C   8 - C  30          0.00828     0.31486   
  1455. BD*(   1) C   9 - C  24          0.01021     0.46776   
  1456. BD*(   2) C   9 - C  24          0.19988    -0.06202  1440(v),1451(v),1437(v)
                                                    736(g),372(g),1483(r)
                                                    1465(r)
  1457. BD*(   1) C  10 - C  11          0.01703     0.39268   
  1458. BD*(   1) C  10 - C  24          0.01037     0.46180   
  1459. BD*(   1) C  11 - C  12          0.01248     0.49071   
  1460. BD*(   2) C  11 - C  12          0.13803    -0.03553  1499(v),1465(v),1440(v)
                                                    1495(v),1494(v)
  1461. BD*(   1) C  11 - C  38          0.00774     0.32063   
  1462. BD*(   1) C  12 - C  13          0.01683     0.38207   
  1463. BD*(   1) C  12 - C  42          0.01320     0.40213   
  1464. BD*(   1) C  13 - C  26          0.00999     0.47028   
  1465. BD*(   2) C  13 - C  26          0.19272    -0.05610  1443(v),1460(v),1440(v)
                                                    1483(r),767(g),1474(r)
                                                    476(g),1456(r)
  1466. BD*(   1) C  14 - C  15          0.01674     0.40901   
  1467. BD*(   1) C  14 - C  26          0.01021     0.46523   
  1468. BD*(   1) C  15 - C  16          0.01257     0.49016   
  1469. BD*(   2) C  15 - C  16          0.13849    -0.03591  1507(v),1474(v),1443(v)
                                                    1503(v),1502(v)
  1470. BD*(   1) C  15 - C  47          0.00761     0.32136   
  1471. BD*(   1) C  16 - C  17          0.01691     0.38165   
  1472. BD*(   1) C  16 - C  51          0.01324     0.40093   
  1473. BD*(   1) C  17 - C  28          0.01007     0.46383   
  1474. BD*(   2) C  17 - C  28          0.20021    -0.06016  1446(v),1469(v),1443(v)
                                                    798(g),1483(r),1465(r)
                                                    580(g)
  1475. BD*(   1) C  18 - C  19          0.01776     0.37634   
  1476. BD*(   1) C  18 - C  28          0.01033     0.46627   
  1477. BD*(   1) C  19 - C  20          0.01162     0.49684   
  1478. BD*(   2) C  19 - C  20          0.11752    -0.03061  1483(v),1446(v),1510(v)
                                                    1511(v),1514(v),1515(v)
  1479. BD*(   1) C  19 - C  56          0.00828     0.31758   
  1480. BD*(   1) C  20 - C  21          0.01726     0.38961   
  1481. BD*(   1) C  20 - C  60          0.00812     0.31940   
  1482. BD*(   1) C  21 - C  22          0.01008     0.46968   
  1483. BD*(   2) C  21 - C  22          0.19528    -0.05641  1437(v),1478(v),1446(v)
                                                    705(g),1474(r),1465(r)
                                                    683(g),1456(r)
  1484. BD*(   1) C  22 - H  23          0.00610     0.33199   
  1485. BD*(   1) C  24 - H  25          0.00639     0.33045   
  1486. BD*(   1) C  26 - H  27          0.00642     0.33048   
  1487. BD*(   1) C  28 - H  29          0.00639     0.33383   
  1488. BD*(   1) C  30 - H  31          0.00301     0.30404   
  1489. BD*(   1) C  30 - H  32          0.00455     0.28931   
  1490. BD*(   1) C  30 - H  33          0.00451     0.29103   
  1491. BD*(   1) C  34 - H  35          0.00443     0.29265   
  1492. BD*(   1) C  34 - H  36          0.00459     0.29098   
  1493. BD*(   1) C  34 - H  37          0.00301     0.30453   
  1494. BD*(   1) C  38 - H  39          0.00437     0.29767   
  1495. BD*(   1) C  38 - H  40          0.00537     0.28931   
  1496. BD*(   1) C  38 - H  41          0.00375     0.30667   
  1497. BD*(   1) C  42 - H  43          0.01029     0.33434   
  1498. BD*(   1) C  42 - C  44          0.00366     0.54780   
  1499. BD*(   2) C  42 - C  44          0.03009    -0.02920   
  1500. BD*(   1) C  44 - H  45          0.00518     0.34933   
  1501. BD*(   1) C  44 - H  46          0.00385     0.35446   
  1502. BD*(   1) C  47 - H  48          0.00429     0.29880   
  1503. BD*(   1) C  47 - H  49          0.00525     0.29186   
  1504. BD*(   1) C  47 - H  50          0.00368     0.30675   
  1505. BD*(   1) C  51 - H  52          0.01018     0.33353   
  1506. BD*(   1) C  51 - C  53          0.00366     0.54361   
  1507. BD*(   2) C  51 - C  53          0.02906    -0.03069   
  1508. BD*(   1) C  53 - H  54          0.00515     0.35092   
  1509. BD*(   1) C  53 - H  55          0.00385     0.35615   
  1510. BD*(   1) C  56 - H  57          0.00459     0.29319   
  1511. BD*(   1) C  56 - H  58          0.00444     0.29330   
  1512. BD*(   1) C  56 - H  59          0.00301     0.30598   
  1513. BD*(   1) C  60 - H  61          0.00301     0.30636   
  1514. BD*(   1) C  60 - H  62          0.00445     0.32167   
  1515. BD*(   1) C  60 - H  63          0.00459     0.35984   
  1518. BD*(   1) C  67 - H  68          0.00155     0.28838   
  1519. BD*(   1) C  67 - H  69          0.00502     0.35438   
  1520. BD*(   1) C  67 - H  70          0.00499     0.27990   
  1521. BD*(   1) C  67 - C  73          0.00614     0.33350   
  1522. BD*(   1) N  71 - H  72          0.00650     0.31548   
  1523. BD*(   1) N  71 - C  73          0.01358     0.38923   
  1524. BD*(   1) N  71 - C  74          0.01027     0.41625   
  1525. BD*(   1) C  73 - C  77          0.01036     0.45792   
  1526. BD*(   1) C  74 - H  75          0.00802     0.27492   
  1527. BD*(   1) C  74 - N  76          0.00913     0.41932   
  1528. BD*(   2) C  74 - N  76          0.21905     0.13750  1530(v),1519(r),1429(r)
                                                    1515(r),1523(v),1521(r)
                                                    1514(r),1430(r),1517(r)
                                                    1516(r),1424(v),1344(g)
                                                    1402(v),1420(v),1466(r)
                                                    1404(v),95(v),1403(v)
                                                    1400(v),1411(v),1518(r)
                                                    1401(v),1258(r),1325(r)
                                                    1480(r),1375(g),1335(r)
                                                    153(v),1312(r),1332(r)
                                                    1487(r),1321(r),1484(r)
                                                    1433(v),1419(v),1409(v)
                                                    1327(r),1498(r),1412(v)
                                                    1380(g),1410(v),1365(g)
                                                    1426(r)
  1529. BD*(   1) N  76 - C  77          0.00872     3.03780   
  1530. BD*(   1) C  77 - H  78          0.00656     4.67218   
       -------------------------------
              Total Lewis  145.43768  ( 96.8851%)
        Valence non-Lewis    4.40379  (  2.9336%)
        Rydberg non-Lewis    0.27207  (  0.1812%)
       -------------------------------
            Total unit  1  150.11354  (100.0000%)
           Charge unit  1    2.88646
 
 Molecular unit  2  (H2O)
    86. BD (   1) O  64 - H  65          0.99255    -0.93166  155(r),153(r),1435(r)
                                                    1241(v),154(r),160(r)
                                                    1375(r),156(r),1433(r)
                                                    242(r),162(r),166(r),241(r)
                                                    165(r),266(r)
    87. BD (   1) O  64 - H  66          0.99609    -0.99559  155(r),1435(r),1237(v)
                                                    1516(g),160(r),156(r),162(r)
                                                    153(r),1377(r),190(r),154(r)
                                                    191(r),1375(r),166(r),165(r)
                                                    267(r),1433(r),195(r),217(r)
                                                    188(r)
   146. CR (   1) O  64                  0.99991   -19.07656  155(r),1435(r),1241(v)
                                                    1237(v),163(r),1433(r)
                                                    156(r),1431(r),1432(r)
                                                    1434(r)
   157. LP (   1) O  64                  0.98285    -0.44875  154(r),153(r),1434(r)
                                                    1432(r),1240(v),1236(v)
                                                    1376(r),215(r)
   158. LP (   2) O  64                  0.90775    -0.60646  155(r),1435(r),1516(g)
                                                    156(r),1242(v),1517(g)
                                                    1237(v),166(r),1241(v)
                                                    190(r),265(r),213(r),267(r)
                                                    1377(r),242(r),1382(r)
                                                    153(r),214(r),215(r),187(r)
                                                    216(r),268(r),239(r),1445(r)
  1209. RY*(   1) O  64                  0.00105     1.14715   
  1210. RY*(   2) O  64                  0.00035     0.55540   
  1211. RY*(   3) O  64                  0.00019     1.10484   
  1212. RY*(   4) O  64                  0.00010     0.83567   
  1213. RY*(   5) O  64                  0.00002     2.10643   
  1214. RY*(   6) O  64                  0.00002     2.14155   
  1215. RY*(   7) O  64                  0.00000     2.97538   
  1216. RY*(   8) O  64                  0.00001     4.77288   
  1217. RY*(   9) O  64                  0.00001     3.03225   
  1218. RY*(  10) O  64                  0.00001     2.70069   
  1219. RY*(  11) O  64                  0.00000     6.29610   
  1220. RY*(  12) O  64                  0.00000     2.86087   
  1221. RY*(  13) O  64                  0.00000     6.35555   
  1222. RY*(  14) O  64                  0.00000    42.49508   
  1223. RY*(  15) O  64                  0.00000     6.37261   
  1224. RY*(  16) O  64                  0.00000     2.04762   
  1225. RY*(  17) O  64                  0.00000     6.11037   
  1226. RY*(  18) O  64                  0.00000     2.24895   
  1227. RY*(  19) O  64                  0.00000     6.33129   
  1228. RY*(  20) O  64                  0.00000     5.25366   
  1229. RY*(  21) O  64                  0.00000     5.27279   
  1230. RY*(  22) O  64                  0.00000     5.33630   
  1231. RY*(  23) O  64                  0.00000     5.18644   
  1232. RY*(  24) O  64                  0.00000     5.62419   
  1233. RY*(  25) O  64                  0.00000     5.40466   
  1234. RY*(  26) O  64                  0.00000     5.36646   
  1235. RY*(   1) H  65                  0.00038     0.64442   
  1236. RY*(   2) H  65                  0.00039     1.88932   
  1237. RY*(   3) H  65                  0.00029     2.28569   
  1238. RY*(   4) H  65                  0.00008     1.90798   
  1239. RY*(   5) H  65                  0.00001     2.78506   
  1240. RY*(   1) H  66                  0.00042     1.90211   
  1241. RY*(   2) H  66                  0.00038     1.72186   
  1242. RY*(   3) H  66                  0.00030     1.12293   
  1243. RY*(   4) H  66                  0.00011     1.92334   
  1244. RY*(   5) H  66                  0.00000     2.90632   
  1516. BD*(   1) O  64 - H  65          0.00176     0.32838   
  1517. BD*(   1) O  64 - H  66          0.00127     0.51626   
       -------------------------------
              Total Lewis    4.87915  ( 99.8533%)
        Valence non-Lewis    0.00303  (  0.0620%)
        Rydberg non-Lewis    0.00414  (  0.0847%)
       -------------------------------
            Total unit  2    4.88632  (100.0000%)
           Charge unit  2    0.11368
 Unable to Open any file for archive entry.
 1\1\GINC-BGN1040\SP\UAPFD\def2TZVP\C34H36Fe1N6O1(1+,6)\BECSLEIP\03-Sep
 -2024\0\\# apfd/def2TZVP guess=read scf=maxcycle=999 geom=check pop=nb
 o\\2rbx_III_H\\1,6\Fe,0,11.5066858241,-2.5261449812,1.4459406571\N,0,1
 2.080579074,-0.8546491182,2.4045358094\N,0,9.8237747921,-2.551628908,2
 .551372505\N,0,10.8908389819,-4.1436898296,0.4657866228\N,0,13.1259633
 668,-2.4091146514,0.2876585836\C,0,13.2241735459,-0.1501644523,2.19031
 69441\C,0,13.2513526208,1.0420473579,3.0073401542\C,0,12.0985425966,1.
 0375563148,3.729909875\C,0,11.3842913194,-0.159075964,3.3452300285\C,0
 ,9.4688236427,-1.6790301618,3.5334524302\C,0,8.2689138693,-2.113655216
 7,4.2009760943\C,0,7.9099612908,-3.2979721313,3.6130958903\C,0,8.89268
 32047,-3.5404224367,2.573705643\C,0,9.7480715871,-4.8481739587,0.68290
 58975\C,0,9.5646885515,-5.8541494458,-0.3320867869\C,0,10.6458362359,-
 5.7583454894,-1.1685786618\C,0,11.4633731202,-4.6826671297,-0.64054704
 12\C,0,13.4903924082,-3.3016582491,-0.669544208\C,0,14.8490935352,-3.0
 609030719,-1.1045902097\C,0,15.2928114592,-1.9916885168,-0.3910831384\
 C,0,14.1982871033,-1.5948860091,0.4675699031\C,0,14.2410080144,-0.5134
 167419,1.3261066356\H,0,15.1302104783,0.0984455328,1.317345713\C,0,10.
 1620940044,-0.5283471428,3.8711286371\H,0,9.7420812331,0.1017972016,4.
 640373991\C,0,8.8565497544,-4.6229417046,1.717735381\H,0,8.0427269052,
 -5.3228790355,1.8306930639\C,0,12.6868917974,-4.3107817192,-1.16860457
 56\H,0,13.0721189043,-4.8895740512,-1.994637189\C,0,11.6046986223,2.02
 84833563,4.7281488659\H,0,12.3077450353,2.850631526,4.8371467106\H,0,1
 1.4734734069,1.5590803223,5.7036421694\H,0,10.6426447004,2.4385012841,
 4.4195887273\C,0,14.3587594725,2.0395659617,3.003485066\H,0,14.5114771
 102,2.4389825539,2.00075949\H,0,15.2917172738,1.5776908315,3.327966165
 7\H,0,14.1367516348,2.8677939632,3.6721291015\C,0,7.5582792428,-1.3576
 725369,5.2694360695\H,0,7.5977198402,-0.286738259,5.0756030297\H,0,8.0
 104262738,-1.5401807461,6.2460752658\H,0,6.5153138081,-1.6650456966,5.
 3122266052\C,0,6.7795344521,-4.1522982871,3.8988275711\H,0,6.362327882
 2,-4.6781959647,3.0479599999\C,0,6.2362047826,-4.3407807871,5.09741207
 \H,0,6.6349952317,-3.8843280263,5.9864937566\H,0,5.3825080178,-4.98378
 55126,5.2339434591\C,0,8.3784659266,-6.7466402218,-0.4492294605\H,0,7.
 4700301191,-6.219275218,-0.1624479585\H,0,8.4817203095,-7.6187026761,0
 .1989137777\H,0,8.2709695458,-7.0925130538,-1.4754019651\C,0,10.952594
 1589,-6.5113111767,-2.3640943755\H,0,11.4893913628,-5.967258766,-3.132
 9142144\C,0,10.6416505926,-7.7861014203,-2.5776833735\H,0,10.152393507
 6,-8.38984343,-1.8335741128\H,0,10.8918152521,-8.2791348198,-3.5025988
 234\C,0,15.5570843062,-3.8690419495,-2.1375449647\H,0,15.0430100523,-3
 .7996573178,-3.0966847715\H,0,15.5893568477,-4.9196262632,-1.847995944
 1\H,0,16.577541393,-3.5183537955,-2.2713107884\C,0,16.6193513879,-1.31
 35044501,-0.4298296151\H,0,17.2881113212,-1.8100695696,-1.1286682018\H
 ,0,17.0834647188,-1.3223938414,0.5565832001\H,0,16.5090669768,-0.27437
 40303,-0.741545398\O,0,10.445,-1.149,-0.009\H,0,10.614,-0.264,0.314\H,
 0,9.944,-1.366,-0.711\C,0,14.6813909688,-6.3399964769,3.9843240841\H,0
 ,14.9843487123,-6.8115208703,3.0546977208\H,0,14.1879636559,-7.0845370
 19,4.6090779773\H,0,15.5728601355,-5.9931287402,4.5070346853\N,0,13.22
 76116706,-4.4224622753,4.6773186735\H,0,13.3848329299,-4.5283329125,5.
 666067042\C,0,13.7671343417,-5.2071353279,3.6919407411\C,0,12.44979007
 98,-3.4913766264,4.0798135298\H,0,11.8996151681,-2.7395963688,4.607040
 3079\N,0,12.4644569426,-3.6388805723,2.7771448708\C,0,13.2791126261,-4
 .7026471764,2.5206721805\H,0,13.4583594256,-5.0306288943,1.5176135848\
 \Version=ES64L-G16RevC.02\State=6-A\HF=-2983.8356849\S2=8.758748\S2-1=
 0.\S2A=8.750023\RMSD=8.461e-09\Dipole=0.9146948,-0.1608593,1.1743461\Q
 uadrupole=-2.1378522,-0.4182518,2.556104,3.0731631,-3.06515,6.5277724\
 PG=C01 [X(C34H36Fe1N6O1)]\\@
 The archive entry for this job was punched.


 THE VALUE OF PHILOSOPHY IS, IN FACT, TO BE SOUGHT LARGELY IN ITS
 VERY UNCERTAINTY.  THE MAN WHO HAS NO TINCTURE OF PHILOSOPHY GOES
 THROUGH LIFE IMPRISONED IN THE PREJUDICES DERIVED FROM COMMON SENSE,
 FROM THE HABITUAL BELIEFS OF HIS AGE OR HIS NATION, AND FROM
 CONVICTIONS WHICH HAVE GROWN UP IN HIS MIND WITHOUT THE CO-OPERATION
 OR CONSENT OF HIS DELIBERATE REASON.  TO SUCH A MAN THE WORLD TENDS
 TO BE DEFINITE, FINITE, OBVIOUS; COMMON OBJECTS ROUSE NO QUESTIONS,
 AND UNFAMILIAR POSSIBILITIES ARE CONTEMPTUOUSLY REJECTED.

                             -- BERTRAND RUSSELL
 Job cpu time:       0 days 11 hours 39 minutes 41.7 seconds.
 Elapsed time:       0 days  0 hours 10 minutes 57.7 seconds.
 File lengths (MBytes):  RWF=   2166 Int=      0 D2E=      0 Chk=    179 Scr=      1
 Normal termination of Gaussian 16 at Tue Sep  3 22:52:23 2024.
