 Entering Gaussian System, Link 0=g16
 Input=2spm01.com
 Output=2spm01.log
 Initial command:
 /sw/chem/gaussian/g16_C02/a100/g16/l1.exe "/local/becsleip_8005612/Gau-3942556.inp" -scrdir="/local/becsleip_8005612/"
 Entering Link 1 = /sw/chem/gaussian/g16_C02/a100/g16/l1.exe PID=   3942557.
  
 Copyright (c) 1988-2021, Gaussian, Inc.  All Rights Reserved.
  
 This is part of the Gaussian(R) 16 program.  It is based on
 the Gaussian(R) 09 system (copyright 2009, Gaussian, Inc.),
 the Gaussian(R) 03 system (copyright 2003, Gaussian, Inc.),
 the Gaussian(R) 98 system (copyright 1998, Gaussian, Inc.),
 the Gaussian(R) 94 system (copyright 1995, Gaussian, Inc.),
 the Gaussian 92(TM) system (copyright 1992, Gaussian, Inc.),
 the Gaussian 90(TM) system (copyright 1990, Gaussian, Inc.),
 the Gaussian 88(TM) system (copyright 1988, Gaussian, Inc.),
 the Gaussian 86(TM) system (copyright 1986, Carnegie Mellon
 University), and the Gaussian 82(TM) system (copyright 1983,
 Carnegie Mellon University). Gaussian is a federally registered
 trademark of Gaussian, Inc.
  
 This software contains proprietary and confidential information,
 including trade secrets, belonging to Gaussian, Inc.
  
 This software is provided under written license and may be
 used, copied, transmitted, or stored only in accord with that
 written license.
  
 The following legend is applicable only to US Government
 contracts under FAR:
  
                    RESTRICTED RIGHTS LEGEND
  
 Use, reproduction and disclosure by the US Government is
 subject to restrictions as set forth in subparagraphs (a)
 and (c) of the Commercial Computer Software - Restricted
 Rights clause in FAR 52.227-19.
  
 Gaussian, Inc.
 340 Quinnipiac St., Bldg. 40, Wallingford CT 06492
  
  
 ---------------------------------------------------------------
 Warning -- This program may not be used in any manner that
 competes with the business of Gaussian, Inc. or will provide
 assistance to any competitor of Gaussian, Inc.  The licensee
 of this program is prohibited from giving any competitor of
 Gaussian, Inc. access to this program.  By using this program,
 the user acknowledges that Gaussian, Inc. is engaged in the
 business of creating and licensing software in the field of
 computational chemistry and represents and warrants to the
 licensee that it is not a competitor of Gaussian, Inc. and that
 it will not use this program in any manner prohibited above.
 ---------------------------------------------------------------
  

 Cite this work as:
 Gaussian 16, Revision C.02,
 M. J. Frisch, G. W. Trucks, H. B. Schlegel, G. E. Scuseria, 
 M. A. Robb, J. R. Cheeseman, G. Scalmani, V. Barone, 
 G. A. Petersson, H. Nakatsuji, X. Li, M. Caricato, A. V. Marenich, 
 J. Bloino, B. G. Janesko, R. Gomperts, B. Mennucci, H. P. Hratchian, 
 J. V. Ortiz, A. F. Izmaylov, J. L. Sonnenberg, D. Williams-Young, 
 F. Ding, F. Lipparini, F. Egidi, J. Goings, B. Peng, A. Petrone, 
 T. Henderson, D. Ranasinghe, V. G. Zakrzewski, J. Gao, N. Rega, 
 G. Zheng, W. Liang, M. Hada, M. Ehara, K. Toyota, R. Fukuda, 
 J. Hasegawa, M. Ishida, T. Nakajima, Y. Honda, O. Kitao, H. Nakai, 
 T. Vreven, K. Throssell, J. A. Montgomery, Jr., J. E. Peralta, 
 F. Ogliaro, M. J. Bearpark, J. J. Heyd, E. N. Brothers, K. N. Kudin, 
 V. N. Staroverov, T. A. Keith, R. Kobayashi, J. Normand, 
 K. Raghavachari, A. P. Rendell, J. C. Burant, S. S. Iyengar, 
 J. Tomasi, M. Cossi, J. M. Millam, M. Klene, C. Adamo, R. Cammi, 
 J. W. Ochterski, R. L. Martin, K. Morokuma, O. Farkas, 
 J. B. Foresman, and D. J. Fox, Gaussian, Inc., Wallingford CT, 2019.
 
 ******************************************
 Gaussian 16:  ES64L-G16RevC.02  7-Dec-2021
                 5-Sep-2024 
 ******************************************
 %mem=16GB
 %CPU=0-71
 SetSPE:  set environment variable "OMP_PROC_BIND" = "true"
 SetSPE:  set environment variable "OMP_PLACES" = "{0},{1},{2},{3},{4},{5},{6},{7},{8},{9},{10},{11},{12},{13},{14},{15},{16},{17},{18},{19},{20},{21},{22},{23},{24},{25},{26},{27},{28},{29},{30},{31},{32},{33},{34},{35},{36},{37},{38},{39},{40},{41},{42},{43},{44},{45},{46},{47},{48},{49},{50},{51},{52},{53},{54},{55},{56},{57},{58},{59},{60},{61},{62},{63},{64},{65},{66},{67},{68},{69},{70},{71}"
 Will use up to   72 processors via shared memory.
 %gpucpu=0,1,2,3=0,1,2,3
 Will use    4 GPUs:
 Thread  CPU   GPU
      0    0     0
      1    1     1
      2    2     2
      3    3     3
      4    4    -1
      5    5    -1
      6    6    -1
      7    7    -1
      8    8    -1
      9    9    -1
     10   10    -1
     11   11    -1
     12   12    -1
     13   13    -1
     14   14    -1
     15   15    -1
     16   16    -1
     17   17    -1
     18   18    -1
     19   19    -1
     20   20    -1
     21   21    -1
     22   22    -1
     23   23    -1
     24   24    -1
     25   25    -1
     26   26    -1
     27   27    -1
     28   28    -1
     29   29    -1
     30   30    -1
     31   31    -1
     32   32    -1
     33   33    -1
     34   34    -1
     35   35    -1
     36   36    -1
     37   37    -1
     38   38    -1
     39   39    -1
     40   40    -1
     41   41    -1
     42   42    -1
     43   43    -1
     44   44    -1
     45   45    -1
     46   46    -1
     47   47    -1
     48   48    -1
     49   49    -1
     50   50    -1
     51   51    -1
     52   52    -1
     53   53    -1
     54   54    -1
     55   55    -1
     56   56    -1
     57   57    -1
     58   58    -1
     59   59    -1
     60   60    -1
     61   61    -1
     62   62    -1
     63   63    -1
     64   64    -1
     65   65    -1
     66   66    -1
     67   67    -1
     68   68    -1
     69   69    -1
     70   70    -1
     71   71    -1
 SetGPE:  set environment variable "OMP_PROC_BIND" = "true"
 SetGPE:  set environment variable "OMP_PLACES" = "{0},{1},{2},{3},{4},{5},{6},{7},{8},{9},{10},{11},{12},{13},{14},{15},{16},{17},{18},{19},{20},{21},{22},{23},{24},{25},{26},{27},{28},{29},{30},{31},{32},{33},{34},{35},{36},{37},{38},{39},{40},{41},{42},{43},{44},{45},{46},{47},{48},{49},{50},{51},{52},{53},{54},{55},{56},{57},{58},{59},{60},{61},{62},{63},{64},{65},{66},{67},{68},{69},{70},{71}"
 %chk=2spm_II_O.chk
 Properties for Device   0
 Minimum vector length:                              32
 Maximum vector length:                            1024
 Number of SMPs:                                    108
 Maximum number of threads per SMP:                2048
 Number of ASync Engines:                             5
 Memory:                                           9207742464
 Properties for Device   1
 Minimum vector length:                              32
 Maximum vector length:                            1024
 Number of SMPs:                                    108
 Maximum number of threads per SMP:                2048
 Number of ASync Engines:                             5
 Memory:                                           9207742464
 Properties for Device   2
 Minimum vector length:                              32
 Maximum vector length:                            1024
 Number of SMPs:                                    108
 Maximum number of threads per SMP:                2048
 Number of ASync Engines:                             5
 Memory:                                           9207742464
 Properties for Device   3
 Minimum vector length:                              32
 Maximum vector length:                            1024
 Number of SMPs:                                    108
 Maximum number of threads per SMP:                2048
 Number of ASync Engines:                             5
 Memory:                                           9207742464
   8286968217 words of memory will be used on each GPU.
 ------------------------------------------
 # polar def2tzvp apfd int=(grid=ultrafine)
 ------------------------------------------
 1/38=1,172=1/1;
 2/12=2,17=6,18=5,40=1/2;
 3/5=44,7=101,11=2,25=1,30=1,74=-44,75=-5/1,2,3;
 4//1;
 5/5=2,38=5,98=1/2;
 8/6=4,10=90,11=11/1;
 10/6=1,13=10/2;
 6/7=2,8=2,9=2,10=2,28=1/1;
 99/5=1,9=1/99;
 ---------
 2spm_II_S
 ---------
 Symbolic Z-matrix:
 Charge =  0 Multiplicity = 1
 Fe                    35.16957   3.99687   10.35168 
 N                     37.07694   3.75734   9.80382 
 N                     35.4968   2.77252   11.91958 
 N                     33.3052   4.35103   11.05049 
 N                     34.87021   5.28534   8.86577 
 C                     37.6589   4.27925   8.69034 
 C                     39.00961   3.78367   8.53879 
 C                     39.23431   2.95976   9.59707 
 C                     38.01222   2.95181   10.37059 
 C                     36.67322   2.18814   12.27368 
 C                     36.54214   1.47629   13.52535 
 C                     35.28082   1.72071   13.96787 
 C                     34.66706   2.58853   12.98427 
 C                     32.75917   3.91611   12.2132 
 C                     31.47673   4.54383   12.45321 
 C                     31.26898   5.38983   11.39487 
 C                     32.42904   5.27165   10.55051 
 C                     33.75557   6.02176   8.62279 
 C                     33.90683   6.796     7.40505 
 C                     35.18812   6.57269   6.97658 
 C                     35.77501   5.65105   7.91759 
 C                     37.0579   5.14629   7.79946 
 H                     37.65639   5.49581   6.97201 
 C                     37.83178   2.20281   11.51904 
 H                     38.67456   1.63497   11.88345 
 C                     33.35964   3.02216   13.08154 
 H                     32.81546   2.75287   13.97389 
 C                     32.60989   6.01291   9.39432 
 H                     31.81249   6.68127   9.10636 
 C                     39.92381   4.15884   7.42305 
 H                     40.09746   5.23517   7.41518 
 H                     39.49018   3.87994   6.46239 
 H                     40.88387   3.65838   7.52348 
 C                     40.45781   2.18406   9.94885 
 H                     40.2438   1.11493   9.96982 
 H                     40.82486   2.47335   10.93382 
 H                     41.24899   2.36014   9.22417 
 C                     35.85496   7.0844    5.74754 
 H                     36.47477   6.31228   5.29419 
 H                     36.49454   7.93814   5.97823 
 H                     35.10806   7.40104   5.02233 
 C                     32.87451   7.6249    6.82313 
 H                     31.85917   7.26967   6.95933 
 C                     33.07407   8.75793   6.15716 
 H                     34.05381   9.18456   6.03176 
 H                     32.25418   9.3148    5.73435 
 C                     30.08014   6.24027   11.11036 
 H                     29.8424   6.22812   10.04765 
 H                     30.25999   7.27635   11.40293 
 H                     29.21846   5.87204   11.66349 
 C                     30.62818   4.27449   13.59281 
 H                     30.66395   3.25978   13.97243 
 C                     29.84046   5.15967   14.19485 
 H                     29.80123   6.19164   13.89215 
 H                     29.22315   4.88561   15.03435 
 C                     34.61395   1.25723   15.21755 
 H                     33.70367   0.70422   14.9843 
 H                     34.34195   2.10631   15.84554 
 H                     35.27244   0.60676   15.78854 
 C                     37.62801   0.67215   14.15483 
 H                     37.95304  -0.12604   13.48673 
 H                     37.2871   0.22261   15.08424 
 H                     38.49161   1.30038   14.37486 
 O                     35.755    5.758     11.66 
 H                     34.936    6.155     11.956 
 H                     36.575    5.994     11.911 
 C                     32.29379   0.63872   6.97637 
 H                     32.71818   0.42898   5.99422 
 H                     31.47793   1.34489   6.85769 
 H                     31.89592  -0.29147   7.38158 
 N                     34.42826   0.51063   8.27991 
 H                     34.65394  -0.43318   8.01187 
 C                     33.32007   1.21257   7.88324 
 C                     35.15269   1.31324   9.09305 
 H                     36.07406   1.02708   9.55725 
 N                     34.57095   2.47971   9.23338 
 C                     33.43039   2.43253   8.4865 
 H                     32.77034   3.27348   8.4361 
 
 Stoichiometry    C34H36FeN6O
 Framework group  C1[X(C34H36FeN6O)]
 Deg. of freedom   228
 Full point group                 C1      NOp   1
 Largest Abelian subgroup         C1      NOp   1
 Largest concise Abelian subgroup C1      NOp   1
                         Standard orientation:                         
 ---------------------------------------------------------------------
 Center     Atomic      Atomic             Coordinates (Angstroms)
 Number     Number       Type             X           Y           Z
 ---------------------------------------------------------------------
      1         26           0        0.206487   -0.046998   -0.255529
      2          7           0        1.494499   -1.553231   -0.515998
      3          7           0        1.760498    1.236797   -0.219173
      4          7           0       -1.061648    1.526287   -0.176381
      5          7           0       -1.334623   -1.297456   -0.393523
      6          6           0        1.175149   -2.874127   -0.580459
      7          6           0        2.370374   -3.687666   -0.631030
      8          6           0        3.420531   -2.823951   -0.609873
      9          6           0        2.851503   -1.496620   -0.530585
     10          6           0        3.076741    0.937974   -0.389601
     11          6           0        3.881325    2.138981   -0.418115
     12          6           0        3.009035    3.178876   -0.353073
     13          6           0        1.685015    2.594700   -0.298582
     14          6           0       -0.749666    2.845436   -0.217868
     15          6           0       -1.941190    3.658808   -0.340311
     16          6           0       -2.992436    2.780257   -0.385008
     17          6           0       -2.419552    1.461766   -0.307197
     18          6           0       -2.654965   -0.981630   -0.420520
     19          6           0       -3.469336   -2.181641   -0.465172
     20          6           0       -2.590044   -3.227004   -0.561248
     21          6           0       -1.269364   -2.648400   -0.542325
     22          6           0       -0.104131   -3.393788   -0.576919
     23          1           0       -0.200867   -4.465748   -0.657968
     24          6           0        3.603864   -0.338432   -0.459552
     25          1           0        4.677360   -0.434703   -0.521635
     26          6           0        0.536633    3.353681   -0.188967
     27          1           0        0.648996    4.426587   -0.223477
     28          6           0       -3.169975    0.298986   -0.368475
     29          1           0       -4.241816    0.406123   -0.440132
     30          6           0        2.373045   -5.176199   -0.706296
     31          1           0        1.855039   -5.515583   -1.603619
     32          1           0        1.865661   -5.604298    0.158560
     33          1           0        3.389566   -5.561290   -0.732084
     34          6           0        4.882777   -3.111617   -0.648448
     35          1           0        5.372844   -2.739644    0.251965
     36          1           0        5.345977   -2.627349   -1.508408
     37          1           0        5.064745   -4.181174   -0.719645
     38          6           0       -2.887000   -4.685750   -0.591715
     39          1           0       -2.161304   -5.240312    0.001334
     40          1           0       -2.851605   -5.069117   -1.612952
     41          1           0       -3.880519   -4.872566   -0.189136
     42          6           0       -4.914837   -2.197382   -0.424338
     43          1           0       -5.373251   -1.412920    0.167376
     44          6           0       -5.698081   -3.074778   -1.043848
     45          1           0       -5.303183   -3.845004   -1.682948
     46          1           0       -6.771008   -3.035061   -0.952493
     47          6           0       -4.448846    3.083538   -0.451479
     48          1           0       -5.014125    2.402923    0.183540
     49          1           0       -4.824459    2.982139   -1.471302
     50          1           0       -4.632076    4.102971   -0.117970
     51          6           0       -1.950952    5.104228   -0.384084
     52          1           0       -1.179587    5.594475    0.198740
     53          6           0       -2.806415    5.849648   -1.076222
     54          1           0       -3.561249    5.417428   -1.709896
     55          1           0       -2.763219    6.925989   -1.052696
     56          6           0        3.285208    4.643341   -0.370435
     57          1           0        2.878316    5.121131    0.521191
     58          1           0        2.827139    5.110408   -1.242968
     59          1           0        4.355347    4.834412   -0.402672
     60          6           0        5.368234    2.154537   -0.522422
     61          1           0        5.818527    1.613987    0.310731
     62          1           0        5.745874    3.174041   -0.512685
     63          1           0        5.692352    1.678118   -1.448093
     64          8           0        0.074696    0.243679   -2.503667
     65          1           0       -0.629723    0.874662   -2.650775
     66          1           0        0.612232   -0.098947   -3.123957
     67          6           0       -1.125846   -0.239699    5.141489
     68          1           0       -1.073283   -1.208690    5.638477
     69          1           0       -2.168920    0.001632    4.962165
     70          1           0       -0.702734    0.509791    5.810073
     71          7           0        0.960634   -0.468429    3.775518
     72          1           0        1.578737   -0.608503    4.557742
     73          6           0       -0.393068   -0.268278    3.850296
     74          6           0        1.307847   -0.439413    2.468311
     75          1           0        2.308000   -0.565183    2.107523
     76          7           0        0.256409   -0.234610    1.712480
     77          6           0       -0.809058   -0.126711    2.557504
     78          1           0       -1.795500    0.046247    2.180132
 ---------------------------------------------------------------------
 Rotational constants (GHZ):           0.0919662           0.0911490           0.0593552
 Standard basis: def2TZVP (5D, 7F)
 There are  1744 symmetry adapted cartesian basis functions of A   symmetry.
 There are  1532 symmetry adapted basis functions of A   symmetry.
  1532 basis functions,  2481 primitive gaussians,  1744 cartesian basis functions
   158 alpha electrons      158 beta electrons
       nuclear repulsion energy      5960.1320264016 Hartrees.
 NAtoms=   78 NActive=   78 NUniq=   78 SFac= 1.00D+00 NAtFMM=   60 NAOKFM=T Big=T
 Integral buffers will be    131072 words long.
 Raffenetti 2 integral format.
 Two-electron integral symmetry is turned on.
 R6APFD:  NTU= -4 IXU= 1 FactS= 1.050
 Nuclear repulsion after empirical dispersion term =     5959.9795862271 Hartrees.
 One-electron integrals computed using PRISM.
   1 Symmetry operations used in ECPInt.
 ECPInt:  NShTT=  186355 NPrTT=  576197 LenC2=  146986 LenP2D=  300720.
 LDataN:  DoStor=T MaxTD1= 6 Len=  172
 Number of processors reduced to  23 by ecpmxn.
 NBasis=  1532 RedAO= T EigKep=  3.33D-06  NBF=  1532
 NBsUse=  1532 1.00D-06 EigRej= -1.00D+00 NBFU=  1532
 ExpMin= 4.20D-02 ExpMax= 3.01D+05 ExpMxC= 2.91D+03 IAcc=3 IRadAn=         5 AccDes= 0.00D+00
 Harris functional with IExCor= 3731 and IRadAn=       5 diagonalized for initial guess.
 HarFok:  IExCor= 3731 AccDes= 0.00D+00 IRadAn=         5 IDoV= 1 UseB2=F ITyADJ=14
 ICtDFT=  3500011 ScaDFX=  1.000000  1.000000  1.000000  1.000000
 FoFCou: FMM=F IPFlag=           0 FMFlag=      100000 FMFlg1=        2001
         NFxFlg=           0 DoJE=T BraDBF=F KetDBF=T FulRan=T
         wScrn=  0.000000 ICntrl=       500 IOpCl=  0 I1Cent=   200000004 NGrid=           0
         NMat0=    1 NMatS0=      1 NMatT0=    0 NMatD0=    1 NMtDS0=    0 NMtDT0=    0
 Petite list used in FoFCou.
 Requested convergence on RMS density matrix=1.00D-08 within 128 cycles.
 Requested convergence on MAX density matrix=1.00D-06.
 Requested convergence on             energy=1.00D-06.
 No special actions if energy rises.
 EnCoef did     4 forward-backward iterations
 EnCoef did   100 forward-backward iterations
 EnCoef did   100 forward-backward iterations
 EnCoef did   100 forward-backward iterations
 EnCoef did     6 forward-backward iterations
 EnCoef did     7 forward-backward iterations
 EnCoef did     3 forward-backward iterations
 Restarting incremental Fock formation.
 SCF Done:  E(RAPFD) =  -2984.02262416     A.U. after   28 cycles
            NFock= 28  Conv=0.20D-08     -V/T= 2.0034
 DoSCS=F DFT=T ScalE2(SS,OS)=  1.000000  1.000000
 Range of M.O.s used for correlation:     1  1532
 NBasis=  1532 NAE=   158 NBE=   158 NFC=     0 NFV=     0
 NROrb=   1532 NOA=   158 NOB=   158 NVA=  1374 NVB=  1374

 **** Warning!!: The largest alpha MO coefficient is  0.50948471D+02

          Differentiating once with respect to electric field.
                with respect to dipole field.
          Electric field/nuclear overlap derivatives assumed to be zero.
          There are     3 degrees of freedom in the 1st order CPHF.  IDoFFX=0 NUNeed=     3.
      3 vectors produced by pass  0 Test12= 7.24D-12 3.33D-08 XBig12= 1.85D+03 2.93D+01.
 AX will form     3 AO Fock derivatives at one time.
      3 vectors produced by pass  1 Test12= 7.24D-12 3.33D-08 XBig12= 1.20D+03 9.71D+00.
      3 vectors produced by pass  2 Test12= 7.24D-12 3.33D-08 XBig12= 3.32D+02 5.18D+00.
      3 vectors produced by pass  3 Test12= 7.24D-12 3.33D-08 XBig12= 2.15D+02 3.65D+00.
      3 vectors produced by pass  4 Test12= 7.24D-12 3.33D-08 XBig12= 1.31D+02 1.99D+00.
      3 vectors produced by pass  5 Test12= 7.24D-12 3.33D-08 XBig12= 5.08D+01 1.97D+00.
      3 vectors produced by pass  6 Test12= 7.24D-12 3.33D-08 XBig12= 4.19D+01 1.88D+00.
      3 vectors produced by pass  7 Test12= 7.24D-12 3.33D-08 XBig12= 2.07D+01 9.83D-01.
      3 vectors produced by pass  8 Test12= 7.24D-12 3.33D-08 XBig12= 1.05D+01 6.83D-01.
      3 vectors produced by pass  9 Test12= 7.24D-12 3.33D-08 XBig12= 4.61D+00 6.54D-01.
      3 vectors produced by pass 10 Test12= 7.24D-12 3.33D-08 XBig12= 1.94D+00 3.38D-01.
      3 vectors produced by pass 11 Test12= 7.24D-12 3.33D-08 XBig12= 9.91D-01 2.15D-01.
      3 vectors produced by pass 12 Test12= 7.24D-12 3.33D-08 XBig12= 3.51D-01 1.01D-01.
      3 vectors produced by pass 13 Test12= 7.24D-12 3.33D-08 XBig12= 1.22D-01 6.43D-02.
      3 vectors produced by pass 14 Test12= 7.24D-12 3.33D-08 XBig12= 4.22D-02 3.03D-02.
      3 vectors produced by pass 15 Test12= 7.24D-12 3.33D-08 XBig12= 1.83D-02 2.55D-02.
      3 vectors produced by pass 16 Test12= 7.24D-12 3.33D-08 XBig12= 6.94D-03 1.78D-02.
      3 vectors produced by pass 17 Test12= 7.24D-12 3.33D-08 XBig12= 3.41D-03 1.37D-02.
      3 vectors produced by pass 18 Test12= 7.24D-12 3.33D-08 XBig12= 1.29D-03 8.42D-03.
      3 vectors produced by pass 19 Test12= 7.24D-12 3.33D-08 XBig12= 2.71D-04 3.34D-03.
      3 vectors produced by pass 20 Test12= 7.24D-12 3.33D-08 XBig12= 7.12D-05 1.77D-03.
      3 vectors produced by pass 21 Test12= 7.24D-12 3.33D-08 XBig12= 1.15D-05 8.21D-04.
      3 vectors produced by pass 22 Test12= 7.24D-12 3.33D-08 XBig12= 2.17D-06 3.63D-04.
      3 vectors produced by pass 23 Test12= 7.24D-12 3.33D-08 XBig12= 7.25D-07 1.36D-04.
      3 vectors produced by pass 24 Test12= 7.24D-12 3.33D-08 XBig12= 1.43D-07 6.63D-05.
      3 vectors produced by pass 25 Test12= 7.24D-12 3.33D-08 XBig12= 3.37D-08 2.12D-05.
      3 vectors produced by pass 26 Test12= 7.24D-12 3.33D-08 XBig12= 6.15D-09 1.01D-05.
      3 vectors produced by pass 27 Test12= 7.24D-12 3.33D-08 XBig12= 7.87D-10 2.60D-06.
      3 vectors produced by pass 28 Test12= 7.24D-12 3.33D-08 XBig12= 1.68D-10 1.17D-06.
      3 vectors produced by pass 29 Test12= 7.24D-12 3.33D-08 XBig12= 2.12D-11 5.68D-07.
      2 vectors produced by pass 30 Test12= 7.24D-12 3.33D-08 XBig12= 2.97D-12 2.48D-07.
      1 vectors produced by pass 31 Test12= 7.24D-12 3.33D-08 XBig12= 6.57D-13 1.74D-07.
      1 vectors produced by pass 32 Test12= 7.24D-12 3.33D-08 XBig12= 1.05D-13 9.43D-08.
      1 vectors produced by pass 33 Test12= 7.24D-12 3.33D-08 XBig12= 1.06D-14 3.45D-08.
 InvSVY:  IOpt=1 It=  1 EMax= 1.42D-14
 Solved reduced A of dimension    95 with     3 vectors.
 Isotropic polarizability for W=    0.000000      576.46 Bohr**3.
 End of Minotr F.D. properties file   721 does not exist.
 End of Minotr F.D. properties file   722 does not exist.
 End of Minotr F.D. properties file   788 does not exist.

 **********************************************************************

            Population analysis using the SCF Density.

 **********************************************************************

 Orbital symmetries:
       Occupied  (A) (A) (A) (A) (A) (A) (A) (A) (A) (A) (A) (A)
                 (A) (A) (A) (A) (A) (A) (A) (A) (A) (A) (A) (A)
                 (A) (A) (A) (A) (A) (A) (A) (A) (A) (A) (A) (A)
                 (A) (A) (A) (A) (A) (A) (A) (A) (A) (A) (A) (A)
                 (A) (A) (A) (A) (A) (A) (A) (A) (A) (A) (A) (A)
                 (A) (A) (A) (A) (A) (A) (A) (A) (A) (A) (A) (A)
                 (A) (A) (A) (A) (A) (A) (A) (A) (A) (A) (A) (A)
                 (A) (A) (A) (A) (A) (A) (A) (A) (A) (A) (A) (A)
                 (A) (A) (A) (A) (A) (A) (A) (A) (A) (A) (A) (A)
                 (A) (A) (A) (A) (A) (A) (A) (A) (A) (A) (A) (A)
                 (A) (A) (A) (A) (A) (A) (A) (A) (A) (A) (A) (A)
                 (A) (A) (A) (A) (A) (A) (A) (A) (A) (A) (A) (A)
                 (A) (A) (A) (A) (A) (A) (A) (A) (A) (A) (A) (A)
                 (A) (A)
       Virtual   (A) (A) (A) (A) (A) (A) (A) (A) (A) (A) (A) (A)
                 (A) (A) (A) (A) (A) (A) (A) (A) (A) (A) (A) (A)
                 (A) (A) (A) (A) (A) (A) (A) (A) (A) (A) (A) (A)
                 (A) (A) (A) (A) (A) (A) (A) (A) (A) (A) (A) (A)
                 (A) (A) (A) (A) (A) (A) (A) (A) (A) (A) (A) (A)
                 (A) (A) (A) (A) (A) (A) (A) (A) (A) (A) (A) (A)
                 (A) (A) (A) (A) (A) (A) (A) (A) (A) (A) (A) (A)
                 (A) (A) (A) (A) (A) (A) (A) (A) (A) (A) (A) (A)
                 (A) (A) (A) (A) (A) (A) (A) (A) (A) (A) (A) (A)
                 (A) (A) (A) (A) (A) (A) (A) (A) (A) (A) (A) (A)
                 (A) (A) (A) (A) (A) (A) (A) (A) (A) (A) (A) (A)
                 (A) (A) (A) (A) (A) (A) (A) (A) (A) (A) (A) (A)
                 (A) (A) (A) (A) (A) (A) (A) (A) (A) (A) (A) (A)
                 (A) (A) (A) (A) (A) (A) (A) (A) (A) (A) (A) (A)
                 (A) (A) (A) (A) (A) (A) (A) (A) (A) (A) (A) (A)
                 (A) (A) (A) (A) (A) (A) (A) (A) (A) (A) (A) (A)
                 (A) (A) (A) (A) (A) (A) (A) (A) (A) (A) (A) (A)
                 (A) (A) (A) (A) (A) (A) (A) (A) (A) (A) (A) (A)
                 (A) (A) (A) (A) (A) (A) (A) (A) (A) (A) (A) (A)
                 (A) (A) (A) (A) (A) (A) (A) (A) (A) (A) (A) (A)
                 (A) (A) (A) (A) (A) (A) (A) (A) (A) (A) (A) (A)
                 (A) (A) (A) (A) (A) (A) (A) (A) (A) (A) (A) (A)
                 (A) (A) (A) (A) (A) (A) (A) (A) (A) (A) (A) (A)
                 (A) (A) (A) (A) (A) (A) (A) (A) (A) (A) (A) (A)
                 (A) (A) (A) (A) (A) (A) (A) (A) (A) (A) (A) (A)
                 (A) (A) (A) (A) (A) (A) (A) (A) (A) (A) (A) (A)
                 (A) (A) (A) (A) (A) (A) (A) (A) (A) (A) (A) (A)
                 (A) (A) (A) (A) (A) (A) (A) (A) (A) (A) (A) (A)
                 (A) (A) (A) (A) (A) (A) (A) (A) (A) (A) (A) (A)
                 (A) (A) (A) (A) (A) (A) (A) (A) (A) (A) (A) (A)
                 (A) (A) (A) (A) (A) (A) (A) (A) (A) (A) (A) (A)
                 (A) (A) (A) (A) (A) (A) (A) (A) (A) (A) (A) (A)
                 (A) (A) (A) (A) (A) (A) (A) (A) (A) (A) (A) (A)
                 (A) (A) (A) (A) (A) (A) (A) (A) (A) (A) (A) (A)
                 (A) (A) (A) (A) (A) (A) (A) (A) (A) (A) (A) (A)
                 (A) (A) (A) (A) (A) (A) (A) (A) (A) (A) (A) (A)
                 (A) (A) (A) (A) (A) (A) (A) (A) (A) (A) (A) (A)
                 (A) (A) (A) (A) (A) (A) (A) (A) (A) (A) (A) (A)
                 (A) (A) (A) (A) (A) (A) (A) (A) (A) (A) (A) (A)
                 (A) (A) (A) (A) (A) (A) (A) (A) (A) (A) (A) (A)
                 (A) (A) (A) (A) (A) (A) (A) (A) (A) (A) (A) (A)
                 (A) (A) (A) (A) (A) (A) (A) (A) (A) (A) (A) (A)
                 (A) (A) (A) (A) (A) (A) (A) (A) (A) (A) (A) (A)
                 (A) (A) (A) (A) (A) (A) (A) (A) (A) (A) (A) (A)
                 (A) (A) (A) (A) (A) (A) (A) (A) (A) (A) (A) (A)
                 (A) (A) (A) (A) (A) (A) (A) (A) (A) (A) (A) (A)
                 (A) (A) (A) (A) (A) (A) (A) (A) (A) (A) (A) (A)
                 (A) (A) (A) (A) (A) (A) (A) (A) (A) (A) (A) (A)
                 (A) (A) (A) (A) (A) (A) (A) (A) (A) (A) (A) (A)
                 (A) (A) (A) (A) (A) (A) (A) (A) (A) (A) (A) (A)
                 (A) (A) (A) (A) (A) (A) (A) (A) (A) (A) (A) (A)
                 (A) (A) (A) (A) (A) (A) (A) (A) (A) (A) (A) (A)
                 (A) (A) (A) (A) (A) (A) (A) (A) (A) (A) (A) (A)
                 (A) (A) (A) (A) (A) (A) (A) (A) (A) (A) (A) (A)
                 (A) (A) (A) (A) (A) (A) (A) (A) (A) (A) (A) (A)
                 (A) (A) (A) (A) (A) (A) (A) (A) (A) (A) (A) (A)
                 (A) (A) (A) (A) (A) (A) (A) (A) (A) (A) (A) (A)
                 (A) (A) (A) (A) (A) (A) (A) (A) (A) (A) (A) (A)
                 (A) (A) (A) (A) (A) (A) (A) (A) (A) (A) (A) (A)
                 (A) (A) (A) (A) (A) (A) (A) (A) (A) (A) (A) (A)
                 (A) (A) (A) (A) (A) (A) (A) (A) (A) (A) (A) (A)
                 (A) (A) (A) (A) (A) (A) (A) (A) (A) (A) (A) (A)
                 (A) (A) (A) (A) (A) (A) (A) (A) (A) (A) (A) (A)
                 (A) (A) (A) (A) (A) (A) (A) (A) (A) (A) (A) (A)
                 (A) (A) (A) (A) (A) (A) (A) (A) (A) (A) (A) (A)
                 (A) (A) (A) (A) (A) (A) (A) (A) (A) (A) (A) (A)
                 (A) (A) (A) (A) (A) (A) (A) (A) (A) (A) (A) (A)
                 (A) (A) (A) (A) (A) (A) (A) (A) (A) (A) (A) (A)
                 (A) (A) (A) (A) (A) (A) (A) (A) (A) (A) (A) (A)
                 (A) (A) (A) (A) (A) (A) (A) (A) (A) (A) (A) (A)
                 (A) (A) (A) (A) (A) (A) (A) (A) (A) (A) (A) (A)
                 (A) (A) (A) (A) (A) (A) (A) (A) (A) (A) (A) (A)
                 (A) (A) (A) (A) (A) (A) (A) (A) (A) (A) (A) (A)
                 (A) (A) (A) (A) (A) (A) (A) (A) (A) (A) (A) (A)
                 (A) (A) (A) (A) (A) (A) (A) (A) (A) (A) (A) (A)
                 (A) (A) (A) (A) (A) (A) (A) (A) (A) (A) (A) (A)
                 (A) (A) (A) (A) (A) (A) (A) (A) (A) (A) (A) (A)
                 (A) (A) (A) (A) (A) (A) (A) (A) (A) (A) (A) (A)
                 (A) (A) (A) (A) (A) (A) (A) (A) (A) (A) (A) (A)
                 (A) (A) (A) (A) (A) (A) (A) (A) (A) (A) (A) (A)
                 (A) (A) (A) (A) (A) (A) (A) (A) (A) (A) (A) (A)
                 (A) (A) (A) (A) (A) (A) (A) (A) (A) (A) (A) (A)
                 (A) (A) (A) (A) (A) (A) (A) (A) (A) (A) (A) (A)
                 (A) (A) (A) (A) (A) (A) (A) (A) (A) (A) (A) (A)
                 (A) (A) (A) (A) (A) (A) (A) (A) (A) (A) (A) (A)
                 (A) (A) (A) (A) (A) (A) (A) (A) (A) (A) (A) (A)
                 (A) (A) (A) (A) (A) (A) (A) (A) (A) (A) (A) (A)
                 (A) (A) (A) (A) (A) (A) (A) (A) (A) (A) (A) (A)
                 (A) (A) (A) (A) (A) (A) (A) (A) (A) (A) (A) (A)
                 (A) (A) (A) (A) (A) (A) (A) (A) (A) (A) (A) (A)
                 (A) (A) (A) (A) (A) (A) (A) (A) (A) (A) (A) (A)
                 (A) (A) (A) (A) (A) (A) (A) (A) (A) (A) (A) (A)
                 (A) (A) (A) (A) (A) (A) (A) (A) (A) (A) (A) (A)
                 (A) (A) (A) (A) (A) (A) (A) (A) (A) (A) (A) (A)
                 (A) (A) (A) (A) (A) (A) (A) (A) (A) (A) (A) (A)
                 (A) (A) (A) (A) (A) (A) (A) (A) (A) (A) (A) (A)
                 (A) (A) (A) (A) (A) (A) (A) (A) (A) (A) (A) (A)
                 (A) (A) (A) (A) (A) (A) (A) (A) (A) (A) (A) (A)
                 (A) (A) (A) (A) (A) (A) (A) (A) (A) (A) (A) (A)
                 (A) (A) (A) (A) (A) (A) (A) (A) (A) (A) (A) (A)
                 (A) (A) (A) (A) (A) (A) (A) (A) (A) (A) (A) (A)
                 (A) (A) (A) (A) (A) (A) (A) (A) (A) (A) (A) (A)
                 (A) (A) (A) (A) (A) (A) (A) (A) (A) (A) (A) (A)
                 (A) (A) (A) (A) (A) (A) (A) (A) (A) (A) (A) (A)
                 (A) (A) (A) (A) (A) (A) (A) (A) (A) (A) (A) (A)
                 (A) (A) (A) (A) (A) (A) (A) (A) (A) (A) (A) (A)
                 (A) (A) (A) (A) (A) (A) (A) (A) (A) (A) (A) (A)
                 (A) (A) (A) (A) (A) (A) (A) (A) (A) (A) (A) (A)
                 (A) (A) (A) (A) (A) (A) (A) (A) (A) (A) (A) (A)
                 (A) (A) (A) (A) (A) (A) (A) (A) (A) (A) (A) (A)
                 (A) (A) (A) (A) (A) (A) (A) (A) (A) (A) (A) (A)
                 (A) (A) (A) (A) (A) (A) (A) (A) (A) (A) (A) (A)
                 (A) (A) (A) (A) (A) (A) (A) (A) (A) (A) (A) (A)
                 (A) (A) (A) (A) (A) (A) (A) (A) (A) (A) (A) (A)
                 (A) (A) (A) (A) (A) (A)
 The electronic state is 1-A.
 Alpha  occ. eigenvalues -- -256.17494 -30.02463 -25.86633 -25.86229 -25.86203
 Alpha  occ. eigenvalues --  -19.17052 -14.41641 -14.36354 -14.33206 -14.33016
 Alpha  occ. eigenvalues --  -14.32974 -14.32771 -10.25349 -10.23622 -10.21024
 Alpha  occ. eigenvalues --  -10.20781 -10.20722 -10.20721 -10.20704 -10.20650
 Alpha  occ. eigenvalues --  -10.20553 -10.20506 -10.20469 -10.20423 -10.19483
 Alpha  occ. eigenvalues --  -10.19402 -10.18872 -10.18725 -10.18684 -10.18566
 Alpha  occ. eigenvalues --  -10.18559 -10.18508 -10.18434 -10.18413 -10.18364
 Alpha  occ. eigenvalues --  -10.18343 -10.18302 -10.18280 -10.18266 -10.18233
 Alpha  occ. eigenvalues --  -10.18160 -10.18128 -10.18079 -10.18060 -10.18004
 Alpha  occ. eigenvalues --  -10.17992  -3.40053  -2.16696  -2.15912  -2.15842
 Alpha  occ. eigenvalues --   -1.05223  -1.04857  -0.96652  -0.95807  -0.95590
 Alpha  occ. eigenvalues --   -0.94716  -0.90831  -0.82009  -0.81679  -0.81367
 Alpha  occ. eigenvalues --   -0.80534  -0.80186  -0.80147  -0.79386  -0.79292
 Alpha  occ. eigenvalues --   -0.76560  -0.75511  -0.74105  -0.73715  -0.72998
 Alpha  occ. eigenvalues --   -0.71738  -0.70801  -0.69955  -0.68067  -0.67718
 Alpha  occ. eigenvalues --   -0.67629  -0.64492  -0.63926  -0.63832  -0.61203
 Alpha  occ. eigenvalues --   -0.60563  -0.60295  -0.59819  -0.57610  -0.56345
 Alpha  occ. eigenvalues --   -0.55833  -0.54229  -0.53405  -0.53146  -0.52384
 Alpha  occ. eigenvalues --   -0.50865  -0.50800  -0.50313  -0.48540  -0.47752
 Alpha  occ. eigenvalues --   -0.47617  -0.47404  -0.47074  -0.44844  -0.44570
 Alpha  occ. eigenvalues --   -0.44414  -0.44357  -0.43870  -0.43500  -0.43328
 Alpha  occ. eigenvalues --   -0.43185  -0.43106  -0.42853  -0.42635  -0.42508
 Alpha  occ. eigenvalues --   -0.42376  -0.42193  -0.41649  -0.41548  -0.41355
 Alpha  occ. eigenvalues --   -0.41226  -0.41093  -0.40053  -0.39983  -0.39812
 Alpha  occ. eigenvalues --   -0.39355  -0.39320  -0.39087  -0.38811  -0.38438
 Alpha  occ. eigenvalues --   -0.38100  -0.37618  -0.37292  -0.36937  -0.36799
 Alpha  occ. eigenvalues --   -0.36073  -0.35765  -0.35560  -0.35050  -0.34205
 Alpha  occ. eigenvalues --   -0.34103  -0.33747  -0.33491  -0.33262  -0.32179
 Alpha  occ. eigenvalues --   -0.31458  -0.30596  -0.30261  -0.29168  -0.29001
 Alpha  occ. eigenvalues --   -0.28428  -0.26614  -0.26357  -0.24242  -0.23847
 Alpha  occ. eigenvalues --   -0.22919  -0.22573  -0.21876  -0.19048  -0.18281
 Alpha  occ. eigenvalues --   -0.17828  -0.17628  -0.17524
 Alpha virt. eigenvalues --   -0.06386  -0.06216  -0.01792   0.00550   0.01286
 Alpha virt. eigenvalues --    0.01587   0.02399   0.03069   0.03725   0.04530
 Alpha virt. eigenvalues --    0.04978   0.05210   0.05629   0.05847   0.06085
 Alpha virt. eigenvalues --    0.06111   0.06603   0.07197   0.08085   0.08213
 Alpha virt. eigenvalues --    0.08443   0.08975   0.09177   0.09711   0.09797
 Alpha virt. eigenvalues --    0.09923   0.10412   0.10579   0.10926   0.11420
 Alpha virt. eigenvalues --    0.11713   0.11734   0.11894   0.12352   0.12477
 Alpha virt. eigenvalues --    0.12645   0.12792   0.13290   0.13440   0.13510
 Alpha virt. eigenvalues --    0.13794   0.14297   0.14513   0.14717   0.14848
 Alpha virt. eigenvalues --    0.15001   0.15106   0.15413   0.15655   0.15848
 Alpha virt. eigenvalues --    0.15981   0.16182   0.16297   0.16420   0.16692
 Alpha virt. eigenvalues --    0.17009   0.17306   0.17510   0.17973   0.18117
 Alpha virt. eigenvalues --    0.18208   0.18688   0.19338   0.19669   0.19929
 Alpha virt. eigenvalues --    0.19996   0.20161   0.20404   0.20570   0.20992
 Alpha virt. eigenvalues --    0.21219   0.21497   0.21729   0.22206   0.22546
 Alpha virt. eigenvalues --    0.22782   0.22793   0.23276   0.23418   0.23763
 Alpha virt. eigenvalues --    0.24374   0.24716   0.24893   0.25504   0.25611
 Alpha virt. eigenvalues --    0.25864   0.26035   0.26295   0.26455   0.26837
 Alpha virt. eigenvalues --    0.27307   0.27384   0.27608   0.27839   0.27872
 Alpha virt. eigenvalues --    0.28228   0.28839   0.28974   0.29256   0.29534
 Alpha virt. eigenvalues --    0.29895   0.30019   0.30137   0.30412   0.30688
 Alpha virt. eigenvalues --    0.31061   0.31262   0.31420   0.32039   0.32260
 Alpha virt. eigenvalues --    0.32370   0.32840   0.33080   0.33322   0.33650
 Alpha virt. eigenvalues --    0.33777   0.34219   0.34280   0.34555   0.34898
 Alpha virt. eigenvalues --    0.35084   0.35624   0.35982   0.36161   0.36391
 Alpha virt. eigenvalues --    0.36643   0.36984   0.37146   0.37404   0.37678
 Alpha virt. eigenvalues --    0.37920   0.38296   0.38439   0.38634   0.38822
 Alpha virt. eigenvalues --    0.39380   0.39487   0.39521   0.39957   0.40109
 Alpha virt. eigenvalues --    0.40514   0.40815   0.40889   0.40986   0.41292
 Alpha virt. eigenvalues --    0.41381   0.41688   0.41861   0.42046   0.42261
 Alpha virt. eigenvalues --    0.42419   0.42553   0.42909   0.42979   0.43300
 Alpha virt. eigenvalues --    0.43512   0.43700   0.44084   0.44298   0.44403
 Alpha virt. eigenvalues --    0.44862   0.44972   0.45148   0.45225   0.45535
 Alpha virt. eigenvalues --    0.45891   0.45992   0.46403   0.46766   0.46851
 Alpha virt. eigenvalues --    0.47136   0.47208   0.47449   0.47528   0.47709
 Alpha virt. eigenvalues --    0.48056   0.48114   0.48235   0.48548   0.48774
 Alpha virt. eigenvalues --    0.49031   0.49387   0.49575   0.49699   0.49903
 Alpha virt. eigenvalues --    0.50037   0.50272   0.50561   0.50740   0.51181
 Alpha virt. eigenvalues --    0.51343   0.51493   0.51646   0.51790   0.52316
 Alpha virt. eigenvalues --    0.52658   0.52756   0.52790   0.53123   0.53411
 Alpha virt. eigenvalues --    0.53492   0.53819   0.54109   0.54282   0.54512
 Alpha virt. eigenvalues --    0.54900   0.55139   0.55348   0.55805   0.55974
 Alpha virt. eigenvalues --    0.56105   0.56392   0.56585   0.56999   0.57227
 Alpha virt. eigenvalues --    0.57489   0.57613   0.58118   0.58270   0.58474
 Alpha virt. eigenvalues --    0.59084   0.59317   0.59515   0.59845   0.60347
 Alpha virt. eigenvalues --    0.60441   0.60614   0.61043   0.61465   0.61782
 Alpha virt. eigenvalues --    0.62182   0.62598   0.62817   0.62986   0.63335
 Alpha virt. eigenvalues --    0.63431   0.63899   0.64200   0.64471   0.64704
 Alpha virt. eigenvalues --    0.65132   0.65473   0.65745   0.66202   0.66274
 Alpha virt. eigenvalues --    0.66575   0.66796   0.67024   0.67278   0.67692
 Alpha virt. eigenvalues --    0.67928   0.68468   0.68909   0.68926   0.69593
 Alpha virt. eigenvalues --    0.69945   0.70329   0.70699   0.70839   0.71423
 Alpha virt. eigenvalues --    0.71783   0.72075   0.72205   0.72506   0.72701
 Alpha virt. eigenvalues --    0.73200   0.73452   0.73765   0.73896   0.74230
 Alpha virt. eigenvalues --    0.74311   0.74777   0.74829   0.75542   0.76123
 Alpha virt. eigenvalues --    0.76594   0.76896   0.77340   0.77527   0.77811
 Alpha virt. eigenvalues --    0.77897   0.78210   0.78515   0.78912   0.79193
 Alpha virt. eigenvalues --    0.79467   0.79926   0.80164   0.80570   0.80727
 Alpha virt. eigenvalues --    0.81383   0.81509   0.81799   0.82291   0.82802
 Alpha virt. eigenvalues --    0.83155   0.83456   0.83889   0.84270   0.84469
 Alpha virt. eigenvalues --    0.85162   0.85281   0.86120   0.86423   0.86618
 Alpha virt. eigenvalues --    0.86941   0.87303   0.88039   0.88532   0.88616
 Alpha virt. eigenvalues --    0.88847   0.89619   0.89781   0.90299   0.90400
 Alpha virt. eigenvalues --    0.90844   0.91221   0.91339   0.91883   0.92153
 Alpha virt. eigenvalues --    0.92474   0.92997   0.93190   0.93840   0.94178
 Alpha virt. eigenvalues --    0.94683   0.95293   0.95566   0.95710   0.96189
 Alpha virt. eigenvalues --    0.96573   0.96764   0.97095   0.97498   0.97774
 Alpha virt. eigenvalues --    0.98285   0.98622   0.98953   0.99466   0.99708
 Alpha virt. eigenvalues --    0.99834   1.00280   1.00866   1.01397   1.01582
 Alpha virt. eigenvalues --    1.01931   1.02084   1.02372   1.02730   1.02920
 Alpha virt. eigenvalues --    1.03326   1.03391   1.03716   1.03997   1.04244
 Alpha virt. eigenvalues --    1.04545   1.04798   1.04871   1.05573   1.05709
 Alpha virt. eigenvalues --    1.06024   1.06260   1.06770   1.07310   1.08054
 Alpha virt. eigenvalues --    1.08324   1.08368   1.08892   1.09003   1.09931
 Alpha virt. eigenvalues --    1.10617   1.11096   1.11183   1.11568   1.12466
 Alpha virt. eigenvalues --    1.12754   1.13133   1.13427   1.13572   1.14193
 Alpha virt. eigenvalues --    1.14390   1.15196   1.16068   1.16260   1.16745
 Alpha virt. eigenvalues --    1.16915   1.17817   1.18107   1.18626   1.18714
 Alpha virt. eigenvalues --    1.18757   1.19399   1.19727   1.19954   1.20468
 Alpha virt. eigenvalues --    1.20584   1.21120   1.21629   1.21695   1.22063
 Alpha virt. eigenvalues --    1.22774   1.23373   1.23778   1.24341   1.24549
 Alpha virt. eigenvalues --    1.24844   1.25352   1.25959   1.26486   1.26820
 Alpha virt. eigenvalues --    1.27445   1.27549   1.27960   1.28462   1.28603
 Alpha virt. eigenvalues --    1.29334   1.29689   1.29967   1.30405   1.30481
 Alpha virt. eigenvalues --    1.30891   1.31298   1.31578   1.32029   1.32372
 Alpha virt. eigenvalues --    1.32466   1.32595   1.33439   1.34256   1.34646
 Alpha virt. eigenvalues --    1.35405   1.36257   1.36582   1.37120   1.37859
 Alpha virt. eigenvalues --    1.38543   1.38878   1.39361   1.39893   1.40321
 Alpha virt. eigenvalues --    1.40746   1.41243   1.41785   1.42404   1.42731
 Alpha virt. eigenvalues --    1.43377   1.43769   1.44477   1.44532   1.45643
 Alpha virt. eigenvalues --    1.46187   1.46513   1.47244   1.47664   1.47806
 Alpha virt. eigenvalues --    1.47919   1.48460   1.48817   1.49057   1.49251
 Alpha virt. eigenvalues --    1.49608   1.50090   1.50482   1.50742   1.51156
 Alpha virt. eigenvalues --    1.51219   1.51454   1.51618   1.51799   1.52204
 Alpha virt. eigenvalues --    1.52344   1.52655   1.53115   1.53290   1.53698
 Alpha virt. eigenvalues --    1.54069   1.54164   1.54333   1.54572   1.54965
 Alpha virt. eigenvalues --    1.55127   1.55364   1.55533   1.55828   1.55942
 Alpha virt. eigenvalues --    1.56130   1.56561   1.56741   1.57348   1.57536
 Alpha virt. eigenvalues --    1.57595   1.58193   1.58402   1.58616   1.58802
 Alpha virt. eigenvalues --    1.58901   1.59300   1.59543   1.59758   1.59998
 Alpha virt. eigenvalues --    1.60449   1.60927   1.61472   1.61631   1.62278
 Alpha virt. eigenvalues --    1.62395   1.62610   1.62681   1.63279   1.63959
 Alpha virt. eigenvalues --    1.64103   1.64148   1.64717   1.64909   1.64991
 Alpha virt. eigenvalues --    1.65276   1.65842   1.66008   1.66481   1.66979
 Alpha virt. eigenvalues --    1.67196   1.67468   1.67598   1.68020   1.68469
 Alpha virt. eigenvalues --    1.68814   1.69069   1.69821   1.70017   1.70356
 Alpha virt. eigenvalues --    1.70694   1.71000   1.71188   1.71628   1.71841
 Alpha virt. eigenvalues --    1.71969   1.72775   1.73371   1.73448   1.73890
 Alpha virt. eigenvalues --    1.74087   1.75086   1.75280   1.75821   1.76510
 Alpha virt. eigenvalues --    1.77430   1.78097   1.78134   1.79247   1.79529
 Alpha virt. eigenvalues --    1.79942   1.80283   1.81330   1.82000   1.82303
 Alpha virt. eigenvalues --    1.82748   1.82961   1.84073   1.84165   1.84444
 Alpha virt. eigenvalues --    1.84963   1.85263   1.86010   1.86220   1.86466
 Alpha virt. eigenvalues --    1.86608   1.87124   1.87651   1.88031   1.88278
 Alpha virt. eigenvalues --    1.88663   1.89110   1.89507   1.89741   1.90517
 Alpha virt. eigenvalues --    1.91005   1.91800   1.92155   1.92782   1.93382
 Alpha virt. eigenvalues --    1.93734   1.94447   1.94714   1.95201   1.95708
 Alpha virt. eigenvalues --    1.96104   1.96358   1.97066   1.97385   1.97967
 Alpha virt. eigenvalues --    1.98455   1.99037   1.99044   1.99530   2.00004
 Alpha virt. eigenvalues --    2.00409   2.00613   2.00710   2.01240   2.01874
 Alpha virt. eigenvalues --    2.02431   2.02748   2.03866   2.04154   2.04408
 Alpha virt. eigenvalues --    2.05233   2.05760   2.06301   2.06634   2.07231
 Alpha virt. eigenvalues --    2.07624   2.08125   2.08726   2.09207   2.09428
 Alpha virt. eigenvalues --    2.09879   2.10015   2.10311   2.11462   2.11810
 Alpha virt. eigenvalues --    2.11861   2.12974   2.13246   2.13878   2.14158
 Alpha virt. eigenvalues --    2.14348   2.14684   2.15405   2.15798   2.15944
 Alpha virt. eigenvalues --    2.16618   2.17060   2.17247   2.17755   2.18421
 Alpha virt. eigenvalues --    2.18687   2.19088   2.19509   2.20108   2.20618
 Alpha virt. eigenvalues --    2.20666   2.20769   2.21329   2.21465   2.22682
 Alpha virt. eigenvalues --    2.22853   2.23944   2.24156   2.25145   2.25306
 Alpha virt. eigenvalues --    2.25967   2.26133   2.26742   2.26980   2.27655
 Alpha virt. eigenvalues --    2.27826   2.28128   2.28620   2.28905   2.29330
 Alpha virt. eigenvalues --    2.29954   2.30659   2.30881   2.31438   2.31769
 Alpha virt. eigenvalues --    2.32392   2.32575   2.33523   2.33621   2.34001
 Alpha virt. eigenvalues --    2.34301   2.35016   2.35325   2.35695   2.36040
 Alpha virt. eigenvalues --    2.36842   2.37214   2.37444   2.37646   2.38173
 Alpha virt. eigenvalues --    2.38522   2.38933   2.39492   2.40104   2.40484
 Alpha virt. eigenvalues --    2.40903   2.41208   2.41674   2.42206   2.42603
 Alpha virt. eigenvalues --    2.43112   2.43458   2.43863   2.44337   2.45049
 Alpha virt. eigenvalues --    2.45243   2.45434   2.45872   2.46008   2.46884
 Alpha virt. eigenvalues --    2.47298   2.47926   2.48367   2.48473   2.49266
 Alpha virt. eigenvalues --    2.49636   2.50089   2.50369   2.50759   2.51380
 Alpha virt. eigenvalues --    2.52345   2.52633   2.53115   2.53190   2.53453
 Alpha virt. eigenvalues --    2.53912   2.54094   2.54686   2.55279   2.55995
 Alpha virt. eigenvalues --    2.56162   2.56334   2.56603   2.56833   2.57163
 Alpha virt. eigenvalues --    2.57508   2.57775   2.58047   2.58378   2.59278
 Alpha virt. eigenvalues --    2.59461   2.60153   2.60290   2.60797   2.60929
 Alpha virt. eigenvalues --    2.61101   2.61437   2.61923   2.62514   2.62639
 Alpha virt. eigenvalues --    2.63395   2.63971   2.64674   2.65318   2.65532
 Alpha virt. eigenvalues --    2.65859   2.65929   2.66195   2.66608   2.67309
 Alpha virt. eigenvalues --    2.67832   2.68188   2.68244   2.68605   2.69150
 Alpha virt. eigenvalues --    2.69566   2.69917   2.70265   2.70456   2.70730
 Alpha virt. eigenvalues --    2.71127   2.71348   2.71950   2.72165   2.72874
 Alpha virt. eigenvalues --    2.73566   2.73953   2.75090   2.75445   2.75781
 Alpha virt. eigenvalues --    2.76013   2.76285   2.76692   2.76814   2.77387
 Alpha virt. eigenvalues --    2.78363   2.78545   2.78830   2.79301   2.79806
 Alpha virt. eigenvalues --    2.79968   2.80419   2.80672   2.81493   2.81882
 Alpha virt. eigenvalues --    2.82365   2.82669   2.83106   2.83608   2.83781
 Alpha virt. eigenvalues --    2.84086   2.84651   2.84887   2.85498   2.86027
 Alpha virt. eigenvalues --    2.86314   2.86826   2.87117   2.87640   2.87740
 Alpha virt. eigenvalues --    2.87755   2.88827   2.89627   2.89913   2.90245
 Alpha virt. eigenvalues --    2.90364   2.90808   2.90869   2.91385   2.91917
 Alpha virt. eigenvalues --    2.92116   2.92625   2.93095   2.93592   2.93883
 Alpha virt. eigenvalues --    2.94132   2.94634   2.94920   2.95287   2.95450
 Alpha virt. eigenvalues --    2.95794   2.96161   2.96370   2.97081   2.97315
 Alpha virt. eigenvalues --    2.97495   2.97899   2.98043   2.98397   2.98895
 Alpha virt. eigenvalues --    2.99201   2.99521   3.00104   3.00651   3.00776
 Alpha virt. eigenvalues --    3.01097   3.01477   3.01955   3.02176   3.02923
 Alpha virt. eigenvalues --    3.03151   3.03760   3.03979   3.04408   3.05284
 Alpha virt. eigenvalues --    3.06062   3.06223   3.06479   3.06623   3.06949
 Alpha virt. eigenvalues --    3.07557   3.07704   3.08013   3.08532   3.08640
 Alpha virt. eigenvalues --    3.08834   3.08853   3.09393   3.09930   3.10439
 Alpha virt. eigenvalues --    3.10836   3.11164   3.11325   3.11760   3.12052
 Alpha virt. eigenvalues --    3.12539   3.12849   3.12964   3.13341   3.13548
 Alpha virt. eigenvalues --    3.13853   3.14282   3.14566   3.14900   3.15142
 Alpha virt. eigenvalues --    3.15719   3.16122   3.16427   3.16574   3.17042
 Alpha virt. eigenvalues --    3.17343   3.17849   3.17984   3.18211   3.18932
 Alpha virt. eigenvalues --    3.19190   3.19752   3.19788   3.20183   3.20683
 Alpha virt. eigenvalues --    3.20907   3.21443   3.21716   3.22103   3.22364
 Alpha virt. eigenvalues --    3.22772   3.22987   3.23276   3.23339   3.23678
 Alpha virt. eigenvalues --    3.24105   3.24311   3.24704   3.25191   3.25670
 Alpha virt. eigenvalues --    3.25765   3.25812   3.26301   3.26747   3.26864
 Alpha virt. eigenvalues --    3.27173   3.27427   3.27530   3.27748   3.27975
 Alpha virt. eigenvalues --    3.28382   3.28733   3.28995   3.29292   3.29697
 Alpha virt. eigenvalues --    3.30019   3.30138   3.30259   3.30658   3.30694
 Alpha virt. eigenvalues --    3.30876   3.31096   3.31772   3.32049   3.32339
 Alpha virt. eigenvalues --    3.32578   3.32634   3.33226   3.33695   3.33887
 Alpha virt. eigenvalues --    3.34032   3.34333   3.34646   3.35270   3.35494
 Alpha virt. eigenvalues --    3.35592   3.35889   3.36085   3.36414   3.36882
 Alpha virt. eigenvalues --    3.36939   3.37354   3.37697   3.37871   3.38164
 Alpha virt. eigenvalues --    3.38497   3.38692   3.38770   3.39276   3.39503
 Alpha virt. eigenvalues --    3.39908   3.39989   3.40223   3.40690   3.40771
 Alpha virt. eigenvalues --    3.41381   3.41931   3.42265   3.42439   3.43040
 Alpha virt. eigenvalues --    3.43709   3.44098   3.44271   3.44836   3.45228
 Alpha virt. eigenvalues --    3.45471   3.46090   3.46299   3.46789   3.47128
 Alpha virt. eigenvalues --    3.47574   3.47992   3.48582   3.48958   3.49430
 Alpha virt. eigenvalues --    3.50004   3.50637   3.50705   3.51404   3.51423
 Alpha virt. eigenvalues --    3.52477   3.53165   3.53485   3.53692   3.54370
 Alpha virt. eigenvalues --    3.54620   3.55124   3.55369   3.55712   3.56021
 Alpha virt. eigenvalues --    3.56344   3.56782   3.57310   3.57902   3.58195
 Alpha virt. eigenvalues --    3.58878   3.59476   3.59592   3.60093   3.60465
 Alpha virt. eigenvalues --    3.60635   3.61184   3.62164   3.62457   3.62811
 Alpha virt. eigenvalues --    3.63248   3.64062   3.65013   3.65380   3.65602
 Alpha virt. eigenvalues --    3.66506   3.66689   3.66931   3.67332   3.68430
 Alpha virt. eigenvalues --    3.68482   3.68996   3.69492   3.69791   3.70290
 Alpha virt. eigenvalues --    3.70702   3.71329   3.71515   3.71678   3.71876
 Alpha virt. eigenvalues --    3.72379   3.72597   3.73314   3.73677   3.74398
 Alpha virt. eigenvalues --    3.74760   3.74918   3.75167   3.75292   3.75730
 Alpha virt. eigenvalues --    3.76478   3.77404   3.77552   3.78074   3.78692
 Alpha virt. eigenvalues --    3.79277   3.79782   3.80329   3.80844   3.81423
 Alpha virt. eigenvalues --    3.81683   3.82548   3.83124   3.83735   3.83989
 Alpha virt. eigenvalues --    3.84549   3.85120   3.86013   3.86912   3.87130
 Alpha virt. eigenvalues --    3.87368   3.88866   3.88979   3.89614   3.90441
 Alpha virt. eigenvalues --    3.90853   3.91244   3.91355   3.91544   3.91885
 Alpha virt. eigenvalues --    3.92973   3.93564   3.94435   3.94781   3.95559
 Alpha virt. eigenvalues --    3.96706   3.97078   3.97599   3.98003   3.99243
 Alpha virt. eigenvalues --    3.99501   4.00363   4.01018   4.01373   4.01541
 Alpha virt. eigenvalues --    4.01912   4.02365   4.03259   4.03727   4.04553
 Alpha virt. eigenvalues --    4.05510   4.05699   4.05826   4.06319   4.06658
 Alpha virt. eigenvalues --    4.07181   4.08724   4.09837   4.10310   4.10554
 Alpha virt. eigenvalues --    4.11143   4.11291   4.12240   4.13775   4.14111
 Alpha virt. eigenvalues --    4.14934   4.15630   4.16338   4.17208   4.17491
 Alpha virt. eigenvalues --    4.17874   4.18286   4.18505   4.19568   4.19629
 Alpha virt. eigenvalues --    4.19922   4.20133   4.20489   4.21284   4.22020
 Alpha virt. eigenvalues --    4.22300   4.23038   4.23569   4.24056   4.24882
 Alpha virt. eigenvalues --    4.25881   4.26340   4.26688   4.27775   4.27956
 Alpha virt. eigenvalues --    4.29438   4.29604   4.29825   4.30255   4.30554
 Alpha virt. eigenvalues --    4.31480   4.32095   4.32705   4.33379   4.33789
 Alpha virt. eigenvalues --    4.34361   4.35218   4.35405   4.35611   4.36399
 Alpha virt. eigenvalues --    4.36797   4.37992   4.38812   4.39271   4.39827
 Alpha virt. eigenvalues --    4.40874   4.41118   4.41780   4.41899   4.42190
 Alpha virt. eigenvalues --    4.43240   4.43600   4.44373   4.44826   4.45163
 Alpha virt. eigenvalues --    4.45413   4.45858   4.46244   4.46733   4.47351
 Alpha virt. eigenvalues --    4.48306   4.48945   4.49342   4.50394   4.50434
 Alpha virt. eigenvalues --    4.51265   4.51713   4.52240   4.53155   4.53996
 Alpha virt. eigenvalues --    4.55329   4.55741   4.56770   4.57237   4.57526
 Alpha virt. eigenvalues --    4.58681   4.58756   4.59941   4.61847   4.63564
 Alpha virt. eigenvalues --    4.64322   4.65545   4.65916   4.66993   4.68551
 Alpha virt. eigenvalues --    4.69258   4.69348   4.70032   4.70531   4.71508
 Alpha virt. eigenvalues --    4.72119   4.72773   4.73089   4.73562   4.75009
 Alpha virt. eigenvalues --    4.75651   4.75874   4.76875   4.78026   4.80201
 Alpha virt. eigenvalues --    4.81135   4.81672   4.82539   4.83094   4.84026
 Alpha virt. eigenvalues --    4.84353   4.84916   4.84981   4.85287   4.86602
 Alpha virt. eigenvalues --    4.87381   4.87817   4.87977   4.89470   4.90575
 Alpha virt. eigenvalues --    4.90865   4.92381   4.93629   4.94106   4.94627
 Alpha virt. eigenvalues --    4.95542   4.96001   4.96531   4.97535   4.98323
 Alpha virt. eigenvalues --    4.98787   4.99822   5.01527   5.01822   5.02369
 Alpha virt. eigenvalues --    5.03132   5.04352   5.04982   5.06414   5.06621
 Alpha virt. eigenvalues --    5.07377   5.07839   5.08310   5.09517   5.10429
 Alpha virt. eigenvalues --    5.10695   5.11225   5.14361   5.14907   5.16821
 Alpha virt. eigenvalues --    5.19240   5.19767   5.20302   5.21012   5.21503
 Alpha virt. eigenvalues --    5.22017   5.23034   5.23565   5.24914   5.25766
 Alpha virt. eigenvalues --    5.26861   5.28503   5.29754   5.30784   5.31558
 Alpha virt. eigenvalues --    5.33599   5.36412   5.36870   5.37381   5.38684
 Alpha virt. eigenvalues --    5.39670   5.40238   5.40634   5.41092   5.41310
 Alpha virt. eigenvalues --    5.41786   5.43111   5.43917   5.45212   5.47410
 Alpha virt. eigenvalues --    5.49072   5.50198   5.50472   5.51212   5.52622
 Alpha virt. eigenvalues --    5.53031   5.53508   5.56937   5.57773   5.60290
 Alpha virt. eigenvalues --    5.61289   5.62208   5.63236   5.64122   5.64444
 Alpha virt. eigenvalues --    5.66184   5.66450   5.67783   5.68538   5.69601
 Alpha virt. eigenvalues --    5.71010   5.74746   5.76918   5.77785   5.78567
 Alpha virt. eigenvalues --    5.81257   5.83191   5.88894   5.92866   5.93713
 Alpha virt. eigenvalues --    5.94449   5.97471   6.02411   6.03319   6.03584
 Alpha virt. eigenvalues --    6.08959   6.10655   6.13548   6.13862   6.15210
 Alpha virt. eigenvalues --    6.17683   6.19481   6.24848   6.27476   6.34195
 Alpha virt. eigenvalues --    6.35092   6.41159   6.47968   6.51566   6.53633
 Alpha virt. eigenvalues --    6.67910   6.97844   7.28717  22.36568  22.37165
 Alpha virt. eigenvalues --   22.44017  22.46224  22.47043  22.52933  22.53547
 Alpha virt. eigenvalues --   22.62843  22.63197  22.78137  22.85465  22.87708
 Alpha virt. eigenvalues --   22.91214  22.94098  22.95353  22.96350  22.98020
 Alpha virt. eigenvalues --   23.04356  23.04884  23.08458  23.15906  23.27236
 Alpha virt. eigenvalues --   23.28871  23.31357  23.31670  23.42023  23.43154
 Alpha virt. eigenvalues --   23.51555  23.52370  23.56502  23.75322  23.80559
 Alpha virt. eigenvalues --   23.81200  23.90744  32.41044  32.74764  32.90068
 Alpha virt. eigenvalues --   32.98470  33.03341  33.13763  44.08241
          Condensed to atoms (all electrons):
 Mulliken charges:
               1
     1  Fe  -0.251244
     2  N   -0.042730
     3  N   -0.024141
     4  N   -0.078937
     5  N    0.019577
     6  C    0.237983
     7  C   -0.050845
     8  C   -0.031867
     9  C    0.222001
    10  C    0.282009
    11  C   -0.071998
    12  C   -0.012461
    13  C    0.179564
    14  C    0.217346
    15  C    0.034135
    16  C   -0.033622
    17  C    0.221199
    18  C    0.204156
    19  C    0.047661
    20  C   -0.040117
    21  C    0.259081
    22  C   -0.440040
    23  H    0.129346
    24  C   -0.532963
    25  H    0.134864
    26  C   -0.412501
    27  H    0.115619
    28  C   -0.490467
    29  H    0.111241
    30  C   -0.416747
    31  H    0.135510
    32  H    0.135050
    33  H    0.118627
    34  C   -0.413573
    35  H    0.130259
    36  H    0.134625
    37  H    0.120229
    38  C   -0.454777
    39  H    0.126347
    40  H    0.142411
    41  H    0.155065
    42  C   -0.211146
    43  H    0.110007
    44  C   -0.288692
    45  H    0.139248
    46  H    0.120851
    47  C   -0.448960
    48  H    0.127195
    49  H    0.142092
    50  H    0.156491
    51  C   -0.208857
    52  H    0.113093
    53  C   -0.285764
    54  H    0.138223
    55  H    0.121475
    56  C   -0.417960
    57  H    0.135166
    58  H    0.137884
    59  H    0.118104
    60  C   -0.414659
    61  H    0.128994
    62  H    0.119769
    63  H    0.136330
    64  O   -0.576153
    65  H    0.360339
    66  H    0.324822
    67  C   -0.391715
    68  H    0.136413
    69  H    0.146601
    70  H    0.133240
    71  N   -0.232285
    72  H    0.234854
    73  C    0.175941
    74  C    0.005771
    75  H    0.176113
    76  N    0.085300
    77  C   -0.224884
    78  H    0.161884
 Sum of Mulliken charges =  -0.00000
 Mulliken charges with hydrogens summed into heavy atoms:
               1
     1  Fe  -0.251244
     2  N   -0.042730
     3  N   -0.024141
     4  N   -0.078937
     5  N    0.019577
     6  C    0.237983
     7  C   -0.050845
     8  C   -0.031867
     9  C    0.222001
    10  C    0.282009
    11  C   -0.071998
    12  C   -0.012461
    13  C    0.179564
    14  C    0.217346
    15  C    0.034135
    16  C   -0.033622
    17  C    0.221199
    18  C    0.204156
    19  C    0.047661
    20  C   -0.040117
    21  C    0.259081
    22  C   -0.310693
    24  C   -0.398099
    26  C   -0.296882
    28  C   -0.379226
    30  C   -0.027560
    34  C   -0.028460
    38  C   -0.030953
    42  C   -0.101139
    44  C   -0.028593
    47  C   -0.023182
    51  C   -0.095764
    53  C   -0.026066
    56  C   -0.026805
    60  C   -0.029567
    64  O    0.109008
    67  C    0.024539
    71  N    0.002569
    73  C    0.175941
    74  C    0.181884
    76  N    0.085300
    77  C   -0.063000
 Electronic spatial extent (au):  <R**2>=          20073.2653
 Charge=             -0.0000 electrons
 Dipole moment (field-independent basis, Debye):
    X=              2.1206    Y=             -0.7762    Z=              3.2283  Tot=              3.9397
 Quadrupole moment (field-independent basis, Debye-Ang):
   XX=           -239.7078   YY=           -246.4003   ZZ=           -222.3616
   XY=             -2.7607   XZ=              4.6173   YZ=             -2.6087
 Traceless Quadrupole moment (field-independent basis, Debye-Ang):
   XX=             -3.5512   YY=            -10.2437   ZZ=             13.7949
   XY=             -2.7607   XZ=              4.6173   YZ=             -2.6087
 Octapole moment (field-independent basis, Debye-Ang**2):
  XXX=             42.9694  YYY=            -19.4573  ZZZ=            103.9837  XYY=             28.5085
  XXY=              3.8182  XXZ=              8.7094  XZZ=             34.2413  YZZ=            -17.9431
  YYZ=            -17.8188  XYZ=             -1.5364
 Hexadecapole moment (field-independent basis, Debye-Ang**3):
 XXXX=         -11872.1093 YYYY=         -11720.3111 ZZZZ=          -2836.4759 XXXY=            -33.2775
 XXXZ=              1.8638 YYYX=             33.2138 YYYZ=             58.7359 ZZZX=             93.6511
 ZZZY=            -81.9117 XXYY=          -4000.2107 XXZZ=          -2605.5060 YYZZ=          -2678.3986
 XXYZ=            -20.6561 YYXZ=             67.1510 ZZXY=            -39.3466
 N-N= 5.959979586227D+03 E-N=-1.893428511759D+04  KE= 2.973859652173D+03
  Exact polarizability:     710.800      -0.659     703.389       9.168       5.415     315.176
 Approx polarizability:    1326.504      -8.640    1290.830      14.775      29.580     499.506

 ----------------------------------------------------------------------

 Electric dipole moment (input orientation):
 (Debye = 10**-18 statcoulomb cm , SI units = C m)
                  (au)            (Debye)         (10**-30 SI)
   Tot        0.154998D+01      0.393967D+01      0.131413D+02
   x          0.292507D+00      0.743480D+00      0.247998D+01
   y         -0.141539D+01     -0.359755D+01     -0.120001D+02
   z         -0.559976D+00     -0.142332D+01     -0.474767D+01

 Dipole polarizability, Alpha (input orientation).
 (esu units = cm**3 , SI units = C**2 m**2 J**-1)
 Alpha(0;0):
               (au)            (10**-24 esu)      (10**-40 SI)
   iso        0.576455D+03      0.854218D+02      0.950446D+02
   aniso      0.392407D+03      0.581487D+02      0.646991D+02
   xx         0.649483D+03      0.962435D+02      0.107085D+03
   yx        -0.117460D+03     -0.174058D+02     -0.193666D+02
   yy         0.482139D+03      0.714456D+02      0.794940D+02
   zx        -0.768889D+02     -0.113938D+02     -0.126773D+02
   zy        -0.155814D+03     -0.230893D+02     -0.256903D+02
   zz         0.597743D+03      0.885764D+02      0.985545D+02

 First dipole hyperpolarizability, Beta (input orientation).
 ||, _|_  parallel and perpendicular components, (z) with respect to z axis,
 vector components x,y,z.  Values do not include the 1/n! factor of 1/2.
 (esu units = statvolt**-1 cm**4 , SI units = C**3 m**3 J**-2)
 Beta(0;0,0):
               (au)            (10**-30 esu)      (10**-50 SI)
   || (z)    -0.236994D+03     -0.204744D+01     -0.759887D+00
   _|_(z)    -0.789978D+02     -0.682480D+00     -0.253296D+00
   x         -0.435961D+04     -0.376637D+02     -0.139785D+02
   y          0.308820D+04      0.266797D+02      0.990190D+01
   z         -0.118497D+04     -0.102372D+02     -0.379943D+01
   ||         0.109448D+04      0.945549D+01      0.350931D+01
   xxx       -0.631765D+03     -0.545796D+01     -0.202567D+01
   xxy        0.888274D+02      0.767400D+00      0.284813D+00
   yxy       -0.190950D+03     -0.164966D+01     -0.612253D+00
   yyy        0.356765D+03      0.308217D+01      0.114392D+01
   xxz        0.620757D+03      0.536286D+01      0.199037D+01
   yxz       -0.471574D+02     -0.407403D+00     -0.151204D+00
   yyz       -0.623045D+03     -0.538262D+01     -0.199771D+01
   zxz       -0.630489D+03     -0.544694D+01     -0.202158D+01
   zyz        0.583809D+03      0.504365D+01      0.187190D+01
   zzz       -0.392701D+03     -0.339263D+01     -0.125914D+01

 ----------------------------------------------------------------------

 Dipole orientation:
    26         69.36990892          6.52329594         -1.42211905
     7         72.62731923          5.29696925          0.04546344
     7         70.23835546         10.04702778         -0.26308211
     7         66.27284841          7.91587798         -3.17522005
     7         68.59731650          3.08742233         -2.73782992
     6         73.42606082          2.85418190          0.11258782
     6         75.73914511          2.63238111          1.55291966
     6         76.33296868          5.00805551          2.33231145
     6         74.35793550          6.64103593          1.38211312
     6         72.38977834         10.80449838          0.92311877
     6         72.42462711         13.51695220          1.25022834
     6         70.31971824         14.40336637          0.07651195
     6         69.04707052         12.21749879         -0.96838019
     6         65.57861284         10.37134406         -3.41324815
     6         63.45430982         10.63271721         -5.11766329
     6         62.89694736          8.23671076         -5.92908893
     6         64.70241110          6.58865908         -4.73499322
     6         66.63558224          2.39560128         -4.24023936
     6         66.66488362         -0.30881420         -4.69097068
     6         68.81661104         -1.19120410         -3.55615329
     6         70.01174814          0.96700515         -2.39890333
     6         72.20976754          0.82582817         -0.98971150
     1         73.09968098         -1.00112048         -0.81451624
     6         74.25625201          9.21437704          1.82619057
     1         75.80132464         10.05734793          2.85783395
     6         66.77946156         12.38063181         -2.24932375
     1         66.03182501         14.24784276         -2.58791755
     6         64.80023143          4.00752744         -5.16028444
     1         63.38998509          3.21204028         -6.40138557
     6         77.11338798          0.21363794          1.99327822
     1         77.68764243         -0.62951813          0.20323881
     1         75.90607570         -1.13615914          2.97577879
     1         78.79627725          0.52369108          3.13069919
     6         78.52443895          5.89032889          3.86704103
     1         77.88231937          6.76048888          5.62131362
     1         79.62039938          7.29041179          2.82626663
     1         79.76413705          4.32161973          4.34008907
     6         69.72788654         -3.84624163         -3.36228881
     1         70.52213019         -4.21152698         -1.49933398
     1         71.19140313         -4.22623452         -4.76492645
     1         68.17049731         -5.15083508         -3.67993242
     6         64.75588588         -1.67290427         -6.09220983
     1         62.85096468         -0.93489759         -5.93429739
     6         65.15668079         -3.69941262         -7.52155079
     1         67.01703041         -4.46256021         -7.82274491
     1         63.63028951         -4.64061584         -8.48623182
     6         60.81113307          7.40749484         -7.62635811
     1         59.99172664          5.63942699         -6.96463363
     1         61.49429421          7.11076032         -9.54985160
     1         59.33455460          8.83772964         -7.67584211
     6         62.23471379         12.99942391         -5.73351131
     1         62.19317491         14.38888545         -4.22892549
     6         61.21153948         13.57868230         -7.95295812
     1         61.27827829         12.31014376         -9.54107451
     1         60.30933829         15.37566887         -8.27331844
     6         69.42728312         17.05872489         -0.21468410
     1         67.53662286         17.27886707          0.57422044
     1         69.35379673         17.58581798         -2.20561695
     1         70.68710817         18.36276118          0.75278158
     6         74.45505901         14.93219897          2.59536804
     1         74.62399810         14.28593918          4.54477029
     1         74.05159847         16.94668867          2.61500534
     1         76.27308960         14.64532751          1.66903874
     8         71.33514249          7.35148792         -5.14560132
     1         70.02848065          7.76753319         -6.32483265
     1         72.99014745          7.41566512         -5.43178056
     6         62.07057242          3.84541887          5.65160440
     1         62.45113447          2.20264164          6.83541019
     1         60.69575487          3.31877688          4.22308577
     1         61.26035403          5.32089398          6.83823831
     7         66.43283995          5.67800624          5.74389657
     1         66.52677814          5.85250687          7.63602954
     6         64.41990901          4.74467438          4.40821688
     6         68.24798214          6.32024795          4.06208092
     1         70.04065687          7.11036912          4.56756472
     7         67.50650178          5.84753639          1.74594087
     6         65.12991287          4.86608099          1.93050737
     1         64.09843692          4.32130834          0.27837300

 Electric dipole moment (dipole orientation):
 (Debye = 10**-18 statcoulomb cm , SI units = C m)
                  (au)            (Debye)         (10**-30 SI)
   Tot        0.154998D+01      0.393967D+01      0.131413D+02
   x          0.000000D+00      0.000000D+00      0.000000D+00
   y          0.000000D+00      0.000000D+00      0.000000D+00
   z          0.154998D+01      0.393967D+01      0.131413D+02

 Dipole polarizability, Alpha (dipole orientation).
 (esu units = cm**3 , SI units = C**2 m**2 J**-1)
 Alpha(0;0):
               (au)            (10**-24 esu)      (10**-40 SI)
   iso        0.576455D+03      0.854218D+02      0.950446D+02
   aniso      0.392407D+03      0.581487D+02      0.646991D+02
   xx         0.580291D+03      0.859903D+02      0.956771D+02
   yx        -0.276656D+02     -0.409962D+01     -0.456145D+01
   yy         0.697726D+03      0.103392D+03      0.115039D+03
   zx         0.182811D+03      0.270898D+02      0.301415D+02
   zy         0.442247D+02      0.655343D+01      0.729167D+01
   zz         0.451348D+03      0.668828D+02      0.744172D+02

 First dipole hyperpolarizability, Beta (dipole orientation).
 ||, _|_  parallel and perpendicular components, (z) with respect to z axis,
 vector components x,y,z.  Values do not include the 1/n! factor of 1/2.
 (esu units = statvolt**-1 cm**4 , SI units = C**3 m**3 J**-2)
 Beta(0;0,0):
               (au)            (10**-30 esu)      (10**-50 SI)
   || (z)    -0.642931D+03     -0.555442D+01     -0.206147D+01
   _|_(z)    -0.214310D+03     -0.185147D+01     -0.687157D+00
   x         -0.407823D+04     -0.352328D+02     -0.130763D+02
   y         -0.172666D+04     -0.149170D+02     -0.553631D+01
   z         -0.321466D+04     -0.277721D+02     -0.103073D+02
   ||         0.109448D+04      0.945549D+01      0.350931D+01
   xxx       -0.298976D+03     -0.258292D+01     -0.958625D+00
   xxy        0.360215D+03      0.311198D+01      0.115498D+01
   yxy       -0.654030D+03     -0.565031D+01     -0.209706D+01
   yyy       -0.917063D+03     -0.792271D+01     -0.294043D+01
   xxz       -0.212423D+03     -0.183517D+01     -0.681104D+00
   yxz        0.239840D+03      0.207203D+01      0.769014D+00
   yyz       -0.769104D+03     -0.664446D+01     -0.246603D+01
   zxz       -0.406405D+03     -0.351103D+01     -0.130308D+01
   zyz       -0.187073D+02     -0.161617D+00     -0.599824D-01
   zzz       -0.900249D+02     -0.777745D+00     -0.288652D+00

 ----------------------------------------------------------------------
 Unable to Open any file for archive entry.
 1\1\GINC-BGN1015\SP\RAPFD\def2TZVP\C34H36Fe1N6O1\BECSLEIP\05-Sep-2024\
 0\\# polar def2tzvp apfd int=(grid=ultrafine)\\2spm_II_S\\0,1\Fe,0,35.
 1695749112,3.9968715063,10.3516838043\N,0,37.0769365991,3.7573420866,9
 .8038195153\N,0,35.4968048874,2.7725218687,11.9195782693\N,0,33.305196
 1067,4.3510257916,11.0504854985\N,0,34.8702099104,5.2853379579,8.86576
 99661\C,0,37.6589005913,4.2792457635,8.6903384657\C,0,39.0096052858,3.
 7836712107,8.5387906373\C,0,39.2343086145,2.9597584763,9.5970715451\C,
 0,38.0122244142,2.9518079737,10.370590962\C,0,36.6732198864,2.18814492
 68,12.2736787527\C,0,36.5421373052,1.4762919531,13.5253454235\C,0,35.2
 80815039,1.7207149703,13.967868227\C,0,34.6670620937,2.5885342207,12.9
 84274635\C,0,32.7591709388,3.9161083649,12.2132030957\C,0,31.476727933
 6,4.5438275612,12.4532133307\C,0,31.2689772143,5.3898309354,11.3948728
 93\C,0,32.4290430249,5.2716547963,10.5505083228\C,0,33.7555718112,6.02
 17620453,8.6227889691\C,0,33.9068291616,6.7960014181,7.4050469915\C,0,
 35.1881243502,6.5726866532,6.9765810419\C,0,35.7750069209,5.6510515662
 ,7.9175882936\C,0,37.0579041096,5.1462865176,7.7994623144\H,0,37.65638
 92106,5.4958131598,6.9720132509\C,0,37.8317824011,2.2028085101,11.5190
 383153\H,0,38.6745627303,1.6349682745,11.8834501325\C,0,33.3596397135,
 3.0221632458,13.0815422304\H,0,32.8154596822,2.7528711329,13.973894017
 4\C,0,32.6098921876,6.0129147623,9.3943190488\H,0,31.8124939447,6.6812
 667639,9.1063610842\C,0,39.9238060787,4.1588423946,7.4230453793\H,0,40
 .0974601727,5.2351701643,7.4151799532\H,0,39.4901785334,3.8799380097,6
 .4623882878\H,0,40.8838715484,3.6583815758,7.523478803\C,0,40.45780640
 61,2.1840591381,9.9488472108\H,0,40.2437983556,1.1149319943,9.96982218
 68\H,0,40.8248625485,2.4733535287,10.9338243554\H,0,41.2489924051,2.36
 01427573,9.2241731701\C,0,35.8549562791,7.0844016595,5.7475434778\H,0,
 36.4747696136,6.3122758314,5.2941850181\H,0,36.4945365982,7.9381394508
 ,5.9782317835\H,0,35.1080562047,7.4010388608,5.0223316987\C,0,32.87450
 66959,7.6249022025,6.8231340323\H,0,31.8591688719,7.2696743185,6.95933
 30861\C,0,33.0740653875,8.7579281721,6.1571631832\H,0,34.0538094622,9.
 18456189,6.031756962\H,0,32.2541799414,9.3148021047,5.7343468327\C,0,3
 0.0801411624,6.240273177,11.1103615394\H,0,29.8424001561,6.2281173472,
 10.0476499703\H,0,30.2599862192,7.2763549223,11.402929963\H,0,29.21845
 83503,5.8720351451,11.6634883463\C,0,30.6281825093,4.274485729,13.5928
 071682\H,0,30.6639504404,3.2597766465,13.9724331143\C,0,29.8404587121,
 5.1596712384,14.1948548276\H,0,29.8012347349,6.1916402555,13.892147786
 6\H,0,29.223151664,4.8856116804,15.0343510898\C,0,34.6139507073,1.2572
 292489,15.2175502758\H,0,33.7036675518,0.7042210759,14.9842954949\H,0,
 34.3419472547,2.1063062601,15.8455430721\H,0,35.272437639,0.6067626027
 ,15.7885435049\C,0,37.6280094368,0.6721462953,14.1548306114\H,0,37.953
 038374,-0.1260356026,13.486725743\H,0,37.2871029136,0.2226088634,15.08
 42352456\H,0,38.4916104995,1.3003771209,14.3748599867\O,0,35.755,5.758
 ,11.66\H,0,34.936,6.155,11.956\H,0,36.575,5.994,11.911\C,0,32.29379231
 78,0.6387237102,6.9763672708\H,0,32.7181785737,0.4289840171,5.99422165
 27\H,0,31.477925348,1.3448938534,6.8576904357\H,0,31.8959203046,-0.291
 4722373,7.3815794746\N,0,34.4282632186,0.5106294025,8.2799089118\H,0,3
 4.6539396328,-0.4331791339,8.0118742222\C,0,33.3200710307,1.212571654,
 7.8832358449\C,0,35.1526880584,1.3132448378,9.0930540223\H,0,36.074061
 6493,1.0270800976,9.5572456125\N,0,34.570945892,2.4797055077,9.2333813
 539\C,0,33.4303911746,2.4325329266,8.4864960759\H,0,32.770342714,3.273
 4773847,8.436096629\\Version=ES64L-G16RevC.02\State=1-A\HF=-2984.02262
 42\RMSD=1.970e-09\Dipole=0.2925075,-1.4153855,-0.5599759\Polar=649.483
 2862,-117.4601758,482.1391224,-76.8888586,-155.8140322,597.7428853\Hyp
 erPolar=-631.765409,88.8273997,-190.9496033,356.7648691,620.7572707,-4
 7.1574085,-623.045157,-630.4893802,583.808824,-392.7012974\Quadrupole=
 -3.5322384,6.8993448,-3.3671064,0.5775322,2.3535334,7.9536298\PG=C01 [
 X(C34H36Fe1N6O1)]\\@
 The archive entry for this job was punched.


 If your ship doesn't come in, swim out to it!
                          -- Jonathan Winters
 Job cpu time:       2 days  9 hours 22 minutes 16.7 seconds.
 Elapsed time:       0 days  0 hours 49 minutes 54.2 seconds.
 File lengths (MBytes):  RWF=   1208 Int=      0 D2E=      0 Chk=    155 Scr=      1
 Normal termination of Gaussian 16 at Thu Sep  5 11:35:39 2024.
 Initial command:
 /sw/chem/gaussian/g16_C02/a100/g16/l1.exe "/local/becsleip_8005612/Gau-3942556.inp" -scrdir="/local/becsleip_8005612/"
 Entering Link 1 = /sw/chem/gaussian/g16_C02/a100/g16/l1.exe PID=   3944389.
  
 Copyright (c) 1988-2021, Gaussian, Inc.  All Rights Reserved.
  
 This is part of the Gaussian(R) 16 program.  It is based on
 the Gaussian(R) 09 system (copyright 2009, Gaussian, Inc.),
 the Gaussian(R) 03 system (copyright 2003, Gaussian, Inc.),
 the Gaussian(R) 98 system (copyright 1998, Gaussian, Inc.),
 the Gaussian(R) 94 system (copyright 1995, Gaussian, Inc.),
 the Gaussian 92(TM) system (copyright 1992, Gaussian, Inc.),
 the Gaussian 90(TM) system (copyright 1990, Gaussian, Inc.),
 the Gaussian 88(TM) system (copyright 1988, Gaussian, Inc.),
 the Gaussian 86(TM) system (copyright 1986, Carnegie Mellon
 University), and the Gaussian 82(TM) system (copyright 1983,
 Carnegie Mellon University). Gaussian is a federally registered
 trademark of Gaussian, Inc.
  
 This software contains proprietary and confidential information,
 including trade secrets, belonging to Gaussian, Inc.
  
 This software is provided under written license and may be
 used, copied, transmitted, or stored only in accord with that
 written license.
  
 The following legend is applicable only to US Government
 contracts under FAR:
  
                    RESTRICTED RIGHTS LEGEND
  
 Use, reproduction and disclosure by the US Government is
 subject to restrictions as set forth in subparagraphs (a)
 and (c) of the Commercial Computer Software - Restricted
 Rights clause in FAR 52.227-19.
  
 Gaussian, Inc.
 340 Quinnipiac St., Bldg. 40, Wallingford CT 06492
  
  
 ---------------------------------------------------------------
 Warning -- This program may not be used in any manner that
 competes with the business of Gaussian, Inc. or will provide
 assistance to any competitor of Gaussian, Inc.  The licensee
 of this program is prohibited from giving any competitor of
 Gaussian, Inc. access to this program.  By using this program,
 the user acknowledges that Gaussian, Inc. is engaged in the
 business of creating and licensing software in the field of
 computational chemistry and represents and warrants to the
 licensee that it is not a competitor of Gaussian, Inc. and that
 it will not use this program in any manner prohibited above.
 ---------------------------------------------------------------
  

 Cite this work as:
 Gaussian 16, Revision C.02,
 M. J. Frisch, G. W. Trucks, H. B. Schlegel, G. E. Scuseria, 
 M. A. Robb, J. R. Cheeseman, G. Scalmani, V. Barone, 
 G. A. Petersson, H. Nakatsuji, X. Li, M. Caricato, A. V. Marenich, 
[...]
                                                    152(r)
   140. CR (   1) C  67                  1.99940   -10.05909  1526(v),1332(v),1324(v)
                                                    1524(v)
   141. CR (   1) N  71                  1.99938   -14.22092  1352(v),1326(v),1320(v)
                                                    1327(v),1522(v)
   142. CR (   1) C  73                  1.99915   -10.08867  1526(g),1409(v),1532(v)
                                                    1254(v)
   143. CR (   1) C  74                  1.99935   -10.12108  1382(v),1523(v),1531(v)
                                                    151(r),150(r),154(r)
   144. CR (   1) N  76                  1.99932   -14.15181  150(r),151(r),154(r),1350(v)
                                                    1407(v),1528(v),172(r)
                                                    168(r),175(r)
   145. CR (   1) C  77                  1.99898   -10.05866  1522(v),1324(v),1526(g)
                                                    1383(v),1327(v),1434(v)
                                                    150(r),151(r)
   163. LP (   1) N  71                  1.57997    -0.28379  1530(v),1527(v),1353(v)
                                                    1325(v),1319(v),1351(v)
                                                    169(r)
   164. LP (   1) N  76                  1.60991    -0.36426  150(r),151(r),154(r),1525(v)
                                                    1526(v),1350(v),1528(v)
                                                    1532(v),1529(g),1407(v)
                                                    1384(g),1531(g),170(r)
                                                    183(r),195(r),221(r),247(r)
                                                    273(r),246(r),220(r),194(r)
                                                    272(r),1446(r),244(r)
                                                    1440(r),218(r),1441(r)
                                                    1448(r),1443(r),1445(r)
                                                    1444(r),1438(r),270(r)
                                                    192(r),177(r),179(r),149(r)
                                                    1439(r),184(r),169(r)
  1252. RY*(   1) C  67                  0.00118     1.15727   
  1253. RY*(   2) C  67                  0.00078     2.00619   
  1254. RY*(   3) C  67                  0.00051     1.33322   
  1255. RY*(   4) C  67                  0.00012     1.27352   
  1256. RY*(   5) C  67                  0.00007     1.17618   
  1257. RY*(   6) C  67                  0.00008     2.34014   
  1258. RY*(   7) C  67                  0.00003     2.02708   
  1259. RY*(   8) C  67                  0.00001     1.83159   
  1260. RY*(   9) C  67                  0.00000     1.45528   
  1261. RY*(  10) C  67                  0.00001     1.35173   
  1262. RY*(  11) C  67                  0.00000     3.10332   
  1263. RY*(  12) C  67                  0.00000     3.17138   
  1264. RY*(  13) C  67                  0.00000     2.53245   
  1265. RY*(  14) C  67                  0.00000     2.75514   
  1266. RY*(  15) C  67                  0.00000     2.15391   
  1267. RY*(  16) C  67                  0.00000     2.96516   
  1268. RY*(  17) C  67                  0.00000     2.47237   
  1269. RY*(  18) C  67                  0.00000    21.57012   
  1270. RY*(  19) C  67                  0.00000     2.61804   
  1271. RY*(  20) C  67                  0.00000     3.70390   
  1272. RY*(  21) C  67                  0.00001     3.22863   
  1273. RY*(  22) C  67                  0.00000     2.97999   
  1274. RY*(  23) C  67                  0.00000     3.62022   
  1275. RY*(  24) C  67                  0.00000     3.49470   
  1276. RY*(  25) C  67                  0.00000     3.32626   
  1277. RY*(  26) C  67                  0.00000     3.34165   
  1278. RY*(   1) H  68                  0.00075     1.00970   
  1279. RY*(   2) H  68                  0.00014     1.69434   
  1280. RY*(   3) H  68                  0.00008     1.94759   
  1281. RY*(   4) H  68                  0.00006     2.01509   
  1282. RY*(   5) H  68                  0.00000     2.88215   
  1283. RY*(   1) H  69                  0.00024     1.38267   
  1284. RY*(   2) H  69                  0.00012     1.74823   
  1285. RY*(   3) H  69                  0.00008     2.05493   
  1286. RY*(   4) H  69                  0.00002     1.59095   
  1287. RY*(   5) H  69                  0.00001     2.86742   
  1288. RY*(   1) H  70                  0.00072     0.98822   
  1289. RY*(   2) H  70                  0.00015     1.69616   
  1290. RY*(   3) H  70                  0.00008     1.97308   
  1291. RY*(   4) H  70                  0.00006     2.01076   
  1292. RY*(   5) H  70                  0.00000     2.88069   
  1293. RY*(   1) N  71                  0.00282     0.66750   
  1294. RY*(   2) N  71                  0.00224     1.77718   
  1295. RY*(   3) N  71                  0.00100     2.08905   
  1296. RY*(   4) N  71                  0.00078     2.16947   
  1297. RY*(   5) N  71                  0.00052     1.15547   
  1298. RY*(   6) N  71                  0.00027     2.00531   
  1299. RY*(   7) N  71                  0.00020     1.71591   
  1300. RY*(   8) N  71                  0.00007     2.51378   
  1301. RY*(   9) N  71                  0.00006     2.27061   
  1302. RY*(  10) N  71                  0.00006     3.52331   
  1303. RY*(  11) N  71                  0.00005     3.08931   
  1304. RY*(  12) N  71                  0.00001     3.94263   
  1305. RY*(  13) N  71                  0.00001     4.30382   
  1306. RY*(  14) N  71                  0.00001     2.49077   
  1307. RY*(  15) N  71                  0.00000     3.45712   
  1308. RY*(  16) N  71                  0.00000     2.10936   
  1309. RY*(  17) N  71                  0.00000     4.56080   
  1310. RY*(  18) N  71                  0.00001     3.86168   
  1311. RY*(  19) N  71                  0.00000    30.59410   
  1312. RY*(  20) N  71                  0.00000     4.62531   
  1313. RY*(  21) N  71                  0.00000     4.73721   
  1314. RY*(  22) N  71                  0.00000     4.38009   
  1315. RY*(  23) N  71                  0.00000     4.55173   
  1316. RY*(  24) N  71                  0.00000     4.33114   
  1317. RY*(  25) N  71                  0.00000     4.49697   
  1318. RY*(  26) N  71                  0.00000     4.42679   
  1319. RY*(   1) H  72                  0.00057     2.15021   
  1320. RY*(   2) H  72                  0.00039     2.13967   
  1321. RY*(   3) H  72                  0.00030     1.02814   
  1322. RY*(   4) H  72                  0.00021     2.52611   
  1323. RY*(   5) H  72                  0.00001     3.07711   
  1324. RY*(   1) C  73                  0.00407     1.69118   
  1325. RY*(   2) C  73                  0.00261     0.98845   
  1326. RY*(   3) C  73                  0.00190     1.49140   
  1327. RY*(   4) C  73                  0.00163     2.02720   
  1328. RY*(   5) C  73                  0.00123     1.75598   
  1329. RY*(   6) C  73                  0.00110     1.72272   
  1330. RY*(   7) C  73                  0.00037     2.84626   
  1331. RY*(   8) C  73                  0.00019     2.73049   
  1332. RY*(   9) C  73                  0.00016     2.53272   
  1333. RY*(  10) C  73                  0.00007     3.63971   
  1334. RY*(  11) C  73                  0.00003     2.64889   
  1335. RY*(  12) C  73                  0.00002     2.06579   
  1336. RY*(  13) C  73                  0.00001     1.33445   
  1337. RY*(  14) C  73                  0.00001     1.60566   
  1338. RY*(  15) C  73                  0.00001     2.86381   
  1339. RY*(  16) C  73                  0.00001     1.92987   
  1340. RY*(  17) C  73                  0.00000     3.34974   
  1341. RY*(  18) C  73                  0.00000    21.20281   
  1342. RY*(  19) C  73                  0.00000     1.08737   
  1343. RY*(  20) C  73                  0.00000     4.06607   
  1344. RY*(  21) C  73                  0.00000     3.77446   
  1345. RY*(  22) C  73                  0.00000     3.55451   
  1346. RY*(  23) C  73                  0.00000     3.73610   
  1347. RY*(  24) C  73                  0.00000     3.42329   
  1348. RY*(  25) C  73                  0.00000     3.54180   
  1349. RY*(  26) C  73                  0.00000     3.52258   
  1350. RY*(   1) C  74                  0.00409     1.59244   
  1351. RY*(   2) C  74                  0.00330     0.65982   
  1352. RY*(   3) C  74                  0.00199     1.33746   
  1353. RY*(   4) C  74                  0.00127     2.57113   
  1354. RY*(   5) C  74                  0.00079     1.63316   
  1355. RY*(   6) C  74                  0.00039     1.69062   
  1356. RY*(   7) C  74                  0.00027     1.80288   
  1357. RY*(   8) C  74                  0.00009     2.60772   
  1358. RY*(   9) C  74                  0.00006     2.62073   
  1359. RY*(  10) C  74                  0.00004     1.65661   
  1360. RY*(  11) C  74                  0.00004     1.89117   
  1361. RY*(  12) C  74                  0.00004     3.58422   
  1362. RY*(  13) C  74                  0.00002     2.81150   
  1363. RY*(  14) C  74                  0.00001     2.11792   
  1364. RY*(  15) C  74                  0.00001     2.62951   
  1365. RY*(  16) C  74                  0.00001     3.64218   
  1366. RY*(  17) C  74                  0.00001     2.77334   
  1367. RY*(  18) C  74                  0.00001     3.99205   
  1368. RY*(  19) C  74                  0.00000     3.19852   
  1369. RY*(  20) C  74                  0.00000    21.47142   
  1370. RY*(  21) C  74                  0.00001     4.05976   
  1371. RY*(  22) C  74                  0.00000     3.51324   
  1372. RY*(  23) C  74                  0.00000     3.86798   
  1373. RY*(  24) C  74                  0.00000     3.52690   
  1374. RY*(  25) C  74                  0.00000     3.53820   
  1375. RY*(  26) C  74                  0.00000     3.37979   
  1376. RY*(   1) H  75                  0.00061     0.81661   
  1377. RY*(   2) H  75                  0.00029     2.37096   
  1378. RY*(   3) H  75                  0.00021     2.10286   
  1379. RY*(   4) H  75                  0.00012     2.39785   
  1380. RY*(   5) H  75                  0.00002     3.14343   
  1381. RY*(   1) N  76                  0.00762     0.85532   
  1382. RY*(   2) N  76                  0.00719     1.31627   
  1383. RY*(   3) N  76                  0.00594     1.42607   
  1384. RY*(   4) N  76                  0.00077     1.59924   
  1385. RY*(   5) N  76                  0.00074     1.67914   
  1386. RY*(   6) N  76                  0.00058     1.93197   
  1387. RY*(   7) N  76                  0.00037     3.51308   
  1388. RY*(   8) N  76                  0.00033     3.20422   
  1389. RY*(   9) N  76                  0.00011     2.78078   
  1390. RY*(  10) N  76                  0.00010     3.23898   
  1391. RY*(  11) N  76                  0.00008     2.45948   
  1392. RY*(  12) N  76                  0.00008     3.44803   
  1393. RY*(  13) N  76                  0.00006     3.01011   
  1394. RY*(  14) N  76                  0.00004     3.69284   
  1395. RY*(  15) N  76                  0.00002     4.89338   
  1396. RY*(  16) N  76                  0.00001     3.99305   
  1397. RY*(  17) N  76                  0.00002     4.77883   
  1398. RY*(  18) N  76                  0.00000    31.55803   
  1399. RY*(  19) N  76                  0.00001     4.27265   
  1400. RY*(  20) N  76                  0.00000     4.43109   
  1401. RY*(  21) N  76                  0.00000     4.84158   
  1402. RY*(  22) N  76                  0.00000     4.16360   
  1403. RY*(  23) N  76                  0.00000     4.62934   
  1404. RY*(  24) N  76                  0.00000     4.67137   
  1405. RY*(  25) N  76                  0.00000     4.73131   
  1406. RY*(  26) N  76                  0.00000     4.55223   
  1407. RY*(   1) C  77                  0.00398     1.49546   
  1408. RY*(   2) C  77                  0.00254     0.71885   
  1409. RY*(   3) C  77                  0.00168     1.84864   
  1410. RY*(   4) C  77                  0.00070     2.03792   
  1411. RY*(   5) C  77                  0.00055     1.60603   
  1412. RY*(   6) C  77                  0.00045     2.02645   
  1413. RY*(   7) C  77                  0.00042     1.93910   
  1414. RY*(   8) C  77                  0.00023     1.45016   
  1415. RY*(   9) C  77                  0.00022     1.61902   
  1416. RY*(  10) C  77                  0.00014     1.76340   
  1417. RY*(  11) C  77                  0.00010     1.31854   
  1418. RY*(  12) C  77                  0.00005     1.82853   
  1419. RY*(  13) C  77                  0.00006     2.18833   
  1420. RY*(  14) C  77                  0.00005     3.04788   
  1421. RY*(  15) C  77                  0.00002     3.35739   
  1422. RY*(  16) C  77                  0.00002     1.43818   
  1423. RY*(  17) C  77                  0.00000     3.60197   
  1424. RY*(  18) C  77                  0.00000     3.27890   
  1425. RY*(  19) C  77                  0.00000    21.69087   
  1426. RY*(  20) C  77                  0.00001     3.93334   
  1427. RY*(  21) C  77                  0.00001     4.09058   
  1428. RY*(  22) C  77                  0.00000     3.46647   
  1429. RY*(  23) C  77                  0.00000     3.77171   
  1430. RY*(  24) C  77                  0.00000     3.43816   
  1431. RY*(  25) C  77                  0.00000     3.64782   
  1432. RY*(  26) C  77                  0.00000     3.44659   
  1433. RY*(   1) H  78                  0.00050     0.80098   
  1434. RY*(   2) H  78                  0.00032     2.22416   
  1435. RY*(   3) H  78                  0.00025     2.28943   
  1436. RY*(   4) H  78                  0.00008     2.73464   
  1437. RY*(   5) H  78                  0.00001     3.13501   
  1519. BD*(   1) C  67 - H  68          0.01241     0.35942   
  1520. BD*(   1) C  67 - H  69          0.00347     0.37301   
  1521. BD*(   1) C  67 - H  70          0.01128     0.35940   
  1522. BD*(   1) C  67 - C  73          0.01370     0.38927   
  1523. BD*(   1) N  71 - H  72          0.01418     0.36698   
  1524. BD*(   1) N  71 - C  73          0.02720     0.42997   
  1525. BD*(   1) N  71 - C  74          0.02228     0.44686   
  1526. BD*(   1) C  73 - C  77          0.02103     0.56660   
  1527. BD*(   2) C  73 - C  77          0.29946     0.03522  1530(v),1519(v),1521(v)
                                                    1328(g)
  1528. BD*(   1) C  74 - H  75          0.01798     0.39141   
  1529. BD*(   1) C  74 - N  76          0.01633     0.53718   
  1530. BD*(   2) C  74 - N  76          0.41985    -0.00553  1527(v),1351(g),1381(g)
                                                    1408(v),153(r),1447(r)
                                                    181(r)
  1531. BD*(   1) N  76 - C  77          0.01647     0.48138   
  1532. BD*(   1) C  77 - H  78          0.01432     0.43276   
       -------------------------------
              Total Lewis   42.68915  ( 97.7367%)
        Valence non-Lewis    0.90998  (  2.0834%)
        Rydberg non-Lewis    0.07859  (  0.1799%)
       -------------------------------
            Total unit  4   43.67772  (100.0000%)
           Charge unit  4    0.32228
 Unable to Open any file for archive entry.
 1\1\GINC-BGN1015\SP\RAPFD\def2TZVP\C34H36Fe1N6O1\BECSLEIP\05-Sep-2024\
 0\\# apfd/def2TZVP int=(grid=ultrafine) geom=check guess=read pop=nbo 
 scf=qc\\2spm_II_S_nbo\\0,1\Fe,0,35.1695749112,3.9968715063,10.35168380
 43\N,0,37.0769365991,3.7573420866,9.8038195153\N,0,35.4968048874,2.772
 5218687,11.9195782693\N,0,33.3051961067,4.3510257916,11.0504854985\N,0
 ,34.8702099104,5.2853379579,8.8657699661\C,0,37.6589005913,4.279245763
 5,8.6903384657\C,0,39.0096052858,3.7836712107,8.5387906373\C,0,39.2343
 086145,2.9597584763,9.5970715451\C,0,38.0122244142,2.9518079737,10.370
 590962\C,0,36.6732198864,2.1881449268,12.2736787527\C,0,36.5421373052,
 1.4762919531,13.5253454235\C,0,35.280815039,1.7207149703,13.967868227\
 C,0,34.6670620937,2.5885342207,12.984274635\C,0,32.7591709388,3.916108
 3649,12.2132030957\C,0,31.4767279336,4.5438275612,12.4532133307\C,0,31
 .2689772143,5.3898309354,11.394872893\C,0,32.4290430249,5.2716547963,1
 0.5505083228\C,0,33.7555718112,6.0217620453,8.6227889691\C,0,33.906829
 1616,6.7960014181,7.4050469915\C,0,35.1881243502,6.5726866532,6.976581
 0419\C,0,35.7750069209,5.6510515662,7.9175882936\C,0,37.0579041096,5.1
 462865176,7.7994623144\H,0,37.6563892106,5.4958131598,6.9720132509\C,0
 ,37.8317824011,2.2028085101,11.5190383153\H,0,38.6745627303,1.63496827
 45,11.8834501325\C,0,33.3596397135,3.0221632458,13.0815422304\H,0,32.8
 154596822,2.7528711329,13.9738940174\C,0,32.6098921876,6.0129147623,9.
 3943190488\H,0,31.8124939447,6.6812667639,9.1063610842\C,0,39.92380607
 87,4.1588423946,7.4230453793\H,0,40.0974601727,5.2351701643,7.41517995
 32\H,0,39.4901785334,3.8799380097,6.4623882878\H,0,40.8838715484,3.658
 3815758,7.523478803\C,0,40.4578064061,2.1840591381,9.9488472108\H,0,40
 .2437983556,1.1149319943,9.9698221868\H,0,40.8248625485,2.4733535287,1
 0.9338243554\H,0,41.2489924051,2.3601427573,9.2241731701\C,0,35.854956
 2791,7.0844016595,5.7475434778\H,0,36.4747696136,6.3122758314,5.294185
 0181\H,0,36.4945365982,7.9381394508,5.9782317835\H,0,35.1080562047,7.4
 010388608,5.0223316987\C,0,32.8745066959,7.6249022025,6.8231340323\H,0
 ,31.8591688719,7.2696743185,6.9593330861\C,0,33.0740653875,8.757928172
 1,6.1571631832\H,0,34.0538094622,9.18456189,6.031756962\H,0,32.2541799
 414,9.3148021047,5.7343468327\C,0,30.0801411624,6.240273177,11.1103615
 394\H,0,29.8424001561,6.2281173472,10.0476499703\H,0,30.2599862192,7.2
 763549223,11.402929963\H,0,29.2184583503,5.8720351451,11.6634883463\C,
 0,30.6281825093,4.274485729,13.5928071682\H,0,30.6639504404,3.25977664
 65,13.9724331143\C,0,29.8404587121,5.1596712384,14.1948548276\H,0,29.8
 012347349,6.1916402555,13.8921477866\H,0,29.223151664,4.8856116804,15.
 0343510898\C,0,34.6139507073,1.2572292489,15.2175502758\H,0,33.7036675
 518,0.7042210759,14.9842954949\H,0,34.3419472547,2.1063062601,15.84554
 30721\H,0,35.272437639,0.6067626027,15.7885435049\C,0,37.6280094368,0.
 6721462953,14.1548306114\H,0,37.953038374,-0.1260356026,13.486725743\H
 ,0,37.2871029136,0.2226088634,15.0842352456\H,0,38.4916104995,1.300377
 1209,14.3748599867\O,0,35.755,5.758,11.66\H,0,34.936,6.155,11.956\H,0,
 36.575,5.994,11.911\C,0,32.2937923178,0.6387237102,6.9763672708\H,0,32
 .7181785737,0.4289840171,5.9942216527\H,0,31.477925348,1.3448938534,6.
 8576904357\H,0,31.8959203046,-0.2914722373,7.3815794746\N,0,34.4282632
 186,0.5106294025,8.2799089118\H,0,34.6539396328,-0.4331791339,8.011874
 2222\C,0,33.3200710307,1.212571654,7.8832358449\C,0,35.1526880584,1.31
 32448378,9.0930540223\H,0,36.0740616493,1.0270800976,9.5572456125\N,0,
 34.570945892,2.4797055077,9.2333813539\C,0,33.4303911746,2.4325329266,
 8.4864960759\H,0,32.770342714,3.2734773847,8.436096629\\Version=ES64L-
 G16RevC.02\State=1-A\HF=-2984.0226242\RMSD=1.469e-09\Dipole=0.2925075,
 -1.4153855,-0.5599759\Quadrupole=-3.5322384,6.8993448,-3.3671064,0.577
 5322,2.3535334,7.9536298\PG=C01 [X(C34H36Fe1N6O1)]\\@
 The archive entry for this job was punched.


 KNOWLEDGE IS EXPERIMENT'S DAUGHTER.
 -- LEONARDO DA VINCI, IN "PENSIERI" CA. 1492
 Job cpu time:       0 days  0 hours 48 minutes 48.7 seconds.
 Elapsed time:       0 days  0 hours  1 minutes  0.9 seconds.
 File lengths (MBytes):  RWF=    792 Int=      0 D2E=      0 Chk=    155 Scr=      1
 Normal termination of Gaussian 16 at Thu Sep  5 11:36:43 2024.
