 Entering Gaussian System, Link 0=g16
 Input=2spn12re.com
 Output=2spn12re.log
 Initial command:
 /sw/chem/gaussian/g16_C02/a100/g16/l1.exe "/local/becsleip_8006045/Gau-3993145.inp" -scrdir="/local/becsleip_8006045/"
 Entering Link 1 = /sw/chem/gaussian/g16_C02/a100/g16/l1.exe PID=   3993146.
  
 Copyright (c) 1988-2021, Gaussian, Inc.  All Rights Reserved.
  
 This is part of the Gaussian(R) 16 program.  It is based on
 the Gaussian(R) 09 system (copyright 2009, Gaussian, Inc.),
 the Gaussian(R) 03 system (copyright 2003, Gaussian, Inc.),
 the Gaussian(R) 98 system (copyright 1998, Gaussian, Inc.),
 the Gaussian(R) 94 system (copyright 1995, Gaussian, Inc.),
 the Gaussian 92(TM) system (copyright 1992, Gaussian, Inc.),
 the Gaussian 90(TM) system (copyright 1990, Gaussian, Inc.),
 the Gaussian 88(TM) system (copyright 1988, Gaussian, Inc.),
 the Gaussian 86(TM) system (copyright 1986, Carnegie Mellon
 University), and the Gaussian 82(TM) system (copyright 1983,
 Carnegie Mellon University). Gaussian is a federally registered
 trademark of Gaussian, Inc.
  
 This software contains proprietary and confidential information,
 including trade secrets, belonging to Gaussian, Inc.
  
 This software is provided under written license and may be
 used, copied, transmitted, or stored only in accord with that
 written license.
  
 The following legend is applicable only to US Government
 contracts under FAR:
  
                    RESTRICTED RIGHTS LEGEND
  
 Use, reproduction and disclosure by the US Government is
 subject to restrictions as set forth in subparagraphs (a)
 and (c) of the Commercial Computer Software - Restricted
 Rights clause in FAR 52.227-19.
  
 Gaussian, Inc.
 340 Quinnipiac St., Bldg. 40, Wallingford CT 06492
  
  
 ---------------------------------------------------------------
 Warning -- This program may not be used in any manner that
 competes with the business of Gaussian, Inc. or will provide
 assistance to any competitor of Gaussian, Inc.  The licensee
 of this program is prohibited from giving any competitor of
 Gaussian, Inc. access to this program.  By using this program,
 the user acknowledges that Gaussian, Inc. is engaged in the
 business of creating and licensing software in the field of
 computational chemistry and represents and warrants to the
 licensee that it is not a competitor of Gaussian, Inc. and that
 it will not use this program in any manner prohibited above.
 ---------------------------------------------------------------
  

 Cite this work as:
 Gaussian 16, Revision C.02,
 M. J. Frisch, G. W. Trucks, H. B. Schlegel, G. E. Scuseria, 
 M. A. Robb, J. R. Cheeseman, G. Scalmani, V. Barone, 
 G. A. Petersson, H. Nakatsuji, X. Li, M. Caricato, A. V. Marenich, 
 J. Bloino, B. G. Janesko, R. Gomperts, B. Mennucci, H. P. Hratchian, 
 J. V. Ortiz, A. F. Izmaylov, J. L. Sonnenberg, D. Williams-Young, 
 F. Ding, F. Lipparini, F. Egidi, J. Goings, B. Peng, A. Petrone, 
 T. Henderson, D. Ranasinghe, V. G. Zakrzewski, J. Gao, N. Rega, 
 G. Zheng, W. Liang, M. Hada, M. Ehara, K. Toyota, R. Fukuda, 
 J. Hasegawa, M. Ishida, T. Nakajima, Y. Honda, O. Kitao, H. Nakai, 
 T. Vreven, K. Throssell, J. A. Montgomery, Jr., J. E. Peralta, 
 F. Ogliaro, M. J. Bearpark, J. J. Heyd, E. N. Brothers, K. N. Kudin, 
 V. N. Staroverov, T. A. Keith, R. Kobayashi, J. Normand, 
 K. Raghavachari, A. P. Rendell, J. C. Burant, S. S. Iyengar, 
 J. Tomasi, M. Cossi, J. M. Millam, M. Klene, C. Adamo, R. Cammi, 
 J. W. Ochterski, R. L. Martin, K. Morokuma, O. Farkas, 
 J. B. Foresman, and D. J. Fox, Gaussian, Inc., Wallingford CT, 2019.
 
 ******************************************
 Gaussian 16:  ES64L-G16RevC.02  7-Dec-2021
                 5-Sep-2024 
 ******************************************
 %mem=16GB
 %CPU=0-71
 SetSPE:  set environment variable "OMP_PROC_BIND" = "true"
 SetSPE:  set environment variable "OMP_PLACES" = "{0},{1},{2},{3},{4},{5},{6},{7},{8},{9},{10},{11},{12},{13},{14},{15},{16},{17},{18},{19},{20},{21},{22},{23},{24},{25},{26},{27},{28},{29},{30},{31},{32},{33},{34},{35},{36},{37},{38},{39},{40},{41},{42},{43},{44},{45},{46},{47},{48},{49},{50},{51},{52},{53},{54},{55},{56},{57},{58},{59},{60},{61},{62},{63},{64},{65},{66},{67},{68},{69},{70},{71}"
 Will use up to   72 processors via shared memory.
 %gpucpu=0,1,2,3=0,1,2,3
 Will use    4 GPUs:
 Thread  CPU   GPU
      0    0     0
      1    1     1
      2    2     2
      3    3     3
      4    4    -1
      5    5    -1
      6    6    -1
      7    7    -1
      8    8    -1
      9    9    -1
     10   10    -1
     11   11    -1
     12   12    -1
     13   13    -1
     14   14    -1
     15   15    -1
     16   16    -1
     17   17    -1
     18   18    -1
     19   19    -1
     20   20    -1
     21   21    -1
     22   22    -1
     23   23    -1
     24   24    -1
     25   25    -1
     26   26    -1
     27   27    -1
     28   28    -1
     29   29    -1
     30   30    -1
     31   31    -1
     32   32    -1
     33   33    -1
     34   34    -1
     35   35    -1
     36   36    -1
     37   37    -1
     38   38    -1
     39   39    -1
     40   40    -1
     41   41    -1
     42   42    -1
     43   43    -1
     44   44    -1
     45   45    -1
     46   46    -1
     47   47    -1
     48   48    -1
     49   49    -1
     50   50    -1
     51   51    -1
     52   52    -1
     53   53    -1
     54   54    -1
     55   55    -1
     56   56    -1
     57   57    -1
     58   58    -1
     59   59    -1
     60   60    -1
     61   61    -1
     62   62    -1
     63   63    -1
     64   64    -1
     65   65    -1
     66   66    -1
     67   67    -1
     68   68    -1
     69   69    -1
     70   70    -1
     71   71    -1
 SetGPE:  set environment variable "OMP_PROC_BIND" = "true"
 SetGPE:  set environment variable "OMP_PLACES" = "{0},{1},{2},{3},{4},{5},{6},{7},{8},{9},{10},{11},{12},{13},{14},{15},{16},{17},{18},{19},{20},{21},{22},{23},{24},{25},{26},{27},{28},{29},{30},{31},{32},{33},{34},{35},{36},{37},{38},{39},{40},{41},{42},{43},{44},{45},{46},{47},{48},{49},{50},{51},{52},{53},{54},{55},{56},{57},{58},{59},{60},{61},{62},{63},{64},{65},{66},{67},{68},{69},{70},{71}"
 %oldchk=2spn_II_S.chk
 %chk=2spn_II_Sre.chk
 Properties for Device   0
 Minimum vector length:                              32
 Maximum vector length:                            1024
 Number of SMPs:                                    108
 Maximum number of threads per SMP:                2048
 Number of ASync Engines:                             5
 Memory:                                           9207742464
 Properties for Device   1
 Minimum vector length:                              32
 Maximum vector length:                            1024
 Number of SMPs:                                    108
 Maximum number of threads per SMP:                2048
 Number of ASync Engines:                             5
 Memory:                                           9207742464
 Properties for Device   2
 Minimum vector length:                              32
 Maximum vector length:                            1024
 Number of SMPs:                                    108
 Maximum number of threads per SMP:                2048
 Number of ASync Engines:                             5
 Memory:                                           9207742464
 Properties for Device   3
 Minimum vector length:                              32
 Maximum vector length:                            1024
 Number of SMPs:                                    108
 Maximum number of threads per SMP:                2048
 Number of ASync Engines:                             5
 Memory:                                           9207742464
   8286968217 words of memory will be used on each GPU.
 Copying data from "2spn_II_S.chk" to current chk file "2spn_II_Sre.chk"
 IOpt=  2 FromEx=T IUOpen= 4 IOptOp= 5 NList=   0 IFRang= 0 IUIn= 4 IUOut= 2.
 --------------------------------------
 # apfd/gen scf=maxcycle=999 geom=check
 --------------------------------------
 1/29=2,38=1,172=1/1;
 2/12=2,40=1/2;
 3/5=7,11=2,14=-4,25=1,30=1,74=-44/1,2,3;
 4//1;
 5/5=2,7=999,38=5/2;
 6/7=2,8=2,9=2,10=2,28=1/1;
 99/5=1,9=1/99;
 ----------
 2spn_III_D
 ----------
 Structure from the checkpoint file:  "2spn_II_Sre.chk"
 Charge =  1 Multiplicity = 2
 Z-Matrix found in chk file.
 Fe,0,35.107,4.257,10.312
 N,0,37.077,3.91,9.624
 N,0,35.399,2.962,11.848
 N,0,33.151,4.613,11.023
 N,0,34.838,5.529,8.738
 C,0,37.593,4.47,8.55
 C,0,38.993,3.957,8.445
 C,0,39.198,3.159,9.518
 C,0,37.916,3.12,10.252
 C,0,36.567,2.377,12.156
 C,0,36.361,1.611,13.394
 C,0,35.103,1.801,13.789
 C,0,34.478,2.725,12.839
 C,0,32.627,4.115,12.142
 C,0,31.314,4.794,12.321
 C,0,31.149,5.647,11.298
 C,0,32.33,5.466,10.412
 C,0,33.712,6.184,8.495
 C,0,33.922,7.037,7.293
 C,0,35.153,6.785,6.825
 C,0,35.75,5.829,7.789
 C,0,37.027,5.355,7.683
 H,0,37.633,5.709,6.849
 C,0,37.729,2.338,11.422
 H,0,38.536,1.683,11.75
 C,0,33.151,3.159,12.967
 H,0,32.522,2.724,13.743
 C,0,32.554,6.2,9.261
 H,0,31.747,6.851,8.924
 C,0,40.005,4.241,7.321
 H,0,39.978,5.347,7.421
 H,0,39.337,3.938,6.486
 H,0,41.048,3.924,7.107
 C,0,40.406,2.251,9.821
 H,0,39.829,1.31,9.95
 H,0,40.634,2.674,10.823
 H,0,41.35,2.024,9.281
 C,0,35.851,7.282,5.518
 H,0,36.739,7.103,4.874
 H,0,35.837,8.35,5.825
 H,0,34.933,7.041,4.941
 C,0,32.8,7.89,6.674
 H,0,32.161,7.449,5.903
 C,0,33.092,9.186,6.408
 H,0,33.727,9.767,7.093
 H,0,32.698,9.673,5.504
 C,0,29.964,6.579,10.99
 H,0,29.748,6.196,9.97
 H,0,30.559,7.513,10.906
 H,0,29.003,6.786,11.508
 C,0,30.488,4.47,13.568
 H,0,30.909,3.637,14.1
 C,0,29.421,5.26,13.871
 H,0,29.126,6.081,13.201
 H,0,28.841,5.087,14.789
 C,0,34.369,1.24,15.041
 H,0,34.611,0.205,14.717
 H,0,33.388,1.234,15.563
 H,0,35.164,1.596,15.731
 C,0,37.511,0.869,14.11
 H,0,36.928,-0.073,14.026
 H,0,37.273,1.355,15.08
 H,0,38.594,0.628,14.062
 C,0,32.285,0.111,7.514
 H,0,32.266,0.091,6.403
 H,0,31.3,0.466,7.885
 H,0,32.485,-0.915,7.889
 N,0,34.715,0.861,7.747
 H,0,35.101,0.106,7.217
 C,0,33.37,1.043,7.981
 C,0,35.427,1.872,8.353
 H,0,36.501,2.031,8.329
 N,0,34.537,2.527,8.913
 C,0,33.297,2.18,8.793
 H,0,32.479,2.715,9.254
 O,0,35.828,5.647,11.445
 O,0,35.037,6.44,12.088
 Recover connectivity data from disk.
 Stoichiometry    C34H34FeN6O2(1+,2)
 Framework group  C1[X(C34H34FeN6O2)]
 Deg. of freedom   225
 Full point group                 C1      NOp   1
 Largest Abelian subgroup         C1      NOp   1
 Largest concise Abelian subgroup C1      NOp   1
                         Standard orientation:                         
 ---------------------------------------------------------------------
 Center     Atomic      Atomic             Coordinates (Angstroms)
 Number     Number       Type             X           Y           Z
 ---------------------------------------------------------------------
      1         26           0       -0.134665   -0.108407   -0.326801
      2          7           0       -2.240571   -0.203590   -0.502164
      3          7           0       -0.028699   -2.135777   -0.315509
      4          7           0        1.969828   -0.027130   -0.176148
      5          7           0       -0.281086    1.927790   -0.310032
      6          6           0       -3.025775    0.852197   -0.548000
      7          6           0       -4.419411    0.328834   -0.682407
      8          6           0       -4.325275   -1.018837   -0.753676
      9          6           0       -2.891115   -1.339378   -0.597989
     10          6           0       -1.062157   -2.966208   -0.524469
     11          6           0       -0.527939   -4.335944   -0.540869
     12          6           0        0.792667   -4.262745   -0.381715
     13          6           0        1.148172   -2.843720   -0.298733
     14          6           0        2.792617   -1.074662   -0.197038
     15          6           0        4.171257   -0.515746   -0.260399
     16          6           0        4.072494    0.822706   -0.272907
     17          6           0        2.623602    1.133246   -0.143308
     18          6           0        0.754988    2.747197   -0.204805
     19          6           0        0.248924    4.145652   -0.273632
     20          6           0       -1.089354    4.091657   -0.336760
     21          6           0       -1.420497    2.647044   -0.392251
     22          6           0       -2.697029    2.173308   -0.504867
     23          1           0       -3.506017    2.901398   -0.564295
     24          6           0       -2.404549   -2.672817   -0.573735
     25          1           0       -3.121384   -3.493523   -0.594875
     26          6           0        2.470370   -2.402403   -0.148069
     27          1           0        3.260444   -3.135406    0.011719
     28          6           0        2.102232    2.414538   -0.157394
     29          1           0        2.814635    3.239319   -0.128461
     30          6           0       -5.722121    1.147879   -0.699384
     31          1           0       -5.439519    1.792455   -1.558816
     32          1           0       -5.523513    1.698811    0.245225
     33          1           0       -6.802507    0.900415   -0.774626
     34          6           0       -5.460138   -2.061607   -0.737730
     35          1           0       -5.078206   -2.652554    0.122479
     36          1           0       -5.174615   -2.573732   -1.681722
     37          1           0       -6.566391   -1.990856   -0.663815
     38          6           0       -2.143820    5.243987   -0.284824
     39          1           0       -3.232722    5.433406   -0.167632
     40          1           0       -1.796500    5.708478   -1.232814
     41          1           0       -1.605310    5.692365    0.576976
     42          6           0        1.168210    5.370025   -0.114012
     43          1           0        1.339638    5.779032    0.886272
     44          6           0        1.055244    6.346230   -1.046695
     45          1           0        0.880161    6.091882   -2.102471
     46          1           0        1.136987    7.404823   -0.759779
     47          6           0        5.189527    1.880213   -0.313243
     48          1           0        4.893886    2.429131    0.606012
     49          1           0        4.808365    2.429898   -1.199809
     50          1           0        6.298109    1.816113   -0.353642
     51          6           0        5.349815   -1.487433   -0.355721
     52          1           0        5.025139   -2.499307   -0.198081
     53          6           0        6.580900   -0.996090   -0.667828
     54          1           0        6.734833    0.085777   -0.793658
     55          1           0        7.436363   -1.674576   -0.797800
     56          6           0        1.844391   -5.408735   -0.342168
     57          1           0        1.293120   -5.883368    0.497826
     58          1           0        2.930465   -5.609309   -0.219307
     59          1           0        1.484125   -5.842769   -1.299604
     60          6           0       -1.411069   -5.565859   -0.846009
     61          1           0       -1.110222   -5.998788    0.131934
     62          1           0       -0.710013   -5.923769   -1.629693
     63          1           0       -2.444975   -5.894776   -1.082920
     64          6           0        0.434835   -0.168803    5.387552
     65          1           0       -0.001995    0.643508    6.007561
     66          1           0        1.534496   -0.024120    5.326699
     67          1           0        0.205868   -1.146412    5.862059
     68          7           0       -1.492637   -0.326286    3.719697
     69          1           0       -2.200700   -0.495790    4.405143
     70          6           0       -0.161119   -0.122405    4.006746
     71          6           0       -1.683701   -0.259748    2.357578
     72          1           0       -2.621009   -0.346696    1.816074
     73          7           0       -0.533201   -0.079670    1.934912
     74          6           0        0.456958    0.024543    2.760220
     75          1           0        1.479434    0.186541    2.450105
     76          8           0       -0.045673   -0.188868   -2.255851
     77          8           0        1.077242   -0.000265   -2.865334
 ---------------------------------------------------------------------
 Rotational constants (GHZ):           0.0889987           0.0862921           0.0580171
 General basis read from cards:  (5D, 7F)
 There are   734 symmetry adapted cartesian basis functions of A   symmetry.
 There are   689 symmetry adapted basis functions of A   symmetry.
   689 basis functions,  1398 primitive gaussians,   734 cartesian basis functions
   161 alpha electrons      160 beta electrons
       nuclear repulsion energy      6129.2934769042 Hartrees.
 NAtoms=   77 NActive=   77 NUniq=   77 SFac= 1.00D+00 NAtFMM=   60 NAOKFM=T Big=T
 Integral buffers will be    131072 words long.
 Raffenetti 2 integral format.
 Two-electron integral symmetry is turned on.
 R6APFD:  NTU= -4 IXU= 1 FactS= 1.050
 Nuclear repulsion after empirical dispersion term =     6129.1375474526 Hartrees.
 One-electron integrals computed using PRISM.
 NBasis=   689 RedAO= T EigKep=  3.19D-04  NBF=   689
 NBsUse=   689 1.00D-06 EigRej= -1.00D+00 NBFU=   689
 ExpMin= 4.20D-02 ExpMax= 3.01D+05 ExpMxC= 2.91D+03 IAcc=3 IRadAn=         5 AccDes= 0.00D+00
 Harris functional with IExCor= 3731 and IRadAn=       5 diagonalized for initial guess.
 HarFok:  IExCor= 3731 AccDes= 0.00D+00 IRadAn=         5 IDoV= 1 UseB2=F ITyADJ=14
 ICtDFT=  3500011 ScaDFX=  1.000000  1.000000  1.000000  1.000000
 FoFCou: FMM=F IPFlag=           0 FMFlag=      100000 FMFlg1=        2001
         NFxFlg=           0 DoJE=T BraDBF=F KetDBF=T FulRan=T
         wScrn=  0.000000 ICntrl=       500 IOpCl=  0 I1Cent=   200000004 NGrid=           0
         NMat0=    1 NMatS0=      1 NMatT0=    0 NMatD0=    1 NMtDS0=    0 NMtDT0=    0
 Petite list used in FoFCou.
 Initial guess <Sx>= 0.0000 <Sy>= 0.0000 <Sz>= 0.5000 <S**2>= 0.7500 S= 0.5000
 Requested convergence on RMS density matrix=1.00D-08 within 999 cycles.
 Requested convergence on MAX density matrix=1.00D-06.
 Requested convergence on             energy=1.00D-06.
 No special actions if energy rises.
 EnCoef did   100 forward-backward iterations
 EnCoef did   100 forward-backward iterations
 EnCoef did   100 forward-backward iterations
 EnCoef did   100 forward-backward iterations
 EnCoef did    12 forward-backward iterations
 EnCoef did     1 forward-backward iterations
 EnCoef did   100 forward-backward iterations
 EnCoef did     2 forward-backward iterations
 EnCoef did    10 forward-backward iterations
 EnCoef did     5 forward-backward iterations
 EnCoef did     2 forward-backward iterations
 EnCoef did    12 forward-backward iterations
 Restarting incremental Fock formation.
 Rare condition: small coef for last iteration:  0.000D+00
 Rare condition: small coef for last iteration:  0.000D+00
 Rare condition: small coef for last iteration:  0.000D+00
 Rare condition: small coef for last iteration:  0.000D+00
 Rare condition: small coef for last iteration:  0.000D+00
 Rare condition: small coef for last iteration:  0.000D+00
 Restarting incremental Fock formation.
 Rare condition: small coef for last iteration:  0.000D+00
 Rare condition: small coef for last iteration:  0.000D+00
 Rare condition: small coef for last iteration:  0.000D+00
 Rare condition: small coef for last iteration:  0.000D+00
 Rare condition: small coef for last iteration:  0.000D+00
 Rare condition: small coef for last iteration:  0.000D+00
 Rare condition: small coef for last iteration:  0.000D+00
 Rare condition: small coef for last iteration:  0.000D+00
 Rare condition: small coef for last iteration:  0.000D+00
 Rare condition: small coef for last iteration:  0.000D+00
 Restarting incremental Fock formation.
 Rare condition: small coef for last iteration:  0.000D+00
 Rare condition: small coef for last iteration:  0.000D+00
 Restarting incremental Fock formation.
 Restarting incremental Fock formation.
 Restarting incremental Fock formation.
 SCF Done:  E(UAPFD) =  -3056.72644148     A.U. after  124 cycles
            NFock=124  Conv=0.61D-08     -V/T= 2.0043
 <Sx>= 0.0000 <Sy>= 0.0000 <Sz>= 0.5000 <S**2>= 1.8254 S= 0.9406
 <L.S>=  0.00000000000    
 Annihilation of the first spin contaminant:
 S**2 before annihilation     1.8254,   after     1.0173

 **********************************************************************

            Population analysis using the SCF Density.

 **********************************************************************

 Orbital symmetries:
 Alpha Orbitals:
       Occupied  (A) (A) (A) (A) (A) (A) (A) (A) (A) (A) (A) (A)
                 (A) (A) (A) (A) (A) (A) (A) (A) (A) (A) (A) (A)
                 (A) (A) (A) (A) (A) (A) (A) (A) (A) (A) (A) (A)
                 (A) (A) (A) (A) (A) (A) (A) (A) (A) (A) (A) (A)
                 (A) (A) (A) (A) (A) (A) (A) (A) (A) (A) (A) (A)
                 (A) (A) (A) (A) (A) (A) (A) (A) (A) (A) (A) (A)
                 (A) (A) (A) (A) (A) (A) (A) (A) (A) (A) (A) (A)
                 (A) (A) (A) (A) (A) (A) (A) (A) (A) (A) (A) (A)
                 (A) (A) (A) (A) (A) (A) (A) (A) (A) (A) (A) (A)
                 (A) (A) (A) (A) (A) (A) (A) (A) (A) (A) (A) (A)
                 (A) (A) (A) (A) (A) (A) (A) (A) (A) (A) (A) (A)
                 (A) (A) (A) (A) (A) (A) (A) (A) (A) (A) (A) (A)
                 (A) (A) (A) (A) (A) (A) (A) (A) (A) (A) (A) (A)
                 (A) (A) (A) (A) (A)
       Virtual   (A) (A) (A) (A) (A) (A) (A) (A) (A) (A) (A) (A)
                 (A) (A) (A) (A) (A) (A) (A) (A) (A) (A) (A) (A)
                 (A) (A) (A) (A) (A) (A) (A) (A) (A) (A) (A) (A)
                 (A) (A) (A) (A) (A) (A) (A) (A) (A) (A) (A) (A)
                 (A) (A) (A) (A) (A) (A) (A) (A) (A) (A) (A) (A)
                 (A) (A) (A) (A) (A) (A) (A) (A) (A) (A) (A) (A)
                 (A) (A) (A) (A) (A) (A) (A) (A) (A) (A) (A) (A)
                 (A) (A) (A) (A) (A) (A) (A) (A) (A) (A) (A) (A)
                 (A) (A) (A) (A) (A) (A) (A) (A) (A) (A) (A) (A)
                 (A) (A) (A) (A) (A) (A) (A) (A) (A) (A) (A) (A)
                 (A) (A) (A) (A) (A) (A) (A) (A) (A) (A) (A) (A)
                 (A) (A) (A) (A) (A) (A) (A) (A) (A) (A) (A) (A)
                 (A) (A) (A) (A) (A) (A) (A) (A) (A) (A) (A) (A)
                 (A) (A) (A) (A) (A) (A) (A) (A) (A) (A) (A) (A)
                 (A) (A) (A) (A) (A) (A) (A) (A) (A) (A) (A) (A)
                 (A) (A) (A) (A) (A) (A) (A) (A) (A) (A) (A) (A)
                 (A) (A) (A) (A) (A) (A) (A) (A) (A) (A) (A) (A)
                 (A) (A) (A) (A) (A) (A) (A) (A) (A) (A) (A) (A)
                 (A) (A) (A) (A) (A) (A) (A) (A) (A) (A) (A) (A)
                 (A) (A) (A) (A) (A) (A) (A) (A) (A) (A) (A) (A)
                 (A) (A) (A) (A) (A) (A) (A) (A) (A) (A) (A) (A)
                 (A) (A) (A) (A) (A) (A) (A) (A) (A) (A) (A) (A)
                 (A) (A) (A) (A) (A) (A) (A) (A) (A) (A) (A) (A)
                 (A) (A) (A) (A) (A) (A) (A) (A) (A) (A) (A) (A)
                 (A) (A) (A) (A) (A) (A) (A) (A) (A) (A) (A) (A)
                 (A) (A) (A) (A) (A) (A) (A) (A) (A) (A) (A) (A)
                 (A) (A) (A) (A) (A) (A) (A) (A) (A) (A) (A) (A)
                 (A) (A) (A) (A) (A) (A) (A) (A) (A) (A) (A) (A)
                 (A) (A) (A) (A) (A) (A) (A) (A) (A) (A) (A) (A)
                 (A) (A) (A) (A) (A) (A) (A) (A) (A) (A) (A) (A)
                 (A) (A) (A) (A) (A) (A) (A) (A) (A) (A) (A) (A)
                 (A) (A) (A) (A) (A) (A) (A) (A) (A) (A) (A) (A)
                 (A) (A) (A) (A) (A) (A) (A) (A) (A) (A) (A) (A)
                 (A) (A) (A) (A) (A) (A) (A) (A) (A) (A) (A) (A)
                 (A) (A) (A) (A) (A) (A) (A) (A) (A) (A) (A) (A)
                 (A) (A) (A) (A) (A) (A) (A) (A) (A) (A) (A) (A)
                 (A) (A) (A) (A) (A) (A) (A) (A) (A) (A) (A) (A)
                 (A) (A) (A) (A) (A) (A) (A) (A) (A) (A) (A) (A)
                 (A) (A) (A) (A) (A) (A) (A) (A) (A) (A) (A) (A)
                 (A) (A) (A) (A) (A) (A) (A) (A) (A) (A) (A) (A)
                 (A) (A) (A) (A) (A) (A) (A) (A) (A) (A) (A) (A)
                 (A) (A) (A) (A) (A) (A) (A) (A) (A) (A) (A) (A)
                 (A) (A) (A) (A) (A) (A) (A) (A) (A) (A) (A) (A)
                 (A) (A) (A) (A) (A) (A) (A) (A) (A) (A) (A) (A)
 Beta  Orbitals:
       Occupied  (A) (A) (A) (A) (A) (A) (A) (A) (A) (A) (A) (A)
                 (A) (A) (A) (A) (A) (A) (A) (A) (A) (A) (A) (A)
                 (A) (A) (A) (A) (A) (A) (A) (A) (A) (A) (A) (A)
                 (A) (A) (A) (A) (A) (A) (A) (A) (A) (A) (A) (A)
                 (A) (A) (A) (A) (A) (A) (A) (A) (A) (A) (A) (A)
                 (A) (A) (A) (A) (A) (A) (A) (A) (A) (A) (A) (A)
                 (A) (A) (A) (A) (A) (A) (A) (A) (A) (A) (A) (A)
                 (A) (A) (A) (A) (A) (A) (A) (A) (A) (A) (A) (A)
                 (A) (A) (A) (A) (A) (A) (A) (A) (A) (A) (A) (A)
                 (A) (A) (A) (A) (A) (A) (A) (A) (A) (A) (A) (A)
                 (A) (A) (A) (A) (A) (A) (A) (A) (A) (A) (A) (A)
                 (A) (A) (A) (A) (A) (A) (A) (A) (A) (A) (A) (A)
                 (A) (A) (A) (A) (A) (A) (A) (A) (A) (A) (A) (A)
                 (A) (A) (A) (A)
       Virtual   (A) (A) (A) (A) (A) (A) (A) (A) (A) (A) (A) (A)
                 (A) (A) (A) (A) (A) (A) (A) (A) (A) (A) (A) (A)
                 (A) (A) (A) (A) (A) (A) (A) (A) (A) (A) (A) (A)
                 (A) (A) (A) (A) (A) (A) (A) (A) (A) (A) (A) (A)
                 (A) (A) (A) (A) (A) (A) (A) (A) (A) (A) (A) (A)
                 (A) (A) (A) (A) (A) (A) (A) (A) (A) (A) (A) (A)
                 (A) (A) (A) (A) (A) (A) (A) (A) (A) (A) (A) (A)
                 (A) (A) (A) (A) (A) (A) (A) (A) (A) (A) (A) (A)
                 (A) (A) (A) (A) (A) (A) (A) (A) (A) (A) (A) (A)
                 (A) (A) (A) (A) (A) (A) (A) (A) (A) (A) (A) (A)
                 (A) (A) (A) (A) (A) (A) (A) (A) (A) (A) (A) (A)
                 (A) (A) (A) (A) (A) (A) (A) (A) (A) (A) (A) (A)
                 (A) (A) (A) (A) (A) (A) (A) (A) (A) (A) (A) (A)
                 (A) (A) (A) (A) (A) (A) (A) (A) (A) (A) (A) (A)
                 (A) (A) (A) (A) (A) (A) (A) (A) (A) (A) (A) (A)
                 (A) (A) (A) (A) (A) (A) (A) (A) (A) (A) (A) (A)
                 (A) (A) (A) (A) (A) (A) (A) (A) (A) (A) (A) (A)
                 (A) (A) (A) (A) (A) (A) (A) (A) (A) (A) (A) (A)
                 (A) (A) (A) (A) (A) (A) (A) (A) (A) (A) (A) (A)
                 (A) (A) (A) (A) (A) (A) (A) (A) (A) (A) (A) (A)
                 (A) (A) (A) (A) (A) (A) (A) (A) (A) (A) (A) (A)
                 (A) (A) (A) (A) (A) (A) (A) (A) (A) (A) (A) (A)
                 (A) (A) (A) (A) (A) (A) (A) (A) (A) (A) (A) (A)
                 (A) (A) (A) (A) (A) (A) (A) (A) (A) (A) (A) (A)
                 (A) (A) (A) (A) (A) (A) (A) (A) (A) (A) (A) (A)
                 (A) (A) (A) (A) (A) (A) (A) (A) (A) (A) (A) (A)
                 (A) (A) (A) (A) (A) (A) (A) (A) (A) (A) (A) (A)
                 (A) (A) (A) (A) (A) (A) (A) (A) (A) (A) (A) (A)
                 (A) (A) (A) (A) (A) (A) (A) (A) (A) (A) (A) (A)
                 (A) (A) (A) (A) (A) (A) (A) (A) (A) (A) (A) (A)
                 (A) (A) (A) (A) (A) (A) (A) (A) (A) (A) (A) (A)
                 (A) (A) (A) (A) (A) (A) (A) (A) (A) (A) (A) (A)
                 (A) (A) (A) (A) (A) (A) (A) (A) (A) (A) (A) (A)
                 (A) (A) (A) (A) (A) (A) (A) (A) (A) (A) (A) (A)
                 (A) (A) (A) (A) (A) (A) (A) (A) (A) (A) (A) (A)
                 (A) (A) (A) (A) (A) (A) (A) (A) (A) (A) (A) (A)
                 (A) (A) (A) (A) (A) (A) (A) (A) (A) (A) (A) (A)
                 (A) (A) (A) (A) (A) (A) (A) (A) (A) (A) (A) (A)
                 (A) (A) (A) (A) (A) (A) (A) (A) (A) (A) (A) (A)
                 (A) (A) (A) (A) (A) (A) (A) (A) (A) (A) (A) (A)
                 (A) (A) (A) (A) (A) (A) (A) (A) (A) (A) (A) (A)
                 (A) (A) (A) (A) (A) (A) (A) (A) (A) (A) (A) (A)
                 (A) (A) (A) (A) (A) (A) (A) (A) (A) (A) (A) (A)
                 (A) (A) (A) (A) (A) (A) (A) (A) (A) (A) (A) (A)
                 (A)
 The electronic state is 2-A.
 Alpha  occ. eigenvalues -- -256.32932 -30.18618 -26.02986 -26.02710 -26.01510
 Alpha  occ. eigenvalues --  -19.39217 -19.39162 -14.51854 -14.47238 -14.47156
 Alpha  occ. eigenvalues --  -14.47009 -14.46933 -14.46644 -10.35676 -10.35637
 Alpha  occ. eigenvalues --  -10.35478 -10.35444 -10.35349 -10.35095 -10.35080
 Alpha  occ. eigenvalues --  -10.34864 -10.34781 -10.34522 -10.32968 -10.32178
 Alpha  occ. eigenvalues --  -10.32001 -10.31888 -10.31687 -10.31529 -10.31500
 Alpha  occ. eigenvalues --  -10.31353 -10.31320 -10.31225 -10.31204 -10.30991
 Alpha  occ. eigenvalues --  -10.30612 -10.30589 -10.30370 -10.30323 -10.30061
 Alpha  occ. eigenvalues --  -10.30026 -10.29978 -10.29778 -10.29728 -10.29695
 Alpha  occ. eigenvalues --  -10.29689 -10.29067  -3.56872  -2.34272  -2.33545
 Alpha  occ. eigenvalues --   -2.31052  -1.31476  -1.16451  -1.10478  -1.09415
 Alpha  occ. eigenvalues --   -1.08783  -1.07896  -1.00471  -0.94249  -0.93426
 Alpha  occ. eigenvalues --   -0.92204  -0.92008  -0.91808  -0.91181  -0.90982
 Alpha  occ. eigenvalues --   -0.90754  -0.89302  -0.86553  -0.86424  -0.85222
 Alpha  occ. eigenvalues --   -0.84247  -0.82879  -0.81497  -0.81066  -0.80033
 Alpha  occ. eigenvalues --   -0.79128  -0.78586  -0.77701  -0.76199  -0.75938
 Alpha  occ. eigenvalues --   -0.73438  -0.70217  -0.69934  -0.69661  -0.69451
 Alpha  occ. eigenvalues --   -0.68995  -0.65458  -0.65297  -0.64913  -0.64028
 Alpha  occ. eigenvalues --   -0.63409  -0.62638  -0.62444  -0.61893  -0.61679
 Alpha  occ. eigenvalues --   -0.60110  -0.59348  -0.58964  -0.58600  -0.58489
 Alpha  occ. eigenvalues --   -0.58089  -0.56709  -0.56156  -0.55999  -0.55534
 Alpha  occ. eigenvalues --   -0.55281  -0.54937  -0.54548  -0.54139  -0.53754
 Alpha  occ. eigenvalues --   -0.53637  -0.53306  -0.52902  -0.52502  -0.51766
 Alpha  occ. eigenvalues --   -0.51673  -0.51163  -0.51104  -0.50960  -0.50767
 Alpha  occ. eigenvalues --   -0.50660  -0.50561  -0.50408  -0.50325  -0.50218
 Alpha  occ. eigenvalues --   -0.49814  -0.49683  -0.49607  -0.49277  -0.48759
 Alpha  occ. eigenvalues --   -0.48588  -0.47894  -0.46407  -0.45107  -0.44225
 Alpha  occ. eigenvalues --   -0.43841  -0.43759  -0.42900  -0.42703  -0.42410
 Alpha  occ. eigenvalues --   -0.41328  -0.41246  -0.40656  -0.40582  -0.40261
 Alpha  occ. eigenvalues --   -0.39822  -0.39700  -0.39165  -0.38817  -0.38065
 Alpha  occ. eigenvalues --   -0.37325  -0.35613  -0.35340  -0.35236  -0.34671
 Alpha  occ. eigenvalues --   -0.33965  -0.33051  -0.32995  -0.32732  -0.31287
 Alpha  occ. eigenvalues --   -0.30572
 Alpha virt. eigenvalues --   -0.24791  -0.16859  -0.16510  -0.13353  -0.11138
 Alpha virt. eigenvalues --   -0.11126  -0.09781  -0.07119  -0.07078  -0.04298
 Alpha virt. eigenvalues --   -0.02066  -0.01829  -0.01116  -0.00494   0.00017
 Alpha virt. eigenvalues --    0.00406   0.00797   0.01028   0.01428   0.01774
 Alpha virt. eigenvalues --    0.02190   0.02406   0.02856   0.03140   0.03490
 Alpha virt. eigenvalues --    0.03737   0.03976   0.04017   0.04234   0.04534
 Alpha virt. eigenvalues --    0.04788   0.05001   0.05435   0.05675   0.05720
 Alpha virt. eigenvalues --    0.06177   0.06367   0.06627   0.07028   0.07302
 Alpha virt. eigenvalues --    0.07774   0.08189   0.08395   0.08557   0.08904
 Alpha virt. eigenvalues --    0.08996   0.09394   0.09542   0.09586   0.10973
 Alpha virt. eigenvalues --    0.11321   0.11672   0.12269   0.12508   0.12732
 Alpha virt. eigenvalues --    0.13681   0.14192   0.14332   0.15013   0.15538
 Alpha virt. eigenvalues --    0.15963   0.16624   0.16981   0.17190   0.18025
 Alpha virt. eigenvalues --    0.18211   0.18856   0.19427   0.20298   0.20417
 Alpha virt. eigenvalues --    0.20640   0.20910   0.21521   0.22429   0.23259
 Alpha virt. eigenvalues --    0.23551   0.24219   0.24709   0.25361   0.26244
 Alpha virt. eigenvalues --    0.26436   0.27423   0.29013   0.29387   0.30482
 Alpha virt. eigenvalues --    0.30791   0.31412   0.32453   0.33344   0.34756
 Alpha virt. eigenvalues --    0.35077   0.35611   0.36672   0.37070   0.37645
 Alpha virt. eigenvalues --    0.37954   0.38993   0.39022   0.39545   0.40529
 Alpha virt. eigenvalues --    0.41310   0.41480   0.42197   0.42221   0.42483
 Alpha virt. eigenvalues --    0.42723   0.43290   0.43657   0.44066   0.44312
 Alpha virt. eigenvalues --    0.44728   0.45022   0.45147   0.45318   0.45936
 Alpha virt. eigenvalues --    0.46460   0.46525   0.46868   0.47283   0.47416
 Alpha virt. eigenvalues --    0.48216   0.48367   0.48794   0.50037   0.50296
 Alpha virt. eigenvalues --    0.50413   0.50516   0.51485   0.51526   0.51836
 Alpha virt. eigenvalues --    0.52289   0.52617   0.53124   0.53131   0.53518
 Alpha virt. eigenvalues --    0.53846   0.54144   0.54517   0.54829   0.55211
 Alpha virt. eigenvalues --    0.55870   0.56102   0.56581   0.56855   0.57444
 Alpha virt. eigenvalues --    0.57820   0.58479   0.58965   0.59084   0.59681
 Alpha virt. eigenvalues --    0.60126   0.60488   0.61064   0.61093   0.61833
 Alpha virt. eigenvalues --    0.62609   0.62791   0.63827   0.63893   0.64281
 Alpha virt. eigenvalues --    0.64516   0.64806   0.65075   0.65790   0.66421
 Alpha virt. eigenvalues --    0.66753   0.67071   0.68105   0.68650   0.69029
 Alpha virt. eigenvalues --    0.69533   0.70473   0.70565   0.70821   0.71096
 Alpha virt. eigenvalues --    0.71426   0.72344   0.72619   0.73162   0.73597
 Alpha virt. eigenvalues --    0.73873   0.74256   0.75122   0.75305   0.75750
 Alpha virt. eigenvalues --    0.76047   0.76338   0.77294   0.77363   0.77466
 Alpha virt. eigenvalues --    0.77843   0.78475   0.78616   0.78809   0.79086
 Alpha virt. eigenvalues --    0.79301   0.79592   0.79870   0.80350   0.80822
 Alpha virt. eigenvalues --    0.81253   0.81484   0.81582   0.82053   0.82271
 Alpha virt. eigenvalues --    0.82587   0.82802   0.83058   0.83430   0.83596
 Alpha virt. eigenvalues --    0.83806   0.84434   0.84820   0.85053   0.85406
 Alpha virt. eigenvalues --    0.85714   0.86256   0.87072   0.87699   0.87979
 Alpha virt. eigenvalues --    0.88727   0.88797   0.89477   0.89886   0.90163
 Alpha virt. eigenvalues --    0.90830   0.91255   0.91797   0.92252   0.92458
 Alpha virt. eigenvalues --    0.93135   0.93897   0.94174   0.95146   0.95628
 Alpha virt. eigenvalues --    0.95921   0.96410   0.97434   0.97987   0.98414
 Alpha virt. eigenvalues --    0.99230   0.99784   0.99995   1.00802   1.01217
 Alpha virt. eigenvalues --    1.02032   1.02430   1.02965   1.03908   1.04844
 Alpha virt. eigenvalues --    1.05184   1.05914   1.06401   1.06663   1.07282
 Alpha virt. eigenvalues --    1.08739   1.09094   1.09451   1.10393   1.11108
 Alpha virt. eigenvalues --    1.11446   1.11916   1.13316   1.13778   1.14235
 Alpha virt. eigenvalues --    1.15443   1.15773   1.16194   1.16797   1.17327
 Alpha virt. eigenvalues --    1.18006   1.18894   1.19561   1.19645   1.20095
 Alpha virt. eigenvalues --    1.20332   1.21547   1.21884   1.21999   1.22375
 Alpha virt. eigenvalues --    1.24113   1.24881   1.25200   1.25340   1.25753
 Alpha virt. eigenvalues --    1.26099   1.26524   1.26904   1.27612   1.28535
 Alpha virt. eigenvalues --    1.28875   1.29312   1.29814   1.31092   1.31196
 Alpha virt. eigenvalues --    1.31302   1.32481   1.33264   1.33732   1.33804
 Alpha virt. eigenvalues --    1.34604   1.35745   1.36496   1.36714   1.36978
 Alpha virt. eigenvalues --    1.37773   1.38337   1.38575   1.39135   1.39851
 Alpha virt. eigenvalues --    1.40413   1.41603   1.42047   1.42722   1.43155
 Alpha virt. eigenvalues --    1.43310   1.44992   1.45657   1.46044   1.47308
 Alpha virt. eigenvalues --    1.48745   1.50144   1.52152   1.52825   1.54138
 Alpha virt. eigenvalues --    1.55054   1.55856   1.56386   1.57450   1.57741
 Alpha virt. eigenvalues --    1.58120   1.59051   1.60140   1.60282   1.62588
 Alpha virt. eigenvalues --    1.63436   1.64497   1.66237   1.66658   1.68062
 Alpha virt. eigenvalues --    1.68224   1.69486   1.69631   1.70477   1.70605
 Alpha virt. eigenvalues --    1.71215   1.71473   1.72246   1.72908   1.73212
 Alpha virt. eigenvalues --    1.73676   1.73971   1.74420   1.74654   1.75238
 Alpha virt. eigenvalues --    1.76710   1.77081   1.77633   1.78190   1.78567
 Alpha virt. eigenvalues --    1.78731   1.80464   1.80672   1.80822   1.81455
 Alpha virt. eigenvalues --    1.82121   1.82381   1.83265   1.83621   1.84630
 Alpha virt. eigenvalues --    1.84986   1.85954   1.86120   1.87539   1.88080
 Alpha virt. eigenvalues --    1.88989   1.89265   1.89518   1.90400   1.90732
 Alpha virt. eigenvalues --    1.91279   1.91972   1.92595   1.93588   1.94340
 Alpha virt. eigenvalues --    1.94771   1.95082   1.95447   1.96035   1.96695
 Alpha virt. eigenvalues --    1.97266   1.98417   1.98663   1.98931   2.00200
 Alpha virt. eigenvalues --    2.00844   2.02120   2.02621   2.02723   2.04319
 Alpha virt. eigenvalues --    2.04762   2.05400   2.06092   2.06295   2.07509
 Alpha virt. eigenvalues --    2.07900   2.08757   2.09151   2.09802   2.10502
 Alpha virt. eigenvalues --    2.11382   2.12046   2.12419   2.13170   2.13673
 Alpha virt. eigenvalues --    2.14577   2.14917   2.15626   2.16779   2.16965
 Alpha virt. eigenvalues --    2.17062   2.17406   2.17988   2.18988   2.20763
 Alpha virt. eigenvalues --    2.21145   2.21479   2.21742   2.22225   2.22403
 Alpha virt. eigenvalues --    2.22748   2.22919   2.23788   2.24533   2.24827
 Alpha virt. eigenvalues --    2.25463   2.26004   2.26320   2.26952   2.27316
 Alpha virt. eigenvalues --    2.27591   2.28288   2.29866   2.30809   2.32330
 Alpha virt. eigenvalues --    2.33024   2.33406   2.34017   2.35386   2.36155
 Alpha virt. eigenvalues --    2.37789   2.38034   2.39200   2.39753   2.40358
 Alpha virt. eigenvalues --    2.40820   2.41589   2.41710   2.41908   2.42668
 Alpha virt. eigenvalues --    2.43008   2.43244   2.43557   2.43929   2.44385
 Alpha virt. eigenvalues --    2.45599   2.46158   2.46663   2.47606   2.48129
 Alpha virt. eigenvalues --    2.49369   2.51831   2.52567   2.55809   2.56562
 Alpha virt. eigenvalues --    2.56901   2.58010   2.58623   2.59603   2.59741
 Alpha virt. eigenvalues --    2.60651   2.61502   2.62017   2.62929   2.64592
 Alpha virt. eigenvalues --    2.66134   2.67043   2.68646   2.70194   2.71194
 Alpha virt. eigenvalues --    2.73381   2.74258   2.76176   2.76815   2.78398
 Alpha virt. eigenvalues --    2.80659   2.82420   2.84887   2.86799   2.87195
 Alpha virt. eigenvalues --    2.87561   2.89077   2.89823   2.90121   2.91758
 Alpha virt. eigenvalues --    2.92374   2.95624   2.97323   3.02233   3.02662
 Alpha virt. eigenvalues --    3.05163   3.06396   3.09803   3.11216   3.13811
 Alpha virt. eigenvalues --    3.14627   3.16617   3.18796   3.23886   3.32343
 Alpha virt. eigenvalues --    3.35355   3.37261   3.51082   3.56888   3.70343
 Alpha virt. eigenvalues --    3.77553   4.04355   4.19784
  Beta  occ. eigenvalues -- -256.32907 -30.17565 -26.01813 -26.01563 -26.01179
  Beta  occ. eigenvalues --  -19.37079 -19.36392 -14.51853 -14.47112 -14.47053
  Beta  occ. eigenvalues --  -14.46879 -14.46825 -14.46633 -10.35963 -10.35803
  Beta  occ. eigenvalues --  -10.35742 -10.35675 -10.35662 -10.35406 -10.35374
  Beta  occ. eigenvalues --  -10.35146 -10.35061 -10.34521 -10.32985 -10.32236
  Beta  occ. eigenvalues --  -10.31996 -10.31923 -10.31542 -10.31508 -10.31389
  Beta  occ. eigenvalues --  -10.31361 -10.31320 -10.31084 -10.31064 -10.30996
  Beta  occ. eigenvalues --  -10.30657 -10.30557 -10.30370 -10.30317 -10.30061
  Beta  occ. eigenvalues --  -10.30024 -10.29977 -10.29781 -10.29731 -10.29701
  Beta  occ. eigenvalues --  -10.29690 -10.29137  -3.54408  -2.30778  -2.30207
  Beta  occ. eigenvalues --   -2.30030  -1.26389  -1.16441  -1.10733  -1.09633
  Beta  occ. eigenvalues --   -1.08997  -1.08105  -1.00458  -0.94605  -0.92417
  Beta  occ. eigenvalues --   -0.92102  -0.91995  -0.91390  -0.91044  -0.90827
  Beta  occ. eigenvalues --   -0.89299  -0.86736  -0.86441  -0.86124  -0.85280
  Beta  occ. eigenvalues --   -0.84390  -0.82910  -0.81495  -0.81289  -0.80104
  Beta  occ. eigenvalues --   -0.79409  -0.78644  -0.77763  -0.76547  -0.76313
  Beta  occ. eigenvalues --   -0.73429  -0.70333  -0.69932  -0.69760  -0.69648
  Beta  occ. eigenvalues --   -0.69170  -0.65507  -0.65411  -0.65016  -0.64137
  Beta  occ. eigenvalues --   -0.63159  -0.62765  -0.62554  -0.61818  -0.59308
  Beta  occ. eigenvalues --   -0.58850  -0.58662  -0.58514  -0.58080  -0.56777
  Beta  occ. eigenvalues --   -0.56347  -0.56176  -0.55872  -0.55502  -0.55438
  Beta  occ. eigenvalues --   -0.54689  -0.54435  -0.54264  -0.53747  -0.53652
  Beta  occ. eigenvalues --   -0.53023  -0.52731  -0.52124  -0.51839  -0.51802
  Beta  occ. eigenvalues --   -0.51587  -0.51190  -0.51136  -0.50949  -0.50841
  Beta  occ. eigenvalues --   -0.50751  -0.50571  -0.50446  -0.50405  -0.50058
  Beta  occ. eigenvalues --   -0.49802  -0.49718  -0.49517  -0.49264  -0.48968
  Beta  occ. eigenvalues --   -0.48759  -0.48083  -0.46422  -0.45065  -0.44299
  Beta  occ. eigenvalues --   -0.44019  -0.43739  -0.43674  -0.42828  -0.42441
  Beta  occ. eigenvalues --   -0.40950  -0.40697  -0.40539  -0.40258  -0.39990
  Beta  occ. eigenvalues --   -0.39453  -0.39340  -0.39232  -0.38216  -0.35762
  Beta  occ. eigenvalues --   -0.34981  -0.34719  -0.34001  -0.33545  -0.33025
  Beta  occ. eigenvalues --   -0.32829  -0.31239  -0.30576  -0.29594  -0.29073
  Beta virt. eigenvalues --   -0.21022  -0.19584  -0.17901  -0.17277  -0.11590
  Beta virt. eigenvalues --   -0.10847  -0.09968  -0.09777  -0.07657  -0.07082
  Beta virt. eigenvalues --   -0.05586  -0.02870  -0.01845  -0.01745  -0.00661
  Beta virt. eigenvalues --   -0.00095   0.00073   0.00727   0.00864   0.01361
  Beta virt. eigenvalues --    0.01702   0.02098   0.02408   0.02796   0.02945
  Beta virt. eigenvalues --    0.03089   0.03646   0.03753   0.03970   0.04174
  Beta virt. eigenvalues --    0.04338   0.04457   0.04764   0.05405   0.05504
  Beta virt. eigenvalues --    0.05782   0.06052   0.06102   0.06753   0.06892
  Beta virt. eigenvalues --    0.07666   0.08006   0.08220   0.08435   0.08773
  Beta virt. eigenvalues --    0.08913   0.09324   0.09427   0.09554   0.09683
  Beta virt. eigenvalues --    0.10912   0.11303   0.11677   0.12235   0.12385
  Beta virt. eigenvalues --    0.12592   0.13559   0.14077   0.14173   0.15013
  Beta virt. eigenvalues --    0.15452   0.15804   0.16533   0.16894   0.16998
  Beta virt. eigenvalues --    0.17908   0.18256   0.18794   0.19322   0.20129
  Beta virt. eigenvalues --    0.20332   0.20576   0.20794   0.21445   0.22512
  Beta virt. eigenvalues --    0.23329   0.23634   0.24026   0.24455   0.25261
  Beta virt. eigenvalues --    0.26050   0.26289   0.27109   0.28783   0.29393
  Beta virt. eigenvalues --    0.30423   0.30916   0.31299   0.32335   0.33215
  Beta virt. eigenvalues --    0.34679   0.35018   0.35465   0.36499   0.36976
  Beta virt. eigenvalues --    0.37515   0.37784   0.38816   0.38890   0.39405
  Beta virt. eigenvalues --    0.40282   0.41272   0.41402   0.41919   0.42104
  Beta virt. eigenvalues --    0.42378   0.42606   0.43146   0.43605   0.43989
  Beta virt. eigenvalues --    0.44233   0.44569   0.44923   0.44995   0.45209
  Beta virt. eigenvalues --    0.45860   0.46337   0.46376   0.46778   0.47268
  Beta virt. eigenvalues --    0.47351   0.48097   0.48373   0.48658   0.49955
  Beta virt. eigenvalues --    0.50206   0.50226   0.50469   0.51242   0.51447
  Beta virt. eigenvalues --    0.51537   0.52212   0.52515   0.53076   0.53141
  Beta virt. eigenvalues --    0.53383   0.53838   0.54116   0.54477   0.54888
  Beta virt. eigenvalues --    0.55183   0.55876   0.56326   0.56624   0.56938
  Beta virt. eigenvalues --    0.57392   0.57699   0.58464   0.58942   0.59045
  Beta virt. eigenvalues --    0.59622   0.59886   0.60392   0.60817   0.61094
  Beta virt. eigenvalues --    0.61796   0.62483   0.62744   0.63642   0.63878
  Beta virt. eigenvalues --    0.64167   0.64374   0.64653   0.65108   0.65739
  Beta virt. eigenvalues --    0.66388   0.66739   0.67485   0.68029   0.68384
  Beta virt. eigenvalues --    0.68911   0.69224   0.70406   0.70454   0.70752
  Beta virt. eigenvalues --    0.70863   0.71238   0.72302   0.72678   0.72993
  Beta virt. eigenvalues --    0.73625   0.73866   0.74417   0.75196   0.75307
  Beta virt. eigenvalues --    0.75925   0.76328   0.76829   0.77176   0.77407
  Beta virt. eigenvalues --    0.77544   0.77843   0.78591   0.78668   0.78799
  Beta virt. eigenvalues --    0.79067   0.79363   0.79581   0.79911   0.80288
  Beta virt. eigenvalues --    0.80965   0.81415   0.81438   0.82024   0.82134
  Beta virt. eigenvalues --    0.82322   0.82683   0.82976   0.83092   0.83572
  Beta virt. eigenvalues --    0.83796   0.84171   0.84589   0.84969   0.85096
  Beta virt. eigenvalues --    0.85556   0.86239   0.86891   0.87316   0.87763
  Beta virt. eigenvalues --    0.87955   0.88723   0.89089   0.89390   0.89914
  Beta virt. eigenvalues --    0.90220   0.90983   0.91483   0.91816   0.92426
  Beta virt. eigenvalues --    0.92732   0.93414   0.93988   0.94401   0.95184
  Beta virt. eigenvalues --    0.95938   0.96098   0.96453   0.97798   0.97916
  Beta virt. eigenvalues --    0.98504   0.99377   0.99880   1.00531   1.01205
  Beta virt. eigenvalues --    1.01967   1.02566   1.02936   1.03481   1.04091
  Beta virt. eigenvalues --    1.05021   1.05311   1.06439   1.06605   1.06846
  Beta virt. eigenvalues --    1.07263   1.08765   1.09039   1.09604   1.10396
  Beta virt. eigenvalues --    1.11212   1.11598   1.11962   1.13314   1.13700
  Beta virt. eigenvalues --    1.14301   1.15376   1.15844   1.16273   1.16615
  Beta virt. eigenvalues --    1.17285   1.17975   1.18731   1.19333   1.19410
  Beta virt. eigenvalues --    1.20071   1.20186   1.21377   1.21701   1.21880
  Beta virt. eigenvalues --    1.22212   1.23844   1.24589   1.25120   1.25305
  Beta virt. eigenvalues --    1.25487   1.26032   1.26521   1.26864   1.27685
  Beta virt. eigenvalues --    1.28440   1.28731   1.29365   1.29774   1.31022
  Beta virt. eigenvalues --    1.31169   1.31692   1.32486   1.33320   1.33630
  Beta virt. eigenvalues --    1.33893   1.34805   1.35790   1.36363   1.36768
  Beta virt. eigenvalues --    1.36943   1.37706   1.38282   1.38579   1.39106
  Beta virt. eigenvalues --    1.39820   1.40692   1.41472   1.41988   1.43367
  Beta virt. eigenvalues --    1.43878   1.44355   1.45189   1.45838   1.46129
  Beta virt. eigenvalues --    1.47429   1.49249   1.50281   1.52126   1.53665
  Beta virt. eigenvalues --    1.54701   1.55159   1.56493   1.56844   1.57540
  Beta virt. eigenvalues --    1.57737   1.58186   1.58833   1.60462   1.60548
  Beta virt. eigenvalues --    1.62985   1.63754   1.64514   1.66398   1.66751
  Beta virt. eigenvalues --    1.67995   1.68381   1.69438   1.69686   1.70446
  Beta virt. eigenvalues --    1.70529   1.71231   1.71371   1.72117   1.72893
  Beta virt. eigenvalues --    1.73164   1.73707   1.74274   1.74328   1.74964
  Beta virt. eigenvalues --    1.75869   1.76982   1.77153   1.77812   1.78671
  Beta virt. eigenvalues --    1.78829   1.79691   1.80571   1.80935   1.81311
  Beta virt. eigenvalues --    1.81894   1.82210   1.82404   1.83564   1.83785
  Beta virt. eigenvalues --    1.84694   1.85205   1.86016   1.86207   1.87716
  Beta virt. eigenvalues --    1.88037   1.88977   1.89284   1.89513   1.90567
  Beta virt. eigenvalues --    1.90734   1.91114   1.91959   1.92601   1.93690
  Beta virt. eigenvalues --    1.94333   1.94761   1.95169   1.95397   1.96006
  Beta virt. eigenvalues --    1.96728   1.97296   1.98268   1.98844   1.98949
  Beta virt. eigenvalues --    2.00084   2.00969   2.01967   2.02555   2.03557
  Beta virt. eigenvalues --    2.04208   2.04581   2.05299   2.06085   2.06274
  Beta virt. eigenvalues --    2.07434   2.07744   2.08482   2.08894   2.10172
  Beta virt. eigenvalues --    2.10498   2.11284   2.12007   2.12366   2.13093
  Beta virt. eigenvalues --    2.13500   2.14428   2.14744   2.15494   2.16284
  Beta virt. eigenvalues --    2.16854   2.17089   2.17378   2.18186   2.18941
  Beta virt. eigenvalues --    2.20621   2.21123   2.21185   2.21665   2.22261
  Beta virt. eigenvalues --    2.22471   2.22580   2.23092   2.23612   2.24236
  Beta virt. eigenvalues --    2.24610   2.25138   2.25839   2.26409   2.27054
  Beta virt. eigenvalues --    2.27288   2.28028   2.28424   2.29857   2.30634
  Beta virt. eigenvalues --    2.32227   2.32877   2.33153   2.33719   2.35428
  Beta virt. eigenvalues --    2.36240   2.37495   2.39155   2.39333   2.39947
  Beta virt. eigenvalues --    2.40245   2.40646   2.41447   2.41708   2.42059
  Beta virt. eigenvalues --    2.42565   2.42964   2.43372   2.43957   2.44416
  Beta virt. eigenvalues --    2.45198   2.45731   2.46424   2.47022   2.47587
  Beta virt. eigenvalues --    2.47874   2.49414   2.52283   2.53088   2.55781
  Beta virt. eigenvalues --    2.56375   2.56891   2.57917   2.58344   2.59361
  Beta virt. eigenvalues --    2.59781   2.60621   2.61492   2.61881   2.62950
  Beta virt. eigenvalues --    2.64553   2.66167   2.67317   2.68549   2.70250
  Beta virt. eigenvalues --    2.71055   2.73200   2.74171   2.76039   2.76770
  Beta virt. eigenvalues --    2.78190   2.80390   2.82275   2.84706   2.86707
  Beta virt. eigenvalues --    2.87231   2.87576   2.88991   2.89983   2.90814
  Beta virt. eigenvalues --    2.91702   2.92866   2.95546   2.97282   3.02061
  Beta virt. eigenvalues --    3.02459   3.05030   3.06425   3.09806   3.11108
  Beta virt. eigenvalues --    3.13726   3.14534   3.16556   3.18690   3.23763
  Beta virt. eigenvalues --    3.32283   3.35254   3.37172   3.54535   3.57674
  Beta virt. eigenvalues --    3.71559   3.78244   4.04967   4.20577
          Condensed to atoms (all electrons):
          Atomic-Atomic Spin Densities.
 Mulliken charges and spin densities:
               1          2
     1  Fe   0.798152   0.444788
     2  N   -0.613711   0.062548
     3  N   -0.663312   0.068575
     4  N   -0.655833   0.061270
     5  N   -0.649401   0.067683
     6  C    0.338418  -0.209848
     7  C   -0.034063  -0.021970
     8  C   -0.002491   0.000427
     9  C    0.306013  -0.218348
    10  C    0.380398  -0.184430
    11  C   -0.047048  -0.038749
    12  C   -0.030047   0.010600
    13  C    0.349974  -0.215473
    14  C    0.343745  -0.186584
    15  C   -0.032241  -0.030771
    16  C   -0.019356   0.017902
    17  C    0.348409  -0.198616
    18  C    0.370329  -0.186267
    19  C   -0.035634  -0.021677
    20  C   -0.012895  -0.008753
    21  C    0.342211  -0.217635
    22  C   -0.289301   0.112310
    23  H    0.203813  -0.004017
    24  C   -0.285544   0.114134
    25  H    0.204802  -0.004192
    26  C   -0.281856   0.108532
    27  H    0.211902  -0.004076
    28  C   -0.297833   0.112563
    29  H    0.206729  -0.004143
    30  C   -0.566529  -0.000313
    31  H    0.201587  -0.001308
    32  H    0.188856  -0.000932
    33  H    0.225135   0.000337
    34  C   -0.570280  -0.001629
    35  H    0.186740  -0.000501
    36  H    0.204118  -0.000562
    37  H    0.222240   0.000353
    38  C   -0.574259   0.001793
    39  H    0.225273   0.000015
    40  H    0.217258  -0.002013
    41  H    0.211933  -0.001052
    42  C   -0.197847   0.004101
    43  H    0.190498  -0.001869
    44  C   -0.344050  -0.002908
    45  H    0.193203   0.000061
    46  H    0.197422   0.000042
    47  C   -0.584021  -0.002245
    48  H    0.201096   0.000055
    49  H    0.210327  -0.000211
    50  H    0.230106   0.000244
    51  C   -0.090686   0.025818
    52  H    0.173420  -0.001132
    53  C   -0.387229  -0.051588
    54  H    0.180782   0.002674
    55  H    0.194369   0.002623
    56  C   -0.576195   0.000401
    57  H    0.208022  -0.000864
    58  H    0.226906   0.000100
    59  H    0.208884  -0.000941
    60  C   -0.573700   0.002238
    61  H    0.208248  -0.002512
    62  H    0.210311  -0.001941
    63  H    0.229901   0.000107
    64  C   -0.595095   0.000085
    65  H    0.206565  -0.000015
    66  H    0.213783   0.000012
    67  H    0.206701  -0.000004
    68  N   -0.650532   0.000520
    69  H    0.367652  -0.000027
    70  C    0.269467   0.000092
    71  C    0.234615   0.000143
    72  H    0.224310   0.000770
    73  N   -0.399610   0.003179
    74  C   -0.050829  -0.000649
    75  H    0.205694   0.000311
    76  O   -0.149631   0.652266
    77  O   -0.019258   0.951092
 Sum of Mulliken charges =   1.00000   1.00000
 Mulliken charges and spin densities with hydrogens summed into heavy atoms:
               1          2
     1  Fe   0.798152   0.444788
     2  N   -0.613711   0.062548
     3  N   -0.663312   0.068575
     4  N   -0.655833   0.061270
     5  N   -0.649401   0.067683
     6  C    0.338418  -0.209848
     7  C   -0.034063  -0.021970
     8  C   -0.002491   0.000427
     9  C    0.306013  -0.218348
    10  C    0.380398  -0.184430
    11  C   -0.047048  -0.038749
    12  C   -0.030047   0.010600
    13  C    0.349974  -0.215473
    14  C    0.343745  -0.186584
    15  C   -0.032241  -0.030771
    16  C   -0.019356   0.017902
    17  C    0.348409  -0.198616
    18  C    0.370329  -0.186267
    19  C   -0.035634  -0.021677
    20  C   -0.012895  -0.008753
    21  C    0.342211  -0.217635
    22  C   -0.085488   0.108293
    24  C   -0.080742   0.109942
    26  C   -0.069954   0.104455
    28  C   -0.091104   0.108420
    30  C    0.049049  -0.002216
    34  C    0.042819  -0.002339
    38  C    0.080205  -0.001256
    42  C   -0.007350   0.002231
    44  C    0.046575  -0.002805
    47  C    0.057508  -0.002157
    51  C    0.082735   0.024686
    53  C   -0.012079  -0.046291
    56  C    0.067616  -0.001304
    60  C    0.074759  -0.002107
    64  C    0.031954   0.000079
    68  N   -0.282879   0.000493
    70  C    0.269467   0.000092
    71  C    0.458925   0.000913
    73  N   -0.399610   0.003179
    74  C    0.154865  -0.000337
    76  O   -0.149631   0.652266
    77  O   -0.019258   0.951092
 Electronic spatial extent (au):  <R**2>=          20588.5865
 Charge=              1.0000 electrons
 Dipole moment (field-independent basis, Debye):
    X=             -2.7303    Y=             -0.4111    Z=              5.2398  Tot=              5.9228
 Quadrupole moment (field-independent basis, Debye-Ang):
   XX=           -170.1609   YY=           -173.4307   ZZ=           -224.3476
   XY=             -0.1494   XZ=             -4.3824   YZ=             -1.6867
 Traceless Quadrupole moment (field-independent basis, Debye-Ang):
   XX=             19.1522   YY=             15.8824   ZZ=            -35.0345
   XY=             -0.1494   XZ=             -4.3824   YZ=             -1.6867
 Octapole moment (field-independent basis, Debye-Ang**2):
  XXX=            -25.0940  YYY=             36.8483  ZZZ=            159.1325  XYY=            -10.6618
  XXY=            -24.2033  XXZ=            -21.2708  XZZ=            -47.9638  YZZ=             -5.7251
  YYZ=            -49.3109  XYZ=              3.5248
 Hexadecapole moment (field-independent basis, Debye-Ang**3):
 XXXX=          -9559.8007 YYYY=          -9600.8506 ZZZZ=          -3003.7765 XXXY=             -3.6673
 XXXZ=            -92.3464 YYYX=            -67.9906 YYYZ=              7.1850 ZZZX=           -171.9815
 ZZZY=            -80.3900 XXYY=          -3486.0739 XXZZ=          -2633.5060 YYZZ=          -2555.9987
 XXYZ=             12.8860 YYXZ=             46.8118 ZZXY=             55.4637
 N-N= 6.129137547453D+03 E-N=-1.940611158444D+04  KE= 3.043690844703D+03
                          Isotropic Fermi Contact Couplings
        Atom                 a.u.       MegaHertz       Gauss      10(-4) cm-1
     1  Fe(57)             0.12408      17.99718       6.42184       6.00321
     2  N(14)              0.00981       3.16818       1.13049       1.05679
     3  N(14)              0.01617       5.22580       1.86469       1.74314
     4  N(14)              0.00964       3.11348       1.11097       1.03854
     5  N(14)              0.01440       4.65207       1.65997       1.55176
     6  C(13)             -0.02974     -33.42988     -11.92861     -11.15101
     7  C(13)             -0.00036      -0.40973      -0.14620      -0.13667
     8  C(13)              0.00265       2.97636       1.06204       0.99281
     9  C(13)             -0.03167     -35.60499     -12.70474     -11.87655
    10  C(13)             -0.02771     -31.15458     -11.11673     -10.39205
    11  C(13)             -0.00401      -4.50594      -1.60783      -1.50302
    12  C(13)              0.00381       4.28202       1.52793       1.42833
    13  C(13)             -0.03346     -37.61599     -13.42232     -12.54735
    14  C(13)             -0.02703     -30.39200     -10.84462     -10.13768
    15  C(13)             -0.00298      -3.34645      -1.19410      -1.11626
    16  C(13)              0.00542       6.09251       2.17396       2.03224
    17  C(13)             -0.03009     -33.82387     -12.06920     -11.28243
    18  C(13)             -0.02741     -30.81381     -10.99513     -10.27838
    19  C(13)             -0.00078      -0.87758      -0.31314      -0.29273
    20  C(13)              0.00120       1.34771       0.48090       0.44955
    21  C(13)             -0.03113     -34.99830     -12.48826     -11.67417
    22  C(13)              0.02004      22.52362       8.03699       7.51307
    23  H(1)              -0.00126      -5.63165      -2.00951      -1.87852
    24  C(13)              0.02048      23.02300       8.21518       7.67965
    25  H(1)              -0.00132      -5.92168      -2.11300      -1.97526
    26  C(13)              0.01967      22.11668       7.89178       7.37733
    27  H(1)              -0.00130      -5.80416      -2.07107      -1.93606
    28  C(13)              0.01989      22.35512       7.97686       7.45687
    29  H(1)              -0.00132      -5.89845      -2.10471      -1.96751
    30  C(13)              0.00087       0.98316       0.35082       0.32795
    31  H(1)              -0.00107      -4.79789      -1.71201      -1.60041
    32  H(1)              -0.00089      -3.97628      -1.41884      -1.32635
    33  H(1)               0.00013       0.58308       0.20806       0.19450
    34  C(13)              0.00039       0.43576       0.15549       0.14535
    35  H(1)              -0.00069      -3.07553      -1.09743      -1.02589
    36  H(1)              -0.00062      -2.78786      -0.99478      -0.92993
    37  H(1)               0.00013       0.60130       0.21456       0.20057
    38  C(13)              0.00098       1.09702       0.39144       0.36593
    39  H(1)               0.00001       0.02532       0.00904       0.00845
    40  H(1)              -0.00093      -4.16503      -1.48618      -1.38930
    41  H(1)              -0.00056      -2.48905      -0.88815      -0.83026
    42  C(13)              0.00215       2.42247       0.86440       0.80805
    43  H(1)              -0.00096      -4.29864      -1.53386      -1.43387
    44  C(13)             -0.00172      -1.93576      -0.69073      -0.64570
    45  H(1)               0.00006       0.25435       0.09076       0.08484
    46  H(1)               0.00003       0.13228       0.04720       0.04412
    47  C(13)              0.00002       0.02641       0.00942       0.00881
    48  H(1)              -0.00027      -1.19248      -0.42551      -0.39777
    49  H(1)              -0.00043      -1.90610      -0.68014      -0.63581
    50  H(1)               0.00011       0.51360       0.18327       0.17132
    51  C(13)              0.00472       5.30751       1.89385       1.77040
    52  H(1)              -0.00032      -1.40885      -0.50271      -0.46994
    53  C(13)             -0.00661      -7.42564      -2.64965      -2.47693
    54  H(1)               0.00080       3.55462       1.26838       1.18569
    55  H(1)               0.00081       3.62469       1.29338       1.20906
    56  C(13)              0.00046       0.51232       0.18281       0.17089
    57  H(1)              -0.00047      -2.08329      -0.74337      -0.69491
    58  H(1)               0.00004       0.17975       0.06414       0.05996
    59  H(1)              -0.00050      -2.22535      -0.79406      -0.74230
    60  C(13)              0.00141       1.58806       0.56666       0.52972
    61  H(1)              -0.00155      -6.92945      -2.47260      -2.31141
    62  H(1)              -0.00111      -4.95768      -1.76902      -1.65370
    63  H(1)               0.00004       0.15941       0.05688       0.05317
    64  C(13)              0.00004       0.04147       0.01480       0.01383
    65  H(1)              -0.00001      -0.02906      -0.01037      -0.00969
    66  H(1)               0.00001       0.02892       0.01032       0.00965
    67  H(1)              -0.00000      -0.00197      -0.00070      -0.00066
    68  N(14)              0.00032       0.10433       0.03723       0.03480
    69  H(1)              -0.00001      -0.05899      -0.02105      -0.01968
    70  C(13)              0.00042       0.47413       0.16918       0.15815
    71  C(13)              0.00051       0.57488       0.20513       0.19176
    72  H(1)               0.00002       0.10579       0.03775       0.03529
    73  N(14)              0.00257       0.83087       0.29647       0.27715
    74  C(13)              0.00031       0.35305       0.12598       0.11776
    75  H(1)               0.00011       0.51372       0.18331       0.17136
    76  O(17)              0.16933    -102.64528     -36.62639     -34.23878
    77  O(17)              0.18015    -109.20526     -38.96715     -36.42695
 --------------------------------------------------------
       Center         ----  Spin Dipole Couplings  ----
                      3XX-RR        3YY-RR        3ZZ-RR
 --------------------------------------------------------
     1   Atom       -1.277160      0.472537      0.804623
     2   Atom       -0.039992     -0.056388      0.096380
     3   Atom       -0.067798     -0.038879      0.106677
     4   Atom       -0.053275     -0.063184      0.116459
     5   Atom       -0.065952     -0.040741      0.106693
     6   Atom        0.111332      0.105171     -0.216503
     7   Atom        0.018194      0.017664     -0.035858
     8   Atom        0.009127      0.007104     -0.016232
     9   Atom        0.109042      0.109784     -0.218826
    10   Atom        0.091906      0.098346     -0.190252
    11   Atom        0.021380      0.027913     -0.049292
    12   Atom       -0.000078      0.006784     -0.006706
    13   Atom        0.103645      0.112721     -0.216365
    14   Atom        0.098180      0.092242     -0.190422
    15   Atom        0.021818      0.019757     -0.041575
    16   Atom       -0.000082     -0.004396      0.004477
    17   Atom        0.100979      0.097670     -0.198649
    18   Atom        0.088556      0.100857     -0.189413
    19   Atom        0.015531      0.020091     -0.035622
    20   Atom        0.010877      0.013828     -0.024704
    21   Atom        0.109701      0.114205     -0.223905
    22   Atom       -0.036964     -0.041885      0.078849
    23   Atom       -0.000341     -0.001612      0.001954
    24   Atom       -0.042135     -0.040792      0.082927
    25   Atom       -0.001184     -0.000463      0.001647
    26   Atom       -0.038671     -0.040353      0.079024
    27   Atom       -0.001463     -0.000766      0.002229
    28   Atom       -0.044908     -0.039647      0.084554
    29   Atom       -0.002519      0.000411      0.002108
    30   Atom        0.001168      0.002908     -0.004076
    31   Atom        0.000468     -0.000611      0.000144
    32   Atom       -0.000298     -0.000359      0.000657
    33   Atom       -0.000470      0.000234      0.000236
    34   Atom        0.001352      0.002059     -0.003412
    35   Atom        0.000147     -0.000895      0.000749
    36   Atom        0.000848     -0.000679     -0.000169
    37   Atom       -0.000291      0.000050      0.000242
    38   Atom        0.000317      0.001130     -0.001447
    39   Atom       -0.000423      0.000072      0.000351
    40   Atom        0.000018     -0.000097      0.000079
    41   Atom        0.000076     -0.000706      0.000630
    42   Atom        0.000542      0.000466     -0.001009
    43   Atom       -0.000279     -0.000076      0.000355
    44   Atom       -0.002032      0.000687      0.001345
    45   Atom       -0.000530      0.001399     -0.000869
    46   Atom       -0.000207      0.000129      0.000078
    47   Atom        0.001698      0.000859     -0.002557
    48   Atom       -0.000111     -0.000711      0.000822
    49   Atom        0.001349     -0.000662     -0.000688
    50   Atom        0.000539     -0.000694      0.000154
    51   Atom       -0.009511     -0.008233      0.017743
    52   Atom       -0.000676     -0.000203      0.000878
    53   Atom        0.020945      0.022995     -0.043940
    54   Atom        0.003486     -0.003658      0.000171
    55   Atom       -0.000243      0.000153      0.000091
    56   Atom       -0.000248      0.001341     -0.001093
    57   Atom       -0.000437     -0.000149      0.000585
    58   Atom       -0.000882      0.000665      0.000217
    59   Atom       -0.000715      0.000853     -0.000138
    60   Atom        0.001198      0.003319     -0.004517
    61   Atom        0.000364     -0.000803      0.000439
    62   Atom       -0.000254      0.000429     -0.000175
    63   Atom       -0.000658      0.000660     -0.000003
    64   Atom       -0.000531     -0.000580      0.001111
    65   Atom       -0.000347     -0.000324      0.000671
    66   Atom       -0.000347     -0.000464      0.000810
    67   Atom       -0.000370     -0.000331      0.000700
    68   Atom       -0.001304     -0.000857      0.002161
    69   Atom       -0.000147     -0.000664      0.000811
    70   Atom       -0.001142     -0.001982      0.003124
    71   Atom       -0.000531     -0.003312      0.003843
    72   Atom        0.003668     -0.002995     -0.000673
    73   Atom       -0.012847     -0.010625      0.023472
    74   Atom       -0.002969     -0.004200      0.007169
    75   Atom       -0.001243     -0.003248      0.004491
    76   Atom       -0.898276      1.038016     -0.139740
    77   Atom       -0.919944     -0.128838      1.048783
 --------------------------------------------------------
                        XY            XZ            YZ
 --------------------------------------------------------
     1   Atom       -0.482263     -0.105165     -0.073049
     2   Atom        0.001054     -0.021557     -0.003970
     3   Atom        0.001834     -0.018101     -0.028667
     4   Atom        0.000912      0.014635     -0.004523
     5   Atom       -0.003884     -0.016760      0.008302
     6   Atom       -0.007254      0.022448      0.006471
     7   Atom        0.000622      0.002210      0.007032
     8   Atom       -0.001120     -0.002157      0.001936
     9   Atom        0.007616      0.045818      0.001089
    10   Atom        0.007371      0.020723      0.019719
    11   Atom       -0.001060      0.015041      0.003311
    12   Atom        0.000300      0.001923     -0.004601
    13   Atom       -0.008573      0.032826      0.012475
    14   Atom       -0.008002     -0.004665     -0.017318
    15   Atom       -0.000086      0.001639     -0.001079
    16   Atom        0.000063      0.004472      0.001278
    17   Atom        0.008447     -0.008185      0.015189
    18   Atom        0.006014      0.026930      0.002502
    19   Atom       -0.001978      0.001411      0.004433
    20   Atom       -0.000474     -0.001472      0.005986
    21   Atom       -0.009182      0.024299      0.009580
    22   Atom       -0.013196     -0.013059     -0.000467
    23   Atom       -0.006981     -0.001649      0.000472
    24   Atom        0.011911     -0.006326     -0.001207
    25   Atom        0.007537     -0.001240     -0.000892
    26   Atom       -0.012421     -0.011921      0.003368
    27   Atom       -0.007047      0.001562     -0.002527
    28   Atom        0.012685      0.000177      0.004611
    29   Atom        0.007636      0.001469      0.002786
    30   Atom       -0.000073     -0.000875      0.001117
    31   Atom        0.000454     -0.001052      0.001173
    32   Atom        0.000856     -0.000172     -0.000786
    33   Atom       -0.000036     -0.000480      0.000095
    34   Atom       -0.000259     -0.001251      0.000478
    35   Atom       -0.000775     -0.000514      0.000562
    36   Atom       -0.000138     -0.000870     -0.001191
    37   Atom       -0.000140     -0.000393     -0.000090
    38   Atom        0.000293     -0.000493      0.001249
    39   Atom        0.000163     -0.000294      0.000427
    40   Atom       -0.000199     -0.000316      0.001294
    41   Atom        0.000018     -0.000183     -0.000132
    42   Atom       -0.001353     -0.000642      0.001650
    43   Atom       -0.000619     -0.000266      0.000211
    44   Atom        0.001224     -0.000448      0.001381
    45   Atom       -0.000290      0.000125      0.000994
    46   Atom       -0.000163      0.000017      0.000381
    47   Atom        0.000757      0.001186      0.000812
    48   Atom        0.000028      0.001180      0.000173
    49   Atom        0.001498      0.001728      0.001659
    50   Atom        0.000424      0.001009      0.000278
    51   Atom       -0.000825      0.007659      0.002940
    52   Atom        0.000247      0.001652     -0.000968
    53   Atom       -0.001314     -0.016264     -0.006436
    54   Atom       -0.000828      0.000465      0.000396
    55   Atom        0.002777      0.000505     -0.000883
    56   Atom        0.000532      0.000541     -0.001372
    57   Atom        0.000297     -0.000059     -0.000204
    58   Atom        0.000076      0.000245     -0.000756
    59   Atom        0.000203      0.000196     -0.001383
    60   Atom       -0.000673      0.000113     -0.000491
    61   Atom       -0.000192     -0.000522      0.000105
    62   Atom        0.000495      0.000037     -0.001806
    63   Atom       -0.000120     -0.000506     -0.000724
    64   Atom        0.000012      0.000104     -0.000014
    65   Atom        0.000002     -0.000048      0.000157
    66   Atom        0.000021      0.000336      0.000034
    67   Atom        0.000001     -0.000002     -0.000192
    68   Atom       -0.000076     -0.001412      0.000108
    69   Atom        0.000103     -0.000996     -0.000110
    70   Atom        0.000257     -0.000555     -0.000230
    71   Atom        0.000240     -0.005285     -0.000306
    72   Atom        0.000592     -0.006025     -0.000407
    73   Atom       -0.000411     -0.005687     -0.000719
    74   Atom        0.000211      0.001655      0.000566
    75   Atom        0.000491      0.004460      0.001025
    76   Atom       -0.348787      0.927099      0.110362
    77   Atom       -0.058244      1.870849      0.418672
 --------------------------------------------------------


 ---------------------------------------------------------------------------------
              Anisotropic Spin Dipole Couplings in Principal Axis System
 ---------------------------------------------------------------------------------

       Atom             a.u.   MegaHertz   Gauss  10(-4) cm-1        Axes

              Baa    -1.4078   -24.373    -8.697    -8.130  0.9667  0.2500  0.0542
     1 Fe(57) Bbb     0.5878    10.177     3.631     3.395 -0.2558  0.9469  0.1949
              Bcc     0.8200    14.196     5.066     4.735 -0.0026 -0.2023  0.9793
 
              Baa    -0.0565    -2.179    -0.778    -0.727 -0.0366  0.9991  0.0208
     2 N(14)  Bbb    -0.0433    -1.670    -0.596    -0.557  0.9876  0.0330  0.1534
              Bcc     0.0998     3.850     1.374     1.284 -0.1525 -0.0261  0.9880
 
              Baa    -0.0697    -2.688    -0.959    -0.897  0.9932  0.0421  0.1088
     3 N(14)  Bbb    -0.0442    -1.706    -0.609    -0.569 -0.0612  0.9819  0.1792
              Bcc     0.1139     4.394     1.568     1.466 -0.0993 -0.1846  0.9778
 
              Baa    -0.0635    -2.448    -0.874    -0.817 -0.1405  0.9894  0.0363
     4 N(14)  Bbb    -0.0543    -2.096    -0.748    -0.699  0.9864  0.1430 -0.0807
              Bcc     0.1178     4.544     1.621     1.516  0.0851 -0.0245  0.9961
 
              Baa    -0.0679    -2.619    -0.935    -0.874  0.9894  0.1141  0.0895
     5 N(14)  Bbb    -0.0409    -1.577    -0.563    -0.526 -0.1082  0.9918 -0.0681
              Bcc     0.1088     4.196     1.497     1.400 -0.0966  0.0577  0.9937
 
              Baa    -0.2182   -29.278   -10.447    -9.766 -0.0684 -0.0215  0.9974
     6 C(13)  Bbb     0.1013    13.596     4.851     4.535  0.5049  0.8615  0.0532
              Bcc     0.1169    15.682     5.596     5.231  0.8604 -0.5073  0.0481
 
              Baa    -0.0368    -4.945    -1.764    -1.649 -0.0384 -0.1274  0.9911
     7 C(13)  Bbb     0.0175     2.350     0.839     0.784  0.7621 -0.6452 -0.0534
              Bcc     0.0193     2.595     0.926     0.865  0.6463  0.7533  0.1218
 
              Baa    -0.0166    -2.222    -0.793    -0.741  0.0801 -0.0775  0.9938
     8 C(13)  Bbb     0.0066     0.891     0.318     0.297  0.4352  0.8996  0.0351
              Bcc     0.0099     1.331     0.475     0.444  0.8967 -0.4297 -0.1058
 
              Baa    -0.2251   -30.207   -10.779   -10.076 -0.1358 -0.0001  0.9907
     9 C(13)  Bbb     0.1044    14.006     4.998     4.672 -0.5697  0.8182 -0.0780
              Bcc     0.1207    16.201     5.781     5.404  0.8106  0.5750  0.1112
 
              Baa    -0.1930   -25.902    -9.242    -8.640 -0.0707 -0.0656  0.9953
    10 C(13)  Bbb     0.0872    11.703     4.176     3.904  0.8169 -0.5764  0.0200
              Bcc     0.1058    14.199     5.066     4.736  0.5724  0.8145  0.0943
 
              Baa    -0.0525    -7.046    -2.514    -2.350 -0.1999 -0.0429  0.9789
    11 C(13)  Bbb     0.0244     3.275     1.169     1.093  0.9737  0.1025  0.2033
              Bcc     0.0281     3.771     1.345     1.258 -0.1090  0.9938  0.0213
 
              Baa    -0.0086    -1.149    -0.410    -0.383 -0.2215  0.2840  0.9329
    12 C(13)  Bbb     0.0004     0.047     0.017     0.016  0.9745  0.0985  0.2014
              Bcc     0.0082     1.102     0.393     0.368 -0.0347  0.9537 -0.2986
 
              Baa    -0.2202   -29.552   -10.545    -9.858 -0.1018 -0.0399  0.9940
    13 C(13)  Bbb     0.1022    13.715     4.894     4.575  0.8290  0.5489  0.1069
              Bcc     0.1180    15.838     5.651     5.283 -0.5499  0.8349 -0.0228
 
              Baa    -0.1916   -25.707    -9.173    -8.575  0.0178  0.0614  0.9980
    14 C(13)  Bbb     0.0877    11.767     4.199     3.925  0.5885  0.8063 -0.0601
              Bcc     0.1039    13.939     4.974     4.650  0.8083 -0.5883  0.0218
 
              Baa    -0.0416    -5.587    -1.994    -1.864 -0.0258  0.0175  0.9995
    15 C(13)  Bbb     0.0198     2.653     0.947     0.885  0.0550  0.9984 -0.0161
              Bcc     0.0219     2.934     1.047     0.979  0.9982 -0.0545  0.0267
 
              Baa    -0.0047    -0.631    -0.225    -0.210  0.2170  0.9468 -0.2375
    16 C(13)  Bbb    -0.0026    -0.352    -0.126    -0.117  0.8292 -0.3072 -0.4670
              Bcc     0.0073     0.983     0.351     0.328  0.5151  0.0956  0.8518
 
              Baa    -0.1997   -26.794    -9.561    -8.938  0.0286 -0.0518  0.9982
    17 C(13)  Bbb     0.0917    12.306     4.391     4.105 -0.6436  0.7632  0.0581
              Bcc     0.1080    14.489     5.170     4.833  0.7648  0.6441  0.0115
 
              Baa    -0.1920   -25.766    -9.194    -8.595 -0.0954 -0.0065  0.9954
    18 C(13)  Bbb     0.0881    11.823     4.219     3.944  0.8950 -0.4383  0.0829
              Bcc     0.1039    13.943     4.975     4.651  0.4358  0.8988  0.0477
 
              Baa    -0.0360    -4.834    -1.725    -1.612 -0.0303 -0.0798  0.9964
    19 C(13)  Bbb     0.0149     2.006     0.716     0.669  0.9467  0.3174  0.0542
              Bcc     0.0211     2.828     1.009     0.943 -0.3206  0.9449  0.0659
 
              Baa    -0.0257    -3.444    -1.229    -1.149  0.0379 -0.1493  0.9881
    20 C(13)  Bbb     0.0108     1.450     0.518     0.484  0.9842  0.1764 -0.0111
              Bcc     0.0149     1.994     0.711     0.665 -0.1727  0.9729  0.1536
 
              Baa    -0.2260   -30.323   -10.820   -10.115 -0.0730 -0.0300  0.9969
    21 C(13)  Bbb     0.1044    14.008     4.998     4.673  0.7638  0.6410  0.0752
              Bcc     0.1216    16.316     5.822     5.442 -0.6413  0.7669 -0.0238
 
              Baa    -0.0534    -7.171    -2.559    -2.392  0.6558  0.7519  0.0674
    22 C(13)  Bbb    -0.0269    -3.606    -1.287    -1.203  0.7466 -0.6592  0.0893
              Bcc     0.0803    10.777     3.846     3.595 -0.1116  0.0082  0.9937
 
              Baa    -0.0080    -4.293    -1.532    -1.432  0.6785  0.7305  0.0774
    23 H(1)   Bbb     0.0015     0.798     0.285     0.266  0.1848 -0.2717  0.9445
              Bcc     0.0066     3.495     1.247     1.166  0.7110 -0.6265 -0.3194
 
              Baa    -0.0535    -7.179    -2.562    -2.395  0.7306 -0.6822  0.0278
    24 C(13)  Bbb    -0.0298    -3.995    -1.426    -1.333  0.6808  0.7310  0.0460
              Bcc     0.0833    11.174     3.987     3.727 -0.0518 -0.0147  0.9986
 
              Baa    -0.0084    -4.470    -1.595    -1.491  0.7255 -0.6877  0.0286
    25 H(1)   Bbb     0.0012     0.664     0.237     0.221  0.1618  0.2108  0.9641
              Bcc     0.0071     3.806     1.358     1.270  0.6690  0.6948 -0.2642
 
              Baa    -0.0522    -7.007    -2.500    -2.337  0.6963  0.7163  0.0449
    26 C(13)  Bbb    -0.0282    -3.781    -1.349    -1.261  0.7102 -0.6967  0.1009
              Bcc     0.0804    10.788     3.850     3.599 -0.1035  0.0384  0.9939
 
              Baa    -0.0082    -4.380    -1.563    -1.461  0.7141  0.6973  0.0619
    27 H(1)   Bbb     0.0007     0.357     0.127     0.119 -0.3760  0.3075  0.8741
              Bcc     0.0075     4.023     1.436     1.342 -0.5904  0.6475 -0.4818
 
              Baa    -0.0553    -7.419    -2.647    -2.475  0.7736 -0.6333  0.0199
    28 C(13)  Bbb    -0.0294    -3.951    -1.410    -1.318  0.6336  0.7730 -0.0322
              Bcc     0.0847    11.370     4.057     3.793  0.0050  0.0376  0.9993
 
              Baa    -0.0089    -4.732    -1.688    -1.578  0.7615 -0.6452  0.0618
    29 H(1)   Bbb     0.0006     0.320     0.114     0.107 -0.3328 -0.3074  0.8915
              Bcc     0.0083     4.412     1.574     1.472  0.5562  0.6995  0.4488
 
              Baa    -0.0044    -0.588    -0.210    -0.196  0.1521 -0.1483  0.9772
    30 C(13)  Bbb     0.0013     0.171     0.061     0.057  0.9820  0.1348 -0.1324
              Bcc     0.0031     0.417     0.149     0.139 -0.1120  0.9797  0.1661
 
              Baa    -0.0019    -1.013    -0.361    -0.338 -0.4003  0.6904 -0.6026
    31 H(1)   Bbb     0.0004     0.219     0.078     0.073  0.6659  0.6709  0.3263
              Bcc     0.0015     0.794     0.283     0.265 -0.6296  0.2707  0.7283
 
              Baa    -0.0013    -0.694    -0.248    -0.232 -0.6029  0.7573  0.2510
    32 H(1)   Bbb    -0.0000    -0.005    -0.002    -0.002  0.7065  0.3607  0.6088
              Bcc     0.0013     0.699     0.249     0.233 -0.3705 -0.5444  0.7525
 
              Baa    -0.0007    -0.380    -0.136    -0.127  0.8918 -0.0120  0.4523
    33 H(1)   Bbb     0.0002     0.105     0.038     0.035  0.1632  0.9409 -0.2968
              Bcc     0.0005     0.275     0.098     0.092 -0.4220  0.3385  0.8410
 
              Baa    -0.0037    -0.503    -0.179    -0.168  0.2342 -0.0694  0.9697
    34 C(13)  Bbb     0.0015     0.195     0.069     0.065  0.8512  0.4966 -0.1701
              Bcc     0.0023     0.308     0.110     0.103 -0.4697  0.8652  0.1754
 
              Baa    -0.0013    -0.717    -0.256    -0.239  0.4188  0.8975 -0.1382
    35 H(1)   Bbb    -0.0000    -0.026    -0.009    -0.009  0.7290 -0.2415  0.6405
              Bcc     0.0014     0.743     0.265     0.248 -0.5415  0.3690  0.7554
 
              Baa    -0.0018    -0.967    -0.345    -0.322  0.2504  0.7159  0.6518
    36 H(1)   Bbb     0.0003     0.173     0.062     0.058 -0.6095  0.6396 -0.4684
              Bcc     0.0015     0.793     0.283     0.265  0.7522  0.2800 -0.5965
 
              Baa    -0.0005    -0.291    -0.104    -0.097  0.8494  0.2683  0.4544
    37 H(1)   Bbb     0.0001     0.051     0.018     0.017 -0.2544  0.9626 -0.0929
              Bcc     0.0005     0.240     0.086     0.080 -0.4623 -0.0367  0.8859
 
              Baa    -0.0021    -0.280    -0.100    -0.093  0.2296 -0.3705  0.9000
    38 C(13)  Bbb     0.0004     0.060     0.021     0.020  0.9708  0.0210 -0.2390
              Bcc     0.0016     0.220     0.079     0.074  0.0696  0.9286  0.3645
 
              Baa    -0.0007    -0.351    -0.125    -0.117  0.8068 -0.4221  0.4133
    39 H(1)   Bbb    -0.0000    -0.012    -0.004    -0.004  0.5740  0.7258 -0.3791
              Bcc     0.0007     0.363     0.130     0.121 -0.1400  0.5431  0.8279
 
              Baa    -0.0013    -0.699    -0.249    -0.233 -0.0548  0.7244 -0.6872
    40 H(1)   Bbb    -0.0001    -0.041    -0.015    -0.014  0.9643  0.2168  0.1517
              Bcc     0.0014     0.740     0.264     0.247 -0.2589  0.6544  0.7104
 
              Baa    -0.0007    -0.384    -0.137    -0.128  0.0002  0.9952  0.0976
    41 H(1)   Bbb     0.0000     0.011     0.004     0.004  0.9589 -0.0278  0.2822
              Bcc     0.0007     0.372     0.133     0.124 -0.2836 -0.0935  0.9544
 
              Baa    -0.0021    -0.282    -0.100    -0.094 -0.0967 -0.5742  0.8130
    42 C(13)  Bbb    -0.0005    -0.068    -0.024    -0.023  0.8052  0.4349  0.4030
              Bcc     0.0026     0.350     0.125     0.117 -0.5850  0.6936  0.4203
 
              Baa    -0.0008    -0.431    -0.154    -0.144  0.7712  0.6336  0.0616
    43 H(1)   Bbb     0.0001     0.037     0.013     0.012  0.3819 -0.5379  0.7516
              Bcc     0.0007     0.395     0.141     0.132 -0.5093  0.5561  0.6568
 
              Baa    -0.0027    -0.366    -0.130    -0.122  0.8801 -0.4116  0.2366
    44 C(13)  Bbb     0.0002     0.033     0.012     0.011  0.4637  0.6386 -0.6141
              Bcc     0.0025     0.332     0.119     0.111  0.1016  0.6502  0.7529
 
              Baa    -0.0013    -0.697    -0.249    -0.232 -0.2769 -0.3575  0.8919
    45 H(1)   Bbb    -0.0005    -0.261    -0.093    -0.087  0.9559 -0.0078  0.2937
              Bcc     0.0018     0.958     0.342     0.320 -0.0981  0.9339  0.3439
 
              Baa    -0.0004    -0.201    -0.072    -0.067  0.6199  0.5896 -0.5178
    46 H(1)   Bbb    -0.0001    -0.067    -0.024    -0.022  0.7696 -0.3277  0.5481
              Bcc     0.0005     0.268     0.096     0.089 -0.1535  0.7382  0.6568
 
              Baa    -0.0030    -0.398    -0.142    -0.133 -0.2188 -0.1611  0.9624
    47 C(13)  Bbb     0.0004     0.056     0.020     0.019 -0.5241  0.8513  0.0233
              Bcc     0.0025     0.342     0.122     0.114  0.8231  0.4993  0.2706
 
              Baa    -0.0009    -0.501    -0.179    -0.167  0.7717  0.3213 -0.5488
    48 H(1)   Bbb    -0.0007    -0.372    -0.133    -0.124 -0.3027  0.9445  0.1274
              Bcc     0.0016     0.872     0.311     0.291  0.5593  0.0678  0.8262
 
              Baa    -0.0023    -1.253    -0.447    -0.418 -0.0797 -0.6624  0.7449
    49 H(1)   Bbb    -0.0011    -0.592    -0.211    -0.197  0.6734 -0.5867 -0.4497
              Bcc     0.0035     1.845     0.658     0.615  0.7350  0.4658  0.4928
 
              Baa    -0.0008    -0.443    -0.158    -0.148 -0.3797  0.9159  0.1301
    50 H(1)   Bbb    -0.0007    -0.352    -0.126    -0.118 -0.5354 -0.3322  0.7765
              Bcc     0.0015     0.795     0.284     0.265  0.7545  0.2252  0.6165
 
              Baa    -0.0122    -1.631    -0.582    -0.544  0.8847  0.3840 -0.2644
    51 C(13)  Bbb    -0.0078    -1.052    -0.375    -0.351 -0.3950  0.9186  0.0127
              Bcc     0.0200     2.683     0.957     0.895  0.2477  0.0932  0.9643
 
              Baa    -0.0020    -1.085    -0.387    -0.362  0.7391 -0.3901 -0.5491
    52 H(1)   Bbb    -0.0001    -0.057    -0.020    -0.019  0.4883  0.8718  0.0378
              Bcc     0.0021     1.142     0.407     0.381  0.4640 -0.2961  0.8349
 
              Baa    -0.0484    -6.494    -2.317    -2.166  0.2291  0.0916  0.9691
    53 C(13)  Bbb     0.0236     3.162     1.128     1.055 -0.1791  0.9825 -0.0505
              Bcc     0.0248     3.332     1.189     1.111  0.9568  0.1620 -0.2415
 
              Baa    -0.0038    -2.029    -0.724    -0.677  0.1193  0.9865 -0.1122
    54 H(1)   Bbb     0.0002     0.091     0.033     0.030 -0.1072  0.1251  0.9863
              Bcc     0.0036     1.938     0.691     0.646  0.9871 -0.1056  0.1207
 
              Baa    -0.0031    -1.667    -0.595    -0.556  0.6900 -0.6630 -0.2905
    55 H(1)   Bbb     0.0003     0.186     0.067     0.062  0.2942 -0.1098  0.9494
              Bcc     0.0028     1.480     0.528     0.494  0.6614  0.7405 -0.1192
 
              Baa    -0.0020    -0.269    -0.096    -0.090 -0.3793  0.4023  0.8332
    56 C(13)  Bbb     0.0000     0.001     0.001     0.000  0.9169  0.0426  0.3968
              Bcc     0.0020     0.267     0.095     0.089  0.1242  0.9145 -0.3850
 
              Baa    -0.0006    -0.334    -0.119    -0.111  0.8379 -0.5434 -0.0510
    57 H(1)   Bbb    -0.0000    -0.016    -0.006    -0.005  0.5301  0.7882  0.3127
              Bcc     0.0007     0.350     0.125     0.117 -0.1297 -0.2890  0.9485
 
              Baa    -0.0010    -0.522    -0.186    -0.174  0.9332 -0.1849 -0.3080
    58 H(1)   Bbb    -0.0003    -0.136    -0.049    -0.045  0.3569  0.5751  0.7361
              Bcc     0.0012     0.658     0.235     0.220 -0.0411  0.7969 -0.6027
 
              Baa    -0.0013    -0.669    -0.239    -0.223 -0.4574  0.5184  0.7225
    59 H(1)   Bbb    -0.0006    -0.306    -0.109    -0.102  0.8890  0.2473  0.3854
              Bcc     0.0018     0.975     0.348     0.325  0.0211  0.8186 -0.5740
 
              Baa    -0.0045    -0.610    -0.218    -0.204 -0.0124  0.0613  0.9980
    60 C(13)  Bbb     0.0010     0.135     0.048     0.045  0.9606  0.2779 -0.0051
              Bcc     0.0035     0.476     0.170     0.159 -0.2777  0.9586 -0.0623
 
              Baa    -0.0008    -0.445    -0.159    -0.149  0.1495  0.9886 -0.0201
    61 H(1)   Bbb    -0.0001    -0.061    -0.022    -0.020  0.7156 -0.0941  0.6921
              Bcc     0.0009     0.507     0.181     0.169 -0.6823  0.1179  0.7215
 
              Baa    -0.0018    -0.952    -0.340    -0.318 -0.2263  0.6456  0.7294
    62 H(1)   Bbb    -0.0002    -0.122    -0.044    -0.041  0.9614  0.0279  0.2736
              Bcc     0.0020     1.074     0.383     0.358  0.1563  0.7632 -0.6270
 
              Baa    -0.0011    -0.571    -0.204    -0.190  0.7742  0.2893  0.5629
    63 H(1)   Bbb    -0.0001    -0.039    -0.014    -0.013  0.6244 -0.4947 -0.6045
              Bcc     0.0011     0.610     0.218     0.203  0.1036  0.8195 -0.5636
 
              Baa    -0.0006    -0.078    -0.028    -0.026 -0.2706  0.9624  0.0243
    64 C(13)  Bbb    -0.0005    -0.072    -0.026    -0.024  0.9606  0.2716 -0.0584
              Bcc     0.0011     0.150     0.054     0.050  0.0628 -0.0076  0.9980
 
              Baa    -0.0004    -0.191    -0.068    -0.064  0.7316 -0.6679  0.1364
    65 H(1)   Bbb    -0.0003    -0.181    -0.065    -0.060  0.6802  0.7285 -0.0810
              Bcc     0.0007     0.372     0.133     0.124 -0.0453  0.1521  0.9873
 
              Baa    -0.0005    -0.250    -0.089    -0.083 -0.3255  0.9436  0.0605
    66 H(1)   Bbb    -0.0004    -0.231    -0.082    -0.077  0.9091  0.3299 -0.2545
              Bcc     0.0009     0.481     0.172     0.161  0.2601  0.0279  0.9652
 
              Baa    -0.0004    -0.197    -0.070    -0.066  0.9746 -0.2207 -0.0376
    67 H(1)   Bbb    -0.0004    -0.195    -0.070    -0.065  0.2238  0.9591  0.1735
              Bcc     0.0007     0.392     0.140     0.131 -0.0022 -0.1775  0.9841
 
              Baa    -0.0018    -0.070    -0.025    -0.023  0.9418  0.0371  0.3340
    68 N(14)  Bbb    -0.0009    -0.033    -0.012    -0.011 -0.0229  0.9987 -0.0464
              Bcc     0.0027     0.103     0.037     0.034 -0.3353  0.0361  0.9414
 
              Baa    -0.0008    -0.417    -0.149    -0.139  0.8271 -0.2568  0.4999
    69 H(1)   Bbb    -0.0007    -0.355    -0.127    -0.119  0.1818  0.9639  0.1943
              Bcc     0.0014     0.772     0.276     0.258 -0.5318 -0.0698  0.8440
 
              Baa    -0.0021    -0.276    -0.098    -0.092 -0.2625  0.9648  0.0147
    70 C(13)  Bbb    -0.0012    -0.155    -0.055    -0.052  0.9562  0.2581  0.1379
              Bcc     0.0032     0.431     0.154     0.144 -0.1292 -0.0503  0.9903
 
              Baa    -0.0041    -0.545    -0.195    -0.182  0.8315 -0.0401  0.5541
    71 C(13)  Bbb    -0.0033    -0.446    -0.159    -0.149  0.0132  0.9985  0.0524
              Bcc     0.0074     0.992     0.354     0.331 -0.5554 -0.0363  0.8308
 
              Baa    -0.0049    -2.618    -0.934    -0.873  0.5751 -0.0037  0.8181
    72 H(1)   Bbb    -0.0030    -1.623    -0.579    -0.541 -0.0515  0.9978  0.0407
              Bcc     0.0079     4.241     1.513     1.415  0.8165  0.0655 -0.5737
 
              Baa    -0.0138    -0.532    -0.190    -0.178  0.9752  0.1607  0.1519
    73 N(14)  Bbb    -0.0106    -0.407    -0.145    -0.136 -0.1616  0.9868 -0.0061
              Bcc     0.0244     0.939     0.335     0.313 -0.1509 -0.0186  0.9884
 
              Baa    -0.0042    -0.570    -0.203    -0.190 -0.1239  0.9918 -0.0313
    74 C(13)  Bbb    -0.0032    -0.432    -0.154    -0.144  0.9797  0.1173 -0.1625
              Bcc     0.0075     1.001     0.357     0.334  0.1575  0.0507  0.9862
 
              Baa    -0.0037    -1.969    -0.702    -0.657  0.8528  0.1854 -0.4882
    75 H(1)   Bbb    -0.0034    -1.794    -0.640    -0.598 -0.2153  0.9765 -0.0052
              Bcc     0.0071     3.762     1.342     1.255  0.4758  0.1096  0.8727
 
              Baa    -1.5681   113.465    40.487    37.848  0.8265  0.1338 -0.5468
    76 O(17)  Bbb     0.4660   -33.720   -12.032   -11.248  0.5265  0.1600  0.8350
              Bcc     1.1021   -79.745   -28.455   -26.600 -0.1992  0.9780 -0.0618
 
              Baa    -2.0863   150.962    53.867    50.356  0.8426  0.1365 -0.5210
    77 O(17)  Bbb    -0.1383    10.005     3.570     3.337 -0.1888  0.9808 -0.0484
              Bcc     2.2246  -160.967   -57.437   -53.693  0.5044  0.1391  0.8522
 

 ---------------------------------------------------------------------------------

 Unable to Open any file for archive entry.
 1\1\GINC-BGN1039\SP\UAPFD\Gen\C34H34Fe1N6O2(1+,2)\BECSLEIP\05-Sep-2024
 \0\\# apfd/gen scf=maxcycle=999 geom=check\\2spn_III_D\\1,2\Fe,0,35.10
 7,4.257,10.312\N,0,37.077,3.91,9.624\N,0,35.399,2.962,11.848\N,0,33.15
 1,4.613,11.023\N,0,34.838,5.529,8.738\C,0,37.593,4.47,8.55\C,0,38.993,
 3.957,8.445\C,0,39.198,3.159,9.518\C,0,37.916,3.12,10.252\C,0,36.567,2
 .377,12.156\C,0,36.361,1.611,13.394\C,0,35.103,1.801,13.789\C,0,34.478
 ,2.725,12.839\C,0,32.627,4.115,12.142\C,0,31.314,4.794,12.321\C,0,31.1
 49,5.647,11.298\C,0,32.33,5.466,10.412\C,0,33.712,6.184,8.495\C,0,33.9
 22,7.037,7.293\C,0,35.153,6.785,6.825\C,0,35.75,5.829,7.789\C,0,37.027
 ,5.355,7.683\H,0,37.633,5.709,6.849\C,0,37.729,2.338,11.422\H,0,38.536
 ,1.683,11.75\C,0,33.151,3.159,12.967\H,0,32.522,2.724,13.743\C,0,32.55
 4,6.2,9.261\H,0,31.747,6.851,8.924\C,0,40.005,4.241,7.321\H,0,39.978,5
 .347,7.421\H,0,39.337,3.938,6.486\H,0,41.048,3.924,7.107\C,0,40.406,2.
 251,9.821\H,0,39.829,1.31,9.95\H,0,40.634,2.674,10.823\H,0,41.35,2.024
 ,9.281\C,0,35.851,7.282,5.518\H,0,36.739,7.103,4.874\H,0,35.837,8.35,5
 .825\H,0,34.933,7.041,4.941\C,0,32.8,7.89,6.674\H,0,32.161,7.449,5.903
 \C,0,33.092,9.186,6.408\H,0,33.727,9.767,7.093\H,0,32.698,9.673,5.504\
 C,0,29.964,6.579,10.99\H,0,29.748,6.196,9.97\H,0,30.559,7.513,10.906\H
 ,0,29.003,6.786,11.508\C,0,30.488,4.47,13.568\H,0,30.909,3.637,14.1\C,
 0,29.421,5.26,13.871\H,0,29.126,6.081,13.201\H,0,28.841,5.087,14.789\C
 ,0,34.369,1.24,15.041\H,0,34.611,0.205,14.717\H,0,33.388,1.234,15.563\
 H,0,35.164,1.596,15.731\C,0,37.511,0.869,14.11\H,0,36.928,-0.073,14.02
 6\H,0,37.273,1.355,15.08\H,0,38.594,0.628,14.062\C,0,32.285,0.111,7.51
 4\H,0,32.266,0.091,6.403\H,0,31.3,0.466,7.885\H,0,32.485,-0.915,7.889\
 N,0,34.715,0.861,7.747\H,0,35.101,0.106,7.217\C,0,33.37,1.043,7.981\C,
 0,35.427,1.872,8.353\H,0,36.501,2.031,8.329\N,0,34.537,2.527,8.913\C,0
 ,33.297,2.18,8.793\H,0,32.479,2.715,9.254\O,0,35.828,5.647,11.445\O,0,
 35.037,6.44,12.088\\Version=ES64L-G16RevC.02\State=2-A\HF=-3056.726441
 5\S2=1.825424\S2-1=0.\S2A=1.017272\RMSD=6.108e-09\Dipole=0.1514889,-1.
 8381904,-1.4240606\Quadrupole=4.8758846,-6.6212372,1.7453526,-13.46931
 35,-10.7628763,-13.781617\PG=C01 [X(C34H34Fe1N6O2)]\\@
 The archive entry for this job was punched.


 THE REASON MAN'S BEST FRIEND IS A DOG IS BECAUSE
 HE WAGS HIS TAIL INSTEAD OF HIS TONGUE.
 Job cpu time:       0 days  7 hours 12 minutes 31.2 seconds.
 Elapsed time:       0 days  0 hours  7 minutes 35.3 seconds.
 File lengths (MBytes):  RWF=    442 Int=      0 D2E=      0 Chk=    157 Scr=      1
 Normal termination of Gaussian 16 at Thu Sep  5 16:53:39 2024.
