 Entering Gaussian System, Link 0=g16
 Input=2v1j16.com
 Output=2v1j16.log
 Initial command:
 /sw/chem/gaussian/g16_C02/a100/g16/l1.exe "/local/becsleip_8007121/Gau-3236372.inp" -scrdir="/local/becsleip_8007121/"
 Entering Link 1 = /sw/chem/gaussian/g16_C02/a100/g16/l1.exe PID=   3236373.
  
 Copyright (c) 1988-2021, Gaussian, Inc.  All Rights Reserved.
  
 This is part of the Gaussian(R) 16 program.  It is based on
 the Gaussian(R) 09 system (copyright 2009, Gaussian, Inc.),
 the Gaussian(R) 03 system (copyright 2003, Gaussian, Inc.),
 the Gaussian(R) 98 system (copyright 1998, Gaussian, Inc.),
 the Gaussian(R) 94 system (copyright 1995, Gaussian, Inc.),
 the Gaussian 92(TM) system (copyright 1992, Gaussian, Inc.),
 the Gaussian 90(TM) system (copyright 1990, Gaussian, Inc.),
 the Gaussian 88(TM) system (copyright 1988, Gaussian, Inc.),
 the Gaussian 86(TM) system (copyright 1986, Carnegie Mellon
 University), and the Gaussian 82(TM) system (copyright 1983,
 Carnegie Mellon University). Gaussian is a federally registered
 trademark of Gaussian, Inc.
  
 This software contains proprietary and confidential information,
 including trade secrets, belonging to Gaussian, Inc.
  
 This software is provided under written license and may be
 used, copied, transmitted, or stored only in accord with that
 written license.
  
 The following legend is applicable only to US Government
 contracts under FAR:
  
                    RESTRICTED RIGHTS LEGEND
  
 Use, reproduction and disclosure by the US Government is
 subject to restrictions as set forth in subparagraphs (a)
 and (c) of the Commercial Computer Software - Restricted
 Rights clause in FAR 52.227-19.
  
 Gaussian, Inc.
 340 Quinnipiac St., Bldg. 40, Wallingford CT 06492
  
  
 ---------------------------------------------------------------
 Warning -- This program may not be used in any manner that
 competes with the business of Gaussian, Inc. or will provide
 assistance to any competitor of Gaussian, Inc.  The licensee
 of this program is prohibited from giving any competitor of
 Gaussian, Inc. access to this program.  By using this program,
 the user acknowledges that Gaussian, Inc. is engaged in the
 business of creating and licensing software in the field of
 computational chemistry and represents and warrants to the
 licensee that it is not a competitor of Gaussian, Inc. and that
 it will not use this program in any manner prohibited above.
 ---------------------------------------------------------------
  

 Cite this work as:
 Gaussian 16, Revision C.02,
 M. J. Frisch, G. W. Trucks, H. B. Schlegel, G. E. Scuseria, 
 M. A. Robb, J. R. Cheeseman, G. Scalmani, V. Barone, 
 G. A. Petersson, H. Nakatsuji, X. Li, M. Caricato, A. V. Marenich, 
 J. Bloino, B. G. Janesko, R. Gomperts, B. Mennucci, H. P. Hratchian, 
 J. V. Ortiz, A. F. Izmaylov, J. L. Sonnenberg, D. Williams-Young, 
 F. Ding, F. Lipparini, F. Egidi, J. Goings, B. Peng, A. Petrone, 
 T. Henderson, D. Ranasinghe, V. G. Zakrzewski, J. Gao, N. Rega, 
 G. Zheng, W. Liang, M. Hada, M. Ehara, K. Toyota, R. Fukuda, 
 J. Hasegawa, M. Ishida, T. Nakajima, Y. Honda, O. Kitao, H. Nakai, 
 T. Vreven, K. Throssell, J. A. Montgomery, Jr., J. E. Peralta, 
 F. Ogliaro, M. J. Bearpark, J. J. Heyd, E. N. Brothers, K. N. Kudin, 
 V. N. Staroverov, T. A. Keith, R. Kobayashi, J. Normand, 
 K. Raghavachari, A. P. Rendell, J. C. Burant, S. S. Iyengar, 
 J. Tomasi, M. Cossi, J. M. Millam, M. Klene, C. Adamo, R. Cammi, 
 J. W. Ochterski, R. L. Martin, K. Morokuma, O. Farkas, 
 J. B. Foresman, and D. J. Fox, Gaussian, Inc., Wallingford CT, 2019.
 
 ******************************************
 Gaussian 16:  ES64L-G16RevC.02  7-Dec-2021
                 6-Sep-2024 
 ******************************************
 %mem=16GB
 %CPU=0-71
 SetSPE:  set environment variable "OMP_PROC_BIND" = "true"
 SetSPE:  set environment variable "OMP_PLACES" = "{0},{1},{2},{3},{4},{5},{6},{7},{8},{9},{10},{11},{12},{13},{14},{15},{16},{17},{18},{19},{20},{21},{22},{23},{24},{25},{26},{27},{28},{29},{30},{31},{32},{33},{34},{35},{36},{37},{38},{39},{40},{41},{42},{43},{44},{45},{46},{47},{48},{49},{50},{51},{52},{53},{54},{55},{56},{57},{58},{59},{60},{61},{62},{63},{64},{65},{66},{67},{68},{69},{70},{71}"
 Will use up to   72 processors via shared memory.
 %gpucpu=0,1,2,3=0,1,2,3
 Will use    4 GPUs:
 Thread  CPU   GPU
      0    0     0
      1    1     1
      2    2     2
      3    3     3
      4    4    -1
      5    5    -1
      6    6    -1
      7    7    -1
      8    8    -1
      9    9    -1
     10   10    -1
     11   11    -1
     12   12    -1
     13   13    -1
     14   14    -1
     15   15    -1
     16   16    -1
     17   17    -1
     18   18    -1
     19   19    -1
     20   20    -1
     21   21    -1
     22   22    -1
     23   23    -1
     24   24    -1
     25   25    -1
     26   26    -1
     27   27    -1
     28   28    -1
     29   29    -1
     30   30    -1
     31   31    -1
     32   32    -1
     33   33    -1
     34   34    -1
     35   35    -1
     36   36    -1
     37   37    -1
     38   38    -1
     39   39    -1
     40   40    -1
     41   41    -1
     42   42    -1
     43   43    -1
     44   44    -1
     45   45    -1
     46   46    -1
     47   47    -1
     48   48    -1
     49   49    -1
     50   50    -1
     51   51    -1
     52   52    -1
     53   53    -1
     54   54    -1
     55   55    -1
     56   56    -1
     57   57    -1
     58   58    -1
     59   59    -1
     60   60    -1
     61   61    -1
     62   62    -1
     63   63    -1
     64   64    -1
     65   65    -1
     66   66    -1
     67   67    -1
     68   68    -1
     69   69    -1
     70   70    -1
     71   71    -1
 SetGPE:  set environment variable "OMP_PROC_BIND" = "true"
 SetGPE:  set environment variable "OMP_PLACES" = "{0},{1},{2},{3},{4},{5},{6},{7},{8},{9},{10},{11},{12},{13},{14},{15},{16},{17},{18},{19},{20},{21},{22},{23},{24},{25},{26},{27},{28},{29},{30},{31},{32},{33},{34},{35},{36},{37},{38},{39},{40},{41},{42},{43},{44},{45},{46},{47},{48},{49},{50},{51},{52},{53},{54},{55},{56},{57},{58},{59},{60},{61},{62},{63},{64},{65},{66},{67},{68},{69},{70},{71}"
 %oldchk=2v1j_III_Dre.chk
 %chk=2v1j_III_Hn.chk
 Properties for Device   0
 Minimum vector length:                              32
 Maximum vector length:                            1024
 Number of SMPs:                                    108
 Maximum number of threads per SMP:                2048
 Number of ASync Engines:                             5
 Memory:                                           9207742464
 Properties for Device   1
 Minimum vector length:                              32
 Maximum vector length:                            1024
 Number of SMPs:                                    108
 Maximum number of threads per SMP:                2048
 Number of ASync Engines:                             5
 Memory:                                           9207742464
 Properties for Device   2
 Minimum vector length:                              32
 Maximum vector length:                            1024
 Number of SMPs:                                    108
 Maximum number of threads per SMP:                2048
 Number of ASync Engines:                             5
 Memory:                                           9207742464
 Properties for Device   3
 Minimum vector length:                              32
 Maximum vector length:                            1024
 Number of SMPs:                                    108
 Maximum number of threads per SMP:                2048
 Number of ASync Engines:                             5
 Memory:                                           9207742464
   8286968217 words of memory will be used on each GPU.
 Copying data from "2v1j_III_Dre.chk" to current chk file "2v1j_III_Hn.chk"
 IOpt=  2 FromEx=T IUOpen= 4 IOptOp= 5 NList=   0 IFRang= 0 IUIn= 4 IUOut= 2.
 --------------------------------------------------------------
 # apfd/def2TZVP guess=read scf=maxcycle=999 geom=check pop=nbo
 --------------------------------------------------------------
 1/29=2,38=1,172=1/1;
 2/12=2,40=1/2;
 3/5=44,7=101,11=2,14=-4,25=1,30=1,74=-44,116=-2/1,2,3;
 4/5=1/1;
 5/5=2,7=999,38=6/2;
 6/7=2,8=2,9=2,10=2,28=1,40=1/1,7;
 99/5=1,9=1/99;
 ----------
 2v1j_III_H
 ----------
 Structure from the checkpoint file:  "2v1j_III_Hn.chk"
 Charge =  1 Multiplicity = 6
 Z-Matrix found in chk file.
 Fe,0,16.9528052808,-30.8415794005,-3.3988275579
 N,0,15.9338285862,-32.1610713774,-2.2698606844
 N,0,16.8215931843,-29.5169927428,-1.8625469697
 N,0,17.8828632556,-29.4417482873,-4.4901219964
 N,0,17.0203025135,-32.1337401724,-4.8880165295
 C,0,15.6128305237,-33.4317163871,-2.6315393907
 C,0,14.9662949051,-34.1284259338,-1.5405457676
 C,0,14.8936391064,-33.2411639144,-0.5127971598
 C,0,15.5051764665,-32.0197831689,-0.9886658924
 C,0,16.2689183042,-29.7199362963,-0.6363169394
 C,0,16.4107412392,-28.5519481783,0.195878218
 C,0,17.0624456201,-27.6180839328,-0.5625986119
 C,0,17.3088408831,-28.247741036,-1.8465282112
 C,0,18.1478146803,-28.1514586557,-4.1502279673
 C,0,18.6410894262,-27.4128038663,-5.2812863125
 C,0,18.6756915671,-28.294645935,-6.3317646165
 C,0,18.1966305337,-29.5579499263,-5.8077460854
 C,0,17.5097644409,-31.8973003513,-6.1338066128
 C,0,17.2824450794,-33.0379122074,-6.9960901043
 C,0,16.6410200532,-33.9660713809,-6.2375482237
 C,0,16.4772879284,-33.3766665504,-4.9254680297
 C,0,15.8584128283,-34.0083853061,-3.8643776215
 H,0,15.5123607865,-35.018952408,-4.0184676443
 C,0,15.6343601235,-30.8785156947,-0.2233740201
 H,0,15.2241458401,-30.8970594227,0.7744024908
 C,0,17.9457724777,-27.6102137478,-2.8918145358
 H,0,18.2419802993,-26.5835600002,-2.7396524849
 C,0,18.0814671494,-30.7138002148,-6.5619136041
 H,0,18.3964231397,-30.6649191184,-7.5932912117
 C,0,14.3253819018,-33.4202056043,0.8536284289
 H,0,13.9230438156,-34.4226614596,0.9768147907
 H,0,13.5229835283,-32.7043921087,1.0326874118
 H,0,15.0922064893,-33.2635220598,1.6131790933
 C,0,14.4926480913,-35.5399542657,-1.6025136002
 H,0,15.3188766523,-36.2127537739,-1.8338406845
 H,0,13.7355156745,-35.6567495389,-2.3784628716
 H,0,14.0582153885,-35.8446708575,-0.6533436284
 C,0,15.9777537942,-28.4515174219,1.6174337434
 H,0,16.1568932124,-29.387789379,2.1438688113
 H,0,14.9124086337,-28.2268795248,1.6844153578
 H,0,16.5280621108,-27.6580045605,2.1192514815
 C,0,17.4619253459,-26.2733787438,-0.2084974999
 H,0,18.3972490118,-25.9306006773,-0.6366560808
 C,0,16.7736996578,-25.4506589149,0.5759242652
 H,0,15.8173382519,-25.7205232399,0.9899651456
 H,0,17.1325679932,-24.4619558293,0.8098273119
 C,0,19.0846259089,-25.9917155471,-5.2548556639
 H,0,19.576584552,-25.7597059971,-4.3116893178
 H,0,18.2370679278,-25.3135660616,-5.3686634306
 H,0,19.7837074732,-25.805840452,-6.0678435309
 C,0,19.1035948739,-28.0732832813,-7.6949487881
 H,0,19.5696799903,-28.9228109097,-8.1807330394
 C,0,18.9666707367,-26.9408714942,-8.3773975236
 H,0,18.4692196216,-26.0792318084,-7.9676808186
 H,0,19.3283157214,-26.8465817426,-9.3881007995
 C,0,17.7100805652,-33.1111436171,-8.4216044341
 H,0,18.789332147,-32.9804351668,-8.5035342675
 H,0,17.2300635719,-32.3280433634,-9.0080817485
 H,0,17.4484045112,-34.0727904543,-8.8557198989
 C,0,16.1583755701,-35.3253055341,-6.6120925403
 H,0,16.625708394,-36.0834590924,-5.9831772987
 H,0,16.3943048559,-35.548346719,-7.649598711
 H,0,15.078456078,-35.3974738638,-6.4822200966
 O,0,15.049,-29.956,-4.258
 H,0,15.338,-29.175,-4.73
 H,0,14.212,-30.249,-4.189
 C,0,22.185897971,-32.6520324132,-2.8481086647
 H,0,22.401225793,-32.5650724764,-3.908154293
 H,0,22.3372835376,-33.6875855787,-2.5443470962
 H,0,22.8888261286,-32.0284139092,-2.2961982106
 N,0,20.2391250953,-32.2331654371,-1.3318182989
 H,0,20.706155074,-32.5125117509,-0.4849679222
 C,0,20.7871125739,-32.2272531081,-2.5877651642
 C,0,18.9631582232,-31.7982549155,-1.4388975886
 H,0,18.2901026546,-31.699491147,-0.61258403
 N,0,18.6706922415,-31.5177444,-2.6856444491
 C,0,19.7951612322,-31.7791582343,-3.4120351341
 H,0,19.8132097412,-31.627060222,-4.4711687317
 Recover connectivity data from disk.
 Stoichiometry    C34H36FeN6O(1+,6)
 Framework group  C1[X(C34H36FeN6O)]
 Deg. of freedom   228
 Full point group                 C1      NOp   1
 Largest Abelian subgroup         C1      NOp   1
 Largest concise Abelian subgroup C1      NOp   1
                         Standard orientation:                         
 ---------------------------------------------------------------------
 Center     Atomic      Atomic             Coordinates (Angstroms)
 Number     Number       Type             X           Y           Z
 ---------------------------------------------------------------------
      1         26           0       -0.007360   -0.179895   -0.317130
      2          7           0       -1.281101   -1.726007   -0.519763
      3          7           0       -1.613980    1.065362   -0.313281
      4          7           0        1.196739    1.417950   -0.205349
      5          7           0        1.532382   -1.411973   -0.372772
      6          6           0       -0.931395   -3.038619   -0.575835
      7          6           0       -2.106474   -3.881551   -0.624145
      8          6           0       -3.176734   -3.043059   -0.608160
      9          6           0       -2.639093   -1.701937   -0.540827
     10          6           0       -2.929388    0.723578   -0.369504
     11          6           0       -3.771690    1.890762   -0.298333
     12          6           0       -2.929955    2.965423   -0.205083
     13          6           0       -1.584829    2.421201   -0.215728
     14          6           0        0.848874    2.733060   -0.212459
     15          6           0        2.011470    3.571728   -0.327487
     16          6           0        3.091164    2.727275   -0.386711
     17          6           0        2.551964    1.384538   -0.307004
     18          6           0        2.844178   -1.056465   -0.389343
     19          6           0        3.686525   -2.222291   -0.555185
     20          6           0        2.847408   -3.288531   -0.640659
     21          6           0        1.504273   -2.758833   -0.534982
     22          6           0        0.360650   -3.531848   -0.585592
     23          1           0        0.484303   -4.600634   -0.670129
     24          6           0       -3.419621   -0.564604   -0.495006
     25          1           0       -4.489987   -0.690962   -0.545301
     26          6           0       -0.451135    3.205118   -0.145317
     27          1           0       -0.589578    4.274964   -0.111050
     28          6           0        3.327451    0.237372   -0.332554
     29          1           0        4.397952    0.365086   -0.387719
     30          6           0       -4.631835   -3.365120   -0.640593
     31          1           0       -4.789030   -4.439726   -0.690397
     32          1           0       -5.106958   -2.908566   -1.508988
     33          1           0       -5.129854   -2.987496    0.253199
     34          6           0       -2.076105   -5.370174   -0.684753
     35          1           0       -1.547673   -5.779169    0.176820
     36          1           0       -1.562866   -5.706962   -1.585946
     37          1           0       -3.084114   -5.778028   -0.693624
     38          6           0       -5.260720    1.875768   -0.267509
     39          1           0       -5.627435    1.035492    0.320101
     40          1           0       -5.669543    1.785261   -1.274773
     41          1           0       -5.633481    2.798649    0.172562
     42          6           0       -3.254540    4.371457   -0.100607
     43          1           0       -2.590099    4.964641    0.517695
     44          6           0       -4.277511    4.968886   -0.702645
     45          1           0       -4.941054    4.439355   -1.364604
     46          1           0       -4.471103    6.021164   -0.575114
     47          6           0        2.004771    5.060518   -0.308117
     48          1           0        1.242115    5.432980    0.373823
     49          1           0        1.796615    5.465276   -1.300103
     50          1           0        2.974652    5.431912    0.016862
     51          6           0        4.496644    3.049547   -0.492259
     52          1           0        5.170539    2.365374    0.010424
     53          6           0        5.007999    4.088351   -1.145132
     54          1           0        4.395609    4.774395   -1.703765
     55          1           0        6.069455    4.273170   -1.163878
     56          6           0        5.175415   -2.182822   -0.599615
     57          1           0        5.573257   -1.748128    0.317633
     58          1           0        5.519473   -1.576306   -1.437099
     59          1           0        5.586416   -3.183119   -0.709981
     60          6           0        3.167076   -4.732581   -0.823084
     61          1           0        2.776823   -5.318455    0.009494
     62          1           0        4.241667   -4.888075   -0.876994
     63          1           0        2.718723   -5.110953   -1.741842
     64          8           0        0.150148    0.112891   -2.561316
     65          1           0        0.621668    0.939553   -2.664099
     66          1           0       -0.147705   -0.407712   -3.218154
     67          6           0        1.225185   -0.404208    5.104752
     68          1           0        2.289164   -0.268936    4.939596
     69          1           0        1.069320   -1.349632    5.623826
     70          1           0        0.865797    0.400304    5.746010
     71          7           0       -0.844274   -0.548540    3.704388
     72          1           0       -1.480910   -0.673890    4.473991
     73          6           0        0.514187   -0.397085    3.801200
     74          6           0       -1.170053   -0.499842    2.392824
     75          1           0       -2.168154   -0.591019    2.017281
     76          7           0       -0.100794   -0.326932    1.654320
     77          6           0        0.954462   -0.260818    2.515989
     78          1           0        1.951682   -0.119868    2.154177
 ---------------------------------------------------------------------
 Rotational constants (GHZ):           0.0926225           0.0912596           0.0593126
 Standard basis: def2TZVP (5D, 7F)
 There are  1744 symmetry adapted cartesian basis functions of A   symmetry.
 There are  1532 symmetry adapted basis functions of A   symmetry.
  1532 basis functions,  2481 primitive gaussians,  1744 cartesian basis functions
   160 alpha electrons      155 beta electrons
       nuclear repulsion energy      5965.7778415486 Hartrees.
 NAtoms=   78 NActive=   78 NUniq=   78 SFac= 1.00D+00 NAtFMM=   60 NAOKFM=T Big=T
 Integral buffers will be    131072 words long.
 Raffenetti 2 integral format.
 Two-electron integral symmetry is turned on.
 R6APFD:  NTU= -4 IXU= 1 FactS= 1.050
 Nuclear repulsion after empirical dispersion term =     5965.6246527882 Hartrees.
 One-electron integrals computed using PRISM.
   1 Symmetry operations used in ECPInt.
 ECPInt:  NShTT=  186355 NPrTT=  576197 LenC2=  147115 LenP2D=  300996.
 LDataN:  DoStor=T MaxTD1= 6 Len=  172
 Number of processors reduced to  23 by ecpmxn.
 NBasis=  1532 RedAO= T EigKep=  3.15D-06  NBF=  1532
 NBsUse=  1532 1.00D-06 EigRej= -1.00D+00 NBFU=  1532
 Initial guess from the checkpoint file:  "2v1j_III_Hn.chk"
 B after Tr=     0.000000   -0.000000   -0.000000
         Rot=    1.000000   -0.000000   -0.000000    0.000000 Ang=   0.00 deg.
 Initial guess <Sx>= 0.0000 <Sy>= 0.0000 <Sz>= 2.5000 <S**2>= 8.7584 S= 2.5014
 Requested convergence on RMS density matrix=1.00D-08 within 999 cycles.
 Requested convergence on MAX density matrix=1.00D-06.
 Requested convergence on             energy=1.00D-06.
 No special actions if energy rises.
 SCF Done:  E(UAPFD) =  -2983.83581767     A.U. after   17 cycles
            NFock= 17  Conv=0.56D-08     -V/T= 2.0031
 <Sx>= 0.0000 <Sy>= 0.0000 <Sz>= 2.5000 <S**2>= 8.7588 S= 2.5015
 <L.S>=  0.00000000000    
 Annihilation of the first spin contaminant:
 S**2 before annihilation     8.7588,   after     8.7500

 **********************************************************************

            Population analysis using the SCF Density.

 **********************************************************************

 Orbital symmetries:
 Alpha Orbitals:
       Occupied  (A) (A) (A) (A) (A) (A) (A) (A) (A) (A) (A) (A)
                 (A) (A) (A) (A) (A) (A) (A) (A) (A) (A) (A) (A)
                 (A) (A) (A) (A) (A) (A) (A) (A) (A) (A) (A) (A)
                 (A) (A) (A) (A) (A) (A) (A) (A) (A) (A) (A) (A)
                 (A) (A) (A) (A) (A) (A) (A) (A) (A) (A) (A) (A)
                 (A) (A) (A) (A) (A) (A) (A) (A) (A) (A) (A) (A)
                 (A) (A) (A) (A) (A) (A) (A) (A) (A) (A) (A) (A)
                 (A) (A) (A) (A) (A) (A) (A) (A) (A) (A) (A) (A)
                 (A) (A) (A) (A) (A) (A) (A) (A) (A) (A) (A) (A)
                 (A) (A) (A) (A) (A) (A) (A) (A) (A) (A) (A) (A)
                 (A) (A) (A) (A) (A) (A) (A) (A) (A) (A) (A) (A)
                 (A) (A) (A) (A) (A) (A) (A) (A) (A) (A) (A) (A)
                 (A) (A) (A) (A) (A) (A) (A) (A) (A) (A) (A) (A)
                 (A) (A) (A) (A)
       Virtual   (A) (A) (A) (A) (A) (A) (A) (A) (A) (A) (A) (A)
                 (A) (A) (A) (A) (A) (A) (A) (A) (A) (A) (A) (A)
                 (A) (A) (A) (A) (A) (A) (A) (A) (A) (A) (A) (A)
                 (A) (A) (A) (A) (A) (A) (A) (A) (A) (A) (A) (A)
                 (A) (A) (A) (A) (A) (A) (A) (A) (A) (A) (A) (A)
                 (A) (A) (A) (A) (A) (A) (A) (A) (A) (A) (A) (A)
                 (A) (A) (A) (A) (A) (A) (A) (A) (A) (A) (A) (A)
                 (A) (A) (A) (A) (A) (A) (A) (A) (A) (A) (A) (A)
                 (A) (A) (A) (A) (A) (A) (A) (A) (A) (A) (A) (A)
                 (A) (A) (A) (A) (A) (A) (A) (A) (A) (A) (A) (A)
                 (A) (A) (A) (A) (A) (A) (A) (A) (A) (A) (A) (A)
                 (A) (A) (A) (A) (A) (A) (A) (A) (A) (A) (A) (A)
                 (A) (A) (A) (A) (A) (A) (A) (A) (A) (A) (A) (A)
                 (A) (A) (A) (A) (A) (A) (A) (A) (A) (A) (A) (A)
                 (A) (A) (A) (A) (A) (A) (A) (A) (A) (A) (A) (A)
                 (A) (A) (A) (A) (A) (A) (A) (A) (A) (A) (A) (A)
                 (A) (A) (A) (A) (A) (A) (A) (A) (A) (A) (A) (A)
                 (A) (A) (A) (A) (A) (A) (A) (A) (A) (A) (A) (A)
                 (A) (A) (A) (A) (A) (A) (A) (A) (A) (A) (A) (A)
                 (A) (A) (A) (A) (A) (A) (A) (A) (A) (A) (A) (A)
                 (A) (A) (A) (A) (A) (A) (A) (A) (A) (A) (A) (A)
                 (A) (A) (A) (A) (A) (A) (A) (A) (A) (A) (A) (A)
                 (A) (A) (A) (A) (A) (A) (A) (A) (A) (A) (A) (A)
                 (A) (A) (A) (A) (A) (A) (A) (A) (A) (A) (A) (A)
                 (A) (A) (A) (A) (A) (A) (A) (A) (A) (A) (A) (A)
                 (A) (A) (A) (A) (A) (A) (A) (A) (A) (A) (A) (A)
                 (A) (A) (A) (A) (A) (A) (A) (A) (A) (A) (A) (A)
                 (A) (A) (A) (A) (A) (A) (A) (A) (A) (A) (A) (A)
                 (A) (A) (A) (A) (A) (A) (A) (A) (A) (A) (A) (A)
                 (A) (A) (A) (A) (A) (A) (A) (A) (A) (A) (A) (A)
                 (A) (A) (A) (A) (A) (A) (A) (A) (A) (A) (A) (A)
                 (A) (A) (A) (A) (A) (A) (A) (A) (A) (A) (A) (A)
                 (A) (A) (A) (A) (A) (A) (A) (A) (A) (A) (A) (A)
                 (A) (A) (A) (A) (A) (A) (A) (A) (A) (A) (A) (A)
                 (A) (A) (A) (A) (A) (A) (A) (A) (A) (A) (A) (A)
                 (A) (A) (A) (A) (A) (A) (A) (A) (A) (A) (A) (A)
                 (A) (A) (A) (A) (A) (A) (A) (A) (A) (A) (A) (A)
                 (A) (A) (A) (A) (A) (A) (A) (A) (A) (A) (A) (A)
                 (A) (A) (A) (A) (A) (A) (A) (A) (A) (A) (A) (A)
                 (A) (A) (A) (A) (A) (A) (A) (A) (A) (A) (A) (A)
                 (A) (A) (A) (A) (A) (A) (A) (A) (A) (A) (A) (A)
                 (A) (A) (A) (A) (A) (A) (A) (A) (A) (A) (A) (A)
                 (A) (A) (A) (A) (A) (A) (A) (A) (A) (A) (A) (A)
                 (A) (A) (A) (A) (A) (A) (A) (A) (A) (A) (A) (A)
                 (A) (A) (A) (A) (A) (A) (A) (A) (A) (A) (A) (A)
                 (A) (A) (A) (A) (A) (A) (A) (A) (A) (A) (A) (A)
                 (A) (A) (A) (A) (A) (A) (A) (A) (A) (A) (A) (A)
                 (A) (A) (A) (A) (A) (A) (A) (A) (A) (A) (A) (A)
                 (A) (A) (A) (A) (A) (A) (A) (A) (A) (A) (A) (A)
                 (A) (A) (A) (A) (A) (A) (A) (A) (A) (A) (A) (A)
                 (A) (A) (A) (A) (A) (A) (A) (A) (A) (A) (A) (A)
                 (A) (A) (A) (A) (A) (A) (A) (A) (A) (A) (A) (A)
                 (A) (A) (A) (A) (A) (A) (A) (A) (A) (A) (A) (A)
                 (A) (A) (A) (A) (A) (A) (A) (A) (A) (A) (A) (A)
                 (A) (A) (A) (A) (A) (A) (A) (A) (A) (A) (A) (A)
                 (A) (A) (A) (A) (A) (A) (A) (A) (A) (A) (A) (A)
                 (A) (A) (A) (A) (A) (A) (A) (A) (A) (A) (A) (A)
                 (A) (A) (A) (A) (A) (A) (A) (A) (A) (A) (A) (A)
                 (A) (A) (A) (A) (A) (A) (A) (A) (A) (A) (A) (A)
                 (A) (A) (A) (A) (A) (A) (A) (A) (A) (A) (A) (A)
                 (A) (A) (A) (A) (A) (A) (A) (A) (A) (A) (A) (A)
                 (A) (A) (A) (A) (A) (A) (A) (A) (A) (A) (A) (A)
                 (A) (A) (A) (A) (A) (A) (A) (A) (A) (A) (A) (A)
                 (A) (A) (A) (A) (A) (A) (A) (A) (A) (A) (A) (A)
                 (A) (A) (A) (A) (A) (A) (A) (A) (A) (A) (A) (A)
                 (A) (A) (A) (A) (A) (A) (A) (A) (A) (A) (A) (A)
                 (A) (A) (A) (A) (A) (A) (A) (A) (A) (A) (A) (A)
                 (A) (A) (A) (A) (A) (A) (A) (A) (A) (A) (A) (A)
                 (A) (A) (A) (A) (A) (A) (A) (A) (A) (A) (A) (A)
                 (A) (A) (A) (A) (A) (A) (A) (A) (A) (A) (A) (A)
                 (A) (A) (A) (A) (A) (A) (A) (A) (A) (A) (A) (A)
                 (A) (A) (A) (A) (A) (A) (A) (A) (A) (A) (A) (A)
                 (A) (A) (A) (A) (A) (A) (A) (A) (A) (A) (A) (A)
                 (A) (A) (A) (A) (A) (A) (A) (A) (A) (A) (A) (A)
                 (A) (A) (A) (A) (A) (A) (A) (A) (A) (A) (A) (A)
                 (A) (A) (A) (A) (A) (A) (A) (A) (A) (A) (A) (A)
                 (A) (A) (A) (A) (A) (A) (A) (A) (A) (A) (A) (A)
                 (A) (A) (A) (A) (A) (A) (A) (A) (A) (A) (A) (A)
                 (A) (A) (A) (A) (A) (A) (A) (A) (A) (A) (A) (A)
                 (A) (A) (A) (A) (A) (A) (A) (A) (A) (A) (A) (A)
                 (A) (A) (A) (A) (A) (A) (A) (A) (A) (A) (A) (A)
                 (A) (A) (A) (A) (A) (A) (A) (A) (A) (A) (A) (A)
                 (A) (A) (A) (A) (A) (A) (A) (A) (A) (A) (A) (A)
                 (A) (A) (A) (A) (A) (A) (A) (A) (A) (A) (A) (A)
                 (A) (A) (A) (A) (A) (A) (A) (A) (A) (A) (A) (A)
                 (A) (A) (A) (A) (A) (A) (A) (A) (A) (A) (A) (A)
                 (A) (A) (A) (A) (A) (A) (A) (A) (A) (A) (A) (A)
                 (A) (A) (A) (A) (A) (A) (A) (A) (A) (A) (A) (A)
                 (A) (A) (A) (A) (A) (A) (A) (A) (A) (A) (A) (A)
                 (A) (A) (A) (A) (A) (A) (A) (A) (A) (A) (A) (A)
                 (A) (A) (A) (A) (A) (A) (A) (A) (A) (A) (A) (A)
                 (A) (A) (A) (A) (A) (A) (A) (A) (A) (A) (A) (A)
                 (A) (A) (A) (A) (A) (A) (A) (A) (A) (A) (A) (A)
                 (A) (A) (A) (A) (A) (A) (A) (A) (A) (A) (A) (A)
                 (A) (A) (A) (A) (A) (A) (A) (A) (A) (A) (A) (A)
                 (A) (A) (A) (A) (A) (A) (A) (A) (A) (A) (A) (A)
                 (A) (A) (A) (A) (A) (A) (A) (A) (A) (A) (A) (A)
                 (A) (A) (A) (A) (A) (A) (A) (A) (A) (A) (A) (A)
                 (A) (A) (A) (A) (A) (A) (A) (A) (A) (A) (A) (A)
                 (A) (A) (A) (A) (A) (A) (A) (A) (A) (A) (A) (A)
                 (A) (A) (A) (A) (A) (A) (A) (A) (A) (A) (A) (A)
                 (A) (A) (A) (A) (A) (A) (A) (A) (A) (A) (A) (A)
                 (A) (A) (A) (A) (A) (A) (A) (A) (A) (A) (A) (A)
                 (A) (A) (A) (A) (A) (A) (A) (A) (A) (A) (A) (A)
                 (A) (A) (A) (A) (A) (A) (A) (A) (A) (A) (A) (A)
                 (A) (A) (A) (A) (A) (A) (A) (A) (A) (A) (A) (A)
                 (A) (A) (A) (A) (A) (A) (A) (A) (A) (A) (A) (A)
                 (A) (A) (A) (A) (A) (A) (A) (A) (A) (A) (A) (A)
                 (A) (A) (A) (A) (A) (A) (A) (A) (A) (A) (A) (A)
                 (A) (A) (A) (A) (A) (A) (A) (A) (A) (A) (A) (A)
                 (A) (A) (A) (A) (A) (A) (A) (A) (A) (A) (A) (A)
                 (A) (A) (A) (A) (A) (A) (A) (A) (A) (A) (A) (A)
                 (A) (A) (A) (A) (A) (A) (A) (A) (A) (A) (A) (A)
                 (A) (A) (A) (A) (A) (A) (A) (A) (A) (A) (A) (A)
                 (A) (A) (A) (A)
 Beta  Orbitals:
       Occupied  (A) (A) (A) (A) (A) (A) (A) (A) (A) (A) (A) (A)
                 (A) (A) (A) (A) (A) (A) (A) (A) (A) (A) (A) (A)
                 (A) (A) (A) (A) (A) (A) (A) (A) (A) (A) (A) (A)
                 (A) (A) (A) (A) (A) (A) (A) (A) (A) (A) (A) (A)
                 (A) (A) (A) (A) (A) (A) (A) (A) (A) (A) (A) (A)
                 (A) (A) (A) (A) (A) (A) (A) (A) (A) (A) (A) (A)
                 (A) (A) (A) (A) (A) (A) (A) (A) (A) (A) (A) (A)
                 (A) (A) (A) (A) (A) (A) (A) (A) (A) (A) (A) (A)
                 (A) (A) (A) (A) (A) (A) (A) (A) (A) (A) (A) (A)
                 (A) (A) (A) (A) (A) (A) (A) (A) (A) (A) (A) (A)
                 (A) (A) (A) (A) (A) (A) (A) (A) (A) (A) (A) (A)
                 (A) (A) (A) (A) (A) (A) (A) (A) (A) (A) (A) (A)
                 (A) (A) (A) (A) (A) (A) (A) (A) (A) (A) (A)
       Virtual   (A) (A) (A) (A) (A) (A) (A) (A) (A) (A) (A) (A)
                 (A) (A) (A) (A) (A) (A) (A) (A) (A) (A) (A) (A)
                 (A) (A) (A) (A) (A) (A) (A) (A) (A) (A) (A) (A)
                 (A) (A) (A) (A) (A) (A) (A) (A) (A) (A) (A) (A)
                 (A) (A) (A) (A) (A) (A) (A) (A) (A) (A) (A) (A)
                 (A) (A) (A) (A) (A) (A) (A) (A) (A) (A) (A) (A)
                 (A) (A) (A) (A) (A) (A) (A) (A) (A) (A) (A) (A)
                 (A) (A) (A) (A) (A) (A) (A) (A) (A) (A) (A) (A)
                 (A) (A) (A) (A) (A) (A) (A) (A) (A) (A) (A) (A)
                 (A) (A) (A) (A) (A) (A) (A) (A) (A) (A) (A) (A)
                 (A) (A) (A) (A) (A) (A) (A) (A) (A) (A) (A) (A)
                 (A) (A) (A) (A) (A) (A) (A) (A) (A) (A) (A) (A)
                 (A) (A) (A) (A) (A) (A) (A) (A) (A) (A) (A) (A)
                 (A) (A) (A) (A) (A) (A) (A) (A) (A) (A) (A) (A)
                 (A) (A) (A) (A) (A) (A) (A) (A) (A) (A) (A) (A)
                 (A) (A) (A) (A) (A) (A) (A) (A) (A) (A) (A) (A)
                 (A) (A) (A) (A) (A) (A) (A) (A) (A) (A) (A) (A)
                 (A) (A) (A) (A) (A) (A) (A) (A) (A) (A) (A) (A)
                 (A) (A) (A) (A) (A) (A) (A) (A) (A) (A) (A) (A)
                 (A) (A) (A) (A) (A) (A) (A) (A) (A) (A) (A) (A)
                 (A) (A) (A) (A) (A) (A) (A) (A) (A) (A) (A) (A)
                 (A) (A) (A) (A) (A) (A) (A) (A) (A) (A) (A) (A)
                 (A) (A) (A) (A) (A) (A) (A) (A) (A) (A) (A) (A)
                 (A) (A) (A) (A) (A) (A) (A) (A) (A) (A) (A) (A)
                 (A) (A) (A) (A) (A) (A) (A) (A) (A) (A) (A) (A)
                 (A) (A) (A) (A) (A) (A) (A) (A) (A) (A) (A) (A)
                 (A) (A) (A) (A) (A) (A) (A) (A) (A) (A) (A) (A)
                 (A) (A) (A) (A) (A) (A) (A) (A) (A) (A) (A) (A)
                 (A) (A) (A) (A) (A) (A) (A) (A) (A) (A) (A) (A)
                 (A) (A) (A) (A) (A) (A) (A) (A) (A) (A) (A) (A)
                 (A) (A) (A) (A) (A) (A) (A) (A) (A) (A) (A) (A)
                 (A) (A) (A) (A) (A) (A) (A) (A) (A) (A) (A) (A)
                 (A) (A) (A) (A) (A) (A) (A) (A) (A) (A) (A) (A)
                 (A) (A) (A) (A) (A) (A) (A) (A) (A) (A) (A) (A)
                 (A) (A) (A) (A) (A) (A) (A) (A) (A) (A) (A) (A)
                 (A) (A) (A) (A) (A) (A) (A) (A) (A) (A) (A) (A)
                 (A) (A) (A) (A) (A) (A) (A) (A) (A) (A) (A) (A)
                 (A) (A) (A) (A) (A) (A) (A) (A) (A) (A) (A) (A)
                 (A) (A) (A) (A) (A) (A) (A) (A) (A) (A) (A) (A)
                 (A) (A) (A) (A) (A) (A) (A) (A) (A) (A) (A) (A)
                 (A) (A) (A) (A) (A) (A) (A) (A) (A) (A) (A) (A)
                 (A) (A) (A) (A) (A) (A) (A) (A) (A) (A) (A) (A)
                 (A) (A) (A) (A) (A) (A) (A) (A) (A) (A) (A) (A)
                 (A) (A) (A) (A) (A) (A) (A) (A) (A) (A) (A) (A)
                 (A) (A) (A) (A) (A) (A) (A) (A) (A) (A) (A) (A)
                 (A) (A) (A) (A) (A) (A) (A) (A) (A) (A) (A) (A)
                 (A) (A) (A) (A) (A) (A) (A) (A) (A) (A) (A) (A)
                 (A) (A) (A) (A) (A) (A) (A) (A) (A) (A) (A) (A)
                 (A) (A) (A) (A) (A) (A) (A) (A) (A) (A) (A) (A)
                 (A) (A) (A) (A) (A) (A) (A) (A) (A) (A) (A) (A)
                 (A) (A) (A) (A) (A) (A) (A) (A) (A) (A) (A) (A)
                 (A) (A) (A) (A) (A) (A) (A) (A) (A) (A) (A) (A)
                 (A) (A) (A) (A) (A) (A) (A) (A) (A) (A) (A) (A)
                 (A) (A) (A) (A) (A) (A) (A) (A) (A) (A) (A) (A)
                 (A) (A) (A) (A) (A) (A) (A) (A) (A) (A) (A) (A)
                 (A) (A) (A) (A) (A) (A) (A) (A) (A) (A) (A) (A)
                 (A) (A) (A) (A) (A) (A) (A) (A) (A) (A) (A) (A)
                 (A) (A) (A) (A) (A) (A) (A) (A) (A) (A) (A) (A)
                 (A) (A) (A) (A) (A) (A) (A) (A) (A) (A) (A) (A)
                 (A) (A) (A) (A) (A) (A) (A) (A) (A) (A) (A) (A)
                 (A) (A) (A) (A) (A) (A) (A) (A) (A) (A) (A) (A)
                 (A) (A) (A) (A) (A) (A) (A) (A) (A) (A) (A) (A)
                 (A) (A) (A) (A) (A) (A) (A) (A) (A) (A) (A) (A)
                 (A) (A) (A) (A) (A) (A) (A) (A) (A) (A) (A) (A)
                 (A) (A) (A) (A) (A) (A) (A) (A) (A) (A) (A) (A)
                 (A) (A) (A) (A) (A) (A) (A) (A) (A) (A) (A) (A)
                 (A) (A) (A) (A) (A) (A) (A) (A) (A) (A) (A) (A)
                 (A) (A) (A) (A) (A) (A) (A) (A) (A) (A) (A) (A)
                 (A) (A) (A) (A) (A) (A) (A) (A) (A) (A) (A) (A)
                 (A) (A) (A) (A) (A) (A) (A) (A) (A) (A) (A) (A)
                 (A) (A) (A) (A) (A) (A) (A) (A) (A) (A) (A) (A)
                 (A) (A) (A) (A) (A) (A) (A) (A) (A) (A) (A) (A)
                 (A) (A) (A) (A) (A) (A) (A) (A) (A) (A) (A) (A)
                 (A) (A) (A) (A) (A) (A) (A) (A) (A) (A) (A) (A)
                 (A) (A) (A) (A) (A) (A) (A) (A) (A) (A) (A) (A)
                 (A) (A) (A) (A) (A) (A) (A) (A) (A) (A) (A) (A)
                 (A) (A) (A) (A) (A) (A) (A) (A) (A) (A) (A) (A)
                 (A) (A) (A) (A) (A) (A) (A) (A) (A) (A) (A) (A)
                 (A) (A) (A) (A) (A) (A) (A) (A) (A) (A) (A) (A)
                 (A) (A) (A) (A) (A) (A) (A) (A) (A) (A) (A) (A)
                 (A) (A) (A) (A) (A) (A) (A) (A) (A) (A) (A) (A)
                 (A) (A) (A) (A) (A) (A) (A) (A) (A) (A) (A) (A)
                 (A) (A) (A) (A) (A) (A) (A) (A) (A) (A) (A) (A)
                 (A) (A) (A) (A) (A) (A) (A) (A) (A) (A) (A) (A)
                 (A) (A) (A) (A) (A) (A) (A) (A) (A) (A) (A) (A)
                 (A) (A) (A) (A) (A) (A) (A) (A) (A) (A) (A) (A)
                 (A) (A) (A) (A) (A) (A) (A) (A) (A) (A) (A) (A)
                 (A) (A) (A) (A) (A) (A) (A) (A) (A) (A) (A) (A)
                 (A) (A) (A) (A) (A) (A) (A) (A) (A) (A) (A) (A)
                 (A) (A) (A) (A) (A) (A) (A) (A) (A) (A) (A) (A)
                 (A) (A) (A) (A) (A) (A) (A) (A) (A) (A) (A) (A)
                 (A) (A) (A) (A) (A) (A) (A) (A) (A) (A) (A) (A)
                 (A) (A) (A) (A) (A) (A) (A) (A) (A) (A) (A) (A)
                 (A) (A) (A) (A) (A) (A) (A) (A) (A) (A) (A) (A)
                 (A) (A) (A) (A) (A) (A) (A) (A) (A) (A) (A) (A)
                 (A) (A) (A) (A) (A) (A) (A) (A) (A) (A) (A) (A)
                 (A) (A) (A) (A) (A) (A) (A) (A) (A) (A) (A) (A)
                 (A) (A) (A) (A) (A) (A) (A) (A) (A) (A) (A) (A)
                 (A) (A) (A) (A) (A) (A) (A) (A) (A) (A) (A) (A)
                 (A) (A) (A) (A) (A) (A) (A) (A) (A) (A) (A) (A)
                 (A) (A) (A) (A) (A) (A) (A) (A) (A) (A) (A) (A)
                 (A) (A) (A) (A) (A) (A) (A) (A) (A) (A) (A) (A)
                 (A) (A) (A) (A) (A) (A) (A) (A) (A) (A) (A) (A)
                 (A) (A) (A) (A) (A) (A) (A) (A) (A) (A) (A) (A)
                 (A) (A) (A) (A) (A) (A) (A) (A) (A) (A) (A) (A)
                 (A) (A) (A) (A) (A) (A) (A) (A) (A) (A) (A) (A)
                 (A) (A) (A) (A) (A) (A) (A) (A) (A) (A) (A) (A)
                 (A) (A) (A) (A) (A) (A) (A) (A) (A) (A) (A) (A)
                 (A) (A) (A) (A) (A) (A) (A) (A) (A) (A) (A) (A)
                 (A) (A) (A) (A) (A) (A) (A) (A) (A) (A) (A) (A)
                 (A) (A) (A) (A) (A) (A) (A) (A) (A) (A) (A) (A)
                 (A) (A) (A) (A) (A) (A) (A) (A) (A) (A) (A) (A)
                 (A) (A) (A) (A) (A) (A) (A) (A) (A) (A) (A) (A)
                 (A) (A) (A) (A) (A) (A) (A) (A) (A) (A) (A) (A)
                 (A) (A) (A) (A) (A) (A) (A) (A) (A)
 The electronic state is 6-A.
 Alpha  occ. eigenvalues -- -256.42424 -30.33346 -26.16369 -26.16243 -26.16216
 Alpha  occ. eigenvalues --  -19.29265 -14.52628 -14.47810 -14.45152 -14.44843
 Alpha  occ. eigenvalues --  -14.44804 -14.44680 -10.37171 -10.34437 -10.33007
 Alpha  occ. eigenvalues --  -10.32687 -10.32645 -10.32641 -10.32631 -10.32609
 Alpha  occ. eigenvalues --  -10.32562 -10.32548 -10.31882 -10.30052 -10.29992
 Alpha  occ. eigenvalues --  -10.29749 -10.29725 -10.29689 -10.29661 -10.29655
 Alpha  occ. eigenvalues --  -10.29601 -10.29581 -10.29567 -10.29524 -10.29437
 Alpha  occ. eigenvalues --  -10.29407 -10.28937 -10.28773 -10.28038 -10.27940
 Alpha  occ. eigenvalues --  -10.27885 -10.27846 -10.27747 -10.27710 -10.27612
 Alpha  occ. eigenvalues --  -10.27483  -3.78668  -2.55335  -2.55204  -2.55152
 Alpha  occ. eigenvalues --   -1.17269  -1.16637  -1.09115  -1.08176  -1.07956
 Alpha  occ. eigenvalues --   -1.07059  -1.02575  -0.93616  -0.92465  -0.92115
 Alpha  occ. eigenvalues --   -0.91562  -0.91262  -0.90827  -0.90748  -0.90524
 Alpha  occ. eigenvalues --   -0.86877  -0.85694  -0.85325  -0.84433  -0.83024
 Alpha  occ. eigenvalues --   -0.82118  -0.81367  -0.80382  -0.78746  -0.78482
 Alpha  occ. eigenvalues --   -0.78355  -0.76012  -0.75277  -0.75184  -0.72774
 Alpha  occ. eigenvalues --   -0.72321  -0.70921  -0.70269  -0.69053  -0.68469
 Alpha  occ. eigenvalues --   -0.66969  -0.65296  -0.64758  -0.64095  -0.63897
 Alpha  occ. eigenvalues --   -0.62323  -0.62054  -0.61944  -0.61627  -0.60497
 Alpha  occ. eigenvalues --   -0.58911  -0.58620  -0.58589  -0.58328  -0.56707
 Alpha  occ. eigenvalues --   -0.56426  -0.56322  -0.56057  -0.55527  -0.55187
 Alpha  occ. eigenvalues --   -0.54810  -0.54489  -0.53929  -0.53812  -0.53590
 Alpha  occ. eigenvalues --   -0.53501  -0.53421  -0.53353  -0.52943  -0.52525
 Alpha  occ. eigenvalues --   -0.52391  -0.51988  -0.51861  -0.51837  -0.51348
 Alpha  occ. eigenvalues --   -0.50789  -0.50627  -0.50306  -0.50186  -0.49969
 Alpha  occ. eigenvalues --   -0.49806  -0.49506  -0.49398  -0.49055  -0.48899
 Alpha  occ. eigenvalues --   -0.48735  -0.48403  -0.48236  -0.47808  -0.47235
 Alpha  occ. eigenvalues --   -0.47072  -0.46541  -0.46068  -0.45795  -0.45334
 Alpha  occ. eigenvalues --   -0.45045  -0.44007  -0.43657  -0.43176  -0.43030
 Alpha  occ. eigenvalues --   -0.42441  -0.41451  -0.40061  -0.39550  -0.38053
 Alpha  occ. eigenvalues --   -0.37730  -0.37658  -0.34920  -0.34111  -0.33778
 Alpha  occ. eigenvalues --   -0.32949  -0.32795  -0.32381  -0.29935  -0.29039
 Alpha virt. eigenvalues --   -0.18010  -0.17887  -0.12236  -0.09785  -0.09130
 Alpha virt. eigenvalues --   -0.07896  -0.07621  -0.06096  -0.05934  -0.05414
 Alpha virt. eigenvalues --   -0.04377  -0.03912  -0.03103  -0.02824  -0.02750
 Alpha virt. eigenvalues --   -0.02352  -0.02021  -0.01224  -0.00790  -0.00636
 Alpha virt. eigenvalues --   -0.00022   0.00236   0.00443   0.00526   0.00830
 Alpha virt. eigenvalues --    0.01484   0.01991   0.02104   0.02473   0.02596
 Alpha virt. eigenvalues --    0.02761   0.03068   0.03243   0.03448   0.03721
 Alpha virt. eigenvalues --    0.04029   0.04127   0.04176   0.04387   0.04531
 Alpha virt. eigenvalues --    0.04876   0.05011   0.05268   0.05497   0.05624
 Alpha virt. eigenvalues --    0.05890   0.06110   0.06502   0.06817   0.07143
 Alpha virt. eigenvalues --    0.07210   0.07512   0.07783   0.07931   0.07945
 Alpha virt. eigenvalues --    0.08368   0.08627   0.08717   0.08801   0.09186
 Alpha virt. eigenvalues --    0.09414   0.09758   0.09955   0.10249   0.10629
 Alpha virt. eigenvalues --    0.10772   0.11184   0.11222   0.11625   0.11748
 Alpha virt. eigenvalues --    0.11846   0.12288   0.12434   0.12946   0.13031
 Alpha virt. eigenvalues --    0.13273   0.13315   0.13534   0.13865   0.14272
 Alpha virt. eigenvalues --    0.14388   0.14877   0.15079   0.15410   0.15890
 Alpha virt. eigenvalues --    0.16349   0.16653   0.16923   0.17004   0.17230
 Alpha virt. eigenvalues --    0.17430   0.17560   0.17918   0.18015   0.18308
 Alpha virt. eigenvalues --    0.18571   0.19131   0.19605   0.19712   0.20145
 Alpha virt. eigenvalues --    0.20395   0.20518   0.20703   0.20944   0.21188
 Alpha virt. eigenvalues --    0.21341   0.21740   0.21845   0.22011   0.22341
 Alpha virt. eigenvalues --    0.22478   0.23163   0.23274   0.23513   0.23673
 Alpha virt. eigenvalues --    0.23963   0.24352   0.24379   0.24661   0.24905
 Alpha virt. eigenvalues --    0.25324   0.25391   0.25660   0.26133   0.26692
 Alpha virt. eigenvalues --    0.26859   0.27232   0.27354   0.27651   0.28034
 Alpha virt. eigenvalues --    0.28203   0.28691   0.28785   0.29035   0.29089
 Alpha virt. eigenvalues --    0.29355   0.29771   0.30055   0.30119   0.30430
 Alpha virt. eigenvalues --    0.30675   0.30817   0.31082   0.31340   0.31591
 Alpha virt. eigenvalues --    0.31652   0.32055   0.32451   0.32633   0.32708
 Alpha virt. eigenvalues --    0.32773   0.33160   0.33324   0.33368   0.33519
 Alpha virt. eigenvalues --    0.34066   0.34228   0.34444   0.34656   0.34955
 Alpha virt. eigenvalues --    0.35271   0.35415   0.35578   0.35842   0.35986
 Alpha virt. eigenvalues --    0.36262   0.36517   0.37005   0.37227   0.37580
 Alpha virt. eigenvalues --    0.37828   0.37971   0.38075   0.38295   0.38459
 Alpha virt. eigenvalues --    0.38653   0.38883   0.38944   0.39215   0.39483
 Alpha virt. eigenvalues --    0.39765   0.40011   0.40206   0.40548   0.40760
 Alpha virt. eigenvalues --    0.41018   0.41290   0.41427   0.41602   0.41852
 Alpha virt. eigenvalues --    0.42096   0.42229   0.42365   0.42522   0.42660
 Alpha virt. eigenvalues --    0.43021   0.43162   0.43426   0.43576   0.43728
 Alpha virt. eigenvalues --    0.44158   0.44287   0.44632   0.44909   0.45037
 Alpha virt. eigenvalues --    0.45178   0.45342   0.45839   0.46147   0.46270
 Alpha virt. eigenvalues --    0.46666   0.46896   0.46978   0.47400   0.47514
 Alpha virt. eigenvalues --    0.48012   0.48088   0.48393   0.48512   0.48959
 Alpha virt. eigenvalues --    0.49191   0.49589   0.49834   0.50104   0.50145
 Alpha virt. eigenvalues --    0.50516   0.50769   0.51394   0.51772   0.51923
 Alpha virt. eigenvalues --    0.52287   0.52375   0.52993   0.53117   0.53502
 Alpha virt. eigenvalues --    0.54069   0.54190   0.54378   0.54561   0.54700
 Alpha virt. eigenvalues --    0.55268   0.55405   0.55561   0.55836   0.56144
 Alpha virt. eigenvalues --    0.56450   0.56628   0.56924   0.57293   0.57600
 Alpha virt. eigenvalues --    0.57854   0.58362   0.58494   0.58899   0.59268
 Alpha virt. eigenvalues --    0.59950   0.60161   0.60755   0.60866   0.61153
 Alpha virt. eigenvalues --    0.61517   0.61924   0.62227   0.62355   0.62725
 Alpha virt. eigenvalues --    0.63006   0.63483   0.63596   0.63684   0.64113
 Alpha virt. eigenvalues --    0.64454   0.64803   0.65239   0.65584   0.66242
 Alpha virt. eigenvalues --    0.66417   0.66656   0.67010   0.67649   0.67902
 Alpha virt. eigenvalues --    0.68325   0.68558   0.68792   0.68826   0.69187
 Alpha virt. eigenvalues --    0.69761   0.69846   0.70516   0.70583   0.70885
 Alpha virt. eigenvalues --    0.71332   0.71468   0.72236   0.72553   0.72625
 Alpha virt. eigenvalues --    0.73498   0.74176   0.74244   0.74748   0.75044
 Alpha virt. eigenvalues --    0.75284   0.75840   0.76497   0.76573   0.77034
 Alpha virt. eigenvalues --    0.77173   0.77439   0.78221   0.78598   0.78922
 Alpha virt. eigenvalues --    0.79225   0.79633   0.79720   0.80510   0.80780
 Alpha virt. eigenvalues --    0.80935   0.81214   0.82342   0.82534   0.82813
 Alpha virt. eigenvalues --    0.83127   0.83451   0.83713   0.83785   0.84141
 Alpha virt. eigenvalues --    0.84959   0.85110   0.85707   0.85791   0.86098
 Alpha virt. eigenvalues --    0.86591   0.87431   0.87564   0.87763   0.88165
 Alpha virt. eigenvalues --    0.88594   0.88830   0.88964   0.89199   0.89753
 Alpha virt. eigenvalues --    0.90424   0.90581   0.90936   0.91239   0.91618
 Alpha virt. eigenvalues --    0.91794   0.92176   0.92534   0.92629   0.92896
 Alpha virt. eigenvalues --    0.93374   0.93656   0.93744   0.93894   0.94042
 Alpha virt. eigenvalues --    0.94254   0.94462   0.94955   0.95262   0.95790
 Alpha virt. eigenvalues --    0.96025   0.96714   0.96858   0.97445   0.97934
 Alpha virt. eigenvalues --    0.98392   0.98687   0.99125   0.99280   0.99651
 Alpha virt. eigenvalues --    1.00136   1.00258   1.01100   1.01664   1.02096
 Alpha virt. eigenvalues --    1.02314   1.03163   1.03304   1.04009   1.04794
 Alpha virt. eigenvalues --    1.05408   1.05613   1.06194   1.06378   1.07162
 Alpha virt. eigenvalues --    1.07307   1.07848   1.08158   1.08388   1.08752
 Alpha virt. eigenvalues --    1.09231   1.09699   1.09950   1.10123   1.10601
 Alpha virt. eigenvalues --    1.11050   1.11067   1.11614   1.11913   1.12183
 Alpha virt. eigenvalues --    1.12530   1.13019   1.13385   1.13550   1.14912
 Alpha virt. eigenvalues --    1.15547   1.15833   1.16091   1.16380   1.16908
 Alpha virt. eigenvalues --    1.17331   1.17531   1.17646   1.18112   1.18640
 Alpha virt. eigenvalues --    1.18651   1.19252   1.19404   1.19883   1.20212
 Alpha virt. eigenvalues --    1.20647   1.20933   1.21192   1.21423   1.22261
 Alpha virt. eigenvalues --    1.22464   1.23028   1.23500   1.24684   1.25025
 Alpha virt. eigenvalues --    1.25551   1.25937   1.26722   1.27020   1.28232
 Alpha virt. eigenvalues --    1.28423   1.28546   1.28955   1.29859   1.30143
 Alpha virt. eigenvalues --    1.30403   1.31026   1.31952   1.32791   1.33544
 Alpha virt. eigenvalues --    1.34107   1.34360   1.34603   1.35224   1.35526
 Alpha virt. eigenvalues --    1.36284   1.36324   1.37056   1.37359   1.37829
 Alpha virt. eigenvalues --    1.37921   1.38405   1.38708   1.38806   1.39329
 Alpha virt. eigenvalues --    1.39753   1.39811   1.40317   1.40637   1.40712
 Alpha virt. eigenvalues --    1.40911   1.41226   1.41702   1.42166   1.42308
 Alpha virt. eigenvalues --    1.42493   1.43124   1.43204   1.43522   1.43765
 Alpha virt. eigenvalues --    1.43923   1.44174   1.44672   1.44934   1.45015
 Alpha virt. eigenvalues --    1.45274   1.45340   1.45743   1.45972   1.46330
 Alpha virt. eigenvalues --    1.46649   1.46840   1.47235   1.47492   1.47711
 Alpha virt. eigenvalues --    1.47865   1.48411   1.48590   1.48848   1.49083
 Alpha virt. eigenvalues --    1.49290   1.49715   1.49821   1.50474   1.50649
 Alpha virt. eigenvalues --    1.50906   1.51291   1.51500   1.51765   1.52308
 Alpha virt. eigenvalues --    1.52853   1.52963   1.53237   1.53354   1.53619
 Alpha virt. eigenvalues --    1.53869   1.54292   1.54770   1.54845   1.55220
 Alpha virt. eigenvalues --    1.55542   1.55975   1.56166   1.56414   1.56899
 Alpha virt. eigenvalues --    1.57367   1.57603   1.57863   1.58446   1.58547
 Alpha virt. eigenvalues --    1.58692   1.59431   1.59654   1.59941   1.60278
 Alpha virt. eigenvalues --    1.60532   1.60578   1.60994   1.61428   1.62015
 Alpha virt. eigenvalues --    1.62756   1.63162   1.63438   1.63557   1.64226
 Alpha virt. eigenvalues --    1.64627   1.65114   1.65347   1.65742   1.66856
 Alpha virt. eigenvalues --    1.67285   1.68115   1.69148   1.69641   1.69905
 Alpha virt. eigenvalues --    1.70197   1.71136   1.71958   1.72498   1.72992
 Alpha virt. eigenvalues --    1.73183   1.73613   1.73977   1.74289   1.74783
 Alpha virt. eigenvalues --    1.75118   1.75545   1.75764   1.76326   1.76452
 Alpha virt. eigenvalues --    1.77115   1.77394   1.77958   1.78088   1.78191
 Alpha virt. eigenvalues --    1.78709   1.78810   1.79047   1.79397   1.80715
 Alpha virt. eigenvalues --    1.81282   1.81591   1.82034   1.82962   1.83013
 Alpha virt. eigenvalues --    1.83667   1.84084   1.84907   1.85388   1.85936
 Alpha virt. eigenvalues --    1.86365   1.86849   1.87291   1.87824   1.87904
 Alpha virt. eigenvalues --    1.88322   1.88522   1.88931   1.89465   1.89684
 Alpha virt. eigenvalues --    1.90176   1.90501   1.91304   1.91661   1.92017
 Alpha virt. eigenvalues --    1.92231   1.93049   1.93337   1.94058   1.94414
 Alpha virt. eigenvalues --    1.94869   1.96067   1.96294   1.96504   1.97112
 Alpha virt. eigenvalues --    1.97813   1.98270   1.98774   1.99189   1.99403
 Alpha virt. eigenvalues --    1.99838   2.00309   2.00610   2.01202   2.01706
 Alpha virt. eigenvalues --    2.01873   2.02197   2.02678   2.02990   2.03376
 Alpha virt. eigenvalues --    2.03560   2.04418   2.04977   2.05030   2.05724
 Alpha virt. eigenvalues --    2.06115   2.06865   2.07347   2.07992   2.08461
 Alpha virt. eigenvalues --    2.08847   2.09319   2.09674   2.10029   2.10236
 Alpha virt. eigenvalues --    2.11157   2.11423   2.12113   2.12322   2.13179
 Alpha virt. eigenvalues --    2.13713   2.14126   2.15156   2.15925   2.16096
 Alpha virt. eigenvalues --    2.16244   2.16785   2.16931   2.17470   2.17786
 Alpha virt. eigenvalues --    2.17858   2.18284   2.18938   2.19275   2.19549
 Alpha virt. eigenvalues --    2.20323   2.21132   2.21272   2.21907   2.22302
 Alpha virt. eigenvalues --    2.22552   2.22927   2.23224   2.23593   2.25144
 Alpha virt. eigenvalues --    2.25654   2.25774   2.26272   2.26604   2.26804
 Alpha virt. eigenvalues --    2.26977   2.27960   2.28182   2.28275   2.28887
 Alpha virt. eigenvalues --    2.29260   2.29396   2.29811   2.30085   2.30862
 Alpha virt. eigenvalues --    2.30926   2.31437   2.31559   2.32115   2.32781
 Alpha virt. eigenvalues --    2.33061   2.34182   2.34325   2.34806   2.35101
 Alpha virt. eigenvalues --    2.35525   2.35903   2.36178   2.36516   2.36806
 Alpha virt. eigenvalues --    2.37312   2.37535   2.37821   2.38609   2.39309
 Alpha virt. eigenvalues --    2.39424   2.40000   2.40543   2.40964   2.41584
 Alpha virt. eigenvalues --    2.41895   2.42428   2.43107   2.43367   2.43634
 Alpha virt. eigenvalues --    2.43990   2.44305   2.44678   2.45590   2.45982
 Alpha virt. eigenvalues --    2.46141   2.46535   2.46656   2.47048   2.47202
 Alpha virt. eigenvalues --    2.47911   2.47975   2.48581   2.49083   2.49319
 Alpha virt. eigenvalues --    2.49754   2.50159   2.50599   2.50775   2.51294
 Alpha virt. eigenvalues --    2.51566   2.51788   2.52515   2.52658   2.53022
 Alpha virt. eigenvalues --    2.53877   2.54350   2.54783   2.55262   2.55451
 Alpha virt. eigenvalues --    2.55587   2.56216   2.56508   2.56641   2.57295
 Alpha virt. eigenvalues --    2.57489   2.57669   2.58082   2.58627   2.58903
 Alpha virt. eigenvalues --    2.59524   2.60189   2.60335   2.60414   2.60924
 Alpha virt. eigenvalues --    2.61535   2.62305   2.62341   2.62459   2.63273
 Alpha virt. eigenvalues --    2.63539   2.64111   2.64533   2.64881   2.65032
 Alpha virt. eigenvalues --    2.65720   2.66158   2.66844   2.66996   2.67036
 Alpha virt. eigenvalues --    2.67858   2.67950   2.68396   2.69355   2.69698
 Alpha virt. eigenvalues --    2.70135   2.70390   2.71077   2.71360   2.71773
 Alpha virt. eigenvalues --    2.72015   2.72731   2.73124   2.73656   2.73996
 Alpha virt. eigenvalues --    2.74094   2.74645   2.74995   2.75259   2.75895
 Alpha virt. eigenvalues --    2.76221   2.76915   2.77438   2.77582   2.77745
 Alpha virt. eigenvalues --    2.78566   2.78718   2.79276   2.79545   2.79776
 Alpha virt. eigenvalues --    2.79983   2.80308   2.80879   2.81017   2.81113
 Alpha virt. eigenvalues --    2.81887   2.82749   2.82929   2.83478   2.83566
 Alpha virt. eigenvalues --    2.83857   2.84222   2.84611   2.84911   2.85531
 Alpha virt. eigenvalues --    2.85733   2.86067   2.86729   2.86774   2.86956
 Alpha virt. eigenvalues --    2.87336   2.88077   2.88314   2.88918   2.88967
 Alpha virt. eigenvalues --    2.89319   2.89571   2.90101   2.90281   2.90479
 Alpha virt. eigenvalues --    2.90998   2.91388   2.92268   2.92455   2.92732
 Alpha virt. eigenvalues --    2.93225   2.93896   2.93987   2.94363   2.94946
 Alpha virt. eigenvalues --    2.95542   2.95899   2.96302   2.96414   2.96958
 Alpha virt. eigenvalues --    2.97080   2.97366   2.97755   2.97933   2.98592
 Alpha virt. eigenvalues --    2.98819   2.99006   2.99134   2.99567   2.99796
 Alpha virt. eigenvalues --    3.00441   3.00809   3.01012   3.01487   3.01800
 Alpha virt. eigenvalues --    3.02142   3.02254   3.02573   3.03055   3.03208
 Alpha virt. eigenvalues --    3.03799   3.03863   3.04509   3.04974   3.05332
 Alpha virt. eigenvalues --    3.05840   3.06261   3.06596   3.06851   3.07282
 Alpha virt. eigenvalues --    3.07298   3.07682   3.08190   3.08605   3.08960
 Alpha virt. eigenvalues --    3.09157   3.09261   3.09920   3.10344   3.10571
 Alpha virt. eigenvalues --    3.10943   3.11355   3.11511   3.11845   3.12194
 Alpha virt. eigenvalues --    3.12378   3.12848   3.13271   3.13348   3.13628
 Alpha virt. eigenvalues --    3.14027   3.14298   3.14668   3.14973   3.15347
 Alpha virt. eigenvalues --    3.15689   3.15832   3.15989   3.16084   3.16583
 Alpha virt. eigenvalues --    3.17033   3.17265   3.17406   3.17570   3.17896
 Alpha virt. eigenvalues --    3.18346   3.18755   3.19048   3.19405   3.19607
 Alpha virt. eigenvalues --    3.19737   3.19943   3.20366   3.20491   3.21017
 Alpha virt. eigenvalues --    3.21306   3.21439   3.21705   3.21928   3.22240
 Alpha virt. eigenvalues --    3.22755   3.22938   3.23085   3.23197   3.23695
 Alpha virt. eigenvalues --    3.24295   3.24676   3.24683   3.24879   3.25157
 Alpha virt. eigenvalues --    3.25222   3.25670   3.25946   3.26204   3.26428
 Alpha virt. eigenvalues --    3.26590   3.27119   3.27624   3.27783   3.27982
 Alpha virt. eigenvalues --    3.28109   3.28311   3.28682   3.29037   3.29147
 Alpha virt. eigenvalues --    3.29472   3.29861   3.30224   3.30295   3.30636
 Alpha virt. eigenvalues --    3.31178   3.31487   3.32068   3.32351   3.33021
 Alpha virt. eigenvalues --    3.33249   3.33795   3.34530   3.34812   3.35151
 Alpha virt. eigenvalues --    3.35241   3.35395   3.36044   3.36451   3.36646
 Alpha virt. eigenvalues --    3.37242   3.37734   3.37856   3.38557   3.39198
 Alpha virt. eigenvalues --    3.39461   3.40109   3.40232   3.41239   3.42133
 Alpha virt. eigenvalues --    3.42348   3.42805   3.43144   3.43583   3.43805
 Alpha virt. eigenvalues --    3.43952   3.44833   3.44892   3.45085   3.45669
 Alpha virt. eigenvalues --    3.46448   3.47084   3.47264   3.47757   3.47987
 Alpha virt. eigenvalues --    3.48195   3.48604   3.49119   3.49642   3.50494
 Alpha virt. eigenvalues --    3.50722   3.51263   3.51727   3.52155   3.52719
 Alpha virt. eigenvalues --    3.53405   3.53943   3.54454   3.55001   3.55830
 Alpha virt. eigenvalues --    3.56141   3.56242   3.56475   3.57090   3.57498
 Alpha virt. eigenvalues --    3.57926   3.58476   3.59202   3.59769   3.60010
 Alpha virt. eigenvalues --    3.60192   3.60871   3.61395   3.61476   3.61924
 Alpha virt. eigenvalues --    3.62551   3.62995   3.63455   3.63949   3.64013
 Alpha virt. eigenvalues --    3.64292   3.64519   3.64854   3.64894   3.65413
 Alpha virt. eigenvalues --    3.66500   3.66731   3.67146   3.67653   3.68160
 Alpha virt. eigenvalues --    3.68406   3.69534   3.70021   3.70697   3.70866
 Alpha virt. eigenvalues --    3.71688   3.71853   3.72347   3.72680   3.73717
 Alpha virt. eigenvalues --    3.74084   3.74711   3.76079   3.76317   3.76842
 Alpha virt. eigenvalues --    3.77228   3.77959   3.78271   3.78978   3.79585
 Alpha virt. eigenvalues --    3.79907   3.80324   3.80508   3.81332   3.81799
 Alpha virt. eigenvalues --    3.82302   3.82785   3.82844   3.84012   3.84464
 Alpha virt. eigenvalues --    3.85076   3.85918   3.86785   3.87121   3.87371
 Alpha virt. eigenvalues --    3.88391   3.88704   3.88992   3.89656   3.90059
 Alpha virt. eigenvalues --    3.90177   3.90755   3.90908   3.91643   3.92340
 Alpha virt. eigenvalues --    3.93332   3.93745   3.94078   3.94885   3.95340
 Alpha virt. eigenvalues --    3.96763   3.97213   3.97753   3.98506   3.99524
 Alpha virt. eigenvalues --    3.99907   4.00098   4.00858   4.01346   4.01726
 Alpha virt. eigenvalues --    4.01967   4.03297   4.03782   4.04592   4.05547
 Alpha virt. eigenvalues --    4.05947   4.06402   4.06523   4.07417   4.08233
 Alpha virt. eigenvalues --    4.08552   4.08793   4.09761   4.10015   4.10551
 Alpha virt. eigenvalues --    4.11017   4.11457   4.11905   4.12361   4.12995
 Alpha virt. eigenvalues --    4.13320   4.14145   4.14343   4.15419   4.15837
 Alpha virt. eigenvalues --    4.16204   4.17278   4.18909   4.19428   4.19812
 Alpha virt. eigenvalues --    4.20928   4.21458   4.21835   4.22763   4.23019
 Alpha virt. eigenvalues --    4.23226   4.23864   4.24507   4.24881   4.25520
 Alpha virt. eigenvalues --    4.26245   4.26695   4.28226   4.29071   4.29885
 Alpha virt. eigenvalues --    4.30410   4.30611   4.30788   4.31301   4.31992
 Alpha virt. eigenvalues --    4.32140   4.32440   4.32745   4.33545   4.34461
 Alpha virt. eigenvalues --    4.34638   4.34949   4.35507   4.36045   4.36370
 Alpha virt. eigenvalues --    4.37214   4.37819   4.38794   4.39533   4.40972
 Alpha virt. eigenvalues --    4.41736   4.41826   4.43106   4.43785   4.44625
 Alpha virt. eigenvalues --    4.45715   4.46101   4.46977   4.47765   4.48273
 Alpha virt. eigenvalues --    4.49134   4.51020   4.52260   4.52791   4.53895
 Alpha virt. eigenvalues --    4.54714   4.55069   4.57505   4.57719   4.58377
 Alpha virt. eigenvalues --    4.58799   4.59274   4.60815   4.61372   4.61578
 Alpha virt. eigenvalues --    4.61746   4.63286   4.63780   4.64756   4.65247
 Alpha virt. eigenvalues --    4.66137   4.66906   4.68358   4.69231   4.70245
 Alpha virt. eigenvalues --    4.70821   4.72262   4.72496   4.72925   4.73530
 Alpha virt. eigenvalues --    4.73820   4.74348   4.74481   4.75160   4.76003
 Alpha virt. eigenvalues --    4.77021   4.77594   4.78554   4.79384   4.80182
 Alpha virt. eigenvalues --    4.81114   4.82473   4.82942   4.83592   4.83868
 Alpha virt. eigenvalues --    4.84524   4.84857   4.85905   4.87205   4.89142
 Alpha virt. eigenvalues --    4.89346   4.90625   4.91261   4.92007   4.92098
 Alpha virt. eigenvalues --    4.92920   4.93932   4.94516   4.95301   4.96113
 Alpha virt. eigenvalues --    4.96853   4.98363   4.98780   4.99362   4.99859
 Alpha virt. eigenvalues --    5.02978   5.03671   5.04746   5.06873   5.07355
 Alpha virt. eigenvalues --    5.08354   5.09454   5.09497   5.10463   5.11578
 Alpha virt. eigenvalues --    5.11864   5.12898   5.14336   5.14718   5.16167
 Alpha virt. eigenvalues --    5.17512   5.18283   5.18628   5.21433   5.23962
 Alpha virt. eigenvalues --    5.25054   5.25331   5.26148   5.27060   5.27509
 Alpha virt. eigenvalues --    5.28086   5.28409   5.29630   5.30016   5.31741
 Alpha virt. eigenvalues --    5.32343   5.32974   5.35635   5.36820   5.38413
 Alpha virt. eigenvalues --    5.39286   5.39554   5.40319   5.41023   5.41332
 Alpha virt. eigenvalues --    5.44529   5.45297   5.48676   5.50401   5.51130
 Alpha virt. eigenvalues --    5.51379   5.52235   5.52762   5.53956   5.55240
 Alpha virt. eigenvalues --    5.56101   5.56765   5.57930   5.59694   5.62958
 Alpha virt. eigenvalues --    5.65433   5.65763   5.67268   5.69339   5.70935
 Alpha virt. eigenvalues --    5.78013   5.80679   5.81708   5.82357   5.85142
 Alpha virt. eigenvalues --    5.90082   5.91187   5.91819   5.97914   5.99182
 Alpha virt. eigenvalues --    6.00358   6.01082   6.01983   6.06199   6.07603
 Alpha virt. eigenvalues --    6.12130   6.15261   6.23095   6.23669   6.30177
 Alpha virt. eigenvalues --    6.35428   6.39781   6.42317   6.54642   6.85038
 Alpha virt. eigenvalues --    7.15993  22.26604  22.27809  22.35243  22.36950
 Alpha virt. eigenvalues --   22.37687  22.43139  22.44269  22.53438  22.54047
 Alpha virt. eigenvalues --   22.67513  22.75807  22.77987  22.80874  22.83675
 Alpha virt. eigenvalues --   22.84625  22.85532  22.87095  22.93721  22.93826
 Alpha virt. eigenvalues --   22.98372  23.05237  23.16724  23.18120  23.20060
 Alpha virt. eigenvalues --   23.21323  23.30801  23.31501  23.40269  23.40943
 Alpha virt. eigenvalues --   23.45390  23.63851  23.68684  23.69739  23.78970
 Alpha virt. eigenvalues --   32.30198  32.65156  32.80076  32.85898  32.92466
 Alpha virt. eigenvalues --   33.01960  43.95164
  Beta  occ. eigenvalues -- -256.42268 -30.23655 -26.08273 -26.08145 -26.08121
  Beta  occ. eigenvalues --  -19.29117 -14.52610 -14.47460 -14.44856 -14.44535
  Beta  occ. eigenvalues --  -14.44498 -14.44386 -10.37150 -10.34422 -10.32983
  Beta  occ. eigenvalues --  -10.32668 -10.32628 -10.32617 -10.32605 -10.32581
  Beta  occ. eigenvalues --  -10.32543 -10.32530 -10.31880 -10.30016 -10.29990
  Beta  occ. eigenvalues --  -10.29719 -10.29692 -10.29659 -10.29653 -10.29624
  Beta  occ. eigenvalues --  -10.29581 -10.29570 -10.29533 -10.29528 -10.29417
  Beta  occ. eigenvalues --  -10.29407 -10.28943 -10.28778 -10.28038 -10.27940
  Beta  occ. eigenvalues --  -10.27885 -10.27845 -10.27746 -10.27709 -10.27598
  Beta  occ. eigenvalues --  -10.27470  -3.55854  -2.31119  -2.30775  -2.30717
  Beta  occ. eigenvalues --   -1.17019  -1.16440  -1.08744  -1.07813  -1.07593
  Beta  occ. eigenvalues --   -1.06679  -1.02220  -0.93558  -0.92299  -0.91970
  Beta  occ. eigenvalues --   -0.91379  -0.91081  -0.90707  -0.90656  -0.90471
  Beta  occ. eigenvalues --   -0.86815  -0.85622  -0.85271  -0.84376  -0.82992
  Beta  occ. eigenvalues --   -0.82021  -0.81266  -0.80248  -0.78582  -0.78361
  Beta  occ. eigenvalues --   -0.78140  -0.75626  -0.75185  -0.75091  -0.72603
  Beta  occ. eigenvalues --   -0.72212  -0.70749  -0.70119  -0.68910  -0.68061
  Beta  occ. eigenvalues --   -0.66762  -0.65163  -0.64496  -0.63676  -0.63445
  Beta  occ. eigenvalues --   -0.61900  -0.61851  -0.61445  -0.59292  -0.58833
  Beta  occ. eigenvalues --   -0.58420  -0.58277  -0.58013  -0.56152  -0.55406
  Beta  occ. eigenvalues --   -0.54848  -0.54808  -0.54254  -0.54161  -0.53820
  Beta  occ. eigenvalues --   -0.53592  -0.53443  -0.53313  -0.53164  -0.52801
  Beta  occ. eigenvalues --   -0.52764  -0.52328  -0.52130  -0.51998  -0.51337
  Beta  occ. eigenvalues --   -0.50769  -0.50624  -0.50429  -0.50311  -0.50220
  Beta  occ. eigenvalues --   -0.49839  -0.49707  -0.49669  -0.49376  -0.49145
  Beta  occ. eigenvalues --   -0.48624  -0.48295  -0.48026  -0.47734  -0.47648
  Beta  occ. eigenvalues --   -0.47262  -0.47120  -0.46659  -0.46147  -0.45892
  Beta  occ. eigenvalues --   -0.45713  -0.44971  -0.44316  -0.43792  -0.43290
  Beta  occ. eigenvalues --   -0.43114  -0.42631  -0.41721  -0.41016  -0.39991
  Beta  occ. eigenvalues --   -0.39348  -0.37762  -0.37681  -0.34977  -0.34096
  Beta  occ. eigenvalues --   -0.34047  -0.32906  -0.32318  -0.29873  -0.28921
  Beta virt. eigenvalues --   -0.21114  -0.20957  -0.19593  -0.16713  -0.16685
  Beta virt. eigenvalues --   -0.14274  -0.12101  -0.11554  -0.09240  -0.08963
  Beta virt. eigenvalues --   -0.07742  -0.07309  -0.05926  -0.05712  -0.05158
  Beta virt. eigenvalues --   -0.04342  -0.03878  -0.03065  -0.02742  -0.02360
  Beta virt. eigenvalues --   -0.02056  -0.01960  -0.01150  -0.00692  -0.00561
  Beta virt. eigenvalues --    0.00018   0.00304   0.00490   0.00578   0.00871
  Beta virt. eigenvalues --    0.01517   0.02065   0.02160   0.02510   0.02665
  Beta virt. eigenvalues --    0.02807   0.03146   0.03461   0.03546   0.03791
  Beta virt. eigenvalues --    0.04110   0.04153   0.04230   0.04419   0.04602
  Beta virt. eigenvalues --    0.04957   0.05116   0.05359   0.05547   0.05684
  Beta virt. eigenvalues --    0.05949   0.06170   0.06538   0.06884   0.07171
  Beta virt. eigenvalues --    0.07269   0.07580   0.07834   0.07988   0.07998
  Beta virt. eigenvalues --    0.08427   0.08704   0.08789   0.08880   0.09293
  Beta virt. eigenvalues --    0.09488   0.09945   0.10107   0.10362   0.10694
  Beta virt. eigenvalues --    0.10838   0.11252   0.11264   0.11693   0.11919
  Beta virt. eigenvalues --    0.11949   0.12365   0.12550   0.13070   0.13241
  Beta virt. eigenvalues --    0.13390   0.13514   0.13921   0.14180   0.14458
  Beta virt. eigenvalues --    0.14749   0.15105   0.15332   0.15785   0.16027
  Beta virt. eigenvalues --    0.16555   0.16846   0.16986   0.17181   0.17429
  Beta virt. eigenvalues --    0.17615   0.17841   0.18017   0.18278   0.18429
  Beta virt. eigenvalues --    0.19148   0.19380   0.19737   0.19932   0.20272
  Beta virt. eigenvalues --    0.20510   0.20664   0.20911   0.21113   0.21409
  Beta virt. eigenvalues --    0.21458   0.21908   0.22124   0.22263   0.22591
  Beta virt. eigenvalues --    0.22696   0.23363   0.23404   0.23699   0.24013
  Beta virt. eigenvalues --    0.24164   0.24444   0.24562   0.24818   0.24973
  Beta virt. eigenvalues --    0.25514   0.25550   0.25980   0.26251   0.26790
  Beta virt. eigenvalues --    0.27035   0.27463   0.27718   0.27794   0.28260
  Beta virt. eigenvalues --    0.28357   0.28794   0.28977   0.29195   0.29279
  Beta virt. eigenvalues --    0.29444   0.29884   0.30201   0.30426   0.30624
  Beta virt. eigenvalues --    0.30808   0.31033   0.31248   0.31521   0.31651
  Beta virt. eigenvalues --    0.31809   0.32171   0.32568   0.32837   0.32870
  Beta virt. eigenvalues --    0.32932   0.33255   0.33447   0.33644   0.33807
  Beta virt. eigenvalues --    0.34352   0.34455   0.34556   0.34980   0.35010
  Beta virt. eigenvalues --    0.35458   0.35597   0.35713   0.35893   0.36035
  Beta virt. eigenvalues --    0.36455   0.36600   0.37144   0.37405   0.37637
  Beta virt. eigenvalues --    0.37926   0.38115   0.38151   0.38456   0.38587
  Beta virt. eigenvalues --    0.38745   0.38983   0.39053   0.39295   0.39596
  Beta virt. eigenvalues --    0.39858   0.40074   0.40288   0.40626   0.40854
  Beta virt. eigenvalues --    0.41132   0.41463   0.41517   0.41686   0.41954
  Beta virt. eigenvalues --    0.42193   0.42342   0.42494   0.42707   0.42822
  Beta virt. eigenvalues --    0.43109   0.43259   0.43496   0.43653   0.43965
  Beta virt. eigenvalues --    0.44266   0.44406   0.44725   0.45066   0.45198
  Beta virt. eigenvalues --    0.45405   0.45430   0.45994   0.46213   0.46363
  Beta virt. eigenvalues --    0.46751   0.47042   0.47122   0.47510   0.47586
  Beta virt. eigenvalues --    0.48078   0.48215   0.48540   0.48637   0.49064
  Beta virt. eigenvalues --    0.49337   0.49762   0.49964   0.50297   0.50373
  Beta virt. eigenvalues --    0.50664   0.50875   0.51525   0.51928   0.52055
  Beta virt. eigenvalues --    0.52420   0.52536   0.53175   0.53249   0.53639
  Beta virt. eigenvalues --    0.54194   0.54274   0.54494   0.54712   0.54943
  Beta virt. eigenvalues --    0.55411   0.55569   0.55692   0.55999   0.56235
  Beta virt. eigenvalues --    0.56519   0.56731   0.57096   0.57355   0.57677
  Beta virt. eigenvalues --    0.58106   0.58535   0.58748   0.59084   0.59439
  Beta virt. eigenvalues --    0.60066   0.60347   0.61047   0.61190   0.61282
  Beta virt. eigenvalues --    0.61618   0.62147   0.62364   0.62788   0.62834
  Beta virt. eigenvalues --    0.63222   0.63653   0.63692   0.63955   0.64235
  Beta virt. eigenvalues --    0.64568   0.64999   0.65382   0.65792   0.66352
  Beta virt. eigenvalues --    0.66556   0.66852   0.67119   0.67787   0.67987
  Beta virt. eigenvalues --    0.68466   0.68753   0.68870   0.68976   0.69306
  Beta virt. eigenvalues --    0.69888   0.69919   0.70600   0.70740   0.71016
  Beta virt. eigenvalues --    0.71401   0.71615   0.72329   0.72636   0.72789
  Beta virt. eigenvalues --    0.73602   0.74295   0.74382   0.74934   0.75148
  Beta virt. eigenvalues --    0.75447   0.75972   0.76593   0.76779   0.77156
  Beta virt. eigenvalues --    0.77396   0.77739   0.78331   0.78753   0.79103
  Beta virt. eigenvalues --    0.79489   0.79709   0.79915   0.80609   0.81086
  Beta virt. eigenvalues --    0.81088   0.81364   0.82432   0.82615   0.82970
  Beta virt. eigenvalues --    0.83298   0.83639   0.83807   0.83882   0.84362
  Beta virt. eigenvalues --    0.85201   0.85447   0.85837   0.85888   0.86263
  Beta virt. eigenvalues --    0.86674   0.87541   0.87790   0.87942   0.88278
  Beta virt. eigenvalues --    0.88721   0.89022   0.89179   0.89344   0.89938
  Beta virt. eigenvalues --    0.90626   0.90811   0.91253   0.91358   0.91876
  Beta virt. eigenvalues --    0.91922   0.92326   0.92626   0.92763   0.93064
  Beta virt. eigenvalues --    0.93522   0.93789   0.93983   0.94038   0.94268
  Beta virt. eigenvalues --    0.94505   0.94644   0.95272   0.95557   0.96038
  Beta virt. eigenvalues --    0.96204   0.97006   0.97254   0.97830   0.98226
  Beta virt. eigenvalues --    0.98695   0.98896   0.99423   0.99543   0.99879
  Beta virt. eigenvalues --    1.00348   1.00849   1.01382   1.01887   1.02292
  Beta virt. eigenvalues --    1.02655   1.03449   1.03712   1.04188   1.05160
  Beta virt. eigenvalues --    1.05783   1.05902   1.06538   1.06683   1.07257
  Beta virt. eigenvalues --    1.07429   1.08004   1.08365   1.08666   1.08951
  Beta virt. eigenvalues --    1.09433   1.09972   1.10097   1.10330   1.10725
  Beta virt. eigenvalues --    1.11227   1.11470   1.11786   1.12092   1.12536
  Beta virt. eigenvalues --    1.12686   1.13347   1.13587   1.14049   1.15374
  Beta virt. eigenvalues --    1.15807   1.15981   1.16436   1.16919   1.17117
  Beta virt. eigenvalues --    1.17470   1.17777   1.18179   1.18259   1.18768
  Beta virt. eigenvalues --    1.18939   1.19330   1.19514   1.20261   1.20510
  Beta virt. eigenvalues --    1.20866   1.21201   1.21477   1.21609   1.22435
  Beta virt. eigenvalues --    1.22572   1.23204   1.23750   1.24850   1.25262
  Beta virt. eigenvalues --    1.25872   1.26173   1.26934   1.27339   1.28362
  Beta virt. eigenvalues --    1.28587   1.28799   1.29148   1.30083   1.30271
  Beta virt. eigenvalues --    1.30643   1.31188   1.32138   1.32913   1.33808
  Beta virt. eigenvalues --    1.34229   1.34541   1.34846   1.35399   1.35758
  Beta virt. eigenvalues --    1.36474   1.36620   1.37284   1.37532   1.38013
  Beta virt. eigenvalues --    1.38098   1.38549   1.38877   1.39019   1.39564
  Beta virt. eigenvalues --    1.39889   1.39956   1.40479   1.40727   1.40926
  Beta virt. eigenvalues --    1.41043   1.41367   1.41956   1.42323   1.42466
  Beta virt. eigenvalues --    1.42751   1.43290   1.43599   1.43676   1.43998
  Beta virt. eigenvalues --    1.44067   1.44402   1.44875   1.45055   1.45179
  Beta virt. eigenvalues --    1.45443   1.45681   1.45815   1.46083   1.46405
  Beta virt. eigenvalues --    1.46743   1.46909   1.47417   1.47583   1.47789
  Beta virt. eigenvalues --    1.48003   1.48540   1.48666   1.48948   1.49177
  Beta virt. eigenvalues --    1.49371   1.49812   1.49919   1.50586   1.50769
  Beta virt. eigenvalues --    1.50981   1.51382   1.51593   1.51874   1.52476
  Beta virt. eigenvalues --    1.52989   1.53086   1.53333   1.53524   1.53738
  Beta virt. eigenvalues --    1.53993   1.54372   1.54875   1.54955   1.55312
  Beta virt. eigenvalues --    1.55684   1.56034   1.56280   1.56536   1.57005
  Beta virt. eigenvalues --    1.57416   1.57662   1.57964   1.58526   1.58772
  Beta virt. eigenvalues --    1.58870   1.59557   1.59788   1.60111   1.60403
  Beta virt. eigenvalues --    1.60624   1.60670   1.61115   1.61508   1.62133
  Beta virt. eigenvalues --    1.62877   1.63311   1.63537   1.63662   1.64336
  Beta virt. eigenvalues --    1.64770   1.65322   1.65715   1.65872   1.66940
  Beta virt. eigenvalues --    1.67428   1.68184   1.69231   1.69730   1.70062
  Beta virt. eigenvalues --    1.70309   1.71207   1.72055   1.72637   1.73191
  Beta virt. eigenvalues --    1.73423   1.73730   1.74049   1.74425   1.74936
  Beta virt. eigenvalues --    1.75198   1.75739   1.75835   1.76426   1.76571
  Beta virt. eigenvalues --    1.77388   1.77524   1.78018   1.78205   1.78351
  Beta virt. eigenvalues --    1.78864   1.78897   1.79158   1.79533   1.80973
  Beta virt. eigenvalues --    1.81376   1.81893   1.82251   1.83223   1.83301
  Beta virt. eigenvalues --    1.83995   1.84392   1.85094   1.85535   1.86090
  Beta virt. eigenvalues --    1.86643   1.86996   1.87727   1.88004   1.88215
  Beta virt. eigenvalues --    1.88627   1.88818   1.89063   1.89741   1.89849
  Beta virt. eigenvalues --    1.90274   1.90648   1.91373   1.91777   1.92105
  Beta virt. eigenvalues --    1.92437   1.93267   1.93666   1.94353   1.94700
  Beta virt. eigenvalues --    1.95376   1.96270   1.96573   1.96830   1.97439
  Beta virt. eigenvalues --    1.98034   1.98449   1.98880   1.99290   1.99540
  Beta virt. eigenvalues --    1.99961   2.00392   2.00741   2.01707   2.01803
  Beta virt. eigenvalues --    2.02020   2.02415   2.03019   2.03356   2.03570
  Beta virt. eigenvalues --    2.03819   2.04604   2.05224   2.05481   2.05870
  Beta virt. eigenvalues --    2.06296   2.07146   2.07484   2.08117   2.08590
  Beta virt. eigenvalues --    2.09012   2.09439   2.09821   2.10133   2.10510
  Beta virt. eigenvalues --    2.11331   2.11559   2.12317   2.12547   2.13403
  Beta virt. eigenvalues --    2.13835   2.14491   2.15303   2.16008   2.16194
  Beta virt. eigenvalues --    2.16363   2.16984   2.17097   2.17540   2.17936
  Beta virt. eigenvalues --    2.18127   2.18373   2.19045   2.19435   2.20002
  Beta virt. eigenvalues --    2.20475   2.21339   2.21371   2.22026   2.22601
  Beta virt. eigenvalues --    2.22788   2.23081   2.23370   2.23751   2.25254
  Beta virt. eigenvalues --    2.25731   2.25958   2.26391   2.26651   2.26958
  Beta virt. eigenvalues --    2.27098   2.28023   2.28302   2.28381   2.29008
  Beta virt. eigenvalues --    2.29360   2.29680   2.29980   2.30235   2.31011
  Beta virt. eigenvalues --    2.31185   2.31655   2.31844   2.32352   2.33003
  Beta virt. eigenvalues --    2.33275   2.34417   2.34826   2.35195   2.35244
  Beta virt. eigenvalues --    2.35903   2.36257   2.36334   2.36883   2.37081
  Beta virt. eigenvalues --    2.37485   2.37875   2.38005   2.39074   2.39459
  Beta virt. eigenvalues --    2.39762   2.40248   2.40829   2.41389   2.41856
  Beta virt. eigenvalues --    2.42258   2.42700   2.43329   2.43512   2.43829
  Beta virt. eigenvalues --    2.44058   2.44542   2.44837   2.45797   2.46257
  Beta virt. eigenvalues --    2.46330   2.46687   2.46951   2.47181   2.47329
  Beta virt. eigenvalues --    2.48010   2.48214   2.48751   2.49434   2.49483
  Beta virt. eigenvalues --    2.49989   2.50363   2.50718   2.50911   2.51480
  Beta virt. eigenvalues --    2.51848   2.51940   2.52669   2.52823   2.53189
  Beta virt. eigenvalues --    2.53986   2.54539   2.55057   2.55550   2.55589
  Beta virt. eigenvalues --    2.55772   2.56392   2.56664   2.56878   2.57422
  Beta virt. eigenvalues --    2.57600   2.58100   2.58229   2.58768   2.59057
  Beta virt. eigenvalues --    2.59630   2.60395   2.60427   2.60596   2.61121
  Beta virt. eigenvalues --    2.61734   2.62475   2.62519   2.62673   2.63546
  Beta virt. eigenvalues --    2.63754   2.64295   2.64853   2.65105   2.65445
  Beta virt. eigenvalues --    2.66011   2.66393   2.66944   2.67158   2.67310
  Beta virt. eigenvalues --    2.68078   2.68134   2.68505   2.69582   2.69834
  Beta virt. eigenvalues --    2.70298   2.70537   2.71312   2.71588   2.72138
  Beta virt. eigenvalues --    2.72228   2.72876   2.73229   2.73725   2.74116
  Beta virt. eigenvalues --    2.74333   2.74799   2.75162   2.75614   2.76069
  Beta virt. eigenvalues --    2.76428   2.77190   2.77553   2.77760   2.77918
  Beta virt. eigenvalues --    2.78761   2.79228   2.79393   2.79712   2.79915
  Beta virt. eigenvalues --    2.80192   2.80550   2.81083   2.81284   2.81568
  Beta virt. eigenvalues --    2.82426   2.82927   2.83265   2.83753   2.83853
  Beta virt. eigenvalues --    2.83977   2.84318   2.84772   2.85133   2.85843
  Beta virt. eigenvalues --    2.85955   2.86339   2.86864   2.86898   2.87066
  Beta virt. eigenvalues --    2.87439   2.88213   2.88474   2.89049   2.89155
  Beta virt. eigenvalues --    2.89433   2.89829   2.90322   2.90559   2.90648
  Beta virt. eigenvalues --    2.91161   2.91586   2.92487   2.92583   2.92960
  Beta virt. eigenvalues --    2.93351   2.94071   2.94166   2.94463   2.95197
  Beta virt. eigenvalues --    2.95640   2.96001   2.96467   2.96679   2.97095
  Beta virt. eigenvalues --    2.97213   2.97486   2.97853   2.98127   2.98685
  Beta virt. eigenvalues --    2.98957   2.99138   2.99283   2.99679   2.99945
  Beta virt. eigenvalues --    3.00588   3.00911   3.01124   3.01703   3.01965
  Beta virt. eigenvalues --    3.02242   3.02423   3.02691   3.03182   3.03323
  Beta virt. eigenvalues --    3.03931   3.03985   3.04622   3.05065   3.05455
  Beta virt. eigenvalues --    3.05987   3.06357   3.06785   3.06920   3.07391
  Beta virt. eigenvalues --    3.07434   3.07860   3.08326   3.08713   3.09081
  Beta virt. eigenvalues --    3.09236   3.09447   3.10033   3.10451   3.10671
  Beta virt. eigenvalues --    3.11067   3.11465   3.11622   3.11953   3.12335
  Beta virt. eigenvalues --    3.12525   3.12926   3.13385   3.13486   3.13782
  Beta virt. eigenvalues --    3.14162   3.14428   3.14778   3.15105   3.15495
  Beta virt. eigenvalues --    3.15821   3.15954   3.16122   3.16172   3.16713
  Beta virt. eigenvalues --    3.17239   3.17423   3.17565   3.17695   3.18012
  Beta virt. eigenvalues --    3.18496   3.18866   3.19133   3.19530   3.19687
  Beta virt. eigenvalues --    3.19870   3.20050   3.20438   3.20626   3.21069
  Beta virt. eigenvalues --    3.21382   3.21509   3.21784   3.22042   3.22324
  Beta virt. eigenvalues --    3.22854   3.23014   3.23200   3.23299   3.23788
  Beta virt. eigenvalues --    3.24401   3.24800   3.24877   3.25018   3.25326
  Beta virt. eigenvalues --    3.25502   3.25775   3.26174   3.26327   3.26664
  Beta virt. eigenvalues --    3.26721   3.27303   3.27751   3.27869   3.28069
  Beta virt. eigenvalues --    3.28257   3.28567   3.28841   3.29237   3.29354
  Beta virt. eigenvalues --    3.29589   3.29988   3.30478   3.30502   3.30798
  Beta virt. eigenvalues --    3.31322   3.31621   3.32246   3.32450   3.33207
  Beta virt. eigenvalues --    3.33373   3.34194   3.34865   3.35111   3.35253
  Beta virt. eigenvalues --    3.35438   3.35768   3.36276   3.36763   3.36785
  Beta virt. eigenvalues --    3.37396   3.37855   3.38124   3.38740   3.39467
  Beta virt. eigenvalues --    3.39631   3.40316   3.40470   3.41519   3.42371
  Beta virt. eigenvalues --    3.42588   3.43176   3.43385   3.43795   3.44055
  Beta virt. eigenvalues --    3.44208   3.45093   3.45315   3.45465   3.45902
  Beta virt. eigenvalues --    3.46607   3.47231   3.47530   3.48129   3.48243
  Beta virt. eigenvalues --    3.48735   3.48982   3.49244   3.49870   3.50749
  Beta virt. eigenvalues --    3.51080   3.51696   3.52015   3.52561   3.53011
  Beta virt. eigenvalues --    3.53591   3.54343   3.54697   3.55679   3.56092
[...]
  1407. RY*(   8) C  77                  0.00013     1.46244   
  1408. RY*(   9) C  77                  0.00013     2.08620   
  1409. RY*(  10) C  77                  0.00006     2.22517   
  1410. RY*(  11) C  77                  0.00006     1.94114   
  1411. RY*(  12) C  77                  0.00004     1.87480   
  1412. RY*(  13) C  77                  0.00004     1.11548   
  1413. RY*(  14) C  77                  0.00003     3.72478   
  1414. RY*(  15) C  77                  0.00003     2.95298   
  1415. RY*(  16) C  77                  0.00000    21.09504   
  1416. RY*(  17) C  77                  0.00000     3.80723   
  1417. RY*(  18) C  77                  0.00000     3.12659   
  1418. RY*(  19) C  77                  0.00001     1.28037   
  1419. RY*(  20) C  77                  0.00000     3.87140   
  1420. RY*(  21) C  77                  0.00000     4.00368   
  1421. RY*(  22) C  77                  0.00000     3.39604   
  1422. RY*(  23) C  77                  0.00000     3.33289   
  1423. RY*(  24) C  77                  0.00000     3.42476   
  1424. RY*(  25) C  77                  0.00000     3.53124   
  1425. RY*(  26) C  77                  0.00000     3.42933   
  1426. RY*(   1) H  78                  0.00023     0.86715   
  1427. RY*(   2) H  78                  0.00015     2.01033   
  1428. RY*(   3) H  78                  0.00011     0.81682   
  1429. RY*(   4) H  78                  0.00003     1.60842   
  1430. RY*(   5) H  78                  0.00000     3.40189   
  1431. BD*(   1)Fe   1 - N   2          0.02748     0.27721   
  1432. BD*(   1)Fe   1 - N   3          0.02869     0.27983   
  1433. BD*(   1)Fe   1 - N   4          0.02773     0.28429   
  1434. BD*(   1)Fe   1 - N   5          0.02899     0.29064   
  1435. BD*(   1)Fe   1 - N  76          0.03181     0.17043   
  1436. BD*(   1) N   2 - C   6          0.01369     0.39958   
  1437. BD*(   2) N   2 - C   6          0.32230    -0.09759  1483(v),1456(v),1451(v)
                                                    154(v),293(g),155(v),705(v)
                                                    189(g),188(g),292(g),153(v)
  1438. BD*(   1) N   2 - C   9          0.01383     0.40043   
  1439. BD*(   1) N   3 - C  10          0.01374     0.39994   
  1440. BD*(   2) N   3 - C  10          0.32287    -0.09771  1456(v),1460(v),1465(v)
                                                    153(v),396(g),1446(r),155(v)
                                                    214(g),736(v),215(g),154(v)
                                                    474(v)
  1441. BD*(   1) N   3 - C  13          0.01337     0.40121   
  1442. BD*(   1) N   4 - C  14          0.01406     0.39665   
  1443. BD*(   2) N   4 - C  14          0.33687    -0.10160  1465(v),1469(v),1474(v)
                                                    154(v),499(g),155(v),500(g)
                                                    240(g),767(v),153(v),1530(r)
  1444. BD*(   1) N   4 - C  17          0.01368     0.39649   
  1445. BD*(   1) N   5 - C  18          0.01415     0.39819   
  1446. BD*(   2) N   5 - C  18          0.32879    -0.09865  1474(v),1483(v),1478(v)
                                                    153(v),604(g),1440(r),267(g)
                                                    155(v),798(v),154(v)
  1447. BD*(   1) N   5 - C  21          0.01388     0.40282   
  1448. BD*(   1) C   6 - C   7          0.01739     0.38348   
  1449. BD*(   1) C   6 - C  22          0.01006     0.46711   
  1450. BD*(   1) C   7 - C   8          0.01164     0.49582   
  1451. BD*(   2) C   7 - C   8          0.11813    -0.03206  1456(v),1437(v),1490(v)
                                                    1492(v),1489(v),1491(v)
  1452. BD*(   1) C   7 - C  34          0.00811     0.31873   
  1453. BD*(   1) C   8 - C   9          0.01768     0.37623   
  1454. BD*(   1) C   8 - C  30          0.00830     0.31580   
  1455. BD*(   1) C   9 - C  24          0.01024     0.46919   
  1456. BD*(   2) C   9 - C  24          0.19714    -0.05978  1440(v),1451(v),1437(v)
                                                    736(g),1483(r),1465(r)
                                                    372(g)
  1457. BD*(   1) C  10 - C  11          0.01714     0.39282   
  1458. BD*(   1) C  10 - C  24          0.01036     0.46407   
  1459. BD*(   1) C  11 - C  12          0.01253     0.49397   
  1460. BD*(   2) C  11 - C  12          0.13577    -0.03403  1499(v),1465(v),1440(v)
                                                    1495(v),1494(v)
  1461. BD*(   1) C  11 - C  38          0.00777     0.32140   
  1462. BD*(   1) C  12 - C  13          0.01713     0.38196   
  1463. BD*(   1) C  12 - C  42          0.01325     0.40093   
  1464. BD*(   1) C  13 - C  26          0.00993     0.47079   
  1465. BD*(   2) C  13 - C  26          0.19228    -0.05637  1443(v),1460(v),1440(v)
                                                    767(g),1456(r),476(g)
                                                    1474(r),1483(r)
  1466. BD*(   1) C  14 - C  15          0.01665     0.41226   
  1467. BD*(   1) C  14 - C  26          0.01041     0.46476   
  1468. BD*(   1) C  15 - C  16          0.01253     0.48646   
  1469. BD*(   2) C  15 - C  16          0.14199    -0.03803  1507(v),1474(v),1443(v)
                                                    1503(v)
  1470. BD*(   1) C  15 - C  47          0.00760     0.32073   
  1471. BD*(   1) C  16 - C  17          0.01695     0.38199   
  1472. BD*(   1) C  16 - C  51          0.01326     0.40000   
  1473. BD*(   1) C  17 - C  28          0.01023     0.46201   
  1474. BD*(   2) C  17 - C  28          0.20586    -0.06276  1446(v),1469(v),1443(v)
                                                    798(g),1483(r),1465(r)
  1475. BD*(   1) C  18 - C  19          0.01769     0.37490   
  1476. BD*(   1) C  18 - C  28          0.01025     0.46588   
  1477. BD*(   1) C  19 - C  20          0.01159     0.49687   
  1478. BD*(   2) C  19 - C  20          0.11730    -0.03078  1483(v),1446(v),1511(v)
                                                    1513(v),1510(v),1515(v)
  1479. BD*(   1) C  19 - C  56          0.00823     0.31761   
  1480. BD*(   1) C  20 - C  21          0.01720     0.38795   
  1481. BD*(   1) C  20 - C  60          0.00807     0.31941   
  1482. BD*(   1) C  21 - C  22          0.01004     0.46991   
  1483. BD*(   2) C  21 - C  22          0.19663    -0.05686  1437(v),1478(v),1446(v)
                                                    705(g),1456(r),683(g)
                                                    1474(r),1465(r)
  1484. BD*(   1) C  22 - H  23          0.00605     0.33239   
  1485. BD*(   1) C  24 - H  25          0.00628     0.33216   
  1486. BD*(   1) C  26 - H  27          0.00646     0.33047   
  1487. BD*(   1) C  28 - H  29          0.00645     0.33362   
  1488. BD*(   1) C  30 - H  31          0.00302     0.30489   
  1489. BD*(   1) C  30 - H  32          0.00452     0.29233   
  1490. BD*(   1) C  30 - H  33          0.00455     0.28966   
  1491. BD*(   1) C  34 - H  35          0.00448     0.29239   
  1492. BD*(   1) C  34 - H  36          0.00460     0.29256   
  1493. BD*(   1) C  34 - H  37          0.00303     0.30526   
  1494. BD*(   1) C  38 - H  39          0.00444     0.29662   
  1495. BD*(   1) C  38 - H  40          0.00540     0.29287   
  1496. BD*(   1) C  38 - H  41          0.00370     0.30693   
  1497. BD*(   1) C  42 - H  43          0.01039     0.33364   
  1498. BD*(   1) C  42 - C  44          0.00367     0.54733   
  1499. BD*(   2) C  42 - C  44          0.02836    -0.02756   
  1500. BD*(   1) C  44 - H  45          0.00515     0.35007   
  1501. BD*(   1) C  44 - H  46          0.00388     0.35470   
  1502. BD*(   1) C  47 - H  48          0.00422     0.29841   
  1503. BD*(   1) C  47 - H  49          0.00526     0.29152   
  1504. BD*(   1) C  47 - H  50          0.00375     0.30596   
  1505. BD*(   1) C  51 - H  52          0.01028     0.33243   
  1506. BD*(   1) C  51 - C  53          0.00365     0.54257   
  1507. BD*(   2) C  51 - C  53          0.02958    -0.03004   
  1508. BD*(   1) C  53 - H  54          0.00515     0.35083   
  1509. BD*(   1) C  53 - H  55          0.00383     0.35680   
  1510. BD*(   1) C  56 - H  57          0.00442     0.29543   
  1511. BD*(   1) C  56 - H  58          0.00455     0.30144   
  1512. BD*(   1) C  56 - H  59          0.00301     0.30626   
  1513. BD*(   1) C  60 - H  61          0.00448     0.29327   
  1514. BD*(   1) C  60 - H  62          0.00300     0.33003   
  1515. BD*(   1) C  60 - H  63          0.00450     0.34898   
  1518. BD*(   1) C  67 - H  68          0.00155     0.28955   
  1519. BD*(   1) C  67 - H  69          0.00500     0.36679   
  1520. BD*(   1) C  67 - H  70          0.00500     0.28492   
  1521. BD*(   1) C  67 - C  73          0.00616     0.32337   
  1522. BD*(   1) N  71 - H  72          0.00649     0.29515   
  1523. BD*(   1) N  71 - C  73          0.01356     0.37911   
  1524. BD*(   1) N  71 - C  74          0.01020     0.40644   
  1525. BD*(   1) C  73 - C  77          0.01039     0.45940   
  1526. BD*(   1) C  74 - H  75          0.00827     0.27669   
  1527. BD*(   1) C  74 - N  76          0.00910     0.42032   
  1528. BD*(   2) C  74 - N  76          0.21876     0.11550  1530(v),1519(r),1429(r)
                                                    1515(r),1529(g),1523(v)
                                                    1521(r),1430(r),1514(r)
                                                    1344(g),1517(r),1516(r)
                                                    1424(v),95(v),1466(r)
                                                    1420(v),1403(v),1404(v)
                                                    1428(r),1402(v),1400(v)
                                                    1375(g),1480(r),1325(r)
                                                    1262(r),153(v),1418(v)
                                                    1511(r),1312(r),1401(v)
                                                    1522(v),1335(r),1321(r)
                                                    1327(r),1332(r),1487(r)
                                                    1434(v),1405(v),1498(r)
                                                    1250(r),1484(r),1211(r)
  1529. BD*(   1) N  76 - C  77          0.00877     3.13239   
  1530. BD*(   1) C  77 - H  78          0.00660     4.00546   
       -------------------------------
              Total Lewis  145.44477  ( 96.8898%)
        Valence non-Lewis    4.39730  (  2.9293%)
        Rydberg non-Lewis    0.27147  (  0.1808%)
       -------------------------------
            Total unit  1  150.11353  (100.0000%)
           Charge unit  1    2.88647
 
 Molecular unit  2  (H2O)
    86. BD (   1) O  64 - H  65          0.99264    -0.93311  155(r),154(r),1435(r)
                                                    1241(v),153(r),1242(v)
                                                    160(r),1375(r),1431(r)
                                                    162(r),189(r),166(r),1434(r)
    87. BD (   1) O  64 - H  66          0.99627    -0.99715  155(r),1435(r),1237(v)
                                                    1516(g),160(r),162(r)
                                                    1377(r),153(r),154(r),242(r)
                                                    243(r),1375(r),165(r),166(r)
                                                    269(r),247(r),1434(r),217(r)
   146. CR (   1) O  64                  0.99991   -19.07850  155(r),1435(r),1241(v)
                                                    1237(v),163(r),1431(r)
                                                    1434(r),1433(r),1432(r)
   157. LP (   1) O  64                  0.98221    -0.45015  153(r),154(r),1240(v)
                                                    1432(r),1235(v),1434(r)
                                                    1376(r),267(r),215(r),156(r)
                                                    578(r)
   158. LP (   2) O  64                  0.90809    -0.60897  155(r),1435(r),1516(g)
                                                    1242(v),1517(g),1237(v)
                                                    166(r),242(r),268(r),154(r)
                                                    213(r),1377(r),216(r),215(r)
                                                    1382(r),156(r),265(r),239(r)
                                                    190(r),187(r),267(r),1442(r)
  1209. RY*(   1) O  64                  0.00104     1.14013   
  1210. RY*(   2) O  64                  0.00038     0.51560   
  1211. RY*(   3) O  64                  0.00017     1.17187   
  1212. RY*(   4) O  64                  0.00010     0.83068   
  1213. RY*(   5) O  64                  0.00002     2.10469   
  1214. RY*(   6) O  64                  0.00003     2.17127   
  1215. RY*(   7) O  64                  0.00000     3.07719   
  1216. RY*(   8) O  64                  0.00001     4.71432   
  1217. RY*(   9) O  64                  0.00001     3.00037   
  1218. RY*(  10) O  64                  0.00001     2.48369   
  1219. RY*(  11) O  64                  0.00000     6.23573   
  1220. RY*(  12) O  64                  0.00000     2.71195   
  1221. RY*(  13) O  64                  0.00000     6.31523   
  1222. RY*(  14) O  64                  0.00000    42.51820   
  1223. RY*(  15) O  64                  0.00000     6.40294   
  1224. RY*(  16) O  64                  0.00000     2.22816   
  1225. RY*(  17) O  64                  0.00000     6.14168   
  1226. RY*(  18) O  64                  0.00000     2.29907   
  1227. RY*(  19) O  64                  0.00000     6.35808   
  1228. RY*(  20) O  64                  0.00000     5.22961   
  1229. RY*(  21) O  64                  0.00000     5.21630   
  1230. RY*(  22) O  64                  0.00000     5.59603   
  1231. RY*(  23) O  64                  0.00000     5.23681   
  1232. RY*(  24) O  64                  0.00000     5.42555   
  1233. RY*(  25) O  64                  0.00000     5.51850   
  1234. RY*(  26) O  64                  0.00000     5.22259   
  1235. RY*(   1) H  65                  0.00038     1.86979   
  1236. RY*(   2) H  65                  0.00035     0.73159   
  1237. RY*(   3) H  65                  0.00028     2.28653   
  1238. RY*(   4) H  65                  0.00008     1.86389   
  1239. RY*(   5) H  65                  0.00001     2.78867   
  1240. RY*(   1) H  66                  0.00042     1.90586   
  1241. RY*(   2) H  66                  0.00040     1.57820   
  1242. RY*(   3) H  66                  0.00031     1.21209   
  1243. RY*(   4) H  66                  0.00012     1.95576   
  1244. RY*(   5) H  66                  0.00000     2.90673   
  1516. BD*(   1) O  64 - H  65          0.00177     0.32519   
  1517. BD*(   1) O  64 - H  66          0.00132     0.51093   
       -------------------------------
              Total Lewis    4.87913  ( 99.8527%)
        Valence non-Lewis    0.00309  (  0.0632%)
        Rydberg non-Lewis    0.00411  (  0.0841%)
       -------------------------------
            Total unit  2    4.88633  (100.0000%)
           Charge unit  2    0.11367
 Unable to Open any file for archive entry.
 1\1\GINC-BGN1032\SP\UAPFD\def2TZVP\C34H36Fe1N6O1(1+,6)\BECSLEIP\06-Sep
 -2024\0\\# apfd/def2TZVP guess=read scf=maxcycle=999 geom=check pop=nb
 o\\2v1j_III_H\\1,6\Fe,0,16.9528052808,-30.8415794005,-3.3988275579\N,0
 ,15.9338285862,-32.1610713774,-2.2698606844\N,0,16.8215931843,-29.5169
 927428,-1.8625469697\N,0,17.8828632556,-29.4417482873,-4.4901219964\N,
 0,17.0203025135,-32.1337401724,-4.8880165295\C,0,15.6128305237,-33.431
 7163871,-2.6315393907\C,0,14.9662949051,-34.1284259338,-1.5405457676\C
 ,0,14.8936391064,-33.2411639144,-0.5127971598\C,0,15.5051764665,-32.01
 97831689,-0.9886658924\C,0,16.2689183042,-29.7199362963,-0.6363169394\
 C,0,16.4107412392,-28.5519481783,0.195878218\C,0,17.0624456201,-27.618
 0839328,-0.5625986119\C,0,17.3088408831,-28.247741036,-1.8465282112\C,
 0,18.1478146803,-28.1514586557,-4.1502279673\C,0,18.6410894262,-27.412
 8038663,-5.2812863125\C,0,18.6756915671,-28.294645935,-6.3317646165\C,
 0,18.1966305337,-29.5579499263,-5.8077460854\C,0,17.5097644409,-31.897
 3003513,-6.1338066128\C,0,17.2824450794,-33.0379122074,-6.9960901043\C
 ,0,16.6410200532,-33.9660713809,-6.2375482237\C,0,16.4772879284,-33.37
 66665504,-4.9254680297\C,0,15.8584128283,-34.0083853061,-3.8643776215\
 H,0,15.5123607865,-35.018952408,-4.0184676443\C,0,15.6343601235,-30.87
 85156947,-0.2233740201\H,0,15.2241458401,-30.8970594227,0.7744024908\C
 ,0,17.9457724777,-27.6102137478,-2.8918145358\H,0,18.2419802993,-26.58
 35600002,-2.7396524849\C,0,18.0814671494,-30.7138002148,-6.5619136041\
 H,0,18.3964231397,-30.6649191184,-7.5932912117\C,0,14.3253819018,-33.4
 202056043,0.8536284289\H,0,13.9230438156,-34.4226614596,0.9768147907\H
 ,0,13.5229835283,-32.7043921087,1.0326874118\H,0,15.0922064893,-33.263
 5220598,1.6131790933\C,0,14.4926480913,-35.5399542657,-1.6025136002\H,
 0,15.3188766523,-36.2127537739,-1.8338406845\H,0,13.7355156745,-35.656
 7495389,-2.3784628716\H,0,14.0582153885,-35.8446708575,-0.6533436284\C
 ,0,15.9777537942,-28.4515174219,1.6174337434\H,0,16.1568932124,-29.387
 789379,2.1438688113\H,0,14.9124086337,-28.2268795248,1.6844153578\H,0,
 16.5280621108,-27.6580045605,2.1192514815\C,0,17.4619253459,-26.273378
 7438,-0.2084974999\H,0,18.3972490118,-25.9306006773,-0.6366560808\C,0,
 16.7736996578,-25.4506589149,0.5759242652\H,0,15.8173382519,-25.720523
 2399,0.9899651456\H,0,17.1325679932,-24.4619558293,0.8098273119\C,0,19
 .0846259089,-25.9917155471,-5.2548556639\H,0,19.576584552,-25.75970599
 71,-4.3116893178\H,0,18.2370679278,-25.3135660616,-5.3686634306\H,0,19
 .7837074732,-25.805840452,-6.0678435309\C,0,19.1035948739,-28.07328328
 13,-7.6949487881\H,0,19.5696799903,-28.9228109097,-8.1807330394\C,0,18
 .9666707367,-26.9408714942,-8.3773975236\H,0,18.4692196216,-26.0792318
 084,-7.9676808186\H,0,19.3283157214,-26.8465817426,-9.3881007995\C,0,1
 7.7100805652,-33.1111436171,-8.4216044341\H,0,18.789332147,-32.9804351
 668,-8.5035342675\H,0,17.2300635719,-32.3280433634,-9.0080817485\H,0,1
 7.4484045112,-34.0727904543,-8.8557198989\C,0,16.1583755701,-35.325305
 5341,-6.6120925403\H,0,16.625708394,-36.0834590924,-5.9831772987\H,0,1
 6.3943048559,-35.548346719,-7.649598711\H,0,15.078456078,-35.397473863
 8,-6.4822200966\O,0,15.049,-29.956,-4.258\H,0,15.338,-29.175,-4.73\H,0
 ,14.212,-30.249,-4.189\C,0,22.185897971,-32.6520324132,-2.8481086647\H
 ,0,22.401225793,-32.5650724764,-3.908154293\H,0,22.3372835376,-33.6875
 855787,-2.5443470962\H,0,22.8888261286,-32.0284139092,-2.2961982106\N,
 0,20.2391250953,-32.2331654371,-1.3318182989\H,0,20.706155074,-32.5125
 117509,-0.4849679222\C,0,20.7871125739,-32.2272531081,-2.5877651642\C,
 0,18.9631582232,-31.7982549155,-1.4388975886\H,0,18.2901026546,-31.699
 491147,-0.61258403\N,0,18.6706922415,-31.5177444,-2.6856444491\C,0,19.
 7951612322,-31.7791582343,-3.4120351341\H,0,19.8132097412,-31.62706022
 2,-4.4711687317\\Version=ES64L-G16RevC.02\State=6-A\HF=-2983.8358177\S
 2=8.758842\S2-1=0.\S2A=8.750023\RMSD=5.626e-09\Dipole=0.7295254,-0.849
 9348,0.6282113\Quadrupole=-8.5670494,2.2551528,6.3118966,1.1819317,-2.
 27594,-2.0287209\PG=C01 [X(C34H36Fe1N6O1)]\\@
 The archive entry for this job was punched.


 LOVE IS BLIND, THAT'S WHY ALL THE WORLD LOVES A LOUVER.
 Job cpu time:       0 days 12 hours  6 minutes  0.8 seconds.
 Elapsed time:       0 days  0 hours 11 minutes 24.0 seconds.
 File lengths (MBytes):  RWF=   2166 Int=      0 D2E=      0 Chk=    179 Scr=      1
 Normal termination of Gaussian 16 at Fri Sep  6 13:54:48 2024.
  0 D2E=      0 Chk=    179 Scr=      1
 Normal termination of Gaussian 16 at Fri Sep  6 13:50:50 2024.
