 Entering Gaussian System, Link 0=g16
 Input=2v1k12re.com
 Output=2v1k12re.log
 Initial command:
 /sw/chem/gaussian/g16_C02/a100/g16/l1.exe "/local/becsleip_8006095/Gau-1826964.inp" -scrdir="/local/becsleip_8006095/"
 Entering Link 1 = /sw/chem/gaussian/g16_C02/a100/g16/l1.exe PID=   1826965.
  
 Copyright (c) 1988-2021, Gaussian, Inc.  All Rights Reserved.
  
 This is part of the Gaussian(R) 16 program.  It is based on
 the Gaussian(R) 09 system (copyright 2009, Gaussian, Inc.),
 the Gaussian(R) 03 system (copyright 2003, Gaussian, Inc.),
 the Gaussian(R) 98 system (copyright 1998, Gaussian, Inc.),
 the Gaussian(R) 94 system (copyright 1995, Gaussian, Inc.),
 the Gaussian 92(TM) system (copyright 1992, Gaussian, Inc.),
 the Gaussian 90(TM) system (copyright 1990, Gaussian, Inc.),
 the Gaussian 88(TM) system (copyright 1988, Gaussian, Inc.),
 the Gaussian 86(TM) system (copyright 1986, Carnegie Mellon
 University), and the Gaussian 82(TM) system (copyright 1983,
 Carnegie Mellon University). Gaussian is a federally registered
 trademark of Gaussian, Inc.
  
 This software contains proprietary and confidential information,
 including trade secrets, belonging to Gaussian, Inc.
  
 This software is provided under written license and may be
 used, copied, transmitted, or stored only in accord with that
 written license.
  
 The following legend is applicable only to US Government
 contracts under FAR:
  
                    RESTRICTED RIGHTS LEGEND
  
 Use, reproduction and disclosure by the US Government is
 subject to restrictions as set forth in subparagraphs (a)
 and (c) of the Commercial Computer Software - Restricted
 Rights clause in FAR 52.227-19.
  
 Gaussian, Inc.
 340 Quinnipiac St., Bldg. 40, Wallingford CT 06492
  
  
 ---------------------------------------------------------------
 Warning -- This program may not be used in any manner that
 competes with the business of Gaussian, Inc. or will provide
 assistance to any competitor of Gaussian, Inc.  The licensee
 of this program is prohibited from giving any competitor of
 Gaussian, Inc. access to this program.  By using this program,
 the user acknowledges that Gaussian, Inc. is engaged in the
 business of creating and licensing software in the field of
 computational chemistry and represents and warrants to the
 licensee that it is not a competitor of Gaussian, Inc. and that
 it will not use this program in any manner prohibited above.
 ---------------------------------------------------------------
  

 Cite this work as:
 Gaussian 16, Revision C.02,
 M. J. Frisch, G. W. Trucks, H. B. Schlegel, G. E. Scuseria, 
 M. A. Robb, J. R. Cheeseman, G. Scalmani, V. Barone, 
 G. A. Petersson, H. Nakatsuji, X. Li, M. Caricato, A. V. Marenich, 
 J. Bloino, B. G. Janesko, R. Gomperts, B. Mennucci, H. P. Hratchian, 
 J. V. Ortiz, A. F. Izmaylov, J. L. Sonnenberg, D. Williams-Young, 
 F. Ding, F. Lipparini, F. Egidi, J. Goings, B. Peng, A. Petrone, 
 T. Henderson, D. Ranasinghe, V. G. Zakrzewski, J. Gao, N. Rega, 
 G. Zheng, W. Liang, M. Hada, M. Ehara, K. Toyota, R. Fukuda, 
 J. Hasegawa, M. Ishida, T. Nakajima, Y. Honda, O. Kitao, H. Nakai, 
 T. Vreven, K. Throssell, J. A. Montgomery, Jr., J. E. Peralta, 
 F. Ogliaro, M. J. Bearpark, J. J. Heyd, E. N. Brothers, K. N. Kudin, 
 V. N. Staroverov, T. A. Keith, R. Kobayashi, J. Normand, 
 K. Raghavachari, A. P. Rendell, J. C. Burant, S. S. Iyengar, 
 J. Tomasi, M. Cossi, J. M. Millam, M. Klene, C. Adamo, R. Cammi, 
 J. W. Ochterski, R. L. Martin, K. Morokuma, O. Farkas, 
 J. B. Foresman, and D. J. Fox, Gaussian, Inc., Wallingford CT, 2019.
 
 ******************************************
 Gaussian 16:  ES64L-G16RevC.02  7-Dec-2021
                 5-Sep-2024 
 ******************************************
 %mem=16GB
 %CPU=0-71
 SetSPE:  set environment variable "OMP_PROC_BIND" = "true"
 SetSPE:  set environment variable "OMP_PLACES" = "{0},{1},{2},{3},{4},{5},{6},{7},{8},{9},{10},{11},{12},{13},{14},{15},{16},{17},{18},{19},{20},{21},{22},{23},{24},{25},{26},{27},{28},{29},{30},{31},{32},{33},{34},{35},{36},{37},{38},{39},{40},{41},{42},{43},{44},{45},{46},{47},{48},{49},{50},{51},{52},{53},{54},{55},{56},{57},{58},{59},{60},{61},{62},{63},{64},{65},{66},{67},{68},{69},{70},{71}"
 Will use up to   72 processors via shared memory.
 %gpucpu=0,1,2,3=0,1,2,3
 Will use    4 GPUs:
 Thread  CPU   GPU
      0    0     0
      1    1     1
      2    2     2
      3    3     3
      4    4    -1
      5    5    -1
      6    6    -1
      7    7    -1
      8    8    -1
      9    9    -1
     10   10    -1
     11   11    -1
     12   12    -1
     13   13    -1
     14   14    -1
     15   15    -1
     16   16    -1
     17   17    -1
     18   18    -1
     19   19    -1
     20   20    -1
     21   21    -1
     22   22    -1
     23   23    -1
     24   24    -1
     25   25    -1
     26   26    -1
     27   27    -1
     28   28    -1
     29   29    -1
     30   30    -1
     31   31    -1
     32   32    -1
     33   33    -1
     34   34    -1
     35   35    -1
     36   36    -1
     37   37    -1
     38   38    -1
     39   39    -1
     40   40    -1
     41   41    -1
     42   42    -1
     43   43    -1
     44   44    -1
     45   45    -1
     46   46    -1
     47   47    -1
     48   48    -1
     49   49    -1
     50   50    -1
     51   51    -1
     52   52    -1
     53   53    -1
     54   54    -1
     55   55    -1
     56   56    -1
     57   57    -1
     58   58    -1
     59   59    -1
     60   60    -1
     61   61    -1
     62   62    -1
     63   63    -1
     64   64    -1
     65   65    -1
     66   66    -1
     67   67    -1
     68   68    -1
     69   69    -1
     70   70    -1
     71   71    -1
 SetGPE:  set environment variable "OMP_PROC_BIND" = "true"
 SetGPE:  set environment variable "OMP_PLACES" = "{0},{1},{2},{3},{4},{5},{6},{7},{8},{9},{10},{11},{12},{13},{14},{15},{16},{17},{18},{19},{20},{21},{22},{23},{24},{25},{26},{27},{28},{29},{30},{31},{32},{33},{34},{35},{36},{37},{38},{39},{40},{41},{42},{43},{44},{45},{46},{47},{48},{49},{50},{51},{52},{53},{54},{55},{56},{57},{58},{59},{60},{61},{62},{63},{64},{65},{66},{67},{68},{69},{70},{71}"
 %oldchk=2v1k_II_S.chk
 %chk=2v1k_II_Sre.chk
 Properties for Device   0
 Minimum vector length:                              32
 Maximum vector length:                            1024
 Number of SMPs:                                    108
 Maximum number of threads per SMP:                2048
 Number of ASync Engines:                             5
 Memory:                                           9207742464
 Properties for Device   1
 Minimum vector length:                              32
 Maximum vector length:                            1024
 Number of SMPs:                                    108
 Maximum number of threads per SMP:                2048
 Number of ASync Engines:                             5
 Memory:                                           9207742464
 Properties for Device   2
 Minimum vector length:                              32
 Maximum vector length:                            1024
 Number of SMPs:                                    108
 Maximum number of threads per SMP:                2048
 Number of ASync Engines:                             5
 Memory:                                           9207742464
 Properties for Device   3
 Minimum vector length:                              32
 Maximum vector length:                            1024
 Number of SMPs:                                    108
 Maximum number of threads per SMP:                2048
 Number of ASync Engines:                             5
 Memory:                                           9207742464
   8286968217 words of memory will be used on each GPU.
 Copying data from "2v1k_II_S.chk" to current chk file "2v1k_II_Sre.chk"
 IOpt=  2 FromEx=T IUOpen= 4 IOptOp= 5 NList=   0 IFRang= 0 IUIn= 4 IUOut= 2.
 --------------------------------------
 # apfd/gen scf=maxcycle=999 geom=check
 --------------------------------------
 1/29=2,38=1,172=1/1;
 2/12=2,40=1/2;
 3/5=7,11=2,14=-4,25=1,30=1,74=-44/1,2,3;
 4//1;
 5/5=2,7=999,38=5/2;
 6/7=2,8=2,9=2,10=2,28=1/1;
 99/5=1,9=1/99;
 ----------
 2v1k_III_D
 ----------
 Structure from the checkpoint file:  "2v1k_II_Sre.chk"
 Charge =  1 Multiplicity = 2
 Z-Matrix found in chk file.
 Fe,0,16.7711955137,-31.06588971,-3.2904921163
 N,0,15.6640031368,-32.3452269156,-2.2113145659
 N,0,16.5468612049,-29.6953986824,-1.8372116977
 N,0,17.5131705167,-29.6446490653,-4.4915602844
 N,0,16.6108758794,-32.2942168076,-4.8617523078
 C,0,15.3257734293,-33.6200872298,-2.5525434021
 C,0,14.7334259652,-34.3168345983,-1.433423018
 C,0,14.7134660184,-33.4325172105,-0.4007868301
 C,0,15.2922353516,-32.2079484112,-0.9057539069
 C,0,16.0539405981,-29.9012998312,-0.5817800659
 C,0,16.2338001551,-28.7368234545,0.2451618604
 C,0,16.845933908,-27.7982615017,-0.5419268441
 C,0,17.0312330096,-28.4220935905,-1.8368491113
 C,0,17.8102992581,-28.3548949962,-4.1606349768
 C,0,18.3321586438,-27.6351047946,-5.2928969202
 C,0,18.3409968548,-28.5192370216,-6.3384908335
 C,0,17.827873437,-29.7675366541,-5.8102403853
 C,0,17.0881047256,-32.082455319,-6.1204910177
 C,0,16.8547604855,-33.233599154,-6.9633142316
 C,0,16.2324680112,-34.15644779,-6.1825455209
 C,0,16.0890911486,-33.5530955172,-4.8765922695
 C,0,15.5018891998,-34.1867889029,-3.800105778
 H,0,15.1542366567,-35.1982914576,-3.9434198652
 C,0,15.4583667438,-31.0706723023,-0.1426464318
 H,0,15.1010982069,-31.0978569764,0.8754964274
 C,0,17.6260247379,-27.7924298623,-2.9111749722
 H,0,17.9247538531,-26.7635523346,-2.7818096185
 C,0,17.6784048625,-30.9157435993,-6.5648330529
 H,0,17.9887832963,-30.8799376542,-7.5978788182
 C,0,14.2037882482,-33.6114785334,0.9882397262
 H,0,13.8102181789,-34.6149923546,1.1290876387
 H,0,13.4062409454,-32.8984575394,1.197339342
 H,0,15.0003067331,-33.4503851542,1.7154554427
 C,0,14.2576566307,-35.7281048734,-1.4784460655
 H,0,15.0738859055,-36.3993731329,-1.7462489769
 H,0,13.4685659294,-35.8418890114,-2.2218738562
 H,0,13.863742468,-36.0348062193,-0.5126376107
 C,0,15.8692437841,-28.6436039133,1.6858108986
 H,0,16.0755410262,-29.5818667755,2.19918598
 H,0,14.8076670968,-28.4212428548,1.8042908273
 H,0,16.4414183212,-27.8515290283,2.1644364579
 C,0,17.2680682905,-26.4557704755,-0.2057916921
 H,0,18.1698003119,-26.1115141349,-0.6990440467
 C,0,16.641992717,-25.6387553474,0.6345912532
 H,0,15.7177417063,-25.908908092,1.1146074088
 H,0,17.0211580202,-24.6533605369,0.8492009221
 C,0,18.8106294257,-26.225923406,-5.2660745337
 H,0,19.4850932583,-26.0451197521,-6.100542782
 H,0,19.3402978726,-26.0163981562,-4.3378284625
 H,0,17.9740039944,-25.5296277777,-5.3413591097
 C,0,18.7684554492,-28.3147977743,-7.7056289805
 H,0,19.2275019348,-29.1704453524,-8.1876503441
 C,0,18.6318817899,-27.185685303,-8.3926638958
 H,0,18.1401022003,-26.321483001,-7.981624293
 H,0,18.9854968272,-27.0966077396,-9.4065028338
 C,0,17.2437071344,-33.3162020119,-8.3992730186
 H,0,18.3204360469,-33.1881208067,-8.5138330841
 H,0,16.7469836054,-32.5351449524,-8.9751577583
 H,0,16.9668554793,-34.279673549,-8.8199196261
 C,0,15.7533401007,-35.5228927003,-6.5335900177
 H,0,16.2353932642,-36.271009707,-5.9038600472
 H,0,15.9748061012,-35.7554089799,-7.5721864178
 H,0,14.6760368388,-35.600604581,-6.3868632653
 C,0,22.0666730121,-32.7815161049,-2.9493427048
 H,0,22.2413472491,-32.6620327933,-4.0138463374
 H,0,22.2549859719,-33.8203361027,-2.6789437867
 H,0,22.7735461648,-32.1545467626,-2.406457976
 N,0,20.1721734656,-32.4233210901,-1.3521977695
 H,0,20.6829905604,-32.6939272403,-0.5278846686
 C,0,20.6687580574,-32.3980483968,-2.6286055037
 C,0,18.8822255184,-32.0196469598,-1.4046791215
 H,0,18.2413928287,-31.9410464038,-0.5495065604
 N,0,18.5296185439,-31.7389022659,-2.6389326687
 C,0,19.634171903,-31.9717294108,-3.4110102459
 H,0,19.6068342795,-31.8158715967,-4.4704272811
 Recover connectivity data from disk.
 Stoichiometry    C34H34FeN6(1+,2)
 Framework group  C1[X(C34H34FeN6)]
 Deg. of freedom   219
 Full point group                 C1      NOp   1
 Largest Abelian subgroup         C1      NOp   1
 Largest concise Abelian subgroup C1      NOp   1
                         Standard orientation:                         
 ---------------------------------------------------------------------
 Center     Atomic      Atomic             Coordinates (Angstroms)
 Number     Number       Type             X           Y           Z
 ---------------------------------------------------------------------
      1         26           0       -0.033755   -0.183663   -0.304773
      2          7           0       -1.261290   -1.738164   -0.627091
      3          7           0       -1.607944    1.054390   -0.477248
      4          7           0        1.195274    1.395859   -0.392027
      5          7           0        1.532721   -1.402319   -0.558505
      6          6           0       -0.916152   -3.055484   -0.667765
      7          6           0       -2.089587   -3.899119   -0.677328
      8          6           0       -3.161074   -3.062609   -0.647001
      9          6           0       -2.625544   -1.720189   -0.621499
     10          6           0       -2.927608    0.708644   -0.497764
     11          6           0       -3.771507    1.872677   -0.426699
     12          6           0       -2.931457    2.952656   -0.371236
     13          6           0       -1.586199    2.414525   -0.403209
     14          6           0        0.847138    2.714967   -0.396132
     15          6           0        2.011325    3.559285   -0.461309
     16          6           0        3.092063    2.719598   -0.505634
     17          6           0        2.554793    1.374372   -0.457627
     18          6           0        2.850626   -1.055725   -0.554951
     19          6           0        3.693526   -2.223195   -0.683268
     20          6           0        2.855267   -3.291260   -0.754380
     21          6           0        1.513041   -2.759995   -0.675055
     22          6           0        0.376169   -3.541948   -0.710663
     23          1           0        0.506000   -4.611147   -0.777710
     24          6           0       -3.409851   -0.586203   -0.573867
     25          1           0       -4.480657   -0.720497   -0.592133
     26          6           0       -0.448905    3.194927   -0.358887
     27          1           0       -0.580664    4.265920   -0.345534
     28          6           0        3.336606    0.234995   -0.484417
     29          1           0        4.407747    0.363353   -0.515747
     30          6           0       -4.615525   -3.387796   -0.651271
     31          1           0       -4.770870   -4.463380   -0.678894
     32          1           0       -5.102503   -2.949065   -1.522231
     33          1           0       -5.101758   -2.993982    0.241883
     34          6           0       -2.053923   -5.388157   -0.716853
     35          1           0       -1.509330   -5.781415    0.141818
     36          1           0       -1.554336   -5.734620   -1.621657
     37          1           0       -3.060032   -5.799957   -0.703245
     38          6           0       -5.258923    1.850767   -0.362095
     39          1           0       -5.608049    1.018399    0.247597
     40          1           0       -5.689485    1.742049   -1.358701
     41          1           0       -5.626738    2.778447    0.071461
     42          6           0       -3.254250    4.359792   -0.275124
     43          1           0       -2.560850    4.960557    0.302119
     44          6           0       -4.305826    4.949161   -0.834196
     45          1           0       -4.999498    4.412243   -1.457233
     46          1           0       -4.492639    6.002957   -0.709934
     47          6           0        1.994000    5.047156   -0.424073
     48          1           0        2.964429    5.423615   -0.107096
     49          1           0        1.236528    5.406448    0.271078
     50          1           0        1.769373    5.458271   -1.409449
     51          6           0        4.500281    3.044230   -0.577196
     52          1           0        5.165985    2.367418   -0.053779
     53          6           0        5.017892    4.079673   -1.229499
     54          1           0        4.410095    4.754786   -1.806085
     55          1           0        6.078037    4.271865   -1.231155
     56          6           0        5.182347   -2.183799   -0.727333
     57          1           0        5.582132   -1.736432    0.183111
     58          1           0        5.523865   -1.588986   -1.574676
     59          1           0        5.592799   -3.185698   -0.825288
     60          6           0        3.178478   -4.738439   -0.899897
     61          1           0        2.778445   -5.306306   -0.059590
     62          1           0        4.253956   -4.892724   -0.936448
     63          1           0        2.743292   -5.137978   -1.815938
     64          6           0        1.277201   -0.219871    5.115736
     65          1           0        2.332914   -0.052718    4.927359
     66          1           0        1.164241   -1.153420    5.666601
     67          1           0        0.900449    0.591069    5.738567
     68          7           0       -0.812161   -0.451358    3.755852
     69          1           0       -1.432728   -0.555419    4.541805
     70          6           0        0.544699   -0.276688    3.825659
     71          6           0       -1.159498   -0.456130    2.448562
     72          1           0       -2.163442   -0.575152    2.093466
     73          7           0       -0.103689   -0.294429    1.683283
     74          6           0        0.964544   -0.182406    2.529853
     75          1           0        1.955540   -0.041595    2.148406
 ---------------------------------------------------------------------
 Rotational constants (GHZ):           0.0937737           0.0921812           0.0593726
 General basis read from cards:  (5D, 7F)
 There are   704 symmetry adapted cartesian basis functions of A   symmetry.
 There are   661 symmetry adapted basis functions of A   symmetry.
   661 basis functions,  1342 primitive gaussians,   704 cartesian basis functions
   153 alpha electrons      152 beta electrons
       nuclear repulsion energy      5561.6037675239 Hartrees.
 NAtoms=   75 NActive=   75 NUniq=   75 SFac= 1.00D+00 NAtFMM=   60 NAOKFM=T Big=T
 Integral buffers will be    131072 words long.
 Raffenetti 2 integral format.
 Two-electron integral symmetry is turned on.
 R6APFD:  NTU= -4 IXU= 1 FactS= 1.050
 Nuclear repulsion after empirical dispersion term =     5561.4718052608 Hartrees.
 One-electron integrals computed using PRISM.
 NBasis=   661 RedAO= T EigKep=  2.51D-04  NBF=   661
 NBsUse=   661 1.00D-06 EigRej= -1.00D+00 NBFU=   661
 ExpMin= 4.20D-02 ExpMax= 3.01D+05 ExpMxC= 2.91D+03 IAcc=3 IRadAn=         5 AccDes= 0.00D+00
 Harris functional with IExCor= 3731 and IRadAn=       5 diagonalized for initial guess.
 HarFok:  IExCor= 3731 AccDes= 0.00D+00 IRadAn=         5 IDoV= 1 UseB2=F ITyADJ=14
 ICtDFT=  3500011 ScaDFX=  1.000000  1.000000  1.000000  1.000000
 FoFCou: FMM=F IPFlag=           0 FMFlag=      100000 FMFlg1=        2001
         NFxFlg=           0 DoJE=T BraDBF=F KetDBF=T FulRan=T
         wScrn=  0.000000 ICntrl=       500 IOpCl=  0 I1Cent=   200000004 NGrid=           0
         NMat0=    1 NMatS0=      1 NMatT0=    0 NMatD0=    1 NMtDS0=    0 NMtDT0=    0
 Petite list used in FoFCou.
 Initial guess <Sx>= 0.0000 <Sy>= 0.0000 <Sz>= 0.5000 <S**2>= 0.7500 S= 0.5000
 Requested convergence on RMS density matrix=1.00D-08 within 999 cycles.
 Requested convergence on MAX density matrix=1.00D-06.
 Requested convergence on             energy=1.00D-06.
 No special actions if energy rises.
 EnCoef did   100 forward-backward iterations
 EnCoef did   100 forward-backward iterations
 EnCoef did   100 forward-backward iterations
 EnCoef did   100 forward-backward iterations
 EnCoef did   100 forward-backward iterations
 EnCoef did     3 forward-backward iterations
 EnCoef did     3 forward-backward iterations
 EnCoef did     1 forward-backward iterations
 Rare condition: small coef for last iteration:  0.000D+00
 Rare condition: small coef for last iteration:  0.000D+00
 Restarting incremental Fock formation.
 Rare condition: small coef for last iteration:  0.000D+00
 Rare condition: small coef for last iteration:  0.000D+00
 Restarting incremental Fock formation.
 Restarting incremental Fock formation.
 Restarting incremental Fock formation.
 Restarting incremental Fock formation.
 Restarting incremental Fock formation.
 Restarting incremental Fock formation.
 Density matrix is not changing but DIIS error= 1.80D-06 CofLast= 8.36D-02.
 Restarting incremental Fock formation.
 SCF Done:  E(UAPFD) =  -2906.81008742     A.U. after  171 cycles
            NFock=171  Conv=0.17D-08     -V/T= 2.0037
 <Sx>= 0.0000 <Sy>= 0.0000 <Sz>= 0.5000 <S**2>= 0.7870 S= 0.5183
 <L.S>=  0.00000000000    
 Annihilation of the first spin contaminant:
 S**2 before annihilation     0.7870,   after     0.7512

 **********************************************************************

            Population analysis using the SCF Density.

 **********************************************************************

 Orbital symmetries:
 Alpha Orbitals:
       Occupied  (A) (A) (A) (A) (A) (A) (A) (A) (A) (A) (A) (A)
                 (A) (A) (A) (A) (A) (A) (A) (A) (A) (A) (A) (A)
                 (A) (A) (A) (A) (A) (A) (A) (A) (A) (A) (A) (A)
                 (A) (A) (A) (A) (A) (A) (A) (A) (A) (A) (A) (A)
                 (A) (A) (A) (A) (A) (A) (A) (A) (A) (A) (A) (A)
                 (A) (A) (A) (A) (A) (A) (A) (A) (A) (A) (A) (A)
                 (A) (A) (A) (A) (A) (A) (A) (A) (A) (A) (A) (A)
                 (A) (A) (A) (A) (A) (A) (A) (A) (A) (A) (A) (A)
                 (A) (A) (A) (A) (A) (A) (A) (A) (A) (A) (A) (A)
                 (A) (A) (A) (A) (A) (A) (A) (A) (A) (A) (A) (A)
                 (A) (A) (A) (A) (A) (A) (A) (A) (A) (A) (A) (A)
                 (A) (A) (A) (A) (A) (A) (A) (A) (A) (A) (A) (A)
                 (A) (A) (A) (A) (A) (A) (A) (A) (A)
       Virtual   (A) (A) (A) (A) (A) (A) (A) (A) (A) (A) (A) (A)
                 (A) (A) (A) (A) (A) (A) (A) (A) (A) (A) (A) (A)
                 (A) (A) (A) (A) (A) (A) (A) (A) (A) (A) (A) (A)
                 (A) (A) (A) (A) (A) (A) (A) (A) (A) (A) (A) (A)
                 (A) (A) (A) (A) (A) (A) (A) (A) (A) (A) (A) (A)
                 (A) (A) (A) (A) (A) (A) (A) (A) (A) (A) (A) (A)
                 (A) (A) (A) (A) (A) (A) (A) (A) (A) (A) (A) (A)
                 (A) (A) (A) (A) (A) (A) (A) (A) (A) (A) (A) (A)
                 (A) (A) (A) (A) (A) (A) (A) (A) (A) (A) (A) (A)
                 (A) (A) (A) (A) (A) (A) (A) (A) (A) (A) (A) (A)
                 (A) (A) (A) (A) (A) (A) (A) (A) (A) (A) (A) (A)
                 (A) (A) (A) (A) (A) (A) (A) (A) (A) (A) (A) (A)
                 (A) (A) (A) (A) (A) (A) (A) (A) (A) (A) (A) (A)
                 (A) (A) (A) (A) (A) (A) (A) (A) (A) (A) (A) (A)
                 (A) (A) (A) (A) (A) (A) (A) (A) (A) (A) (A) (A)
                 (A) (A) (A) (A) (A) (A) (A) (A) (A) (A) (A) (A)
                 (A) (A) (A) (A) (A) (A) (A) (A) (A) (A) (A) (A)
                 (A) (A) (A) (A) (A) (A) (A) (A) (A) (A) (A) (A)
                 (A) (A) (A) (A) (A) (A) (A) (A) (A) (A) (A) (A)
                 (A) (A) (A) (A) (A) (A) (A) (A) (A) (A) (A) (A)
                 (A) (A) (A) (A) (A) (A) (A) (A) (A) (A) (A) (A)
                 (A) (A) (A) (A) (A) (A) (A) (A) (A) (A) (A) (A)
                 (A) (A) (A) (A) (A) (A) (A) (A) (A) (A) (A) (A)
                 (A) (A) (A) (A) (A) (A) (A) (A) (A) (A) (A) (A)
                 (A) (A) (A) (A) (A) (A) (A) (A) (A) (A) (A) (A)
                 (A) (A) (A) (A) (A) (A) (A) (A) (A) (A) (A) (A)
                 (A) (A) (A) (A) (A) (A) (A) (A) (A) (A) (A) (A)
                 (A) (A) (A) (A) (A) (A) (A) (A) (A) (A) (A) (A)
                 (A) (A) (A) (A) (A) (A) (A) (A) (A) (A) (A) (A)
                 (A) (A) (A) (A) (A) (A) (A) (A) (A) (A) (A) (A)
                 (A) (A) (A) (A) (A) (A) (A) (A) (A) (A) (A) (A)
                 (A) (A) (A) (A) (A) (A) (A) (A) (A) (A) (A) (A)
                 (A) (A) (A) (A) (A) (A) (A) (A) (A) (A) (A) (A)
                 (A) (A) (A) (A) (A) (A) (A) (A) (A) (A) (A) (A)
                 (A) (A) (A) (A) (A) (A) (A) (A) (A) (A) (A) (A)
                 (A) (A) (A) (A) (A) (A) (A) (A) (A) (A) (A) (A)
                 (A) (A) (A) (A) (A) (A) (A) (A) (A) (A) (A) (A)
                 (A) (A) (A) (A) (A) (A) (A) (A) (A) (A) (A) (A)
                 (A) (A) (A) (A) (A) (A) (A) (A) (A) (A) (A) (A)
                 (A) (A) (A) (A) (A) (A) (A) (A) (A) (A) (A) (A)
                 (A) (A) (A) (A) (A) (A) (A) (A) (A) (A) (A) (A)
                 (A) (A) (A) (A) (A) (A) (A) (A) (A) (A) (A) (A)
                 (A) (A) (A) (A)
 Beta  Orbitals:
       Occupied  (A) (A) (A) (A) (A) (A) (A) (A) (A) (A) (A) (A)
                 (A) (A) (A) (A) (A) (A) (A) (A) (A) (A) (A) (A)
                 (A) (A) (A) (A) (A) (A) (A) (A) (A) (A) (A) (A)
                 (A) (A) (A) (A) (A) (A) (A) (A) (A) (A) (A) (A)
                 (A) (A) (A) (A) (A) (A) (A) (A) (A) (A) (A) (A)
                 (A) (A) (A) (A) (A) (A) (A) (A) (A) (A) (A) (A)
                 (A) (A) (A) (A) (A) (A) (A) (A) (A) (A) (A) (A)
                 (A) (A) (A) (A) (A) (A) (A) (A) (A) (A) (A) (A)
                 (A) (A) (A) (A) (A) (A) (A) (A) (A) (A) (A) (A)
                 (A) (A) (A) (A) (A) (A) (A) (A) (A) (A) (A) (A)
                 (A) (A) (A) (A) (A) (A) (A) (A) (A) (A) (A) (A)
                 (A) (A) (A) (A) (A) (A) (A) (A) (A) (A) (A) (A)
                 (A) (A) (A) (A) (A) (A) (A) (A)
       Virtual   (A) (A) (A) (A) (A) (A) (A) (A) (A) (A) (A) (A)
                 (A) (A) (A) (A) (A) (A) (A) (A) (A) (A) (A) (A)
                 (A) (A) (A) (A) (A) (A) (A) (A) (A) (A) (A) (A)
                 (A) (A) (A) (A) (A) (A) (A) (A) (A) (A) (A) (A)
                 (A) (A) (A) (A) (A) (A) (A) (A) (A) (A) (A) (A)
                 (A) (A) (A) (A) (A) (A) (A) (A) (A) (A) (A) (A)
                 (A) (A) (A) (A) (A) (A) (A) (A) (A) (A) (A) (A)
                 (A) (A) (A) (A) (A) (A) (A) (A) (A) (A) (A) (A)
                 (A) (A) (A) (A) (A) (A) (A) (A) (A) (A) (A) (A)
                 (A) (A) (A) (A) (A) (A) (A) (A) (A) (A) (A) (A)
                 (A) (A) (A) (A) (A) (A) (A) (A) (A) (A) (A) (A)
                 (A) (A) (A) (A) (A) (A) (A) (A) (A) (A) (A) (A)
                 (A) (A) (A) (A) (A) (A) (A) (A) (A) (A) (A) (A)
                 (A) (A) (A) (A) (A) (A) (A) (A) (A) (A) (A) (A)
                 (A) (A) (A) (A) (A) (A) (A) (A) (A) (A) (A) (A)
                 (A) (A) (A) (A) (A) (A) (A) (A) (A) (A) (A) (A)
                 (A) (A) (A) (A) (A) (A) (A) (A) (A) (A) (A) (A)
                 (A) (A) (A) (A) (A) (A) (A) (A) (A) (A) (A) (A)
                 (A) (A) (A) (A) (A) (A) (A) (A) (A) (A) (A) (A)
                 (A) (A) (A) (A) (A) (A) (A) (A) (A) (A) (A) (A)
                 (A) (A) (A) (A) (A) (A) (A) (A) (A) (A) (A) (A)
                 (A) (A) (A) (A) (A) (A) (A) (A) (A) (A) (A) (A)
                 (A) (A) (A) (A) (A) (A) (A) (A) (A) (A) (A) (A)
                 (A) (A) (A) (A) (A) (A) (A) (A) (A) (A) (A) (A)
                 (A) (A) (A) (A) (A) (A) (A) (A) (A) (A) (A) (A)
                 (A) (A) (A) (A) (A) (A) (A) (A) (A) (A) (A) (A)
                 (A) (A) (A) (A) (A) (A) (A) (A) (A) (A) (A) (A)
                 (A) (A) (A) (A) (A) (A) (A) (A) (A) (A) (A) (A)
                 (A) (A) (A) (A) (A) (A) (A) (A) (A) (A) (A) (A)
                 (A) (A) (A) (A) (A) (A) (A) (A) (A) (A) (A) (A)
                 (A) (A) (A) (A) (A) (A) (A) (A) (A) (A) (A) (A)
                 (A) (A) (A) (A) (A) (A) (A) (A) (A) (A) (A) (A)
                 (A) (A) (A) (A) (A) (A) (A) (A) (A) (A) (A) (A)
                 (A) (A) (A) (A) (A) (A) (A) (A) (A) (A) (A) (A)
                 (A) (A) (A) (A) (A) (A) (A) (A) (A) (A) (A) (A)
                 (A) (A) (A) (A) (A) (A) (A) (A) (A) (A) (A) (A)
                 (A) (A) (A) (A) (A) (A) (A) (A) (A) (A) (A) (A)
                 (A) (A) (A) (A) (A) (A) (A) (A) (A) (A) (A) (A)
                 (A) (A) (A) (A) (A) (A) (A) (A) (A) (A) (A) (A)
                 (A) (A) (A) (A) (A) (A) (A) (A) (A) (A) (A) (A)
                 (A) (A) (A) (A) (A) (A) (A) (A) (A) (A) (A) (A)
                 (A) (A) (A) (A) (A) (A) (A) (A) (A) (A) (A) (A)
                 (A) (A) (A) (A) (A)
 The electronic state is 2-A.
 Alpha  occ. eigenvalues -- -256.29891 -30.15177 -25.99387 -25.99029 -25.98655
 Alpha  occ. eigenvalues --  -14.52989 -14.49014 -14.46857 -14.46839 -14.46804
 Alpha  occ. eigenvalues --  -14.46658 -10.36826 -10.34962 -10.34915 -10.34750
 Alpha  occ. eigenvalues --  -10.34618 -10.34442 -10.34431 -10.34399 -10.34032
 Alpha  occ. eigenvalues --  -10.33928 -10.31731 -10.31197 -10.31013 -10.30952
 Alpha  occ. eigenvalues --  -10.30709 -10.30707 -10.30707 -10.30702 -10.30675
 Alpha  occ. eigenvalues --  -10.30668 -10.30588 -10.30425 -10.30228 -10.29953
 Alpha  occ. eigenvalues --  -10.29805 -10.29523 -10.28956 -10.28747 -10.28693
 Alpha  occ. eigenvalues --  -10.28629 -10.28619 -10.28384 -10.28260 -10.28140
 Alpha  occ. eigenvalues --   -3.53276  -2.30223  -2.29442  -2.28527  -1.15555
 Alpha  occ. eigenvalues --   -1.09153  -1.08202  -1.08105  -1.07158  -1.01245
 Alpha  occ. eigenvalues --   -0.94185  -0.92397  -0.92156  -0.91911  -0.91516
 Alpha  occ. eigenvalues --   -0.91321  -0.91219  -0.89751  -0.87257  -0.85788
 Alpha  occ. eigenvalues --   -0.85694  -0.84798  -0.83480  -0.81581  -0.81260
 Alpha  occ. eigenvalues --   -0.80463  -0.78989  -0.78845  -0.78587  -0.75766
 Alpha  occ. eigenvalues --   -0.75751  -0.74653  -0.71292  -0.70916  -0.70188
 Alpha  occ. eigenvalues --   -0.69489  -0.68284  -0.65820  -0.65766  -0.64751
 Alpha  occ. eigenvalues --   -0.63864  -0.63253  -0.62138  -0.62119  -0.61626
 Alpha  occ. eigenvalues --   -0.59251  -0.58653  -0.58381  -0.57815  -0.56906
 Alpha  occ. eigenvalues --   -0.55772  -0.55608  -0.55004  -0.54962  -0.54278
 Alpha  occ. eigenvalues --   -0.54181  -0.53783  -0.53548  -0.53246  -0.53023
 Alpha  occ. eigenvalues --   -0.52752  -0.52585  -0.52433  -0.52259  -0.51358
 Alpha  occ. eigenvalues --   -0.51205  -0.50990  -0.50742  -0.50596  -0.50563
 Alpha  occ. eigenvalues --   -0.50347  -0.50040  -0.49889  -0.49792  -0.49483
 Alpha  occ. eigenvalues --   -0.49258  -0.48871  -0.48466  -0.48259  -0.47917
 Alpha  occ. eigenvalues --   -0.47599  -0.46950  -0.46850  -0.46456  -0.46120
 Alpha  occ. eigenvalues --   -0.45448  -0.45006  -0.44194  -0.43844  -0.43458
 Alpha  occ. eigenvalues --   -0.42249  -0.42178  -0.41552  -0.41170  -0.39927
 Alpha  occ. eigenvalues --   -0.39559  -0.38156  -0.37920  -0.35257  -0.35008
 Alpha  occ. eigenvalues --   -0.33734  -0.33166  -0.32639  -0.31958  -0.30622
 Alpha  occ. eigenvalues --   -0.30040  -0.29929  -0.29574
 Alpha virt. eigenvalues --   -0.17671  -0.17588  -0.13284  -0.12081  -0.08269
 Alpha virt. eigenvalues --   -0.07991  -0.07681  -0.06807  -0.05040  -0.03515
 Alpha virt. eigenvalues --   -0.02541  -0.01415  -0.01190  -0.00482   0.00394
 Alpha virt. eigenvalues --    0.01108   0.01554   0.02402   0.02868   0.03530
 Alpha virt. eigenvalues --    0.03665   0.03766   0.04341   0.04423   0.04625
 Alpha virt. eigenvalues --    0.05294   0.05708   0.05871   0.06139   0.06536
 Alpha virt. eigenvalues --    0.06713   0.07172   0.07433   0.07757   0.08169
 Alpha virt. eigenvalues --    0.08303   0.08741   0.08872   0.09242   0.09387
 Alpha virt. eigenvalues --    0.09852   0.09952   0.10000   0.10224   0.10910
 Alpha virt. eigenvalues --    0.11466   0.11809   0.11888   0.12416   0.12447
 Alpha virt. eigenvalues --    0.12889   0.13207   0.13664   0.13856   0.14407
 Alpha virt. eigenvalues --    0.14665   0.15303   0.15849   0.16158   0.16358
 Alpha virt. eigenvalues --    0.16686   0.17196   0.17419   0.17573   0.18047
 Alpha virt. eigenvalues --    0.19187   0.20083   0.20456   0.21381   0.21668
 Alpha virt. eigenvalues --    0.22741   0.23069   0.23282   0.24584   0.25240
 Alpha virt. eigenvalues --    0.25259   0.25937   0.26673   0.26973   0.27719
 Alpha virt. eigenvalues --    0.28414   0.30200   0.31188   0.31873   0.32829
 Alpha virt. eigenvalues --    0.32901   0.33711   0.33904   0.34939   0.35601
 Alpha virt. eigenvalues --    0.37697   0.37993   0.38274   0.38515   0.39193
 Alpha virt. eigenvalues --    0.40227   0.40303   0.40663   0.41086   0.41600
 Alpha virt. eigenvalues --    0.41826   0.42283   0.42753   0.42990   0.43173
 Alpha virt. eigenvalues --    0.43409   0.43756   0.44045   0.44662   0.44884
 Alpha virt. eigenvalues --    0.45295   0.45823   0.46293   0.46914   0.47147
 Alpha virt. eigenvalues --    0.47523   0.47625   0.48274   0.48827   0.49112
 Alpha virt. eigenvalues --    0.49687   0.49922   0.50298   0.50327   0.50745
 Alpha virt. eigenvalues --    0.51372   0.52044   0.52291   0.52358   0.52923
 Alpha virt. eigenvalues --    0.53586   0.54004   0.54577   0.55156   0.55525
 Alpha virt. eigenvalues --    0.55735   0.56248   0.56574   0.56837   0.57202
 Alpha virt. eigenvalues --    0.57505   0.57594   0.58075   0.58518   0.58681
 Alpha virt. eigenvalues --    0.59695   0.60050   0.60350   0.60948   0.61489
 Alpha virt. eigenvalues --    0.61763   0.62345   0.62620   0.63369   0.63831
 Alpha virt. eigenvalues --    0.64127   0.64787   0.64963   0.65754   0.66393
 Alpha virt. eigenvalues --    0.66579   0.67151   0.67392   0.67989   0.68021
 Alpha virt. eigenvalues --    0.68452   0.68616   0.69171   0.69258   0.69809
 Alpha virt. eigenvalues --    0.70305   0.70448   0.70710   0.71030   0.71889
 Alpha virt. eigenvalues --    0.72734   0.73212   0.73272   0.74479   0.75282
 Alpha virt. eigenvalues --    0.76190   0.76865   0.77420   0.77571   0.77666
 Alpha virt. eigenvalues --    0.78072   0.78479   0.78782   0.79143   0.79778
 Alpha virt. eigenvalues --    0.79952   0.80632   0.81091   0.81428   0.82269
 Alpha virt. eigenvalues --    0.82570   0.82692   0.82824   0.83101   0.83282
 Alpha virt. eigenvalues --    0.83957   0.83967   0.84369   0.84624   0.84974
 Alpha virt. eigenvalues --    0.85345   0.85622   0.86454   0.86504   0.87267
 Alpha virt. eigenvalues --    0.87676   0.87751   0.87929   0.89193   0.89424
 Alpha virt. eigenvalues --    0.89566   0.90022   0.90318   0.90743   0.91041
 Alpha virt. eigenvalues --    0.91514   0.91718   0.92477   0.92989   0.93634
 Alpha virt. eigenvalues --    0.93903   0.94712   0.94730   0.95548   0.95681
 Alpha virt. eigenvalues --    0.96588   0.96926   0.97158   0.97719   0.99115
 Alpha virt. eigenvalues --    0.99724   1.01219   1.01571   1.03767   1.04588
 Alpha virt. eigenvalues --    1.04817   1.05434   1.06663   1.07316   1.07687
 Alpha virt. eigenvalues --    1.08031   1.08691   1.09597   1.09866   1.10315
 Alpha virt. eigenvalues --    1.10469   1.10815   1.11325   1.11529   1.12048
 Alpha virt. eigenvalues --    1.13523   1.13860   1.14419   1.14981   1.15294
 Alpha virt. eigenvalues --    1.17491   1.17731   1.18481   1.19795   1.20437
 Alpha virt. eigenvalues --    1.20662   1.21198   1.21817   1.21925   1.22781
 Alpha virt. eigenvalues --    1.23765   1.24861   1.25600   1.25957   1.26367
 Alpha virt. eigenvalues --    1.26516   1.26899   1.27233   1.27577   1.27996
 Alpha virt. eigenvalues --    1.28430   1.29410   1.30016   1.30599   1.31074
 Alpha virt. eigenvalues --    1.31607   1.32727   1.33092   1.33828   1.33898
 Alpha virt. eigenvalues --    1.36747   1.37163   1.37504   1.38185   1.38499
 Alpha virt. eigenvalues --    1.40286   1.42094   1.42636   1.43852   1.43938
 Alpha virt. eigenvalues --    1.44064   1.44776   1.45727   1.46561   1.47020
 Alpha virt. eigenvalues --    1.48322   1.49510   1.50482   1.50626   1.51729
 Alpha virt. eigenvalues --    1.52851   1.53110   1.54328   1.55798   1.56178
 Alpha virt. eigenvalues --    1.57592   1.58196   1.59857   1.60149   1.61356
 Alpha virt. eigenvalues --    1.61905   1.63737   1.64699   1.68447   1.68881
 Alpha virt. eigenvalues --    1.69384   1.69493   1.69806   1.70315   1.70811
 Alpha virt. eigenvalues --    1.70898   1.71667   1.72298   1.72556   1.73808
 Alpha virt. eigenvalues --    1.73929   1.74600   1.74948   1.75113   1.75695
 Alpha virt. eigenvalues --    1.76131   1.77045   1.77506   1.78081   1.78500
 Alpha virt. eigenvalues --    1.79618   1.80435   1.80886   1.81136   1.81526
 Alpha virt. eigenvalues --    1.82348   1.82838   1.83117   1.83636   1.83940
 Alpha virt. eigenvalues --    1.84818   1.85427   1.85977   1.89103   1.89213
 Alpha virt. eigenvalues --    1.89778   1.90087   1.90922   1.90969   1.91408
 Alpha virt. eigenvalues --    1.91741   1.93083   1.93486   1.94978   1.95168
 Alpha virt. eigenvalues --    1.95696   1.95764   1.96464   1.98037   1.98368
 Alpha virt. eigenvalues --    1.98683   1.99572   2.01865   2.01895   2.02823
 Alpha virt. eigenvalues --    2.03208   2.03614   2.05331   2.05639   2.05975
 Alpha virt. eigenvalues --    2.06232   2.07054   2.08441   2.08949   2.09566
 Alpha virt. eigenvalues --    2.10524   2.11007   2.11508   2.12824   2.13365
 Alpha virt. eigenvalues --    2.13662   2.14956   2.15469   2.15919   2.16114
 Alpha virt. eigenvalues --    2.16600   2.16825   2.17491   2.17983   2.18342
 Alpha virt. eigenvalues --    2.18676   2.19068   2.20096   2.20307   2.20824
 Alpha virt. eigenvalues --    2.21273   2.21758   2.21893   2.22628   2.23201
 Alpha virt. eigenvalues --    2.24305   2.24625   2.25136   2.25686   2.26254
 Alpha virt. eigenvalues --    2.26935   2.27448   2.28647   2.28961   2.29389
 Alpha virt. eigenvalues --    2.30300   2.30972   2.31379   2.31626   2.32267
 Alpha virt. eigenvalues --    2.32703   2.33454   2.33998   2.34579   2.34973
 Alpha virt. eigenvalues --    2.35476   2.38032   2.39176   2.39990   2.40678
 Alpha virt. eigenvalues --    2.41859   2.42359   2.42833   2.42880   2.43060
 Alpha virt. eigenvalues --    2.45219   2.45468   2.45842   2.46435   2.46919
 Alpha virt. eigenvalues --    2.49652   2.50279   2.50538   2.52190   2.52731
 Alpha virt. eigenvalues --    2.55198   2.55898   2.57471   2.57869   2.58272
 Alpha virt. eigenvalues --    2.59419   2.60311   2.61446   2.63903   2.65298
 Alpha virt. eigenvalues --    2.65729   2.67997   2.68221   2.69673   2.70594
 Alpha virt. eigenvalues --    2.71453   2.76734   2.77552   2.77763   2.78895
 Alpha virt. eigenvalues --    2.80581   2.81587   2.82198   2.84609   2.86574
 Alpha virt. eigenvalues --    2.86776   2.88454   2.89033   2.89218   2.90453
 Alpha virt. eigenvalues --    2.90528   2.94738   2.95222   2.96179   3.01954
 Alpha virt. eigenvalues --    3.03629   3.05811   3.10163   3.12697   3.13289
 Alpha virt. eigenvalues --    3.19657   3.19877   3.28235   3.29446   3.30378
 Alpha virt. eigenvalues --    3.35945   3.36123   3.36510   3.52317   3.56782
 Alpha virt. eigenvalues --    3.79839   3.98011   4.10539
  Beta  occ. eigenvalues -- -256.29886 -30.14915 -25.99090 -25.98714 -25.98608
  Beta  occ. eigenvalues --  -14.52990 -14.49021 -14.46961 -14.46960 -14.46868
  Beta  occ. eigenvalues --  -14.46729 -10.36826 -10.34623 -10.34583 -10.34480
  Beta  occ. eigenvalues --  -10.34398 -10.34360 -10.34237 -10.34202 -10.33896
  Beta  occ. eigenvalues --  -10.33788 -10.31732 -10.31083 -10.30936 -10.30850
  Beta  occ. eigenvalues --  -10.30830 -10.30817 -10.30804 -10.30755 -10.30723
  Beta  occ. eigenvalues --  -10.30672 -10.30582 -10.30496 -10.30280 -10.29953
  Beta  occ. eigenvalues --  -10.29839 -10.29515 -10.28962 -10.28750 -10.28690
  Beta  occ. eigenvalues --  -10.28618 -10.28556 -10.28379 -10.28265 -10.28146
  Beta  occ. eigenvalues --   -3.52657  -2.29315  -2.28626  -2.28263  -1.15556
  Beta  occ. eigenvalues --   -1.08938  -1.07983  -1.07913  -1.06961  -1.01248
  Beta  occ. eigenvalues --   -0.93911  -0.92342  -0.92074  -0.91785  -0.91458
  Beta  occ. eigenvalues --   -0.91144  -0.91055  -0.89750  -0.87050  -0.85856
  Beta  occ. eigenvalues --   -0.85665  -0.84678  -0.83453  -0.81443  -0.81259
  Beta  occ. eigenvalues --   -0.80404  -0.78862  -0.78627  -0.78516  -0.75470
  Beta  occ. eigenvalues --   -0.75450  -0.74654  -0.71292  -0.70833  -0.70109
  Beta  occ. eigenvalues --   -0.69226  -0.68249  -0.65804  -0.65577  -0.64646
  Beta  occ. eigenvalues --   -0.63781  -0.63200  -0.62026  -0.62014  -0.61497
  Beta  occ. eigenvalues --   -0.59206  -0.58583  -0.58285  -0.57772  -0.56890
  Beta  occ. eigenvalues --   -0.55757  -0.55110  -0.54762  -0.54488  -0.54123
  Beta  occ. eigenvalues --   -0.53856  -0.53731  -0.53523  -0.53148  -0.53001
  Beta  occ. eigenvalues --   -0.52566  -0.52502  -0.52415  -0.52213  -0.51337
  Beta  occ. eigenvalues --   -0.51067  -0.50885  -0.50720  -0.50563  -0.50492
  Beta  occ. eigenvalues --   -0.50223  -0.49923  -0.49718  -0.49630  -0.49333
  Beta  occ. eigenvalues --   -0.49144  -0.48849  -0.48399  -0.47936  -0.47721
  Beta  occ. eigenvalues --   -0.47506  -0.46883  -0.46799  -0.46403  -0.46034
  Beta  occ. eigenvalues --   -0.45303  -0.44962  -0.44151  -0.43808  -0.42729
  Beta  occ. eigenvalues --   -0.42183  -0.42046  -0.41474  -0.41128  -0.39613
  Beta  occ. eigenvalues --   -0.39073  -0.37408  -0.37148  -0.34904  -0.34588
  Beta  occ. eigenvalues --   -0.33679  -0.32966  -0.32283  -0.31669  -0.30321
  Beta  occ. eigenvalues --   -0.29705  -0.28555
  Beta virt. eigenvalues --   -0.24917  -0.16742  -0.16713  -0.12983  -0.11669
  Beta virt. eigenvalues --   -0.07884  -0.07680  -0.07491  -0.06378  -0.04171
  Beta virt. eigenvalues --   -0.03476  -0.01714  -0.01141  -0.00819  -0.00407
  Beta virt. eigenvalues --    0.00876   0.01162   0.01554   0.02412   0.02861
  Beta virt. eigenvalues --    0.03660   0.03853   0.04322   0.04674   0.04768
  Beta virt. eigenvalues --    0.04956   0.05483   0.05738   0.06090   0.06289
  Beta virt. eigenvalues --    0.06576   0.06774   0.07230   0.07526   0.07825
  Beta virt. eigenvalues --    0.08241   0.08364   0.08824   0.08909   0.09287
  Beta virt. eigenvalues --    0.09563   0.09950   0.09963   0.10048   0.10336
  Beta virt. eigenvalues --    0.11016   0.11567   0.11885   0.11978   0.12472
  Beta virt. eigenvalues --    0.12599   0.12927   0.13271   0.13744   0.13871
  Beta virt. eigenvalues --    0.14662   0.14725   0.15375   0.15998   0.16222
  Beta virt. eigenvalues --    0.16441   0.16836   0.17261   0.17531   0.17695
  Beta virt. eigenvalues --    0.18107   0.19379   0.20180   0.20617   0.21495
  Beta virt. eigenvalues --    0.21845   0.22857   0.23161   0.23485   0.24859
  Beta virt. eigenvalues --    0.25392   0.25569   0.26091   0.26806   0.27099
  Beta virt. eigenvalues --    0.27943   0.28534   0.30283   0.31315   0.31977
  Beta virt. eigenvalues --    0.32959   0.33021   0.33790   0.34041   0.35073
  Beta virt. eigenvalues --    0.35644   0.37811   0.38099   0.38386   0.38648
  Beta virt. eigenvalues --    0.39293   0.40405   0.40498   0.40792   0.41218
  Beta virt. eigenvalues --    0.41829   0.42054   0.42518   0.42864   0.43152
  Beta virt. eigenvalues --    0.43288   0.43538   0.43859   0.44158   0.44723
  Beta virt. eigenvalues --    0.44996   0.45431   0.45928   0.46462   0.47126
  Beta virt. eigenvalues --    0.47283   0.47615   0.47804   0.48350   0.48975
  Beta virt. eigenvalues --    0.49181   0.49933   0.50027   0.50382   0.50478
  Beta virt. eigenvalues --    0.50910   0.51546   0.52109   0.52488   0.52586
  Beta virt. eigenvalues --    0.53082   0.53941   0.54192   0.54750   0.55308
  Beta virt. eigenvalues --    0.55692   0.55887   0.56277   0.56676   0.56847
  Beta virt. eigenvalues --    0.57156   0.57568   0.57676   0.58103   0.58574
  Beta virt. eigenvalues --    0.58727   0.59843   0.60150   0.60456   0.61137
  Beta virt. eigenvalues --    0.61593   0.61903   0.62541   0.62800   0.63457
  Beta virt. eigenvalues --    0.63982   0.64245   0.64906   0.65136   0.65910
  Beta virt. eigenvalues --    0.66584   0.66676   0.67279   0.67525   0.68109
  Beta virt. eigenvalues --    0.68144   0.68538   0.68837   0.69339   0.69355
  Beta virt. eigenvalues --    0.69896   0.70402   0.70719   0.70891   0.71151
  Beta virt. eigenvalues --    0.72202   0.73061   0.73415   0.73575   0.74670
  Beta virt. eigenvalues --    0.75367   0.76546   0.76925   0.77488   0.77591
  Beta virt. eigenvalues --    0.77680   0.78077   0.78513   0.78807   0.79203
  Beta virt. eigenvalues --    0.79789   0.79991   0.80706   0.81130   0.81485
  Beta virt. eigenvalues --    0.82309   0.82620   0.82721   0.82849   0.83142
  Beta virt. eigenvalues --    0.83318   0.83998   0.84035   0.84407   0.84714
  Beta virt. eigenvalues --    0.85028   0.85397   0.85662   0.86489   0.86585
  Beta virt. eigenvalues --    0.87365   0.87682   0.87888   0.88003   0.89252
  Beta virt. eigenvalues --    0.89614   0.89726   0.90129   0.90379   0.90844
  Beta virt. eigenvalues --    0.91103   0.91612   0.91785   0.92533   0.93054
  Beta virt. eigenvalues --    0.93706   0.94013   0.94817   0.94851   0.95614
  Beta virt. eigenvalues --    0.95737   0.96678   0.96999   0.97224   0.97826
  Beta virt. eigenvalues --    0.99247   0.99782   1.01293   1.01624   1.03866
  Beta virt. eigenvalues --    1.04635   1.04833   1.05499   1.06748   1.07395
  Beta virt. eigenvalues --    1.07717   1.08068   1.08811   1.09677   1.09911
  Beta virt. eigenvalues --    1.10464   1.10544   1.10984   1.11408   1.11672
  Beta virt. eigenvalues --    1.12152   1.13639   1.14064   1.14554   1.15128
  Beta virt. eigenvalues --    1.15473   1.17736   1.17891   1.18761   1.19983
  Beta virt. eigenvalues --    1.20584   1.20941   1.21313   1.21873   1.22008
  Beta virt. eigenvalues --    1.22898   1.23888   1.24997   1.25749   1.25985
  Beta virt. eigenvalues --    1.26665   1.26701   1.27239   1.27649   1.27853
  Beta virt. eigenvalues --    1.28168   1.28634   1.29588   1.30091   1.30742
  Beta virt. eigenvalues --    1.31381   1.31745   1.32870   1.33324   1.33956
  Beta virt. eigenvalues --    1.34094   1.36843   1.37243   1.37657   1.38263
  Beta virt. eigenvalues --    1.38594   1.40400   1.42144   1.42712   1.43987
  Beta virt. eigenvalues --    1.44166   1.44252   1.44885   1.45859   1.46709
  Beta virt. eigenvalues --    1.47125   1.48452   1.49656   1.50615   1.50761
  Beta virt. eigenvalues --    1.51842   1.53035   1.53217   1.54473   1.55952
  Beta virt. eigenvalues --    1.56327   1.57755   1.58294   1.60076   1.60238
  Beta virt. eigenvalues --    1.61521   1.62065   1.63800   1.64994   1.68540
  Beta virt. eigenvalues --    1.69006   1.69475   1.69641   1.69939   1.70531
  Beta virt. eigenvalues --    1.70933   1.71032   1.71733   1.72338   1.72641
  Beta virt. eigenvalues --    1.73831   1.74011   1.74620   1.75004   1.75142
  Beta virt. eigenvalues --    1.75775   1.76148   1.77135   1.77586   1.78186
  Beta virt. eigenvalues --    1.78597   1.79716   1.80476   1.80972   1.81214
  Beta virt. eigenvalues --    1.81664   1.82478   1.82959   1.83281   1.83730
  Beta virt. eigenvalues --    1.84078   1.84989   1.85594   1.86120   1.89168
  Beta virt. eigenvalues --    1.89314   1.89863   1.90162   1.91048   1.91070
  Beta virt. eigenvalues --    1.91496   1.91856   1.93197   1.93605   1.95216
  Beta virt. eigenvalues --    1.95241   1.95761   1.95827   1.96575   1.98129
  Beta virt. eigenvalues --    1.98410   1.98804   1.99722   2.01912   2.01942
  Beta virt. eigenvalues --    2.02917   2.03312   2.03856   2.05458   2.05764
  Beta virt. eigenvalues --    2.06085   2.06406   2.07124   2.08643   2.09205
  Beta virt. eigenvalues --    2.09752   2.10642   2.11123   2.11697   2.12956
  Beta virt. eigenvalues --    2.13584   2.13849   2.14987   2.15648   2.16047
  Beta virt. eigenvalues --    2.16280   2.16763   2.16996   2.17770   2.18220
  Beta virt. eigenvalues --    2.18389   2.18747   2.19277   2.20284   2.20480
  Beta virt. eigenvalues --    2.21018   2.21384   2.21917   2.22093   2.22894
  Beta virt. eigenvalues --    2.23441   2.24620   2.24900   2.25523   2.26001
  Beta virt. eigenvalues --    2.26495   2.27135   2.27695   2.28833   2.29038
  Beta virt. eigenvalues --    2.29453   2.30488   2.31061   2.31484   2.31733
  Beta virt. eigenvalues --    2.32402   2.32975   2.33809   2.34229   2.34732
  Beta virt. eigenvalues --    2.35059   2.35558   2.38243   2.39187   2.40078
  Beta virt. eigenvalues --    2.40855   2.42019   2.42533   2.43010   2.43074
  Beta virt. eigenvalues --    2.43260   2.45251   2.45532   2.46249   2.46531
  Beta virt. eigenvalues --    2.47135   2.50096   2.50550   2.50593   2.52291
  Beta virt. eigenvalues --    2.52918   2.55274   2.56127   2.57663   2.58119
  Beta virt. eigenvalues --    2.58421   2.59703   2.60372   2.61456   2.63930
  Beta virt. eigenvalues --    2.65311   2.65749   2.68052   2.68391   2.69742
  Beta virt. eigenvalues --    2.70653   2.71525   2.76828   2.77677   2.77812
  Beta virt. eigenvalues --    2.78997   2.80796   2.81838   2.82459   2.84709
  Beta virt. eigenvalues --    2.86659   2.86859   2.88533   2.89171   2.89287
  Beta virt. eigenvalues --    2.90512   2.90788   2.94846   2.95315   2.96221
  Beta virt. eigenvalues --    3.02085   3.03737   3.05814   3.10249   3.12820
  Beta virt. eigenvalues --    3.13370   3.19745   3.19956   3.28321   3.29530
  Beta virt. eigenvalues --    3.30457   3.36026   3.36210   3.36786   3.52525
  Beta virt. eigenvalues --    3.57698   3.80061   3.98121   4.10759
          Condensed to atoms (all electrons):
          Atomic-Atomic Spin Densities.
 Mulliken charges and spin densities:
               1          2
     1  Fe   0.802129   0.132967
     2  N   -0.671373  -0.060229
     3  N   -0.673944  -0.040790
     4  N   -0.683567  -0.039399
     5  N   -0.680457  -0.068167
     6  C    0.356741   0.227398
     7  C    0.037616  -0.042164
     8  C    0.048560   0.081108
     9  C    0.328053   0.137646
    10  C    0.329980   0.155838
    11  C    0.039487  -0.049529
    12  C    0.011213   0.071264
    13  C    0.343952   0.090940
    14  C    0.339843   0.092992
    15  C    0.050288   0.072257
    16  C    0.002422  -0.043757
    17  C    0.348796   0.183488
    18  C    0.340821   0.173724
    19  C    0.047716   0.054326
    20  C    0.039178  -0.018308
    21  C    0.358979   0.222461
    22  C   -0.305807  -0.129023
    23  H    0.196524   0.004775
    24  C   -0.317126  -0.087962
    25  H    0.194067   0.003209
    26  C   -0.296854  -0.058330
    27  H    0.194095   0.002077
    28  C   -0.310645  -0.104235
    29  H    0.195699   0.003800
    30  C   -0.612016  -0.005659
    31  H    0.208267  -0.000124
    32  H    0.212575   0.004053
    33  H    0.200713   0.004199
    34  C   -0.611745   0.002690
    35  H    0.203403  -0.000652
    36  H    0.208885  -0.000604
    37  H    0.205529  -0.000337
    38  C   -0.613057   0.003549
    39  H    0.189476  -0.000886
    40  H    0.211011  -0.001243
    41  H    0.211711  -0.000512
    42  C   -0.154562  -0.026966
    43  H    0.181619   0.002253
    44  C   -0.383215   0.051975
    45  H    0.193640  -0.002468
    46  H    0.197198  -0.002600
    47  C   -0.615366  -0.004847
    48  H    0.214055   0.000431
    49  H    0.196287   0.001700
    50  H    0.213449   0.005055
    51  C   -0.153804   0.006758
    52  H    0.177537  -0.000636
    53  C   -0.386798  -0.003860
    54  H    0.191190   0.000255
    55  H    0.194719   0.000131
    56  C   -0.612871  -0.003711
    57  H    0.203672   0.003163
    58  H    0.212249   0.003152
    59  H    0.207776  -0.000205
    60  C   -0.611937   0.001010
    61  H    0.203814   0.000287
    62  H    0.206407  -0.000307
    63  H    0.208935   0.000388
    64  C   -0.601931  -0.000048
    65  H    0.217649   0.000001
    66  H    0.211220   0.000045
    67  H    0.211072   0.000001
    68  N   -0.631334  -0.000167
    69  H    0.382397  -0.000023
    70  C    0.282749   0.000541
    71  C    0.244112   0.000003
    72  H    0.218890  -0.000353
    73  N   -0.448463  -0.003127
    74  C   -0.048907  -0.000311
    75  H    0.197413  -0.000369
 Sum of Mulliken charges =   1.00000   1.00000
 Mulliken charges and spin densities with hydrogens summed into heavy atoms:
               1          2
     1  Fe   0.802129   0.132967
     2  N   -0.671373  -0.060229
     3  N   -0.673944  -0.040790
     4  N   -0.683567  -0.039399
     5  N   -0.680457  -0.068167
     6  C    0.356741   0.227398
     7  C    0.037616  -0.042164
     8  C    0.048560   0.081108
     9  C    0.328053   0.137646
    10  C    0.329980   0.155838
    11  C    0.039487  -0.049529
    12  C    0.011213   0.071264
    13  C    0.343952   0.090940
    14  C    0.339843   0.092992
    15  C    0.050288   0.072257
    16  C    0.002422  -0.043757
    17  C    0.348796   0.183488
    18  C    0.340821   0.173724
    19  C    0.047716   0.054326
    20  C    0.039178  -0.018308
    21  C    0.358979   0.222461
    22  C   -0.109283  -0.124248
    24  C   -0.123060  -0.084753
    26  C   -0.102759  -0.056253
    28  C   -0.114946  -0.100435
    30  C    0.009539   0.002468
    34  C    0.006073   0.001097
    38  C   -0.000859   0.000907
    42  C    0.027057  -0.024713
    44  C    0.007623   0.046907
    47  C    0.008426   0.002339
    51  C    0.023733   0.006122
    53  C   -0.000889  -0.003474
    56  C    0.010826   0.002399
    60  C    0.007219   0.001378
    64  C    0.038011  -0.000001
    68  N   -0.248937  -0.000190
    70  C    0.282749   0.000541
    71  C    0.463002  -0.000350
    73  N   -0.448463  -0.003127
    74  C    0.148506  -0.000680
 Electronic spatial extent (au):  <R**2>=          19768.3574
 Charge=              1.0000 electrons
 Dipole moment (field-independent basis, Debye):
    X=             -1.0401    Y=             -1.5852    Z=              4.6365  Tot=              5.0092
 Quadrupole moment (field-independent basis, Debye-Ang):
   XX=           -164.1873   YY=           -170.7595   ZZ=           -207.4614
   XY=              0.4637   XZ=             -4.1063   YZ=             -1.9772
 Traceless Quadrupole moment (field-independent basis, Debye-Ang):
   XX=             16.6154   YY=             10.0433   ZZ=            -26.6587
   XY=              0.4637   XZ=             -4.1063   YZ=             -1.9772
 Octapole moment (field-independent basis, Debye-Ang**2):
  XXX=              2.5960  YYY=             -5.8254  ZZZ=            193.6413  XYY=            -13.7477
  XXY=              4.1587  XXZ=            -31.5886  XZZ=            -17.9438  YZZ=            -24.6191
  YYZ=            -58.8870  XYZ=              3.5519
 Hexadecapole moment (field-independent basis, Debye-Ang**3):
 XXXX=         -10065.6169 YYYY=          -9806.7766 ZZZZ=          -2455.0600 XXXY=             -8.6084
 XXXZ=             15.1325 YYYX=            -49.6717 YYYZ=             14.5798 ZZZX=            -64.9360
 ZZZY=            -77.5221 XXYY=          -3084.7281 XXZZ=          -2437.2573 YYZZ=          -2484.7996
 XXYZ=            -78.1942 YYXZ=            -51.8049 ZZXY=             26.6216
 N-N= 5.561471805261D+03 E-N=-1.791925296959D+04  KE= 2.895985285936D+03
                          Isotropic Fermi Contact Couplings
        Atom                 a.u.       MegaHertz       Gauss      10(-4) cm-1
     1  Fe(57)             0.01877       2.72275       0.97155       0.90821
     2  N(14)             -0.01427      -4.60982      -1.64490      -1.53767
     3  N(14)             -0.01039      -3.35810      -1.19825      -1.12014
     4  N(14)             -0.00954      -3.08198      -1.09973      -1.02804
     5  N(14)             -0.01689      -5.45870      -1.94780      -1.82083
     6  C(13)              0.03275      36.81351      13.13598      12.27966
     7  C(13)             -0.00889      -9.99231      -3.56550      -3.33307
     8  C(13)              0.00927      10.41565       3.71656       3.47429
     9  C(13)              0.01869      21.01204       7.49762       7.00886
    10  C(13)              0.02218      24.93527       8.89752       8.31751
    11  C(13)             -0.00927     -10.41583      -3.71663      -3.47435
    12  C(13)              0.00888       9.97756       3.56024       3.32815
    13  C(13)              0.01202      13.51777       4.82348       4.50904
    14  C(13)              0.01223      13.74633       4.90503       4.58528
    15  C(13)              0.00868       9.75989       3.48257       3.25555
    16  C(13)             -0.00843      -9.48136      -3.38319      -3.16264
    17  C(13)              0.02602      29.25268      10.43808       9.75764
    18  C(13)              0.02392      26.88576       9.59351       8.96812
    19  C(13)              0.00509       5.72016       2.04110       1.90804
    20  C(13)             -0.00551      -6.19302      -2.20982      -2.06577
    21  C(13)              0.03195      35.91905      12.81681      11.98131
    22  C(13)             -0.02252     -25.31672      -9.03364      -8.44475
    23  H(1)               0.00151       6.76211       2.41289       2.25560
    24  C(13)             -0.01520     -17.09146      -6.09866      -5.70110
    25  H(1)               0.00099       4.44281       1.58530       1.48196
    26  C(13)             -0.01009     -11.34350      -4.04764      -3.78378
    27  H(1)               0.00065       2.89348       1.03246       0.96516
    28  C(13)             -0.01811     -20.35812      -7.26428      -6.79074
    29  H(1)               0.00118       5.27341       1.88168       1.75902
    30  C(13)             -0.00276      -3.10402      -1.10759      -1.03539
    31  H(1)              -0.00004      -0.17226      -0.06147      -0.05746
    32  H(1)               0.00239      10.69243       3.81532       3.56661
    33  H(1)               0.00247      11.02953       3.93561       3.67905
    34  C(13)              0.00044       0.49449       0.17645       0.16494
    35  H(1)              -0.00011      -0.51321      -0.18313      -0.17119
    36  H(1)              -0.00010      -0.46698      -0.16663      -0.15577
    37  H(1)              -0.00013      -0.60318      -0.21523      -0.20120
    38  C(13)              0.00101       1.13042       0.40336       0.37707
    39  H(1)              -0.00036      -1.59440      -0.56892      -0.53184
    40  H(1)              -0.00059      -2.62649      -0.93720      -0.87610
    41  H(1)              -0.00012      -0.53659      -0.19147      -0.17899
    42  C(13)             -0.00547      -6.15443      -2.19605      -2.05290
    43  H(1)               0.00100       4.48192       1.59926       1.49501
    44  C(13)              0.00738       8.29639       2.96036       2.76738
    45  H(1)              -0.00078      -3.50326      -1.25005      -1.16856
    46  H(1)              -0.00081      -3.62287      -1.29273      -1.20846
    47  C(13)             -0.00229      -2.57884      -0.92020      -0.86021
    48  H(1)               0.00035       1.56398       0.55807       0.52169
    49  H(1)               0.00107       4.76698       1.70098       1.59009
    50  H(1)               0.00276      12.35317       4.40792       4.12058
    51  C(13)              0.00107       1.20741       0.43083       0.40275
    52  H(1)              -0.00020      -0.87939      -0.31379      -0.29333
    53  C(13)             -0.00099      -1.11259      -0.39700      -0.37112
    54  H(1)               0.00009       0.41049       0.14647       0.13692
    55  H(1)               0.00004       0.19854       0.07084       0.06623
    56  C(13)             -0.00209      -2.35181      -0.83918      -0.78448
    57  H(1)               0.00198       8.85714       3.16045       2.95442
    58  H(1)               0.00194       8.66684       3.09254       2.89095
    59  H(1)              -0.00007      -0.32424      -0.11570      -0.10816
    60  C(13)             -0.00022      -0.24774      -0.08840      -0.08264
    61  H(1)               0.00037       1.64822       0.58813       0.54979
    62  H(1)              -0.00012      -0.54059      -0.19289      -0.18032
    63  H(1)               0.00045       2.00691       0.71612       0.66943
    64  C(13)             -0.00003      -0.03338      -0.01191      -0.01113
    65  H(1)               0.00000       0.00248       0.00089       0.00083
    66  H(1)               0.00002       0.10038       0.03582       0.03348
    67  H(1)               0.00000       0.01686       0.00601       0.00562
    68  N(14)             -0.00021      -0.06736      -0.02404      -0.02247
    69  H(1)              -0.00001      -0.03911      -0.01396      -0.01305
    70  C(13)              0.00002       0.02009       0.00717       0.00670
    71  C(13)             -0.00028      -0.30946      -0.11042      -0.10323
    72  H(1)               0.00002       0.07983       0.02849       0.02663
    73  N(14)             -0.00376      -1.21536      -0.43367      -0.40540
    74  C(13)             -0.00019      -0.21202      -0.07565      -0.07072
    75  H(1)               0.00002       0.08037       0.02868       0.02681
 --------------------------------------------------------
       Center         ----  Spin Dipole Couplings  ----
                      3XX-RR        3YY-RR        3ZZ-RR
 --------------------------------------------------------
     1   Atom        0.341473     -0.525833      0.184359
     2   Atom        0.040139      0.040984     -0.081123
     3   Atom        0.025998      0.027251     -0.053249
     4   Atom        0.021469      0.025330     -0.046799
     5   Atom        0.047154      0.045055     -0.092209
     6   Atom       -0.113310     -0.116221      0.229531
     7   Atom        0.009393      0.012468     -0.021861
     8   Atom       -0.042622     -0.045008      0.087631
     9   Atom       -0.074385     -0.069432      0.143817
    10   Atom       -0.078732     -0.075925      0.154657
    11   Atom        0.018709      0.016609     -0.035319
    12   Atom       -0.036572     -0.036109      0.072681
    13   Atom       -0.046675     -0.049040      0.095715
    14   Atom       -0.048535     -0.049688      0.098222
    15   Atom       -0.039358     -0.035782      0.075140
    16   Atom        0.013755      0.012074     -0.025829
    17   Atom       -0.093546     -0.089984      0.183530
    18   Atom       -0.091333     -0.085562      0.176895
    19   Atom       -0.030041     -0.034052      0.064093
    20   Atom       -0.001256      0.001078      0.000178
    21   Atom       -0.110189     -0.113160      0.223350
    22   Atom        0.054970      0.041068     -0.096039
    23   Atom        0.006199     -0.002702     -0.003498
    24   Atom        0.027913      0.037531     -0.065444
    25   Atom       -0.001780      0.004601     -0.002821
    26   Atom        0.025873      0.017774     -0.043647
    27   Atom        0.003778     -0.001300     -0.002477
    28   Atom        0.033261      0.044412     -0.077673
    29   Atom       -0.002296      0.005470     -0.003174
    30   Atom       -0.000156     -0.002527      0.002683
    31   Atom        0.000580      0.000611     -0.001191
    32   Atom        0.002321     -0.001201     -0.001119
    33   Atom        0.002388     -0.001277     -0.001111
    34   Atom       -0.001327      0.001671     -0.000344
    35   Atom       -0.000884      0.002007     -0.001123
    36   Atom       -0.000895      0.001922     -0.001027
    37   Atom       -0.000304      0.001344     -0.001040
    38   Atom        0.000945     -0.000188     -0.000757
    39   Atom        0.001364     -0.000390     -0.000974
    40   Atom        0.000959     -0.000130     -0.000829
    41   Atom        0.000629      0.000367     -0.000996
    42   Atom        0.000647      0.008680     -0.009327
    43   Atom       -0.000020      0.001747     -0.001727
    44   Atom        0.005309     -0.022791      0.017483
    45   Atom        0.001228     -0.001261      0.000033
    46   Atom       -0.001937      0.003636     -0.001699
    47   Atom       -0.002651      0.000405      0.002246
    48   Atom       -0.000024      0.001203     -0.001179
    49   Atom       -0.000715      0.002092     -0.001377
    50   Atom       -0.001311      0.001849     -0.000538
    51   Atom       -0.001154     -0.000832      0.001986
    52   Atom        0.001422     -0.000256     -0.001166
    53   Atom        0.002305      0.000358     -0.002663
    54   Atom        0.000446      0.000024     -0.000470
    55   Atom        0.000193      0.000181     -0.000374
    56   Atom        0.000787     -0.003078      0.002291
    57   Atom        0.002553     -0.001400     -0.001153
    58   Atom        0.002369     -0.001211     -0.001157
    59   Atom        0.001428     -0.000248     -0.001181
    60   Atom       -0.001036      0.000789      0.000247
    61   Atom       -0.000738      0.002010     -0.001272
    62   Atom        0.000257      0.000819     -0.001077
    63   Atom       -0.000767      0.001674     -0.000907
    64   Atom       -0.000380     -0.000352      0.000732
    65   Atom       -0.000345     -0.000367      0.000712
    66   Atom       -0.000311     -0.000319      0.000630
    67   Atom       -0.000312     -0.000293      0.000605
    68   Atom       -0.000390     -0.000724      0.001114
    69   Atom       -0.000404     -0.000423      0.000827
    70   Atom       -0.000884      0.000065      0.000818
    71   Atom       -0.000996     -0.000580      0.001575
    72   Atom       -0.001059     -0.000322      0.001381
    73   Atom        0.000627     -0.000373     -0.000254
    74   Atom       -0.000972     -0.001001      0.001974
    75   Atom       -0.001238     -0.000381      0.001619
 --------------------------------------------------------
                        XY            XZ            YZ
 --------------------------------------------------------
     1   Atom        0.259914      0.016418     -0.039705
     2   Atom        0.003334     -0.002329      0.005182
     3   Atom       -0.001707      0.001417      0.003663
     4   Atom        0.003046      0.000673      0.005080
     5   Atom       -0.001122     -0.004390      0.015237
     6   Atom        0.002230      0.006213     -0.003058
     7   Atom        0.000829     -0.002189      0.000085
     8   Atom        0.002908      0.002165      0.001036
     9   Atom        0.001600     -0.003488     -0.006797
    10   Atom       -0.001642      0.002705     -0.013547
    11   Atom       -0.000497     -0.002600      0.001490
    12   Atom       -0.002889      0.002315     -0.006402
    13   Atom       -0.001062     -0.000888     -0.007809
    14   Atom        0.001684      0.006503      0.007093
    15   Atom        0.001571      0.003901     -0.003394
    16   Atom        0.001257     -0.001187      0.000509
    17   Atom        0.001501      0.006248      0.004755
    18   Atom       -0.003408      0.008111     -0.024661
    19   Atom       -0.002015      0.002023     -0.007162
    20   Atom       -0.001956      0.000981     -0.000003
    21   Atom       -0.001842      0.004408     -0.027852
    22   Atom        0.001651     -0.001719      0.008369
    23   Atom        0.001025     -0.000044      0.000123
    24   Atom       -0.000815      0.000987      0.005491
    25   Atom       -0.001061      0.000073      0.000327
    26   Atom        0.000888     -0.000193      0.001388
    27   Atom        0.000428     -0.000049      0.000201
    28   Atom       -0.001751     -0.001264      0.004705
    29   Atom       -0.000491      0.000133      0.000369
    30   Atom        0.002041      0.000431      0.000084
    31   Atom        0.001857      0.000063      0.000018
    32   Atom        0.000628      0.001427     -0.000242
    33   Atom        0.000681     -0.001433      0.000199
    34   Atom        0.001085      0.000048     -0.000137
    35   Atom        0.000343      0.000080     -0.000690
    36   Atom        0.000349     -0.000023      0.000901
    37   Atom        0.000795      0.000031      0.000048
    38   Atom       -0.000807     -0.000341      0.000289
    39   Atom       -0.000342     -0.000409      0.000009
    40   Atom       -0.000416      0.000407     -0.000059
    41   Atom       -0.000244     -0.000306     -0.000121
    42   Atom       -0.006308      0.013868      0.003814
    43   Atom       -0.001366      0.000161      0.000081
    44   Atom        0.005675     -0.036272     -0.007694
    45   Atom        0.001697      0.001311      0.001288
    46   Atom       -0.001305     -0.001519      0.000373
    47   Atom        0.000977      0.000565     -0.000072
    48   Atom        0.001481      0.000083      0.000241
    49   Atom       -0.000437     -0.000290      0.000846
    50   Atom        0.000263      0.000166     -0.001259
    51   Atom        0.001199      0.000125      0.002792
    52   Atom        0.000559      0.000339      0.000088
    53   Atom        0.000365     -0.000521     -0.002588
    54   Atom        0.001007     -0.000482     -0.000329
    55   Atom        0.000493     -0.000123     -0.000191
    56   Atom       -0.001358     -0.000140     -0.000350
    57   Atom        0.000022      0.001201      0.000450
    58   Atom        0.000179     -0.001377     -0.000500
    59   Atom       -0.001534     -0.000208      0.000117
    60   Atom       -0.001835      0.000006      0.000035
    61   Atom       -0.000970     -0.000012     -0.000624
    62   Atom       -0.001278     -0.000153      0.000196
    63   Atom       -0.000912     -0.000157      0.001235
    64   Atom       -0.000009      0.000121      0.000017
    65   Atom        0.000004      0.000273      0.000066
    66   Atom       -0.000004      0.000095     -0.000063
    67   Atom        0.000007      0.000065      0.000107
    68   Atom       -0.000032     -0.000212     -0.000026
    69   Atom        0.000002     -0.000211      0.000023
    70   Atom        0.000087      0.000056     -0.000226
    71   Atom       -0.000369     -0.000599      0.000416
    72   Atom       -0.000079     -0.000685      0.000220
    73   Atom        0.000868     -0.000177      0.000394
    74   Atom        0.000286      0.000329      0.000493
    75   Atom       -0.000094      0.000418      0.000247
 --------------------------------------------------------


 ---------------------------------------------------------------------------------
              Anisotropic Spin Dipole Couplings in Principal Axis System
 ---------------------------------------------------------------------------------

       Atom             a.u.   MegaHertz   Gauss  10(-4) cm-1        Axes

              Baa    -0.6001   -10.389    -3.707    -3.465 -0.2666  0.9623  0.0543
     1 Fe(57) Bbb     0.1866     3.230     1.152     1.077 -0.0077 -0.0585  0.9983
              Bcc     0.4135     7.159     2.555     2.388  0.9638  0.2657  0.0230
 
              Baa    -0.0814    -3.139    -1.120    -1.047  0.0203 -0.0428  0.9989
     2 N(14)  Bbb     0.0374     1.443     0.515     0.481  0.7598 -0.6487 -0.0433
              Bcc     0.0440     1.696     0.605     0.566  0.6499  0.7598  0.0194
 
              Baa    -0.0534    -2.061    -0.735    -0.688 -0.0188 -0.0457  0.9988
     3 N(14)  Bbb     0.0249     0.962     0.343     0.321  0.8336  0.5508  0.0409
              Bcc     0.0285     1.099     0.392     0.367 -0.5520  0.8334  0.0278
 
              Baa    -0.0472    -1.819    -0.649    -0.607 -0.0067 -0.0696  0.9976
     4 N(14)  Bbb     0.0198     0.765     0.273     0.255  0.8842 -0.4663 -0.0266
              Bcc     0.0273     1.054     0.376     0.351  0.4670  0.8819  0.0647
 
              Baa    -0.0940    -3.626    -1.294    -1.209  0.0300 -0.1086  0.9936
     5 N(14)  Bbb     0.0454     1.750     0.625     0.584  0.6432  0.7630  0.0640
              Bcc     0.0486     1.875     0.669     0.626  0.7651 -0.6372 -0.0928
 
              Baa    -0.1175   -15.770    -5.627    -5.260 -0.4867  0.8734  0.0164
     6 C(13)  Bbb    -0.1121   -15.049    -5.370    -5.020  0.8734  0.4869 -0.0115
              Bcc     0.2297    30.820    10.997    10.280  0.0181 -0.0087  0.9998
 
              Baa    -0.0220    -2.954    -1.054    -0.985  0.0696 -0.0041  0.9976
     7 C(13)  Bbb     0.0093     1.252     0.447     0.418  0.9650 -0.2531 -0.0684
              Bcc     0.0127     1.702     0.607     0.568  0.2527  0.9674 -0.0136
 
              Baa    -0.0470    -6.302    -2.249    -2.102 -0.5578  0.8300  0.0026
     8 C(13)  Bbb    -0.0407    -5.464    -1.950    -1.822  0.8298  0.5577 -0.0185
              Bcc     0.0877    11.765     4.198     3.924  0.0168  0.0082  0.9998
 
              Baa    -0.0749   -10.046    -3.585    -3.351  0.9615 -0.2746  0.0068
     9 C(13)  Bbb    -0.0692    -9.289    -3.315    -3.099  0.2742  0.9610  0.0352
              Bcc     0.1441    19.336     6.899     6.450 -0.0162 -0.0319  0.9994
 
              Baa    -0.0795   -10.674    -3.809    -3.560  0.8855  0.4643  0.0166
    10 C(13)  Bbb    -0.0759   -10.191    -3.636    -3.399 -0.4644  0.8838  0.0574
              Bcc     0.1555    20.864     7.445     6.960  0.0119 -0.0585  0.9982
 
              Baa    -0.0355    -4.762    -1.699    -1.588  0.0476 -0.0281  0.9985
    11 C(13)  Bbb     0.0165     2.216     0.791     0.739  0.2386  0.9710  0.0160
              Bcc     0.0190     2.546     0.908     0.849  0.9700 -0.2374 -0.0530
 
              Baa    -0.0393    -5.274    -1.882    -1.759  0.7160  0.6976  0.0251
    12 C(13)  Bbb    -0.0338    -4.537    -1.619    -1.513 -0.6977  0.7140  0.0581
              Bcc     0.0731     9.811     3.501     3.273  0.0226 -0.0591  0.9980
 
              Baa    -0.0498    -6.689    -2.387    -2.231  0.3302  0.9424  0.0526
    13 C(13)  Bbb    -0.0463    -6.212    -2.217    -2.072  0.9439 -0.3301 -0.0122
              Bcc     0.0961    12.901     4.603     4.303 -0.0058 -0.0537  0.9985
 
              Baa    -0.0509    -6.833    -2.438    -2.279 -0.5468  0.8371 -0.0160
    14 C(13)  Bbb    -0.0479    -6.432    -2.295    -2.146  0.8361  0.5449 -0.0636
              Bcc     0.0989    13.265     4.733     4.425  0.0446  0.0482  0.9978
 
              Baa    -0.0402    -5.388    -1.923    -1.797  0.9294 -0.3666 -0.0422
    15 C(13)  Bbb    -0.0352    -4.726    -1.686    -1.576  0.3675  0.9299  0.0156
              Bcc     0.0754    10.114     3.609     3.374  0.0336 -0.0300  0.9990
 
              Baa    -0.0259    -3.472    -1.239    -1.158  0.0304 -0.0144  0.9994
    16 C(13)  Bbb     0.0114     1.534     0.547     0.512 -0.4647  0.8851  0.0269
              Bcc     0.0144     1.938     0.692     0.647  0.8850  0.4652 -0.0202
 
              Baa    -0.0942   -12.636    -4.509    -4.215  0.9465 -0.3222 -0.0158
    17 C(13)  Bbb    -0.0896   -12.023    -4.290    -4.010  0.3218  0.9465 -0.0238
              Bcc     0.1838    24.658     8.799     8.225  0.0226  0.0175  0.9996
 
              Baa    -0.0930   -12.474    -4.451    -4.161  0.8877  0.4602  0.0154
    18 C(13)  Bbb    -0.0865   -11.606    -4.141    -3.872 -0.4594  0.8829  0.0968
              Bcc     0.1795    24.081     8.593     8.032  0.0310 -0.0930  0.9952
 
              Baa    -0.0352    -4.730    -1.688    -1.578  0.3399  0.9385  0.0607
    19 C(13)  Bbb    -0.0294    -3.948    -1.409    -1.317  0.9402 -0.3375 -0.0462
              Bcc     0.0647     8.677     3.096     2.894  0.0228 -0.0728  0.9971
 
              Baa    -0.0026    -0.353    -0.126    -0.118  0.8453  0.4457 -0.2948
    20 C(13)  Bbb     0.0003     0.043     0.015     0.014  0.1357  0.3545  0.9251
              Bcc     0.0023     0.310     0.111     0.103 -0.5168  0.8220 -0.2392
 
              Baa    -0.1158   -15.544    -5.547    -5.185  0.2550  0.9640  0.0758
    21 C(13)  Bbb    -0.1099   -14.742    -5.260    -4.918  0.9668 -0.2531 -0.0340
              Bcc     0.2257    30.287    10.807    10.103  0.0135 -0.0820  0.9965
 
              Baa    -0.0966   -12.959    -4.624    -4.323  0.0120 -0.0608  0.9981
    22 C(13)  Bbb     0.0414     5.556     1.982     1.853 -0.1129  0.9917  0.0618
              Bcc     0.0552     7.403     2.642     2.469  0.9935  0.1134 -0.0050
 
              Baa    -0.0035    -1.879    -0.670    -0.627  0.0232 -0.1771  0.9839
    23 H(1)   Bbb    -0.0028    -1.491    -0.532    -0.497 -0.1105  0.9777  0.1786
              Bcc     0.0063     3.370     1.202     1.124  0.9936  0.1129 -0.0031
 
              Baa    -0.0657    -8.823    -3.148    -2.943 -0.0110 -0.0532  0.9985
    24 C(13)  Bbb     0.0279     3.739     1.334     1.247  0.9970  0.0756  0.0150
              Bcc     0.0379     5.083     1.814     1.696 -0.0762  0.9957  0.0522
 
              Baa    -0.0029    -1.521    -0.543    -0.507 -0.1286 -0.0618  0.9898
    25 H(1)   Bbb    -0.0019    -1.032    -0.368    -0.344  0.9789  0.1520  0.1367
              Bcc     0.0048     2.553     0.911     0.852 -0.1589  0.9864  0.0409
 
              Baa    -0.0437    -5.861    -2.091    -1.955  0.0031 -0.0226  0.9997
    26 C(13)  Bbb     0.0177     2.376     0.848     0.793 -0.1076  0.9939  0.0228
              Bcc     0.0260     3.485     1.243     1.162  0.9942  0.1077 -0.0006
 
              Baa    -0.0025    -1.341    -0.478    -0.447  0.0192 -0.1701  0.9852
    27 H(1)   Bbb    -0.0013    -0.694    -0.248    -0.231 -0.0811  0.9819  0.1711
              Bcc     0.0038     2.035     0.726     0.679  0.9965  0.0832 -0.0050
 
              Baa    -0.0779   -10.449    -3.728    -3.485  0.0108 -0.0383  0.9992
    28 C(13)  Bbb     0.0330     4.428     1.580     1.477  0.9881  0.1535 -0.0048
              Bcc     0.0449     6.021     2.149     2.009 -0.1532  0.9874  0.0395
 
              Baa    -0.0032    -1.716    -0.612    -0.572 -0.1700 -0.0514  0.9841
    29 H(1)   Bbb    -0.0023    -1.227    -0.438    -0.409  0.9835  0.0539  0.1727
              Bcc     0.0055     2.943     1.050     0.982 -0.0620  0.9972  0.0414
 
              Baa    -0.0037    -0.497    -0.177    -0.166 -0.5004  0.8655  0.0224
    30 C(13)  Bbb     0.0009     0.124     0.044     0.041  0.8401  0.4917 -0.2290
              Bcc     0.0028     0.374     0.133     0.125  0.2092  0.0958  0.9732
 
              Baa    -0.0013    -0.680    -0.243    -0.227  0.6661 -0.6527 -0.3610
    31 H(1)   Bbb    -0.0012    -0.629    -0.225    -0.210  0.2460 -0.2647  0.9324
              Bcc     0.0025     1.309     0.467     0.437  0.7041  0.7099  0.0158
 
              Baa    -0.0019    -1.027    -0.366    -0.343 -0.3381  0.5493  0.7642
    32 H(1)   Bbb    -0.0010    -0.520    -0.186    -0.173  0.0838  0.8263 -0.5569
              Bcc     0.0029     1.547     0.552     0.516  0.9374  0.1243  0.3254
 
              Baa    -0.0019    -1.026    -0.366    -0.342  0.3377 -0.5834  0.7387
    33 H(1)   Bbb    -0.0011    -0.563    -0.201    -0.188  0.0882  0.8010  0.5922
              Bcc     0.0030     1.589     0.567     0.530  0.9371  0.1348 -0.3219
 
              Baa    -0.0017    -0.226    -0.081    -0.075  0.9486 -0.3096 -0.0654
    34 C(13)  Bbb    -0.0003    -0.046    -0.016    -0.015  0.0772  0.0260  0.9967
              Bcc     0.0020     0.272     0.097     0.091  0.3068  0.9505 -0.0485
 
              Baa    -0.0013    -0.706    -0.252    -0.235 -0.3417  0.2243  0.9126
    35 H(1)   Bbb    -0.0009    -0.460    -0.164    -0.154  0.9341 -0.0260  0.3561
              Bcc     0.0022     1.166     0.416     0.389  0.1036  0.9742 -0.2006
 
              Baa    -0.0013    -0.702    -0.250    -0.234  0.2866 -0.2855  0.9145
    36 H(1)   Bbb    -0.0009    -0.478    -0.170    -0.159  0.9522 -0.0205 -0.3048
              Bcc     0.0022     1.180     0.421     0.393  0.1058  0.9582  0.2660
 
              Baa    -0.0010    -0.556    -0.198    -0.185 -0.0314 -0.0096  0.9995
    37 H(1)   Bbb    -0.0006    -0.333    -0.119    -0.111  0.9267 -0.3749  0.0255
              Bcc     0.0017     0.889     0.317     0.296  0.3744  0.9270  0.0207
 
              Baa    -0.0009    -0.118    -0.042    -0.039  0.0035 -0.3822  0.9241
    38 C(13)  Bbb    -0.0006    -0.077    -0.027    -0.026  0.5000  0.8010  0.3294
              Bcc     0.0015     0.195     0.069     0.065  0.8660 -0.4608 -0.1939
 
              Baa    -0.0010    -0.559    -0.199    -0.186  0.1776  0.0796  0.9809
    39 H(1)   Bbb    -0.0004    -0.239    -0.085    -0.080  0.1606  0.9810 -0.1087
              Bcc     0.0015     0.797     0.284     0.266  0.9709 -0.1768 -0.1614
 
              Baa    -0.0009    -0.490    -0.175    -0.164 -0.2207 -0.0439  0.9744
    40 H(1)   Bbb    -0.0003    -0.140    -0.050    -0.047  0.2881  0.9515  0.1081
              Bcc     0.0012     0.630     0.225     0.210  0.9318 -0.3046  0.1974
 
              Baa    -0.0011    -0.571    -0.204    -0.191  0.1920  0.1147  0.9747
    41 H(1)   Bbb     0.0003     0.145     0.052     0.048  0.4370  0.8793 -0.1896
              Bcc     0.0008     0.426     0.152     0.142  0.8787 -0.4623 -0.1187
 
              Baa    -0.0206    -2.770    -0.989    -0.924 -0.5778 -0.2263  0.7842
    42 C(13)  Bbb     0.0074     0.997     0.356     0.333  0.4675  0.6959  0.5452
              Bcc     0.0132     1.773     0.633     0.591 -0.6691  0.6816 -0.2963
 
              Baa    -0.0018    -0.939    -0.335    -0.313 -0.1571 -0.0840  0.9840
    43 H(1)   Bbb    -0.0007    -0.390    -0.139    -0.130  0.8642  0.4706  0.1781
              Bcc     0.0025     1.329     0.474     0.443 -0.4780  0.8783 -0.0013
 
              Baa    -0.0256    -3.440    -1.228    -1.148  0.6783  0.3677  0.6362
    44 C(13)  Bbb    -0.0238    -3.194    -1.140    -1.065 -0.3619  0.9207 -0.1463
              Bcc     0.0494     6.634     2.367     2.213 -0.6395 -0.1309  0.7575
 
              Baa    -0.0023    -1.232    -0.440    -0.411 -0.3117  0.8954 -0.3179
    45 H(1)   Bbb    -0.0008    -0.425    -0.152    -0.142 -0.5885  0.0807  0.8044
              Bcc     0.0031     1.657     0.591     0.553  0.7459  0.4379  0.5018
 
              Baa    -0.0034    -1.823    -0.650    -0.608  0.7563  0.1058  0.6457
    46 H(1)   Bbb    -0.0006    -0.320    -0.114    -0.107 -0.6074 -0.2534  0.7529
              Bcc     0.0040     2.143     0.765     0.715 -0.2432  0.9616  0.1274
 
              Baa    -0.0030    -0.402    -0.144    -0.134  0.9550 -0.2766 -0.1067
    47 C(13)  Bbb     0.0007     0.092     0.033     0.031  0.2722  0.9607 -0.0544
              Bcc     0.0023     0.310     0.111     0.103  0.1175  0.0230  0.9928
 
              Baa    -0.0012    -0.649    -0.232    -0.217  0.2127 -0.2249  0.9509
    48 H(1)   Bbb    -0.0010    -0.530    -0.189    -0.177  0.8056 -0.5104 -0.3010
              Bcc     0.0022     1.180     0.421     0.393  0.5530  0.8300  0.0726
 
              Baa    -0.0016    -0.861    -0.307    -0.287  0.2154 -0.1931  0.9572
    49 H(1)   Bbb    -0.0008    -0.402    -0.143    -0.134  0.9637  0.2005 -0.1764
              Bcc     0.0024     1.262     0.450     0.421 -0.1579  0.9605  0.2293
 
              Baa    -0.0015    -0.791    -0.282    -0.264  0.8429 -0.2472 -0.4779
    50 H(1)   Bbb    -0.0009    -0.489    -0.174    -0.163  0.5360  0.3071  0.7864
              Bcc     0.0024     1.280     0.457     0.427  0.0476  0.9190 -0.3913
 
              Baa    -0.0031    -0.410    -0.146    -0.137 -0.4645  0.7794 -0.4204
    51 C(13)  Bbb    -0.0008    -0.103    -0.037    -0.034  0.8727  0.3223 -0.3668
              Bcc     0.0038     0.512     0.183     0.171  0.1504  0.5373  0.8299
 
              Baa    -0.0012    -0.646    -0.230    -0.215 -0.1238 -0.0186  0.9921
    52 H(1)   Bbb    -0.0004    -0.227    -0.081    -0.076 -0.2865  0.9579 -0.0178
              Bcc     0.0016     0.872     0.311     0.291  0.9500  0.2865  0.1239
 
              Baa    -0.0042    -0.558    -0.199    -0.186  0.0421  0.4940  0.8684
    53 C(13)  Bbb     0.0015     0.196     0.070     0.065 -0.5565  0.7334 -0.3903
              Bcc     0.0027     0.363     0.129     0.121  0.8297  0.4669 -0.3058
 
              Baa    -0.0008    -0.431    -0.154    -0.144 -0.6640  0.6981 -0.2680
    54 H(1)   Bbb    -0.0006    -0.338    -0.121    -0.113  0.0432  0.3936  0.9183
              Bcc     0.0014     0.769     0.274     0.256  0.7465  0.5981 -0.2915
 
              Baa    -0.0004    -0.233    -0.083    -0.078 -0.1129  0.3747  0.9202
    55 H(1)   Bbb    -0.0003    -0.154    -0.055    -0.051  0.7144 -0.6131  0.3373
              Bcc     0.0007     0.387     0.138     0.129  0.6905  0.6955 -0.1985
 
              Baa    -0.0035    -0.474    -0.169    -0.158  0.3013  0.9514  0.0645
    56 C(13)  Bbb     0.0012     0.163     0.058     0.054  0.9526 -0.3033  0.0250
              Bcc     0.0023     0.311     0.111     0.104 -0.0433 -0.0539  0.9976
 
              Baa    -0.0019    -1.006    -0.359    -0.335 -0.1924 -0.6629  0.7235
    57 H(1)   Bbb    -0.0010    -0.549    -0.196    -0.183 -0.2152  0.7479  0.6280
              Bcc     0.0029     1.554     0.555     0.518  0.9574  0.0349  0.2866
 
              Baa    -0.0019    -1.010    -0.360    -0.337  0.2400  0.5325  0.8117
    58 H(1)   Bbb    -0.0010    -0.522    -0.186    -0.174 -0.2429  0.8425 -0.4809
              Bcc     0.0029     1.531     0.546     0.511  0.9399  0.0817 -0.3316
 
              Baa    -0.0012    -0.639    -0.228    -0.213  0.1249  0.0795  0.9890
    59 H(1)   Bbb    -0.0012    -0.618    -0.220    -0.206  0.4980  0.8571 -0.1318
              Bcc     0.0024     1.256     0.448     0.419  0.8581 -0.5090 -0.0674
 
              Baa    -0.0022    -0.292    -0.104    -0.097  0.8500  0.5267 -0.0097
    60 C(13)  Bbb     0.0002     0.033     0.012     0.011  0.0168 -0.0086  0.9998
              Bcc     0.0019     0.259     0.092     0.086 -0.5265  0.8500  0.0161
 
              Baa    -0.0015    -0.779    -0.278    -0.260  0.3686  0.2632  0.8916
    61 H(1)   Bbb    -0.0010    -0.508    -0.181    -0.169  0.8832  0.2000 -0.4241
              Bcc     0.0024     1.288     0.459     0.429 -0.2899  0.9438 -0.1588
 
              Baa    -0.0011    -0.586    -0.209    -0.195  0.0452 -0.0715  0.9964
    62 H(1)   Bbb    -0.0008    -0.411    -0.147    -0.137  0.7799  0.6259  0.0095
              Bcc     0.0019     0.997     0.356     0.332 -0.6243  0.7767  0.0841
 
              Baa    -0.0015    -0.789    -0.282    -0.263 -0.3672 -0.4293  0.8251
    63 H(1)   Bbb    -0.0009    -0.506    -0.180    -0.169  0.8891  0.0986  0.4470
              Bcc     0.0024     1.295     0.462     0.432 -0.2733  0.8978  0.3454
 
              Baa    -0.0004    -0.053    -0.019    -0.018  0.9662  0.2345 -0.1070
    64 C(13)  Bbb    -0.0003    -0.047    -0.017    -0.016 -0.2347  0.9720  0.0110
              Bcc     0.0007     0.100     0.036     0.033  0.1065  0.0145  0.9942
 
              Baa    -0.0004    -0.221    -0.079    -0.074  0.9375  0.2502 -0.2419
    65 H(1)   Bbb    -0.0004    -0.196    -0.070    -0.065 -0.2564  0.9666  0.0060
              Bcc     0.0008     0.417     0.149     0.139  0.2353  0.0564  0.9703
 
              Baa    -0.0003    -0.173    -0.062    -0.058 -0.4770  0.8726  0.1055
    66 H(1)   Bbb    -0.0003    -0.171    -0.061    -0.057  0.8733  0.4840 -0.0552
              Bcc     0.0006     0.344     0.123     0.115  0.0992 -0.0658  0.9929
 
              Baa    -0.0003    -0.169    -0.060    -0.056  0.9970  0.0241 -0.0731
    67 H(1)   Bbb    -0.0003    -0.163    -0.058    -0.054 -0.0324  0.9929 -0.1142
              Bcc     0.0006     0.332     0.118     0.111  0.0698  0.1163  0.9908
 
              Baa    -0.0007    -0.028    -0.010    -0.009  0.1107  0.9935  0.0269
    68 N(14)  Bbb    -0.0004    -0.016    -0.006    -0.005  0.9844 -0.1134  0.1346
              Bcc     0.0011     0.044     0.016     0.015 -0.1368 -0.0116  0.9905
 
              Baa    -0.0004    -0.235    -0.084    -0.078  0.9421 -0.2936  0.1622
    69 H(1)   Bbb    -0.0004    -0.225    -0.080    -0.075  0.2923  0.9558  0.0319
              Bcc     0.0009     0.460     0.164     0.154 -0.1644  0.0173  0.9862
 
              Baa    -0.0009    -0.120    -0.043    -0.040  0.9938 -0.1010 -0.0461
    70 C(13)  Bbb     0.0000     0.002     0.001     0.001  0.1096  0.9588  0.2621
              Bcc     0.0009     0.118     0.042     0.039  0.0177 -0.2655  0.9640
 
              Baa    -0.0013    -0.168    -0.060    -0.056  0.9007  0.4147  0.1297
    71 C(13)  Bbb    -0.0006    -0.075    -0.027    -0.025 -0.3687  0.8874 -0.2768
              Bcc     0.0018     0.243     0.087     0.081 -0.2298  0.2015  0.9521
 
              Baa    -0.0012    -0.661    -0.236    -0.220  0.9677  0.0234  0.2511
    72 H(1)   Bbb    -0.0003    -0.187    -0.067    -0.062  0.0079  0.9924 -0.1229
              Bcc     0.0016     0.847     0.302     0.283 -0.2521  0.1209  0.9601
 
              Baa    -0.0011    -0.042    -0.015    -0.014 -0.4378  0.7751 -0.4556
    73 N(14)  Bbb    -0.0000    -0.001    -0.000    -0.000 -0.2570  0.3778  0.8895
              Bcc     0.0011     0.044     0.016     0.015  0.8616  0.5065  0.0338
 
              Baa    -0.0013    -0.172    -0.061    -0.057 -0.6523  0.7564 -0.0486
    74 C(13)  Bbb    -0.0008    -0.110    -0.039    -0.037  0.7483  0.6325 -0.1998
              Bcc     0.0021     0.282     0.100     0.094  0.1204  0.1666  0.9786
 
              Baa    -0.0013    -0.702    -0.250    -0.234  0.9788  0.1382 -0.1512
    75 H(1)   Bbb    -0.0004    -0.208    -0.074    -0.069 -0.1528  0.9842 -0.0895
              Bcc     0.0017     0.910     0.325     0.303  0.1364  0.1107  0.9845
 

 ---------------------------------------------------------------------------------

 Unable to Open any file for archive entry.
 1\1\GINC-BGN1012\SP\UAPFD\Gen\C34H34Fe1N6(1+,2)\BECSLEIP\05-Sep-2024\0
 \\# apfd/gen scf=maxcycle=999 geom=check\\2v1k_III_D\\1,2\Fe,0,16.7711
 955137,-31.06588971,-3.2904921163\N,0,15.6640031368,-32.3452269156,-2.
 2113145659\N,0,16.5468612049,-29.6953986824,-1.8372116977\N,0,17.51317
 05167,-29.6446490653,-4.4915602844\N,0,16.6108758794,-32.2942168076,-4
 .8617523078\C,0,15.3257734293,-33.6200872298,-2.5525434021\C,0,14.7334
 259652,-34.3168345983,-1.433423018\C,0,14.7134660184,-33.4325172105,-0
 .4007868301\C,0,15.2922353516,-32.2079484112,-0.9057539069\C,0,16.0539
 405981,-29.9012998312,-0.5817800659\C,0,16.2338001551,-28.7368234545,0
 .2451618604\C,0,16.845933908,-27.7982615017,-0.5419268441\C,0,17.03123
 30096,-28.4220935905,-1.8368491113\C,0,17.8102992581,-28.3548949962,-4
 .1606349768\C,0,18.3321586438,-27.6351047946,-5.2928969202\C,0,18.3409
 968548,-28.5192370216,-6.3384908335\C,0,17.827873437,-29.7675366541,-5
 .8102403853\C,0,17.0881047256,-32.082455319,-6.1204910177\C,0,16.85476
 04855,-33.233599154,-6.9633142316\C,0,16.2324680112,-34.15644779,-6.18
 25455209\C,0,16.0890911486,-33.5530955172,-4.8765922695\C,0,15.5018891
 998,-34.1867889029,-3.800105778\H,0,15.1542366567,-35.1982914576,-3.94
 34198652\C,0,15.4583667438,-31.0706723023,-0.1426464318\H,0,15.1010982
 069,-31.0978569764,0.8754964274\C,0,17.6260247379,-27.7924298623,-2.91
 11749722\H,0,17.9247538531,-26.7635523346,-2.7818096185\C,0,17.6784048
 625,-30.9157435993,-6.5648330529\H,0,17.9887832963,-30.8799376542,-7.5
 978788182\C,0,14.2037882482,-33.6114785334,0.9882397262\H,0,13.8102181
 789,-34.6149923546,1.1290876387\H,0,13.4062409454,-32.8984575394,1.197
 339342\H,0,15.0003067331,-33.4503851542,1.7154554427\C,0,14.2576566307
 ,-35.7281048734,-1.4784460655\H,0,15.0738859055,-36.3993731329,-1.7462
 489769\H,0,13.4685659294,-35.8418890114,-2.2218738562\H,0,13.863742468
 ,-36.0348062193,-0.5126376107\C,0,15.8692437841,-28.6436039133,1.68581
 08986\H,0,16.0755410262,-29.5818667755,2.19918598\H,0,14.8076670968,-2
 8.4212428548,1.8042908273\H,0,16.4414183212,-27.8515290283,2.164436457
 9\C,0,17.2680682905,-26.4557704755,-0.2057916921\H,0,18.1698003119,-26
 .1115141349,-0.6990440467\C,0,16.641992717,-25.6387553474,0.6345912532
 \H,0,15.7177417063,-25.908908092,1.1146074088\H,0,17.0211580202,-24.65
 33605369,0.8492009221\C,0,18.8106294257,-26.225923406,-5.2660745337\H,
 0,19.4850932583,-26.0451197521,-6.100542782\H,0,19.3402978726,-26.0163
 981562,-4.3378284625\H,0,17.9740039944,-25.5296277777,-5.3413591097\C,
 0,18.7684554492,-28.3147977743,-7.7056289805\H,0,19.2275019348,-29.170
 4453524,-8.1876503441\C,0,18.6318817899,-27.185685303,-8.3926638958\H,
 0,18.1401022003,-26.321483001,-7.981624293\H,0,18.9854968272,-27.09660
 77396,-9.4065028338\C,0,17.2437071344,-33.3162020119,-8.3992730186\H,0
 ,18.3204360469,-33.1881208067,-8.5138330841\H,0,16.7469836054,-32.5351
 449524,-8.9751577583\H,0,16.9668554793,-34.279673549,-8.8199196261\C,0
 ,15.7533401007,-35.5228927003,-6.5335900177\H,0,16.2353932642,-36.2710
 09707,-5.9038600472\H,0,15.9748061012,-35.7554089799,-7.5721864178\H,0
 ,14.6760368388,-35.600604581,-6.3868632653\C,0,22.0666730121,-32.78151
 61049,-2.9493427048\H,0,22.2413472491,-32.6620327933,-4.0138463374\H,0
 ,22.2549859719,-33.8203361027,-2.6789437867\H,0,22.7735461648,-32.1545
 467626,-2.406457976\N,0,20.1721734656,-32.4233210901,-1.3521977695\H,0
 ,20.6829905604,-32.6939272403,-0.5278846686\C,0,20.6687580574,-32.3980
 483968,-2.6286055037\C,0,18.8822255184,-32.0196469598,-1.4046791215\H,
 0,18.2413928287,-31.9410464038,-0.5495065604\N,0,18.5296185439,-31.738
 9022659,-2.6389326687\C,0,19.634171903,-31.9717294108,-3.4110102459\H,
 0,19.6068342795,-31.8158715967,-4.4704272811\\Version=ES64L-G16RevC.02
 \State=2-A\HF=-2906.8100874\S2=0.786955\S2-1=0.\S2A=0.751205\RMSD=1.66
 3e-09\Dipole=1.3590811,-1.0843836,0.9278603\Quadrupole=-17.11415,5.826
 6546,11.2874955,6.4814191,-6.4430647,1.2441624\PG=C01 [X(C34H34Fe1N6)]
 \\@
 The archive entry for this job was punched.


 IT IS BETTER TO THINK YOU ARE HALF DRY THAN TO KNOW YOU
 ARE ALL WET.  -- SNOOPY
 Job cpu time:       0 days  8 hours 56 minutes 16.5 seconds.
 Elapsed time:       0 days  0 hours  9 minutes 21.3 seconds.
 File lengths (MBytes):  RWF=    408 Int=      0 D2E=      0 Chk=    150 Scr=      1
 Normal termination of Gaussian 16 at Thu Sep  5 18:30:18 2024.
