 Entering Gaussian System, Link 0=g16
 Input=2veb12re.com
 Output=2veb12re.log
 Initial command:
 /sw/chem/gaussian/g16_C02/a100/g16/l1.exe "/local/becsleip_8006115/Gau-101802.inp" -scrdir="/local/becsleip_8006115/"
 Entering Link 1 = /sw/chem/gaussian/g16_C02/a100/g16/l1.exe PID=    101803.
  
 Copyright (c) 1988-2021, Gaussian, Inc.  All Rights Reserved.
  
 This is part of the Gaussian(R) 16 program.  It is based on
 the Gaussian(R) 09 system (copyright 2009, Gaussian, Inc.),
 the Gaussian(R) 03 system (copyright 2003, Gaussian, Inc.),
 the Gaussian(R) 98 system (copyright 1998, Gaussian, Inc.),
 the Gaussian(R) 94 system (copyright 1995, Gaussian, Inc.),
 the Gaussian 92(TM) system (copyright 1992, Gaussian, Inc.),
 the Gaussian 90(TM) system (copyright 1990, Gaussian, Inc.),
 the Gaussian 88(TM) system (copyright 1988, Gaussian, Inc.),
 the Gaussian 86(TM) system (copyright 1986, Carnegie Mellon
 University), and the Gaussian 82(TM) system (copyright 1983,
 Carnegie Mellon University). Gaussian is a federally registered
 trademark of Gaussian, Inc.
  
 This software contains proprietary and confidential information,
 including trade secrets, belonging to Gaussian, Inc.
  
 This software is provided under written license and may be
 used, copied, transmitted, or stored only in accord with that
 written license.
  
 The following legend is applicable only to US Government
 contracts under FAR:
  
                    RESTRICTED RIGHTS LEGEND
  
 Use, reproduction and disclosure by the US Government is
 subject to restrictions as set forth in subparagraphs (a)
 and (c) of the Commercial Computer Software - Restricted
 Rights clause in FAR 52.227-19.
  
 Gaussian, Inc.
 340 Quinnipiac St., Bldg. 40, Wallingford CT 06492
  
  
 ---------------------------------------------------------------
 Warning -- This program may not be used in any manner that
 competes with the business of Gaussian, Inc. or will provide
 assistance to any competitor of Gaussian, Inc.  The licensee
 of this program is prohibited from giving any competitor of
 Gaussian, Inc. access to this program.  By using this program,
 the user acknowledges that Gaussian, Inc. is engaged in the
 business of creating and licensing software in the field of
 computational chemistry and represents and warrants to the
 licensee that it is not a competitor of Gaussian, Inc. and that
 it will not use this program in any manner prohibited above.
 ---------------------------------------------------------------
  

 Cite this work as:
 Gaussian 16, Revision C.02,
 M. J. Frisch, G. W. Trucks, H. B. Schlegel, G. E. Scuseria, 
 M. A. Robb, J. R. Cheeseman, G. Scalmani, V. Barone, 
 G. A. Petersson, H. Nakatsuji, X. Li, M. Caricato, A. V. Marenich, 
 J. Bloino, B. G. Janesko, R. Gomperts, B. Mennucci, H. P. Hratchian, 
 J. V. Ortiz, A. F. Izmaylov, J. L. Sonnenberg, D. Williams-Young, 
 F. Ding, F. Lipparini, F. Egidi, J. Goings, B. Peng, A. Petrone, 
 T. Henderson, D. Ranasinghe, V. G. Zakrzewski, J. Gao, N. Rega, 
 G. Zheng, W. Liang, M. Hada, M. Ehara, K. Toyota, R. Fukuda, 
 J. Hasegawa, M. Ishida, T. Nakajima, Y. Honda, O. Kitao, H. Nakai, 
 T. Vreven, K. Throssell, J. A. Montgomery, Jr., J. E. Peralta, 
 F. Ogliaro, M. J. Bearpark, J. J. Heyd, E. N. Brothers, K. N. Kudin, 
 V. N. Staroverov, T. A. Keith, R. Kobayashi, J. Normand, 
 K. Raghavachari, A. P. Rendell, J. C. Burant, S. S. Iyengar, 
 J. Tomasi, M. Cossi, J. M. Millam, M. Klene, C. Adamo, R. Cammi, 
 J. W. Ochterski, R. L. Martin, K. Morokuma, O. Farkas, 
 J. B. Foresman, and D. J. Fox, Gaussian, Inc., Wallingford CT, 2019.
 
 ******************************************
 Gaussian 16:  ES64L-G16RevC.02  7-Dec-2021
                 5-Sep-2024 
 ******************************************
 %mem=16GB
 %CPU=0-71
 SetSPE:  set environment variable "OMP_PROC_BIND" = "true"
 SetSPE:  set environment variable "OMP_PLACES" = "{0},{1},{2},{3},{4},{5},{6},{7},{8},{9},{10},{11},{12},{13},{14},{15},{16},{17},{18},{19},{20},{21},{22},{23},{24},{25},{26},{27},{28},{29},{30},{31},{32},{33},{34},{35},{36},{37},{38},{39},{40},{41},{42},{43},{44},{45},{46},{47},{48},{49},{50},{51},{52},{53},{54},{55},{56},{57},{58},{59},{60},{61},{62},{63},{64},{65},{66},{67},{68},{69},{70},{71}"
 Will use up to   72 processors via shared memory.
 %gpucpu=0,1,2,3=0,1,2,3
 Will use    4 GPUs:
 Thread  CPU   GPU
      0    0     0
      1    1     1
      2    2     2
      3    3     3
      4    4    -1
      5    5    -1
      6    6    -1
      7    7    -1
      8    8    -1
      9    9    -1
     10   10    -1
     11   11    -1
     12   12    -1
     13   13    -1
     14   14    -1
     15   15    -1
     16   16    -1
     17   17    -1
     18   18    -1
     19   19    -1
     20   20    -1
     21   21    -1
     22   22    -1
     23   23    -1
     24   24    -1
     25   25    -1
     26   26    -1
     27   27    -1
     28   28    -1
     29   29    -1
     30   30    -1
     31   31    -1
     32   32    -1
     33   33    -1
     34   34    -1
     35   35    -1
     36   36    -1
     37   37    -1
     38   38    -1
     39   39    -1
     40   40    -1
     41   41    -1
     42   42    -1
     43   43    -1
     44   44    -1
     45   45    -1
     46   46    -1
     47   47    -1
     48   48    -1
     49   49    -1
     50   50    -1
     51   51    -1
     52   52    -1
     53   53    -1
     54   54    -1
     55   55    -1
     56   56    -1
     57   57    -1
     58   58    -1
     59   59    -1
     60   60    -1
     61   61    -1
     62   62    -1
     63   63    -1
     64   64    -1
     65   65    -1
     66   66    -1
     67   67    -1
     68   68    -1
     69   69    -1
     70   70    -1
     71   71    -1
 SetGPE:  set environment variable "OMP_PROC_BIND" = "true"
 SetGPE:  set environment variable "OMP_PLACES" = "{0},{1},{2},{3},{4},{5},{6},{7},{8},{9},{10},{11},{12},{13},{14},{15},{16},{17},{18},{19},{20},{21},{22},{23},{24},{25},{26},{27},{28},{29},{30},{31},{32},{33},{34},{35},{36},{37},{38},{39},{40},{41},{42},{43},{44},{45},{46},{47},{48},{49},{50},{51},{52},{53},{54},{55},{56},{57},{58},{59},{60},{61},{62},{63},{64},{65},{66},{67},{68},{69},{70},{71}"
 %oldchk=2veb_II_S.chk
 %chk=2veb_II_Sre.chk
 Properties for Device   0
 Minimum vector length:                              32
 Maximum vector length:                            1024
 Number of SMPs:                                    108
 Maximum number of threads per SMP:                2048
 Number of ASync Engines:                             5
 Memory:                                           9207742464
 Properties for Device   1
 Minimum vector length:                              32
 Maximum vector length:                            1024
 Number of SMPs:                                    108
 Maximum number of threads per SMP:                2048
 Number of ASync Engines:                             5
 Memory:                                           9207742464
 Properties for Device   2
 Minimum vector length:                              32
 Maximum vector length:                            1024
 Number of SMPs:                                    108
 Maximum number of threads per SMP:                2048
 Number of ASync Engines:                             5
 Memory:                                           9207742464
 Properties for Device   3
 Minimum vector length:                              32
 Maximum vector length:                            1024
 Number of SMPs:                                    108
 Maximum number of threads per SMP:                2048
 Number of ASync Engines:                             5
 Memory:                                           9207742464
   8286968217 words of memory will be used on each GPU.
 Copying data from "2veb_II_S.chk" to current chk file "2veb_II_Sre.chk"
 IOpt=  2 FromEx=T IUOpen= 4 IOptOp= 5 NList=   0 IFRang= 0 IUIn= 4 IUOut= 2.
 --------------------------------------
 # apfd/gen scf=maxcycle=999 geom=check
 --------------------------------------
 1/29=2,38=1,172=1/1;
 2/12=2,40=1/2;
 3/5=7,11=2,14=-4,25=1,30=1,74=-44/1,2,3;
 4//1;
 5/5=2,7=999,38=5/2;
 6/7=2,8=2,9=2,10=2,28=1/1;
 99/5=1,9=1/99;
 ----------
 2veb_III_D
 ----------
 Structure from the checkpoint file:  "2veb_II_Sre.chk"
 Charge =  1 Multiplicity = 2
 Z-Matrix found in chk file.
 Fe,0,10.6621827722,49.2527922912,8.1666229445
 N,0,10.3187449823,48.8885029599,10.0818308132
 N,0,12.2248045827,50.3779226457,8.6638473615
 N,0,11.1340392885,49.4952338546,6.2458991417
 N,0,9.1459549796,48.0556918304,7.6677922222
 C,0,9.5022782508,47.9354479745,10.5989651326
 C,0,9.5191292147,47.9983543344,12.0445266227
 C,0,10.3409473131,49.0329702756,12.3750191055
 C,0,10.8412952694,49.5727714849,11.1301201894
 C,0,12.3847333463,50.9958872194,9.861834417
 C,0,13.4239255412,51.9952933733,9.7737074985
 C,0,13.9129195653,51.9272646541,8.5032192163
 C,0,13.1216224972,50.9328170124,7.8130870151
 C,0,12.3014127431,49.9530234462,5.7269483834
 C,0,12.2700280253,49.8792062194,4.2789438086
 C,0,11.0239882341,49.4106531142,3.9507769674
 C,0,10.3472488602,49.1428910892,5.1966168041
 C,0,8.5931674723,47.9570804405,6.4367064239
 C,0,7.5048398968,46.9974817578,6.4607582659
 C,0,7.4378853522,46.5262316795,7.7479667509
 C,0,8.4589765516,47.2209076878,8.4904302529
 C,0,8.6790381973,47.1020347706,9.8554477469
 H,0,8.0988919257,46.3688620877,10.3953673705
 C,0,11.7417231032,50.6210641685,11.0292195127
 H,0,12.0174869834,51.1326035764,11.9391799637
 C,0,13.2808918658,50.5867616617,6.4770248557
 H,0,14.1470625352,50.973080223,5.9618457636
 C,0,9.1023031565,48.5389714036,5.287001059
 H,0,8.5733982097,48.3560982205,4.3639207983
 C,0,8.7600746793,47.0740165304,12.9323306259
 H,0,9.0460832739,46.0419310742,12.7329856096
 H,0,7.6870720446,47.1672043748,12.7608642359
 H,0,8.9605608472,47.2896704286,13.9786129141
 C,0,10.720017572,49.5441863133,13.7220797888
 H,0,10.4882167876,50.6057567824,13.8115110253
 H,0,11.7897822384,49.4165080949,13.8854528165
 H,0,10.1872551802,49.0091043275,14.5039959418
 C,0,6.4735490704,45.5498592858,8.3240875202
 H,0,5.5700612104,45.5136709442,7.7186154293
 H,0,6.2031083775,45.8273320931,9.3413223997
 H,0,6.9093494301,44.5504051997,8.352761792
 C,0,6.6851010539,46.6639283336,5.3165685786
 H,0,6.5274652534,47.4703426241,4.6092765816
 C,0,6.1378399714,45.4774596065,5.0734431871
 H,0,6.3026239516,44.6280311534,5.712184972
 H,0,5.5269903475,45.3085803734,4.2022775089
 C,0,10.4289122,49.2311477556,2.598491759
 H,0,9.3750787727,49.5051800717,2.602333349
 H,0,10.5062004893,48.1920213857,2.276112251
 H,0,10.9502055562,49.8553135372,1.8755506367
 C,0,13.3618370173,50.2695000698,3.4141339241
 H,0,14.0041344476,51.0540853485,3.7957556945
 C,0,13.6362005511,49.7337172604,2.2293718142
 H,0,14.4667364456,50.0787367886,1.6364630278
 H,0,13.0672791371,48.916173352,1.8235284246
 C,0,15.0102673609,52.7112114707,7.8706001619
 H,0,15.4702498047,53.3847308957,8.5893501319
 H,0,14.6295841981,53.3026066659,7.0370005496
 H,0,15.779319616,52.04178953,7.4864400162
 C,0,13.8543204506,52.8624517395,10.9062454173
 H,0,14.5855907498,53.5956697692,10.5762386119
 H,0,14.3048374111,52.2604321318,11.6952455602
 H,0,13.0012367218,53.3918571334,11.3298430421
 O,0,11.6437335153,47.8867165797,8.0757594489
 O,0,12.4610986727,47.6278579798,9.0231298591
 C,0,8.4487498689,54.5173152418,7.3970355273
 H,0,8.5438536624,55.2035923816,8.2385613749
 H,0,7.4558892766,54.6430873479,6.9655193721
 H,0,9.1900554455,54.7802498709,6.6488427261
 N,0,7.8449120094,52.497008927,8.7489050681
 H,0,7.047315464,52.9141518642,9.2009847137
 C,0,8.6592215754,53.1151762887,7.8349917496
 C,0,8.3088303424,51.240836127,8.9257523338
 H,0,7.8681108411,50.5230924761,9.5873335722
 N,0,9.3632460772,51.0250454295,8.1831223763
 C,0,9.5958283171,52.1794941541,7.4978176318
 H,0,10.4150919974,52.2548614293,6.8125425391
 Recover connectivity data from disk.
 Stoichiometry    C34H34FeN6O2(1+,2)
 Framework group  C1[X(C34H34FeN6O2)]
 Deg. of freedom   225
 Full point group                 C1      NOp   1
 Largest Abelian subgroup         C1      NOp   1
 Largest concise Abelian subgroup C1      NOp   1
                         Standard orientation:                         
 ---------------------------------------------------------------------
 Center     Atomic      Atomic             Coordinates (Angstroms)
 Number     Number       Type             X           Y           Z
 ---------------------------------------------------------------------
      1         26           0       -0.044036   -0.155643   -0.365977
      2          7           0       -0.756447   -1.996194   -0.519338
      3          7           0        1.801474   -0.851999   -0.619189
      4          7           0        0.682741    1.699591   -0.388534
      5          7           0       -1.902990    0.549015   -0.196939
      6          6           0       -2.051486   -2.358699   -0.703248
      7          6           0       -2.160704   -3.800637   -0.755920
      8          6           0       -0.903335   -4.288842   -0.566927
      9          6           0       -0.034182   -3.141027   -0.430543
     10          6           0        2.195052   -2.121682   -0.344175
     11          6           0        3.636795   -2.199819   -0.302095
     12          6           0        4.096174   -0.952637   -0.604405
     13          6           0        2.928726   -0.113936   -0.762537
     14          6           0        1.907577    2.108698   -0.805728
     15          6           0        1.999086    3.555004   -0.751162
     16          6           0        0.804838    3.990693   -0.237550
     17          6           0       -0.013675    2.816633   -0.054767
     18          6           0       -2.237359    1.805614    0.177265
     19          6           0       -3.681645    1.944595    0.201488
     20          6           0       -4.190095    0.727895   -0.178756
     21          6           0       -3.058341   -0.136336   -0.399414
     22          6           0       -3.129364   -1.485153   -0.717972
     23          1           0       -4.106299   -1.907005   -0.900356
     24          6           0        1.339098   -3.206440   -0.258234
     25          1           0        1.779965   -4.182590   -0.122164
     26          6           0        2.967224    1.246075   -1.043733
     27          1           0        3.921775    1.673035   -1.311019
     28          6           0       -1.344492    2.853555    0.332973
     29          1           0       -1.752114    3.813857    0.610325
     30          6           0       -3.436190   -4.536687   -0.979808
     31          1           0       -3.889011   -4.226486   -1.920801
     32          1           0       -4.146809   -4.331770   -0.178279
     33          1           0       -3.263108   -5.609015   -1.019351
     34          6           0       -0.435869   -5.702880   -0.527164
     35          1           0        0.089006   -5.909973    0.405724
     36          1           0        0.250334   -5.895461   -1.351437
     37          1           0       -1.273444   -6.390718   -0.610163
     38          6           0       -5.616460    0.316069   -0.283864
     39          1           0       -6.238923    0.959759    0.334521
     40          1           0       -5.746571   -0.714678    0.040987
     41          1           0       -5.962803    0.389750   -1.315499
     42          6           0       -4.379149    3.154904    0.577040
     43          1           0       -3.879133    3.765611    1.320301
     44          6           0       -5.544749    3.563021    0.085990
     45          1           0       -6.060346    3.025192   -0.689621
     46          1           0       -6.009419    4.473669    0.425679
     47          6           0        0.399159    5.379089    0.112870
     48          1           0       -0.196853    5.387455    1.024119
     49          1           0       -0.198489    5.821133   -0.685315
     50          1           0        1.280850    5.998161    0.265658
     51          6           0        3.162371    4.318520   -1.146235
     52          1           0        4.115148    3.817562   -1.023710
     53          6           0        3.142515    5.546476   -1.653907
     54          1           0        4.052085    6.057049   -1.922917
     55          1           0        2.224715    6.072285   -1..848654
     56          6           0        5.499117   -0.467231   -0.727221
     57          1           0        6.205322   -1.281259   -0.584231
     58          1           0        5.705770    0.304331    0.015439
     59          1           0        5.664958   -0.038367   -1.715006
     60          6           0        4.403156   -3.446356   -0.021594
     61          1           0        5.467926   -3.239185    0.046338
     62          1           0        4.246027   -4.175405   -0.816398
     63          1           0        4.077701   -3.893787    0.917204
     64          8           0       -0.217888    0.057454   -2.027972
     65          8           0        0.106093   -0.885925   -2.826519
     66          6           0        1.910853    0.066153    5.050291
     67          1           0        2.342337   -0.855490    5.440911
     68          1           0        1.310473    0.521583    5.837644
     69          1           0        2.717527    0.744489    4.790294
     70          7           0       -0.031517   -1.004271    3.886161
     71          1           0       -0.393907   -1.468759    4.703149
     72          6           0        1.084063   -0.207681    3.848821
     73          6           0       -0.544617   -1.047704    2.637439
     74          1           0       -1.422138   -1.598072    2.365167
     75          7           0        0.174122   -0.330459    1.813526
     76          6           0        1.191165    0.199578    2.549172
     77          1           0        1.923507    0.834845    2.094655
 ---------------------------------------------------------------------
 Rotational constants (GHZ):           0.0899843           0.0899237           0.0600694
 General basis read from cards:  (5D, 7F)
 There are   734 symmetry adapted cartesian basis functions of A   symmetry.
 There are   689 symmetry adapted basis functions of A   symmetry.
   689 basis functions,  1398 primitive gaussians,   734 cartesian basis functions
   161 alpha electrons      160 beta electrons
       nuclear repulsion energy      6225.7821616298 Hartrees.
 NAtoms=   77 NActive=   77 NUniq=   77 SFac= 1.00D+00 NAtFMM=   60 NAOKFM=T Big=T
 Integral buffers will be    131072 words long.
 Raffenetti 2 integral format.
 Two-electron integral symmetry is turned on.
 R6APFD:  NTU= -4 IXU= 1 FactS= 1.050
 Nuclear repulsion after empirical dispersion term =     6225.6265589838 Hartrees.
 One-electron integrals computed using PRISM.
 NBasis=   689 RedAO= T EigKep=  2.75D-04  NBF=   689
 NBsUse=   689 1.00D-06 EigRej= -1.00D+00 NBFU=   689
 ExpMin= 4.20D-02 ExpMax= 3.01D+05 ExpMxC= 2.91D+03 IAcc=3 IRadAn=         5 AccDes= 0.00D+00
 Harris functional with IExCor= 3731 and IRadAn=       5 diagonalized for initial guess.
 HarFok:  IExCor= 3731 AccDes= 0.00D+00 IRadAn=         5 IDoV= 1 UseB2=F ITyADJ=14
 ICtDFT=  3500011 ScaDFX=  1.000000  1.000000  1.000000  1.000000
 FoFCou: FMM=F IPFlag=           0 FMFlag=      100000 FMFlg1=        2001
         NFxFlg=           0 DoJE=T BraDBF=F KetDBF=T FulRan=T
         wScrn=  0.000000 ICntrl=       500 IOpCl=  0 I1Cent=   200000004 NGrid=           0
         NMat0=    1 NMatS0=      1 NMatT0=    0 NMatD0=    1 NMtDS0=    0 NMtDT0=    0
 Petite list used in FoFCou.
 Initial guess <Sx>= 0.0000 <Sy>= 0.0000 <Sz>= 0.5000 <S**2>= 0.7500 S= 0.5000
 Requested convergence on RMS density matrix=1.00D-08 within 999 cycles.
 Requested convergence on MAX density matrix=1.00D-06.
 Requested convergence on             energy=1.00D-06.
 No special actions if energy rises.
 EnCoef did   100 forward-backward iterations
 EnCoef did   100 forward-backward iterations
 EnCoef did   100 forward-backward iterations
 EnCoef did   100 forward-backward iterations
 EnCoef did     3 forward-backward iterations
 EnCoef did     9 forward-backward iterations
 Restarting incremental Fock formation. Restarting incremental Fock formation.
 SCF Done:  E(UAPFD) =  -3057.03043047     A.U. after   44 cycles
            NFock= 44  Conv=0.76D-08     -V/T= 2.0037
 <Sx>= 0.0000 <Sy>= 0.0000 <Sz>= 0.5000 <S**2>= 1.6317 S= 0.8718
 <L.S>=  0.00000000000    
 Annihilation of the first spin contaminant:
 S**2 before annihilation     1.6317,   after     0.9832

 **********************************************************************

            Population analysis using the SCF Density.

 **********************************************************************

 Orbital symmetries:
 Alpha Orbitals:
       Occupied  (A) (A) (A) (A) (A) (A) (A) (A) (A) (A) (A) (A)
                 (A) (A) (A) (A) (A) (A) (A) (A) (A) (A) (A) (A)
                 (A) (A) (A) (A) (A) (A) (A) (A) (A) (A) (A) (A)
                 (A) (A) (A) (A) (A) (A) (A) (A) (A) (A) (A) (A)
                 (A) (A) (A) (A) (A) (A) (A) (A) (A) (A) (A) (A)
                 (A) (A) (A) (A) (A) (A) (A) (A) (A) (A) (A) (A)
                 (A) (A) (A) (A) (A) (A) (A) (A) (A) (A) (A) (A)
                 (A) (A) (A) (A) (A) (A) (A) (A) (A) (A) (A) (A)
                 (A) (A) (A) (A) (A) (A) (A) (A) (A) (A) (A) (A)
                 (A) (A) (A) (A) (A) (A) (A) (A) (A) (A) (A) (A)
                 (A) (A) (A) (A) (A) (A) (A) (A) (A) (A) (A) (A)
                 (A) (A) (A) (A) (A) (A) (A) (A) (A) (A) (A) (A)
                 (A) (A) (A) (A) (A) (A) (A) (A) (A) (A) (A) (A)
                 (A) (A) (A) (A) (A)
       Virtual   (A) (A) (A) (A) (A) (A) (A) (A) (A) (A) (A) (A)
                 (A) (A) (A) (A) (A) (A) (A) (A) (A) (A) (A) (A)
                 (A) (A) (A) (A) (A) (A) (A) (A) (A) (A) (A) (A)
                 (A) (A) (A) (A) (A) (A) (A) (A) (A) (A) (A) (A)
                 (A) (A) (A) (A) (A) (A) (A) (A) (A) (A) (A) (A)
                 (A) (A) (A) (A) (A) (A) (A) (A) (A) (A) (A) (A)
                 (A) (A) (A) (A) (A) (A) (A) (A) (A) (A) (A) (A)
                 (A) (A) (A) (A) (A) (A) (A) (A) (A) (A) (A) (A)
                 (A) (A) (A) (A) (A) (A) (A) (A) (A) (A) (A) (A)
                 (A) (A) (A) (A) (A) (A) (A) (A) (A) (A) (A) (A)
                 (A) (A) (A) (A) (A) (A) (A) (A) (A) (A) (A) (A)
                 (A) (A) (A) (A) (A) (A) (A) (A) (A) (A) (A) (A)
                 (A) (A) (A) (A) (A) (A) (A) (A) (A) (A) (A) (A)
                 (A) (A) (A) (A) (A) (A) (A) (A) (A) (A) (A) (A)
                 (A) (A) (A) (A) (A) (A) (A) (A) (A) (A) (A) (A)
                 (A) (A) (A) (A) (A) (A) (A) (A) (A) (A) (A) (A)
                 (A) (A) (A) (A) (A) (A) (A) (A) (A) (A) (A) (A)
                 (A) (A) (A) (A) (A) (A) (A) (A) (A) (A) (A) (A)
                 (A) (A) (A) (A) (A) (A) (A) (A) (A) (A) (A) (A)
                 (A) (A) (A) (A) (A) (A) (A) (A) (A) (A) (A) (A)
                 (A) (A) (A) (A) (A) (A) (A) (A) (A) (A) (A) (A)
                 (A) (A) (A) (A) (A) (A) (A) (A) (A) (A) (A) (A)
                 (A) (A) (A) (A) (A) (A) (A) (A) (A) (A) (A) (A)
                 (A) (A) (A) (A) (A) (A) (A) (A) (A) (A) (A) (A)
                 (A) (A) (A) (A) (A) (A) (A) (A) (A) (A) (A) (A)
                 (A) (A) (A) (A) (A) (A) (A) (A) (A) (A) (A) (A)
                 (A) (A) (A) (A) (A) (A) (A) (A) (A) (A) (A) (A)
                 (A) (A) (A) (A) (A) (A) (A) (A) (A) (A) (A) (A)
                 (A) (A) (A) (A) (A) (A) (A) (A) (A) (A) (A) (A)
                 (A) (A) (A) (A) (A) (A) (A) (A) (A) (A) (A) (A)
                 (A) (A) (A) (A) (A) (A) (A) (A) (A) (A) (A) (A)
                 (A) (A) (A) (A) (A) (A) (A) (A) (A) (A) (A) (A)
                 (A) (A) (A) (A) (A) (A) (A) (A) (A) (A) (A) (A)
                 (A) (A) (A) (A) (A) (A) (A) (A) (A) (A) (A) (A)
                 (A) (A) (A) (A) (A) (A) (A) (A) (A) (A) (A) (A)
                 (A) (A) (A) (A) (A) (A) (A) (A) (A) (A) (A) (A)
                 (A) (A) (A) (A) (A) (A) (A) (A) (A) (A) (A) (A)
                 (A) (A) (A) (A) (A) (A) (A) (A) (A) (A) (A) (A)
                 (A) (A) (A) (A) (A) (A) (A) (A) (A) (A) (A) (A)
                 (A) (A) (A) (A) (A) (A) (A) (A) (A) (A) (A) (A)
                 (A) (A) (A) (A) (A) (A) (A) (A) (A) (A) (A) (A)
                 (A) (A) (A) (A) (A) (A) (A) (A) (A) (A) (A) (A)
                 (A) (A) (A) (A) (A) (A) (A) (A) (A) (A) (A) (A)
                 (A) (A) (A) (A) (A) (A) (A) (A) (A) (A) (A) (A)
 Beta  Orbitals:
       Occupied  (A) (A) (A) (A) (A) (A) (A) (A) (A) (A) (A) (A)
                 (A) (A) (A) (A) (A) (A) (A) (A) (A) (A) (A) (A)
                 (A) (A) (A) (A) (A) (A) (A) (A) (A) (A) (A) (A)
                 (A) (A) (A) (A) (A) (A) (A) (A) (A) (A) (A) (A)
                 (A) (A) (A) (A) (A) (A) (A) (A) (A) (A) (A) (A)
                 (A) (A) (A) (A) (A) (A) (A) (A) (A) (A) (A) (A)
                 (A) (A) (A) (A) (A) (A) (A) (A) (A) (A) (A) (A)
                 (A) (A) (A) (A) (A) (A) (A) (A) (A) (A) (A) (A)
                 (A) (A) (A) (A) (A) (A) (A) (A) (A) (A) (A) (A)
                 (A) (A) (A) (A) (A) (A) (A) (A) (A) (A) (A) (A)
                 (A) (A) (A) (A) (A) (A) (A) (A) (A) (A) (A) (A)
                 (A) (A) (A) (A) (A) (A) (A) (A) (A) (A) (A) (A)
                 (A) (A) (A) (A) (A) (A) (A) (A) (A) (A) (A) (A)
                 (A) (A) (A) (A)
       Virtual   (A) (A) (A) (A) (A) (A) (A) (A) (A) (A) (A) (A)
                 (A) (A) (A) (A) (A) (A) (A) (A) (A) (A) (A) (A)
                 (A) (A) (A) (A) (A) (A) (A) (A) (A) (A) (A) (A)
                 (A) (A) (A) (A) (A) (A) (A) (A) (A) (A) (A) (A)
                 (A) (A) (A) (A) (A) (A) (A) (A) (A) (A) (A) (A)
                 (A) (A) (A) (A) (A) (A) (A) (A) (A) (A) (A) (A)
                 (A) (A) (A) (A) (A) (A) (A) (A) (A) (A) (A) (A)
                 (A) (A) (A) (A) (A) (A) (A) (A) (A) (A) (A) (A)
                 (A) (A) (A) (A) (A) (A) (A) (A) (A) (A) (A) (A)
                 (A) (A) (A) (A) (A) (A) (A) (A) (A) (A) (A) (A)
                 (A) (A) (A) (A) (A) (A) (A) (A) (A) (A) (A) (A)
                 (A) (A) (A) (A) (A) (A) (A) (A) (A) (A) (A) (A)
                 (A) (A) (A) (A) (A) (A) (A) (A) (A) (A) (A) (A)
                 (A) (A) (A) (A) (A) (A) (A) (A) (A) (A) (A) (A)
                 (A) (A) (A) (A) (A) (A) (A) (A) (A) (A) (A) (A)
                 (A) (A) (A) (A) (A) (A) (A) (A) (A) (A) (A) (A)
                 (A) (A) (A) (A) (A) (A) (A) (A) (A) (A) (A) (A)
                 (A) (A) (A) (A) (A) (A) (A) (A) (A) (A) (A) (A)
                 (A) (A) (A) (A) (A) (A) (A) (A) (A) (A) (A) (A)
                 (A) (A) (A) (A) (A) (A) (A) (A) (A) (A) (A) (A)
                 (A) (A) (A) (A) (A) (A) (A) (A) (A) (A) (A) (A)
                 (A) (A) (A) (A) (A) (A) (A) (A) (A) (A) (A) (A)
                 (A) (A) (A) (A) (A) (A) (A) (A) (A) (A) (A) (A)
                 (A) (A) (A) (A) (A) (A) (A) (A) (A) (A) (A) (A)
                 (A) (A) (A) (A) (A) (A) (A) (A) (A) (A) (A) (A)
                 (A) (A) (A) (A) (A) (A) (A) (A) (A) (A) (A) (A)
                 (A) (A) (A) (A) (A) (A) (A) (A) (A) (A) (A) (A)
                 (A) (A) (A) (A) (A) (A) (A) (A) (A) (A) (A) (A)
                 (A) (A) (A) (A) (A) (A) (A) (A) (A) (A) (A) (A)
                 (A) (A) (A) (A) (A) (A) (A) (A) (A) (A) (A) (A)
                 (A) (A) (A) (A) (A) (A) (A) (A) (A) (A) (A) (A)
                 (A) (A) (A) (A) (A) (A) (A) (A) (A) (A) (A) (A)
                 (A) (A) (A) (A) (A) (A) (A) (A) (A) (A) (A) (A)
                 (A) (A) (A) (A) (A) (A) (A) (A) (A) (A) (A) (A)
                 (A) (A) (A) (A) (A) (A) (A) (A) (A) (A) (A) (A)
                 (A) (A) (A) (A) (A) (A) (A) (A) (A) (A) (A) (A)
                 (A) (A) (A) (A) (A) (A) (A) (A) (A) (A) (A) (A)
                 (A) (A) (A) (A) (A) (A) (A) (A) (A) (A) (A) (A)
                 (A) (A) (A) (A) (A) (A) (A) (A) (A) (A) (A) (A)
                 (A) (A) (A) (A) (A) (A) (A) (A) (A) (A) (A) (A)
                 (A) (A) (A) (A) (A) (A) (A) (A) (A) (A) (A) (A)
                 (A) (A) (A) (A) (A) (A) (A) (A) (A) (A) (A) (A)
                 (A) (A) (A) (A) (A) (A) (A) (A) (A) (A) (A) (A)
                 (A) (A) (A) (A) (A) (A) (A) (A) (A) (A) (A) (A)
                 (A)
 The electronic state is 2-A.
 Alpha  occ. eigenvalues -- -256.35105 -30.19992 -26.04172 -26.04117 -26.03583
 Alpha  occ. eigenvalues --  -19.36448 -19.33032 -14.53160 -14.48755 -14.48493
 Alpha  occ. eigenvalues --  -14.48353 -14.48342 -14.48163 -10.36982 -10.34592
 Alpha  occ. eigenvalues --  -10.34538 -10.34503 -10.34494 -10.34439 -10.34367
 Alpha  occ. eigenvalues --  -10.34348 -10.34256 -10.34138 -10.33514 -10.33477
 Alpha  occ. eigenvalues --  -10.33422 -10.33178 -10.31917 -10.31147 -10.31102
 Alpha  occ. eigenvalues --  -10.30933 -10.30896 -10.30890 -10.30858 -10.30791
 Alpha  occ. eigenvalues --  -10.30732 -10.30164 -10.29906 -10.29848 -10.28783
 Alpha  occ. eigenvalues --  -10.28778 -10.28768 -10.28751 -10.28595 -10.28555
 Alpha  occ. eigenvalues --  -10.28536 -10.28401  -3.56033  -2.32074  -2.31858
 Alpha  occ. eigenvalues --   -2.31798  -1.29038  -1.15750  -1.10208  -1.09212
 Alpha  occ. eigenvalues --   -1.09155  -1.08155  -1.01228  -0.95190  -0.92871
 Alpha  occ. eigenvalues --   -0.92665  -0.92415  -0.92213  -0.91855  -0.91582
 Alpha  occ. eigenvalues --   -0.90488  -0.89954  -0.87497  -0.87206  -0.86095
 Alpha  occ. eigenvalues --   -0.85060  -0.83685  -0.81916  -0.81437  -0.80865
 Alpha  occ. eigenvalues --   -0.79301  -0.78968  -0.78696  -0.76403  -0.76393
 Alpha  occ. eigenvalues --   -0.74636  -0.71452  -0.71291  -0.70667  -0.70007
 Alpha  occ. eigenvalues --   -0.69912  -0.66055  -0.65963  -0.65436  -0.64391
 Alpha  occ. eigenvalues --   -0.63945  -0.62908  -0.62809  -0.62234  -0.60173
 Alpha  occ. eigenvalues --   -0.59986  -0.59578  -0.59252  -0.58367  -0.57983
 Alpha  occ. eigenvalues --   -0.57376  -0.57045  -0.56708  -0.55859  -0.55372
 Alpha  occ. eigenvalues --   -0.55052  -0.54679  -0.54366  -0.54141  -0.53932
 Alpha  occ. eigenvalues --   -0.53525  -0.53292  -0.53075  -0.53024  -0.52661
 Alpha  occ. eigenvalues --   -0.52484  -0.51552  -0.51507  -0.51328  -0.51192
 Alpha  occ. eigenvalues --   -0.51131  -0.50986  -0.50898  -0.50503  -0.50151
 Alpha  occ. eigenvalues --   -0.50100  -0.49899  -0.49786  -0.49149  -0.48841
 Alpha  occ. eigenvalues --   -0.48721  -0.48403  -0.47862  -0.47749  -0.47097
 Alpha  occ. eigenvalues --   -0.46743  -0.46247  -0.45607  -0.44770  -0.44686
 Alpha  occ. eigenvalues --   -0.44186  -0.44079  -0.43111  -0.42433  -0.42241
 Alpha  occ. eigenvalues --   -0.40988  -0.40511  -0.40265  -0.38930  -0.38902
 Alpha  occ. eigenvalues --   -0.36136  -0.35811  -0.35617  -0.34262  -0.34113
 Alpha  occ. eigenvalues --   -0.33724  -0.33046  -0.32242  -0.32059  -0.31530
 Alpha  occ. eigenvalues --   -0.29012
 Alpha virt. eigenvalues --   -0.19387  -0.18663  -0.15491  -0.12960  -0.10252
 Alpha virt. eigenvalues --   -0.09731  -0.08361  -0.07808  -0.07316  -0.05446
 Alpha virt. eigenvalues --   -0.03733  -0.02186  -0.01710  -0.01283  -0.00095
 Alpha virt. eigenvalues --    0.00352   0.01028   0.01564   0.02180   0.02467
 Alpha virt. eigenvalues --    0.02763   0.03004   0.03115   0.03405   0.03904
 Alpha virt. eigenvalues --    0.04165   0.04860   0.05070   0.05643   0.06160
 Alpha virt. eigenvalues --    0.06444   0.06632   0.07067   0.07238   0.07445
 Alpha virt. eigenvalues --    0.07834   0.08102   0.08402   0.08473   0.08818
 Alpha virt. eigenvalues --    0.09357   0.09670   0.09710   0.09840   0.10041
 Alpha virt. eigenvalues --    0.10873   0.11254   0.11357   0.11708   0.12160
 Alpha virt. eigenvalues --    0.12212   0.12518   0.12797   0.13125   0.13701
 Alpha virt. eigenvalues --    0.13856   0.13970   0.14595   0.15187   0.15722
 Alpha virt. eigenvalues --    0.16004   0.16682   0.16871   0.17194   0.17340
 Alpha virt. eigenvalues --    0.17501   0.18592   0.19382   0.19760   0.20337
 Alpha virt. eigenvalues --    0.21791   0.22099   0.22627   0.22853   0.24468
 Alpha virt. eigenvalues --    0.24671   0.25045   0.25577   0.25806   0.26429
 Alpha virt. eigenvalues --    0.26761   0.28252   0.29632   0.29899   0.30528
 Alpha virt. eigenvalues --    0.31808   0.31932   0.32868   0.33412   0.33595
 Alpha virt. eigenvalues --    0.34825   0.36708   0.37409   0.37720   0.37830
 Alpha virt. eigenvalues --    0.38036   0.38696   0.39282   0.39577   0.40435
 Alpha virt. eigenvalues --    0.40480   0.40830   0.41538   0.41950   0.42374
 Alpha virt. eigenvalues --    0.42602   0.43008   0.43326   0.43554   0.43893
 Alpha virt. eigenvalues --    0.44139   0.44511   0.44788   0.45295   0.45527
 Alpha virt. eigenvalues --    0.45935   0.46512   0.46677   0.47205   0.47227
 Alpha virt. eigenvalues --    0.48301   0.48618   0.48960   0.49358   0.49533
 Alpha virt. eigenvalues --    0.49756   0.50567   0.51124   0.51268   0.51700
 Alpha virt. eigenvalues --    0.52065   0.52319   0.53076   0.53370   0.53532
 Alpha virt. eigenvalues --    0.54253   0.54708   0.55216   0.55498   0.55809
 Alpha virt. eigenvalues --    0.56285   0.56967   0.57217   0.57567   0.57640
 Alpha virt. eigenvalues --    0.57994   0.58435   0.58978   0.59582   0.60076
 Alpha virt. eigenvalues --    0.60863   0.61104   0.61536   0.62087   0.62223
 Alpha virt. eigenvalues --    0.62401   0.63050   0.63217   0.63727   0.64091
 Alpha virt. eigenvalues --    0.65303   0.65417   0.65792   0.66027   0.66651
 Alpha virt. eigenvalues --    0.66757   0.67404   0.68016   0.68329   0.68473
 Alpha virt. eigenvalues --    0.68802   0.69214   0.69886   0.70086   0.70573
 Alpha virt. eigenvalues --    0.70785   0.70935   0.71658   0.71909   0.72114
 Alpha virt. eigenvalues --    0.73336   0.73966   0.75091   0.75203   0.76219
 Alpha virt. eigenvalues --    0.76577   0.77033   0.77166   0.77573   0.78071
 Alpha virt. eigenvalues --    0.78162   0.78673   0.78927   0.79770   0.79891
 Alpha virt. eigenvalues --    0.80327   0.80752   0.81099   0.81679   0.81840
 Alpha virt. eigenvalues --    0.82084   0.82144   0.82553   0.82769   0.83052
 Alpha virt. eigenvalues --    0.83983   0.84041   0.84210   0.84402   0.85151
 Alpha virt. eigenvalues --    0.85772   0.86084   0.86536   0.86952   0.87120
 Alpha virt. eigenvalues --    0.87344   0.87882   0.88137   0.88841   0.89502
 Alpha virt. eigenvalues --    0.89779   0.90140   0.90186   0.90448   0.90747
 Alpha virt. eigenvalues --    0.91180   0.91388   0.91759   0.92126   0.92493
 Alpha virt. eigenvalues --    0.93015   0.94075   0.94253   0.94822   0.95148
 Alpha virt. eigenvalues --    0.95870   0.96810   0.97214   0.97297   0.98381
 Alpha virt. eigenvalues --    0.98873   0.99082   0.99994   1.00773   1.01865
 Alpha virt. eigenvalues --    1.03331   1.04065   1.04969   1.05495   1.06075
 Alpha virt. eigenvalues --    1.06124   1.06656   1.07439   1.07649   1.08543
 Alpha virt. eigenvalues --    1.09017   1.09033   1.09576   1.10638   1.10880
 Alpha virt. eigenvalues --    1.11364   1.11903   1.11959   1.12947   1.13316
 Alpha virt. eigenvalues --    1.14104   1.14942   1.15708   1.16235   1.16919
 Alpha virt. eigenvalues --    1.18854   1.19265   1.19575   1.20413   1.20611
 Alpha virt. eigenvalues --    1.21449   1.21791   1.22396   1.23886   1.23995
 Alpha virt. eigenvalues --    1.24846   1.25003   1.25554   1.25854   1.26368
 Alpha virt. eigenvalues --    1.26644   1.26876   1.27172   1.27424   1.28460
 Alpha virt. eigenvalues --    1.29118   1.30330   1.31469   1.31666   1.32193
 Alpha virt. eigenvalues --    1.32776   1.33177   1.34131   1.34690   1.36519
 Alpha virt. eigenvalues --    1.37028   1.37307   1.38747   1.39097   1.40996
 Alpha virt. eigenvalues --    1.41390   1.42260   1.42575   1.42925   1.43305
 Alpha virt. eigenvalues --    1.43981   1.45645   1.45819   1.46306   1.47436
 Alpha virt. eigenvalues --    1.47894   1.48614   1.49007   1.50437   1.50996
 Alpha virt. eigenvalues --    1.51280   1.51796   1.52244   1.53332   1.54382
 Alpha virt. eigenvalues --    1.55699   1.56067   1.57344   1.58736   1.59275
 Alpha virt. eigenvalues --    1.60378   1.60789   1.61286   1.63387   1.64360
 Alpha virt. eigenvalues --    1.65435   1.66064   1.67570   1.68297   1.68951
 Alpha virt. eigenvalues --    1.69275   1.69566   1.70498   1.70832   1.70920
 Alpha virt. eigenvalues --    1.72360   1.72723   1.73103   1.73490   1.73927
 Alpha virt. eigenvalues --    1.74637   1.75436   1.75520   1.76050   1.76929
 Alpha virt. eigenvalues --    1.77533   1.78267   1.79028   1.79332   1.79950
 Alpha virt. eigenvalues --    1.80241   1.80474   1.81092   1.81546   1.82215
 Alpha virt. eigenvalues --    1.83759   1.84163   1.84363   1.84891   1.85558
 Alpha virt. eigenvalues --    1.86317   1.86965   1.87572   1.88508   1.89684
 Alpha virt. eigenvalues --    1.89893   1.90051   1.90798   1.91609   1.92669
 Alpha virt. eigenvalues --    1.93438   1.93940   1.94205   1.94612   1.94945
 Alpha virt. eigenvalues --    1.94973   1.96199   1.97835   1.98194   1.99214
 Alpha virt. eigenvalues --    2.00858   2.00989   2.01436   2.02142   2.02704
 Alpha virt. eigenvalues --    2.03820   2.04472   2.05287   2.05542   2.05935
 Alpha virt. eigenvalues --    2.06962   2.07892   2.08074   2.10035   2.10530
 Alpha virt. eigenvalues --    2.11208   2.12162   2.12825   2.13130   2.13807
 Alpha virt. eigenvalues --    2.14445   2.14731   2.15332   2.15611   2.15950
 Alpha virt. eigenvalues --    2.16372   2.17158   2.17842   2.17963   2.18680
 Alpha virt. eigenvalues --    2.18945   2.19483   2.20320   2.20998   2.21226
 Alpha virt. eigenvalues --    2.21377   2.21682   2.22666   2.22937   2.23674
 Alpha virt. eigenvalues --    2.24427   2.25124   2.25857   2.26022   2.26381
 Alpha virt. eigenvalues --    2.26512   2.28460   2.28816   2.29171   2.29566
 Alpha virt. eigenvalues --    2.30233   2.30839   2.31700   2.31791   2.32268
 Alpha virt. eigenvalues --    2.32866   2.33259   2.33596   2.34119   2.35102
 Alpha virt. eigenvalues --    2.37003   2.37563   2.38582   2.39535   2.40227
 Alpha virt. eigenvalues --    2.40992   2.41303   2.42502   2.42890   2.43486
 Alpha virt. eigenvalues --    2.44629   2.44666   2.45708   2.46036   2.46616
 Alpha virt. eigenvalues --    2.47715   2.48075   2.49174   2.49995   2.50073
 Alpha virt. eigenvalues --    2.51209   2.51589   2.51912   2.53258   2.54507
 Alpha virt. eigenvalues --    2.55918   2.57171   2.58680   2.60580   2.60942
 Alpha virt. eigenvalues --    2.62102   2.63806   2.64512   2.65476   2.67299
 Alpha virt. eigenvalues --    2.68659   2.69075   2.70203   2.71093   2.75739
 Alpha virt. eigenvalues --    2.76106   2.76343   2.78179   2.79222   2.81470
 Alpha virt. eigenvalues --    2.82745   2.84430   2.84766   2.85349   2.85767
 Alpha virt. eigenvalues --    2.86407   2.87147   2.88342   2.88797   2.92762
 Alpha virt. eigenvalues --    2.94714   2.95141   2.96414   3.00980   3.01933
 Alpha virt. eigenvalues --    3.02656   3.05696   3.10008   3.11937   3.14259
 Alpha virt. eigenvalues --    3.18801   3.19066   3.25953   3.25984   3.29150
 Alpha virt. eigenvalues --    3.33605   3.33983   3.59897   3.65324   3.80457
 Alpha virt. eigenvalues --    3.84927   4.11966   4.17566
  Beta  occ. eigenvalues -- -256.35139 -30.22113 -26.06506 -26.06281 -26.04389
  Beta  occ. eigenvalues --  -19.35414 -19.30971 -14.53160 -14.48383 -14.48149
  Beta  occ. eigenvalues --  -14.48137 -14.48058 -14.48046 -10.36983 -10.34660
  Beta  occ. eigenvalues --  -10.34592 -10.34591 -10.34578 -10.34567 -10.34470
  Beta  occ. eigenvalues --  -10.34458 -10.34378 -10.34274 -10.33137 -10.33089
  Beta  occ. eigenvalues --  -10.33043 -10.32830 -10.31919 -10.31170 -10.31102
  Beta  occ. eigenvalues --  -10.30927 -10.30911 -10.30882 -10.30864 -10.30795
  Beta  occ. eigenvalues --  -10.30744 -10.30164 -10.29908 -10.29844 -10.28781
  Beta  occ. eigenvalues --  -10.28778 -10.28767 -10.28749 -10.28594 -10.28554
  Beta  occ. eigenvalues --  -10.28532 -10.28407  -3.61161  -2.39374  -2.38400
  Beta  occ. eigenvalues --   -2.34304  -1.26026  -1.15748  -1.09859  -1.08877
  Beta  occ. eigenvalues --   -1.08833  -1.07846  -1.01223  -0.94749  -0.92705
  Beta  occ. eigenvalues --   -0.92495  -0.92095  -0.91874  -0.91618  -0.91425
  Beta  occ. eigenvalues --   -0.89955  -0.87445  -0.86487  -0.86080  -0.86010
  Beta  occ. eigenvalues --   -0.84968  -0.83607  -0.81834  -0.81438  -0.80767
  Beta  occ. eigenvalues --   -0.79306  -0.78878  -0.78594  -0.76272  -0.76248
  Beta  occ. eigenvalues --   -0.74634  -0.71451  -0.71262  -0.70632  -0.69822
  Beta  occ. eigenvalues --   -0.69607  -0.66010  -0.65959  -0.65316  -0.64336
  Beta  occ. eigenvalues --   -0.63829  -0.62743  -0.62667  -0.62177  -0.59921
  Beta  occ. eigenvalues --   -0.59330  -0.58987  -0.58371  -0.57946  -0.57143
  Beta  occ. eigenvalues --   -0.56757  -0.55972  -0.55639  -0.55479  -0.55103
  Beta  occ. eigenvalues --   -0.54723  -0.54324  -0.54094  -0.53921  -0.53439
  Beta  occ. eigenvalues --   -0.53374  -0.53194  -0.52775  -0.52626  -0.52491
  Beta  occ. eigenvalues --   -0.52183  -0.51520  -0.51304  -0.51164  -0.51105
  Beta  occ. eigenvalues --   -0.50992  -0.50949  -0.50796  -0.50335  -0.50042
  Beta  occ. eigenvalues --   -0.49869  -0.49531  -0.49199  -0.49121  -0.48642
  Beta  occ. eigenvalues --   -0.48560  -0.48245  -0.47831  -0.47719  -0.47048
  Beta  occ. eigenvalues --   -0.46738  -0.46224  -0.45578  -0.44747  -0.44536
  Beta  occ. eigenvalues --   -0.44133  -0.43410  -0.42845  -0.42301  -0.42137
  Beta  occ. eigenvalues --   -0.40815  -0.40606  -0.39961  -0.39463  -0.38072
  Beta  occ. eigenvalues --   -0.37737  -0.37209  -0.36950  -0.33813  -0.33427
  Beta  occ. eigenvalues --   -0.33270  -0.32025  -0.31931  -0.30420  -0.29869
  Beta virt. eigenvalues --   -0.25511  -0.17456  -0.17315  -0.15867  -0.12670
  Beta virt. eigenvalues --   -0.12342  -0.12067  -0.08440  -0.07794  -0.07106
  Beta virt. eigenvalues --   -0.05006  -0.03733  -0.02380  -0.01560  -0.01279
  Beta virt. eigenvalues --   -0.00013   0.00379   0.01132   0.01671   0.02303
  Beta virt. eigenvalues --    0.02701   0.02859   0.03155   0.03589   0.03792
  Beta virt. eigenvalues --    0.04036   0.04422   0.04922   0.05205   0.05640
  Beta virt. eigenvalues --    0.06233   0.06456   0.06667   0.07068   0.07279
  Beta virt. eigenvalues --    0.07502   0.07859   0.08115   0.08405   0.08511
  Beta virt. eigenvalues --    0.08875   0.09368   0.09699   0.09714   0.09864
  Beta virt. eigenvalues --    0.10047   0.10872   0.11287   0.11662   0.11932
  Beta virt. eigenvalues --    0.12168   0.12539   0.12827   0.13097   0.13489
  Beta virt. eigenvalues --    0.13829   0.13864   0.14131   0.14632   0.15292
  Beta virt. eigenvalues --    0.15761   0.16032   0.16779   0.16909   0.17183
  Beta virt. eigenvalues --    0.17382   0.17518   0.18640   0.19394   0.19839
  Beta virt. eigenvalues --    0.20465   0.21734   0.22095   0.22662   0.22900
  Beta virt. eigenvalues --    0.24400   0.24619   0.24982   0.25590   0.25805
  Beta virt. eigenvalues --    0.26455   0.26771   0.28255   0.29717   0.29948
  Beta virt. eigenvalues --    0.30630   0.31918   0.32040   0.32943   0.33478
  Beta virt. eigenvalues --    0.33695   0.34967   0.36745   0.37466   0.37743
  Beta virt. eigenvalues --    0.37810   0.38099   0.38727   0.39438   0.39688
  Beta virt. eigenvalues --    0.40424   0.40460   0.40818   0.41646   0.41990
  Beta virt. eigenvalues --    0.42500   0.42734   0.43055   0.43389   0.43614
  Beta virt. eigenvalues --    0.44030   0.44273   0.44623   0.44910   0.45438
  Beta virt. eigenvalues --    0.45584   0.46196   0.46693   0.46947   0.47259
  Beta virt. eigenvalues --    0.47432   0.48496   0.48762   0.49090   0.49563
  Beta virt. eigenvalues --    0.49742   0.49938   0.50701   0.51168   0.51342
  Beta virt. eigenvalues --    0.51896   0.52352   0.52638   0.53278   0.53484
  Beta virt. eigenvalues --    0.53710   0.54409   0.54988   0.55274   0.55615
  Beta virt. eigenvalues --    0.56255   0.56592   0.57084   0.57304   0.57689
  Beta virt. eigenvalues --    0.57812   0.58160   0.58580   0.59023   0.59664
  Beta virt. eigenvalues --    0.60192   0.60920   0.61214   0.61658   0.62126
  Beta virt. eigenvalues --    0.62204   0.62416   0.63118   0.63288   0.63759
  Beta virt. eigenvalues --    0.64229   0.65384   0.65522   0.65903   0.66111
  Beta virt. eigenvalues --    0.66749   0.66876   0.67454   0.68065   0.68390
  Beta virt. eigenvalues --    0.68544   0.68830   0.69467   0.69899   0.70059
  Beta virt. eigenvalues --    0.70610   0.70867   0.70946   0.71691   0.71955
  Beta virt. eigenvalues --    0.72272   0.73314   0.74169   0.75105   0.75326
  Beta virt. eigenvalues --    0.76413   0.76713   0.77134   0.77266   0.77692
  Beta virt. eigenvalues --    0.78149   0.78303   0.79037   0.79186   0.79752
  Beta virt. eigenvalues --    0.80149   0.80420   0.80754   0.81074   0.81808
  Beta virt. eigenvalues --    0.81978   0.82090   0.82242   0.82593   0.82834
  Beta virt. eigenvalues --    0.83188   0.84126   0.84168   0.84307   0.84534
  Beta virt. eigenvalues --    0.85402   0.86018   0.86142   0.86627   0.86981
  Beta virt. eigenvalues --    0.87138   0.87381   0.87937   0.88323   0.88981
  Beta virt. eigenvalues --    0.89547   0.89848   0.90214   0.90434   0.90579
  Beta virt. eigenvalues --    0.90902   0.91306   0.91515   0.91900   0.92318
  Beta virt. eigenvalues --    0.92715   0.93064   0.94264   0.94442   0.95055
  Beta virt. eigenvalues --    0.95178   0.95993   0.97036   0.97417   0.98139
  Beta virt. eigenvalues --    0.98987   0.99086   0.99136   1.00594   1.01069
  Beta virt. eigenvalues --    1.02131   1.03416   1.04327   1.05241   1.05763
  Beta virt. eigenvalues --    1.06251   1.06297   1.06995   1.07569   1.07884
  Beta virt. eigenvalues --    1.08864   1.09156   1.09449   1.09934   1.10795
  Beta virt. eigenvalues --    1.11191   1.11476   1.12008   1.12316   1.13228
  Beta virt. eigenvalues --    1.13432   1.14358   1.15169   1.15744   1.16475
  Beta virt. eigenvalues --    1.17127   1.18981   1.19356   1.19730   1.20584
  Beta virt. eigenvalues --    1.20738   1.21544   1.21992   1.22561   1.23993
  Beta virt. eigenvalues --    1.24230   1.24866   1.25072   1.25675   1.25918
  Beta virt. eigenvalues --    1.26543   1.26763   1.27014   1.27292   1.27490
  Beta virt. eigenvalues --    1.28691   1.29322   1.30458   1.31622   1.31795
  Beta virt. eigenvalues --    1.32310   1.33001   1.33553   1.34371   1.34952
  Beta virt. eigenvalues --    1.36880   1.37476   1.37543   1.38872   1.39354
  Beta virt. eigenvalues --    1.41163   1.41847   1.42528   1.42722   1.43010
  Beta virt. eigenvalues --    1.43539   1.44130   1.45923   1.46155   1.46568
  Beta virt. eigenvalues --    1.47587   1.48296   1.48997   1.49246   1.50640
  Beta virt. eigenvalues --    1.51069   1.51672   1.51938   1.52271   1.53420
  Beta virt. eigenvalues --    1.54530   1.56092   1.56600   1.58000   1.59053
  Beta virt. eigenvalues --    1.59523   1.60613   1.61306   1.61587   1.63462
  Beta virt. eigenvalues --    1.65127   1.65830   1.66212   1.67878   1.68427
  Beta virt. eigenvalues --    1.69308   1.69518   1.69604   1.70738   1.71202
  Beta virt. eigenvalues --    1.71428   1.72551   1.73027   1.73344   1.73748
  Beta virt. eigenvalues --    1.74270   1.74932   1.75651   1.75759   1.76288
  Beta virt. eigenvalues --    1.77149   1.77863   1.78468   1.79506   1.79697
  Beta virt. eigenvalues --    1.80463   1.80543   1.80709   1.81427   1.82122
  Beta virt. eigenvalues --    1.82551   1.84021   1.84334   1.84978   1.85386
  Beta virt. eigenvalues --    1.85834   1.86539   1.87080   1.87876   1.89117
  Beta virt. eigenvalues --    1.89678   1.90037   1.90160   1.90918   1.91710
  Beta virt. eigenvalues --    1.92848   1.93601   1.94051   1.94529   1.94901
  Beta virt. eigenvalues --    1.95122   1.95193   1.96484   1.98027   1.98259
  Beta virt. eigenvalues --    1.99417   2.00957   2.01093   2.01509   2.02164
  Beta virt. eigenvalues --    2.02852   2.03944   2.04541   2.05416   2.05577
  Beta virt. eigenvalues --    2.06073   2.06977   2.07992   2.08154   2.10138
  Beta virt. eigenvalues --    2.10614   2.11345   2.12244   2.12812   2.13165
  Beta virt. eigenvalues --    2.14029   2.14491   2.14926   2.15460   2.15691
  Beta virt. eigenvalues --    2.16148   2.16447   2.17239   2.17897   2.18083
  Beta virt. eigenvalues --    2.18719   2.18980   2.19649   2.20367   2.21058
  Beta virt. eigenvalues --    2.21255   2.21540   2.21743   2.22720   2.22972
  Beta virt. eigenvalues --    2.23697   2.24750   2.25230   2.25976   2.26025
  Beta virt. eigenvalues --    2.26513   2.26646   2.28487   2.29024   2.29243
  Beta virt. eigenvalues --    2.29622   2.30383   2.30875   2.31816   2.32149
  Beta virt. eigenvalues --    2.32374   2.32906   2.33432   2.33811   2.34135
  Beta virt. eigenvalues --    2.35328   2.37207   2.37788   2.38727   2.39640
  Beta virt. eigenvalues --    2.40580   2.41098   2.41388   2.42531   2.42948
  Beta virt. eigenvalues --    2.43753   2.44980   2.45326   2.46043   2.46206
  Beta virt. eigenvalues --    2.47055   2.47902   2.48462   2.49391   2.50105
  Beta virt. eigenvalues --    2.50268   2.51312   2.51823   2.52386   2.53498
  Beta virt. eigenvalues --    2.54953   2.56255   2.57642   2.59068   2.61029
  Beta virt. eigenvalues --    2.61236   2.62420   2.63901   2.64574   2.65661
  Beta virt. eigenvalues --    2.67375   2.68742   2.69290   2.70381   2.71221
  Beta virt. eigenvalues --    2.75963   2.76256   2.76548   2.78326   2.79308
  Beta virt. eigenvalues --    2.81438   2.82707   2.84457   2.84801   2.85337
  Beta virt. eigenvalues --    2.85696   2.86478   2.87233   2.88300   2.88780
  Beta virt. eigenvalues --    2.93687   2.94784   2.95540   2.96458   3.00838
  Beta virt. eigenvalues --    3.01927   3.02642   3.05671   3.10027   3.11910
  Beta virt. eigenvalues --    3.14289   3.18808   3.19058   3.25995   3.26126
  Beta virt. eigenvalues --    3.29135   3.33637   3.34056   3.57319   3.59530
  Beta virt. eigenvalues --    3.78448   3.83050   4.10754   4.15828
          Condensed to atoms (all electrons):
          Atomic-Atomic Spin Densities.
 Mulliken charges and spin densities:
               1          2
     1  Fe   0.887350  -1.038648
     2  N   -0.626416   0.179120
     3  N   -0.610086   0.170612
     4  N   -0.632834   0.142411
     5  N   -0.636516   0.141467
     6  C    0.312908  -0.091480
     7  C    0.038178  -0.009273
     8  C    0.038331  -0.007032
     9  C    0.327658  -0.079468
    10  C    0.325302  -0.099717
    11  C    0.041738   0.005114
    12  C    0.039982  -0.022208
    13  C    0.307690  -0.075331
    14  C    0.318594  -0.090344
    15  C    0.009738   0.005029
    16  C    0.040638  -0.000833
    17  C    0.328823  -0.072248
    18  C    0.328842  -0.095628
    19  C    0.006704   0.020193
    20  C    0.042268  -0.017045
    21  C    0.321779  -0.058384
    22  C   -0.253650   0.280157
    23  H    0.209585  -0.012821
    24  C   -0.251812   0.261219
    25  H    0.207320  -0.011791
    26  C   -0.243642   0.285226
    27  H    0.210561  -0.013045
    28  C   -0.244772   0.279128
    29  H    0.207626  -0.012610
    30  C   -0.613089   0.000976
    31  H    0.212287  -0.000748
    32  H    0.198409  -0.000833
    33  H    0.207656   0.000092
    34  C   -0.612023   0.001388
    35  H    0.196997  -0.000651
    36  H    0.211916  -0.000806
    37  H    0.206459   0.000097
    38  C   -0.613499   0.001659
    39  H    0.213734  -0.000203
    40  H    0.189507  -0.000169
    41  H    0.214820  -0.001371
    42  C   -0.155895  -0.001756
    43  H    0.178446   0.000330
    44  C   -0.387620   0.002824
    45  H    0.193231  -0.000150
    46  H    0.196403  -0.000130
    47  C   -0.616837   0.000550
    48  H    0.193650   0.000113
    49  H    0.213729  -0.000713
    50  H    0.214601  -0.000053
    51  C   -0.149430   0.002839
    52  H    0.174134   0.000015
    53  C   -0.386184  -0.004573
    54  H    0.196861   0.000293
    55  H    0.192945   0.000204
    56  C   -0.613492   0.002261
    57  H    0.207293   0.000085
    58  H    0.200496  -0.001378
    59  H    0.210029  -0.001201
    60  C   -0.611859   0.000221
    61  H    0.206277   0.000159
    62  H    0.210285  -0.000421
    63  H    0.198956  -0.000161
    64  O   -0.218000   0.319392
    65  O   -0.125725   0.711660
    66  C   -0.602388  -0.000008
    67  H    0.210460   0.000010
    68  H    0.211013   0.000003
    69  H    0.217446  -0.000002
    70  N   -0.626374   0.000033
    71  H    0.381506  -0.000078
    72  C    0.281024   0.000102
    73  C    0.234631  -0.000042
    74  H    0.219471  -0.000317
    75  N   -0.451777   0.009437
    76  C   -0.058441  -0.000403
    77  H    0.196078  -0.000347
 Sum of Mulliken charges =   1.00000   1.00000
 Mulliken charges and spin densities with hydrogens summed into heavy atoms:
               1          2
     1  Fe   0.887350  -1.038648
     2  N   -0.626416   0.179120
     3  N   -0.610086   0.170612
     4  N   -0.632834   0.142411
     5  N   -0.636516   0.141467
     6  C    0.312908  -0.091480
     7  C    0.038178  -0.009273
     8  C    0.038331  -0.007032
     9  C    0.327658  -0.079468
    10  C    0.325302  -0.099717
    11  C    0.041738   0.005114
    12  C    0.039982  -0.022208
    13  C    0.307690  -0.075331
    14  C    0.318594  -0.090344
    15  C    0.009738   0.005029
    16  C    0.040638  -0.000833
    17  C    0.328823  -0.072248
    18  C    0.328842  -0.095628
    19  C    0.006704   0.020193
    20  C    0.042268  -0.017045
    21  C    0.321779  -0.058384
    22  C   -0.044065   0.267336
    24  C   -0.044492   0.249429
    26  C   -0.033081   0.272181
    28  C   -0.037146   0.266518
    30  C    0.005263  -0.000512
    34  C    0.003349   0.000027
    38  C    0.004561  -0.000084
    42  C    0.022551  -0.001426
    44  C    0.002014   0.002544
    47  C    0.005142  -0.000104
    51  C    0.024705   0.002854
    53  C    0.003621  -0.004077
    56  C    0.004326  -0.000232
    60  C    0.003660  -0.000202
    64  O   -0.218000   0.319392
    65  O   -0.125725   0.711660
    66  C    0.036531   0.000003
    70  N   -0.244868  -0.000046
    72  C    0.281024   0.000102
    73  C    0.454101  -0.000358
    75  N   -0.451777   0.009437
    76  C    0.137637  -0.000751
 Electronic spatial extent (au):  <R**2>=          20015.0288
 Charge=              1.0000 electrons
 Dipole moment (field-independent basis, Debye):
    X=              0.1313    Y=             -1.5957    Z=              7.2296  Tot=              7.4048
 Quadrupole moment (field-independent basis, Debye-Ang):
   XX=           -174.6540   YY=           -176.2362   ZZ=           -223.1003
   XY=              2.8019   XZ=              0.0441   YZ=             -6.9957
 Traceless Quadrupole moment (field-independent basis, Debye-Ang):
   XX=             16.6762   YY=             15.0940   ZZ=            -31.7701
   XY=              2.8019   XZ=              0.0441   YZ=             -6.9957
 Octapole moment (field-independent basis, Debye-Ang**2):
  XXX=            -18.2755  YYY=             -5.8627  ZZZ=            197.0684  XYY=             -7.4529
  XXY=             12.2612  XXZ=            -47.7140  XZZ=             16.5002  YZZ=            -37.0923
  YYZ=            -28.3862  XYZ=            -27.3857
 Hexadecapole moment (field-independent basis, Debye-Ang**3):
 XXXX=          -9753.0993 YYYY=          -9697.4110 ZZZZ=          -2954.4421 XXXY=           -182.5052
 XXXZ=             27.2048 YYYX=            127.9564 YYYZ=            -39.5920 ZZZX=            107.3970
 ZZZY=           -189.4153 XXYY=          -3176.5648 XXZZ=          -2486.9967 YYZZ=          -2478.6154
 XXYZ=            -20.5062 YYXZ=           -114.5919 ZZXY=             64.9220
 N-N= 6.225626558984D+03 E-N=-1.959989877674D+04  KE= 3.045620487232D+03
                          Isotropic Fermi Contact Couplings
        Atom                 a.u.       MegaHertz       Gauss      10(-4) cm-1
     1  Fe(57)            -0.15109     -21.91349      -7.81928      -7.30955
     2  N(14)              0.04634      14.97153       5.34221       4.99397
     3  N(14)              0.05022      16.22594       5.78982       5.41239
     4  N(14)              0.04473      14.45382       5.15748       4.82128
     5  N(14)              0.04675      15.10675       5.39047       5.03907
     6  C(13)             -0.01701     -19.11812      -6.82182      -6.37712
     7  C(13)             -0.00024      -0.27091      -0.09667      -0.09037
     8  C(13)              0.00026       0.29159       0.10405       0.09726
     9  C(13)             -0.01504     -16.91120      -6.03434      -5.64097
    10  C(13)             -0.01753     -19.70885      -7.03261      -6.57417
    11  C(13)              0.00217       2.44156       0.87121       0.81442
    12  C(13)             -0.00220      -2.46967      -0.88124      -0.82379
    13  C(13)             -0.01533     -17.23448      -6.14969      -5.74880
    14  C(13)             -0.01724     -19.38184      -6.91592      -6.46509
    15  C(13)              0.00161       1.80814       0.64519       0.60313
    16  C(13)              0.00113       1.27569       0.45520       0.42553
    17  C(13)             -0.01412     -15.87259      -5.66373      -5.29453
    18  C(13)             -0.01709     -19.21113      -6.85501      -6.40814
    19  C(13)              0.00440       4.94235       1.76355       1.64859
    20  C(13)             -0.00188      -2.11019      -0.75297      -0.70388
    21  C(13)             -0.01263     -14.19670      -5.06573      -4.73551
    22  C(13)              0.03708      41.68063      14.87268      13.90316
    23  H(1)              -0.00435     -19.45926      -6.94355      -6.49091
    24  C(13)              0.03488      39.21020      13.99117      13.07911
    25  H(1)              -0.00401     -17.91121      -6.39117      -5.97454
    26  C(13)              0.03856      43.34937      15.46813      14.45979
    27  H(1)              -0.00440     -19.67123      -7.01918      -6.56162
    28  C(13)              0.03731      41.93984      14.96518      13.98962
    29  H(1)              -0.00422     -18.88401      -6.73828      -6.29903
    30  C(13)              0.00045       0.50243       0.17928       0.16759
    31  H(1)              -0.00047      -2.08748      -0.74486      -0.69631
    32  H(1)              -0.00056      -2.50670      -0.89445      -0.83614
    33  H(1)               0.00004       0.16371       0.05841       0.05461
    34  C(13)              0.00053       0.59690       0.21299       0.19911
    35  H(1)              -0.00034      -1.52725      -0.54496      -0.50943
    36  H(1)              -0.00039      -1.72402      -0.61517      -0.57507
    37  H(1)               0.00004       0.19048       0.06797       0.06354
    38  C(13)              0.00062       0.69484       0.24794       0.23177
    39  H(1)              -0.00012      -0.52362      -0.18684      -0.17466
    40  H(1)              -0.00030      -1.32282      -0.47201      -0.44124
    41  H(1)              -0.00076      -3.38867      -1.20916      -1.13034
    42  C(13)             -0.00037      -0.41907      -0.14954      -0.13979
    43  H(1)               0.00005       0.21832       0.07790       0.07282
    44  C(13)              0.00044       0.48905       0.17450       0.16313
    45  H(1)              -0.00005      -0.23915      -0.08533      -0.07977
    46  H(1)              -0.00004      -0.16021      -0.05717      -0.05344
    47  C(13)              0.00024       0.27445       0.09793       0.09155
    48  H(1)              -0.00009      -0.40580      -0.14480      -0.13536
    49  H(1)              -0.00043      -1.92927      -0.68841      -0.64354
    50  H(1)              -0.00005      -0.22694      -0.08098      -0.07570
    51  C(13)              0.00041       0.45820       0.16350       0.15284
    52  H(1)              -0.00015      -0.65840      -0.23493      -0.21962
    53  C(13)             -0.00062      -0.69436      -0.24777      -0.23161
    54  H(1)               0.00010       0.44235       0.15784       0.14755
    55  H(1)               0.00007       0.31844       0.11363       0.10622
    56  C(13)              0.00088       0.98501       0.35148       0.32856
    57  H(1)               0.00003       0.12162       0.04340       0.04057
    58  H(1)              -0.00074      -3.31896      -1.18429      -1.10708
    59  H(1)              -0.00064      -2.87618      -1.02629      -0.95939
    60  C(13)              0.00024       0.27528       0.09823       0.09182
    61  H(1)               0.00007       0.30658       0.10940       0.10227
    62  H(1)              -0.00029      -1.29872      -0.46342      -0.43321
    63  H(1)              -0.00019      -0.82713      -0.29514      -0.27590
    64  O(17)              0.09756     -59.14209     -21.10337     -19.72768
    65  O(17)              0.13348     -80.91791     -28.87352     -26.99131
    66  C(13)             -0.00003      -0.03648      -0.01302      -0.01217
    67  H(1)               0.00001       0.02521       0.00899       0.00841
    68  H(1)               0.00000       0.01077       0.00384       0.00359
    69  H(1)              -0.00000      -0.00647      -0.00231      -0.00216
    70  N(14)             -0.00013      -0.04051      -0.01445      -0.01351
    71  H(1)              -0.00001      -0.06313      -0.02253      -0.02106
    72  C(13)              0.00006       0.06668       0.02379       0.02224
    73  C(13)             -0.00068      -0.76373      -0.27252      -0.25475
    74  H(1)              -0.00001      -0.02548      -0.00909      -0.00850
    75  N(14)              0.00597       1.92990       0.68864       0.64375
    76  C(13)             -0.00072      -0.81034      -0.28915      -0.27030
    77  H(1)               0.00001       0.03355       0.01197       0.01119
 --------------------------------------------------------
       Center         ----  Spin Dipole Couplings  ----
                      3XX-RR        3YY-RR        3ZZ-RR
 --------------------------------------------------------
     1   Atom       -0.577403      1.860837     -1.283434
     2   Atom       -0.158031     -0.165072      0.323103
     3   Atom       -0.152901     -0.145561      0.298462
     4   Atom       -0.082772     -0.121885      0.204657
     5   Atom       -0.119013     -0.104818      0.223830
     6   Atom        0.042253      0.024676     -0.066929
     7   Atom        0.006371      0.010445     -0.016817
     8   Atom        0.007338      0.008426     -0.015764
     9   Atom        0.034399      0.024195     -0.058594
    10   Atom        0.031986      0.042365     -0.074352
    11   Atom        0.004580     -0.000684     -0.003896
    12   Atom        0.014344      0.012721     -0.027065
    13   Atom        0.020215      0.032827     -0.053042
    14   Atom        0.031982      0.028177     -0.060159
    15   Atom       -0.002025      0.002598     -0.000572
    16   Atom        0.004115      0.002151     -0.006266
    17   Atom        0.027988      0.016729     -0.044717
    18   Atom        0.029955      0.037140     -0.067095
    19   Atom       -0.003013     -0.005624      0.008637
    20   Atom        0.008876      0.008702     -0.017578
    21   Atom        0.009775      0.023278     -0.033053
    22   Atom       -0.126109     -0.118386      0.244495
    23   Atom        0.011656     -0.010975     -0.000680
    24   Atom       -0.118576     -0.118020      0.236596
    25   Atom       -0.009924      0.009475      0.000449
    26   Atom       -0.110263     -0.125830      0.236094
    27   Atom        0.011007     -0.010940     -0.000067
    28   Atom       -0.115839     -0.113082      0.228921
    29   Atom       -0.010859      0.009572      0.001288
    30   Atom       -0.000380      0.001976     -0.001596
    31   Atom       -0.000330      0.001480     -0.001150
    32   Atom       -0.000742      0.001502     -0.000761
    33   Atom       -0.000195      0.000724     -0.000529
    34   Atom       -0.000446      0.001412     -0.000965
    35   Atom       -0.000693      0.001167     -0.000473
    36   Atom       -0.001032      0.002053     -0.001021
    37   Atom       -0.000090      0.000545     -0.000456
    38   Atom        0.001286      0.000341     -0.001627
    39   Atom        0.000356     -0.000062     -0.000294
    40   Atom        0.002033     -0.001224     -0.000810
    41   Atom        0.001137     -0.000137     -0.000999
    42   Atom        0.001495     -0.000404     -0.001092
    43   Atom        0.001172     -0.000823     -0.000349
    44   Atom       -0.000183     -0.000539      0.000723
    45   Atom        0.000503     -0.000142     -0.000361
    46   Atom        0.000240      0.000070     -0.000310
    47   Atom       -0.000153      0.001347     -0.001194
    48   Atom       -0.000670      0.001330     -0.000661
    49   Atom       -0.000517      0.001256     -0.000739
    50   Atom       -0.000076      0.000454     -0.000378
    51   Atom       -0.001753      0.000763      0.000990
    52   Atom       -0.000556      0.001619     -0.001063
    53   Atom        0.001874      0.001228     -0.003101
    54   Atom       -0.000272      0.000595     -0.000323
    55   Atom       -0.000374      0.000807     -0.000433
    56   Atom        0.001349      0.000049     -0.001398
    57   Atom        0.000373      0.000003     -0.000376
    58   Atom        0.001300     -0.000781     -0.000519
    59   Atom        0.001953     -0.000748     -0.001206
    60   Atom        0.001644     -0.000727     -0.000918
    61   Atom        0.000632     -0.000373     -0.000259
    62   Atom        0.001529     -0.000684     -0.000845
    63   Atom        0.001129     -0.000972     -0.000157
    64   Atom        0.820412     -0.358618     -0.461794
    65   Atom        1.837208     -0.734891     -1.102317
    66   Atom       -0.000087      0.000084      0.000003
    67   Atom       -0.000122      0.000003      0.000119
    68   Atom       -0.000039     -0.000000      0.000039
    69   Atom       -0.000170     -0.000010      0.000180
    70   Atom        0.000079      0.000649     -0.000728
    71   Atom        0.000081      0.000071     -0.000152
    72   Atom        0.000144      0.000927     -0.001071
    73   Atom        0.003075      0.001079     -0.004154
    74   Atom        0.000248     -0.000416      0.000169
    75   Atom        0.003950      0.006574     -0.010524
    76   Atom        0.001315      0.002819     -0.004133
    77   Atom       -0.001439      0.000803      0.000636
 --------------------------------------------------------
                        XY            XZ            YZ
 --------------------------------------------------------
     1   Atom       -0.986326     -0.151363      0.342217
     2   Atom        0.004501     -0.070777     -0.044029
     3   Atom        0.006125      0.044809      0.063810
     4   Atom        0.000933      0.118809      0.011719
     5   Atom        0.006437     -0.039924     -0.071771
     6   Atom       -0.005972      0.005354      0.001638
     7   Atom        0.000259      0.002577     -0.000344
     8   Atom        0.002551      0.003104     -0.002769
     9   Atom       -0.007770      0.012987     -0.009668
    10   Atom        0.006725      0.013124     -0.028792
    11   Atom        0.000765      0.004667     -0.003955
    12   Atom       -0.001834      0.002073     -0.010722
    13   Atom        0.008711      0.006797     -0.013415
    14   Atom       -0.006012     -0.027402      0.004674
    15   Atom       -0.001507     -0.001552     -0.001024
    16   Atom        0.003163     -0.003097      0.003222
    17   Atom       -0.003545     -0.023472      0.013639
    18   Atom        0.008546     -0.005357      0.031308
    19   Atom        0.002317     -0.005421     -0.004242
    20   Atom       -0.001817     -0.000194      0.010041
    21   Atom        0.005748     -0.002986      0.013440
    22   Atom        0.009531     -0.049701     -0.075930
    23   Atom        0.013672      0.002036     -0.000968
    24   Atom       -0.004750     -0.033371      0.035073
    25   Atom       -0.012675      0.001412     -0.004498
    26   Atom        0.016779      0.099091      0.060910
    27   Atom        0.014139     -0.003174     -0.000591
    28   Atom       -0.018523      0.077251     -0.084882
    29   Atom       -0.012252     -0.001141      0.006352
    30   Atom        0.000678     -0.000415     -0.000367
    31   Atom        0.001346     -0.000515      0.000318
    32   Atom        0.000982     -0.000464     -0.000734
    33   Atom        0.000360     -0.000311     -0.000420
    34   Atom        0.001145     -0.000127     -0.000747
    35   Atom        0.000956     -0.000246     -0.001042
    36   Atom        0.000862      0.000303     -0.000302
    37   Atom        0.000557     -0.000098     -0.000538
    38   Atom       -0.001167     -0.000641      0.000603
    39   Atom       -0.000291     -0.000512      0.000230
    40   Atom       -0.001096     -0.001231      0.000126
    41   Atom       -0.000955     -0.000440     -0.000025
    42   Atom       -0.000736     -0.000318      0.000995
    43   Atom       -0.000740     -0.001006      0.000539
    44   Atom        0.000347     -0.001572     -0.001352
    45   Atom       -0.000202     -0.000064      0.000230
    46   Atom       -0.000452     -0.000291      0.000200
    47   Atom        0.001007     -0.000388      0.000529
    48   Atom        0.001118      0.000312      0.000909
    49   Atom        0.000677     -0.000278      0.000042
    50   Atom        0.000315      0.000067      0.000420
    51   Atom        0.000385     -0.000217      0.001678
    52   Atom        0.001387      0.000403      0.000318
    53   Atom        0.000423      0.000194     -0.002811
    54   Atom        0.000151      0.000077     -0.000050
    55   Atom        0.000447     -0.000149      0.000014
    56   Atom       -0.001223      0.000900     -0.000121
    57   Atom       -0.000343      0.000601     -0.000133
    58   Atom       -0.001007      0.001264     -0.000240
    59   Atom       -0.000963      0.000387      0.000483
    60   Atom       -0.000422      0.000989     -0.000679
    61   Atom       -0.000059      0.000542     -0.000251
    62   Atom       -0.001032      0.000357     -0.000537
    63   Atom       -0.000375      0.001134     -0.000421
    64   Atom        0.521457      0.024691     -0.260326
    65   Atom        1.153269     -0.028751     -0.364703
    66   Atom       -0.000044     -0.000165     -0.000028
    67   Atom        0.000028     -0.000069      0.000067
    68   Atom       -0.000037     -0.000028     -0.000054
    69   Atom       -0.000077     -0.000129     -0.000073
    70   Atom       -0.000004     -0.000118      0.000814
    71   Atom       -0.000074      0.000081      0.000326
    72   Atom       -0.000159     -0.000423      0.000087
    73   Atom       -0.001312      0.001215      0.003950
    74   Atom       -0.002002      0.002501      0.002673
    75   Atom       -0.000556     -0.001892      0.003105
    76   Atom       -0.001282     -0.003872     -0.001719
    77   Atom       -0.001999     -0.003438     -0.001942
 --------------------------------------------------------


 ---------------------------------------------------------------------------------
              Anisotropic Spin Dipole Couplings in Principal Axis System
 ---------------------------------------------------------------------------------

       Atom             a.u.   MegaHertz   Gauss  10(-4) cm-1        Axes

              Baa    -1.3249   -22.937    -8.185    -7.651  0.1019 -0.0750  0.9920
     1 Fe(57) Bbb    -0.9244   -16.004    -5.711    -5.338  0.9375  0.3407 -0.0705
              Bcc     2.2493    38.941    13.895    12.989 -0.3326  0.9372  0.1050
 
              Baa    -0.1704    -6.574    -2.346    -2.193  0.6165  0.7715  0.1572
     2 N(14)  Bbb    -0.1667    -6.431    -2.295    -2.145  0.7745 -0.6301  0.0553
              Bcc     0.3372    13.005     4.640     4.338 -0.1417 -0.0877  0.9860
 
              Baa    -0.1573    -6.067    -2.165    -2.024  0.9931  0.0521 -0.1049
     3 N(14)  Bbb    -0.1545    -5.960    -2.127    -1.988 -0.0659  0.9889 -0.1328
              Bcc     0.3119    12.027     4.292     4.012  0.0969  0.1388  0.9856
 
              Baa    -0.1274    -4.913    -1.753    -1.639  0.8014  0.5145 -0.3049
     4 N(14)  Bbb    -0.1204    -4.643    -1.657    -1.549 -0.4933  0.8569  0.1494
              Bcc     0.2478     9.555     3.410     3.187  0.3382  0.0307  0.9406
 
              Baa    -0.1243    -4.793    -1.710    -1.599  0.9185  0.3531  0.1781
     5 N(14)  Bbb    -0.1190    -4.591    -1.638    -1.531 -0.3797  0.9134  0.1470
              Bcc     0.2433     9.384     3.349     3.130 -0.1108 -0.2026  0.9730
 
              Baa    -0.0672    -9.022    -3.219    -3.009 -0.0500 -0.0210  0.9985
     6 C(13)  Bbb     0.0229     3.079     1.099     1.027  0.2866  0.9574  0.0345
              Bcc     0.0443     5.942     2.120     1.982  0.9567 -0.2879  0.0418
 
              Baa    -0.0171    -2.295    -0.819    -0.766 -0.1093  0.0134  0.9939
     7 C(13)  Bbb     0.0066     0.891     0.318     0.297  0.9923 -0.0577  0.1099
              Bcc     0.0105     1.404     0.501     0.468  0.0588  0.9982 -0.0070
 
              Baa    -0.0166    -2.222    -0.793    -0.741 -0.1408  0.1233  0.9823
     8 C(13)  Bbb     0.0061     0.814     0.290     0.271  0.7689 -0.6114  0.1869
              Bcc     0.0105     1.408     0.502     0.470  0.6236  0.7817 -0.0087
 
              Baa    -0.0612    -8.217    -2.932    -2.741 -0.1259  0.1002  0.9870
     9 C(13)  Bbb     0.0201     2.692     0.961     0.898  0.4939  0.8692 -0.0253
              Bcc     0.0412     5.525     1.971     1.843  0.8604 -0.4843  0.1589
 
              Baa    -0.0829   -11.118    -3.967    -3.709 -0.1237  0.2287  0.9656
    10 C(13)  Bbb     0.0330     4.427     1.580     1.477  0.9690 -0.1816  0.1672
              Bcc     0.0499     6.691     2.388     2.232  0.2136  0.9564 -0.1991
 
              Baa    -0.0081    -1.082    -0.386    -0.361 -0.3302  0.4721  0.8173
    11 C(13)  Bbb     0.0013     0.173     0.062     0.058  0.3246  0.8699 -0.3714
              Bcc     0.0068     0.909     0.324     0.303  0.8863 -0.1427  0.4405
 
              Baa    -0.0298    -4.002    -1.428    -1.335 -0.0354  0.2428  0.9694
    12 C(13)  Bbb     0.0126     1.687     0.602     0.563  0.7803  0.6128 -0.1249
              Bcc     0.0173     2.315     0.826     0.772 -0.6244  0.7520 -0.2112
 
              Baa    -0.0559    -7.507    -2.679    -2.504 -0.1058  0.1587  0.9816
    13 C(13)  Bbb     0.0177     2.381     0.850     0.794  0.9098 -0.3831  0.1600
              Bcc     0.0382     5.126     1.829     1.710  0.4014  0.9100 -0.1039
 
              Baa    -0.0678    -9.096    -3.246    -3.034  0.2630 -0.0305  0.9643
    14 C(13)  Bbb     0.0249     3.339     1.192     1.114  0.4252  0.9008 -0.0875
              Bcc     0.0429     5.756     2.054     1.920  0.8660 -0.4331 -0.2499
 
              Baa    -0.0036    -0.477    -0.170    -0.159  0.8069  0.2841  0.5179
    15 C(13)  Bbb     0.0004     0.055     0.020     0.019 -0.5444  0.0175  0.8386
              Bcc     0.0031     0.421     0.150     0.140 -0.2291  0.9586 -0.1688
 
              Baa    -0.0086    -1.156    -0.413    -0.386  0.3031 -0.3538  0.8848
    16 C(13)  Bbb     0.0021     0.287     0.102     0.096 -0.4744  0.7492  0.4622
              Bcc     0.0065     0.870     0.310     0.290  0.8265  0.5599 -0.0593
 
              Baa    -0.0537    -7.209    -2.572    -2.405  0.2652 -0.1704  0.9490
    17 C(13)  Bbb     0.0161     2.159     0.770     0.720  0.3868  0.9204  0.0571
              Bcc     0.0376     5.051     1.802     1.685  0.8832 -0.3519 -0.3100
 
              Baa    -0.0763   -10.239    -3.653    -3.415  0.0702 -0.2703  0.9602
    18 C(13)  Bbb     0.0279     3.745     1.336     1.249  0.9327 -0.3235 -0.1592
              Bcc     0.0484     6.494     2.317     2.166  0.3537  0.9068  0.2294
 
              Baa    -0.0071    -0.952    -0.340    -0.318 -0.3571  0.9255  0.1265
    19 C(13)  Bbb    -0.0050    -0.667    -0.238    -0.223  0.8611  0.2737  0.4284
              Bcc     0.0121     1.620     0.578     0.540 -0.3618 -0.2619  0.8947
 
              Baa    -0.0210    -2.815    -1.005    -0.939 -0.0134 -0.3212  0.9469
    20 C(13)  Bbb     0.0081     1.085     0.387     0.362  0.9137  0.3807  0.1421
              Bcc     0.0129     1.730     0.617     0.577 -0.4062  0.8671  0.2883
 
              Baa    -0.0365    -4.895    -1.747    -1.633  0.0908 -0.2268  0.9697
    21 C(13)  Bbb     0.0088     1.177     0.420     0.393  0.9586 -0.2438 -0.1468
              Bcc     0.0277     3.718     1.327     1.240  0.2697  0.9429  0.1953
 
              Baa    -0.1338   -17.954    -6.407    -5.989  0.3492  0.9088  0.2283
    22 C(13)  Bbb    -0.1325   -17.776    -6.343    -5.930  0.9283 -0.3687  0.0481
              Bcc     0.2663    35.731    12.750    11.918 -0.1279 -0.1951  0.9724
 
              Baa    -0.0176    -9.384    -3.348    -3.130 -0.4271  0.8983  0.1028
    23 H(1)   Bbb    -0.0006    -0.325    -0.116    -0.108 -0.0249 -0.1254  0.9918
              Bcc     0.0182     9.709     3.464     3.238  0.9038  0.4211  0.0759
 
              Baa    -0.1231   -16.513    -5.892    -5.508  0.7340  0.6792  0.0019
    24 C(13)  Bbb    -0.1201   -16.118    -5.751    -5.376 -0.6728  0.7275 -0.1345
              Bcc     0.2432    32.631    11.643    10.884 -0.0927  0.0974  0.9909
 
              Baa    -0.0162    -8.653    -3.088    -2.886  0.8927  0.4483  0.0453
    25 H(1)   Bbb    -0.0008    -0.441    -0.157    -0.147 -0.1605  0.2224  0.9617
              Bcc     0.0170     9.094     3.245     3.033 -0.4211  0.8658 -0.2705
 
              Baa    -0.1369   -18.371    -6.555    -6.128  0.8728 -0.4624 -0.1564
    26 C(13)  Bbb    -0.1356   -18.190    -6.491    -6.068  0.4168  0.8727 -0.2542
              Bcc     0.2725    36.562    13.046    12.196  0.2540  0.1567  0.9544
 
              Baa    -0.0179    -9.554    -3.409    -3.187 -0.4431  0.8951 -0.0492
    27 H(1)   Bbb    -0.0005    -0.292    -0.104    -0.097  0.1272  0.1171  0.9849
              Bcc     0.0185     9.846     3.513     3.284  0.8874  0.4302 -0.1658
 
              Baa    -0.1332   -17.871    -6.377    -5.961  0.4309  0.8947  0.1178
    28 C(13)  Bbb    -0.1322   -17.741    -6.330    -5.918  0.8790 -0.3867 -0.2789
              Bcc     0.2654    35.612    12.707    11.879  0.2040 -0.2237  0.9531
 
              Baa    -0.0168    -8.942    -3.191    -2.983  0.8930  0.4392 -0.0982
    29 H(1)   Bbb    -0.0009    -0.497    -0.177    -0.166  0.2405 -0.2813  0.9290
              Bcc     0.0177     9.439     3.368     3.149 -0.3804  0.8532  0.3569
 
              Baa    -0.0017    -0.232    -0.083    -0.077  0.2722  0.0453  0.9612
    30 C(13)  Bbb    -0.0005    -0.065    -0.023    -0.022  0.9239 -0.2916 -0.2479
              Bcc     0.0022     0.297     0.106     0.099  0.2691  0.9555 -0.1213
 
              Baa    -0.0017    -0.910    -0.325    -0.303  0.5937 -0.3245  0.7364
    31 H(1)   Bbb    -0.0005    -0.263    -0.094    -0.088 -0.6545  0.3377  0.6765
              Bcc     0.0022     1.172     0.418     0.391  0.4682  0.8836  0.0119
 
              Baa    -0.0012    -0.660    -0.236    -0.220  0.8055 -0.1340  0.5772
    32 H(1)   Bbb    -0.0009    -0.473    -0.169    -0.158 -0.4769  0.4315  0.7658
              Bcc     0.0021     1.133     0.404     0.378  0.3517  0.8921 -0.2837
 
              Baa    -0.0007    -0.397    -0.142    -0.132  0.4062  0.1583  0.9000
    33 H(1)   Bbb    -0.0003    -0.143    -0.051    -0.048  0.8464 -0.4364 -0.3052
              Bcc     0.0010     0.540     0.193     0.180  0.3444  0.8857 -0.3112
 
              Baa    -0.0013    -0.172    -0.061    -0.057 -0.4416  0.4096  0.7983
    34 C(13)  Bbb    -0.0009    -0.114    -0.041    -0.038  0.8008 -0.2213  0.5566
              Bcc     0.0021     0.286     0.102     0.095  0.4046  0.8850 -0.2303
 
              Baa    -0.0012    -0.639    -0.228    -0.213  0.7201 -0.5024 -0.4787
    35 H(1)   Bbb    -0.0008    -0.439    -0.157    -0.146  0.6064  0.1203  0.7860
              Bcc     0.0020     1.077     0.384     0.359  0.3373  0.8563 -0.3912
 
              Baa    -0.0015    -0.817    -0.291    -0.272  0.7680 -0.2349 -0.5959
    36 H(1)   Bbb    -0.0008    -0.406    -0.145    -0.135  0.5918 -0.0955  0.8004
              Bcc     0.0023     1.223     0.436     0.408  0.2449  0.9673 -0.0656
 
              Baa    -0.0007    -0.389    -0.139    -0.130 -0.2867  0.4758  0.8315
    37 H(1)   Bbb    -0.0003    -0.169    -0.060    -0.057  0.8520 -0.2702  0.4484
              Bcc     0.0010     0.559     0.199     0.186  0.4380  0.8370 -0.3280
 
              Baa    -0.0018    -0.246    -0.088    -0.082  0.1236 -0.2032  0.9713
    38 C(13)  Bbb    -0.0004    -0.058    -0.021    -0.019  0.5832  0.8068  0.0946
              Bcc     0.0023     0.304     0.109     0.101  0.8029 -0.5548 -0.2182
 
              Baa    -0.0006    -0.312    -0.111    -0.104  0.4374 -0.1476  0.8871
    39 H(1)   Bbb    -0.0002    -0.112    -0.040    -0.037  0.4172  0.9072 -0.0547
              Bcc     0.0008     0.424     0.151     0.141  0.7967 -0.3940 -0.4584
 
              Baa    -0.0017    -0.892    -0.318    -0.298  0.3842  0.8177  0.4287
    40 H(1)   Bbb    -0.0011    -0.591    -0.211    -0.197  0.1516 -0.5139  0.8443
              Bcc     0.0028     1.483     0.529     0.495  0.9107 -0.2594 -0.3214
 
              Baa    -0.0012    -0.616    -0.220    -0.205  0.3005  0.3046  0.9038
    41 H(1)   Bbb    -0.0005    -0.291    -0.104    -0.097  0.3689  0.8368 -0.4046
              Bcc     0.0017     0.907     0.324     0.303  0.8795 -0.4551 -0.1391
 
              Baa    -0.0018    -0.243    -0.087    -0.081 -0.0556 -0.5960  0.8010
    42 C(13)  Bbb    -0.0001    -0.011    -0.004    -0.004  0.4415  0.7049  0.5552
              Bcc     0.0019     0.254     0.091     0.085  0.8955 -0.3845 -0.2239
 
              Baa    -0.0012    -0.629    -0.225    -0.210  0.0669  0.8719 -0.4851
    43 H(1)   Bbb    -0.0008    -0.419    -0.150    -0.140  0.5323  0.3800  0.7564
              Bcc     0.0020     1.049     0.374     0.350  0.8439 -0.3088 -0.4387
 
              Baa    -0.0017    -0.234    -0.084    -0.078  0.5174  0.5680  0.6401
    44 C(13)  Bbb    -0.0007    -0.097    -0.035    -0.032 -0.6909  0.7186 -0.0791
              Bcc     0.0025     0.332     0.118     0.111 -0.5049 -0.4013  0.7642
 
              Baa    -0.0005    -0.271    -0.097    -0.091 -0.0576 -0.5528  0.8313
    45 H(1)   Bbb    -0.0001    -0.037    -0.013    -0.012  0.3341  0.7740  0.5378
              Bcc     0.0006     0.309     0.110     0.103  0.9408 -0.3087 -0.1401
 
              Baa    -0.0004    -0.232    -0.083    -0.078  0.3819 -0.0234  0.9239
    46 H(1)   Bbb    -0.0003    -0.159    -0.057    -0.053  0.5597  0.8014 -0.2111
              Bcc     0.0007     0.391     0.140     0.131  0.7354 -0.5977 -0.3192
 
              Baa    -0.0016    -0.213    -0.076    -0.071  0.4415 -0.3037  0.8443
    47 C(13)  Bbb    -0.0003    -0.040    -0.014    -0.013  0.7899 -0.3147 -0.5263
              Bcc     0.0019     0.253     0.090     0.084  0.4256  0.8993  0.1010
 
              Baa    -0.0012    -0.641    -0.229    -0.214  0.8096 -0.4793  0.3388
    48 H(1)   Bbb    -0.0010    -0.510    -0.182    -0.170 -0.4483 -0.1324  0.8840
              Bcc     0.0022     1.150     0.411     0.384  0.3789  0.8676  0.3220
 
              Baa    -0.0010    -0.544    -0.194    -0.182  0.6783 -0.2147  0.7027
    49 H(1)   Bbb    -0.0005    -0.249    -0.089    -0.083 -0.6600  0.2425  0.7111
              Bcc     0.0015     0.793     0.283     0.265  0.3231  0.9461 -0.0227
 
              Baa    -0.0006    -0.300    -0.107    -0.100  0.1449 -0.4160  0.8977
    50 H(1)   Bbb    -0.0002    -0.101    -0.036    -0.034  0.9221 -0.2722 -0.2750
              Bcc     0.0008     0.400     0.143     0.134  0.3587  0.8677  0.3442
 
              Baa    -0.0019    -0.258    -0.092    -0.086  0.9330 -0.2774  0.2294
    51 C(13)  Bbb    -0.0006    -0.086    -0.031    -0.029  0.3591  0.6738 -0.6458
              Bcc     0.0026     0.344     0.123     0.115  0.0246  0.6849  0.7282
 
              Baa    -0.0014    -0.750    -0.268    -0.250  0.7393 -0.2743 -0.6150
    52 H(1)   Bbb    -0.0010    -0.507    -0.181    -0.169  0.5087 -0.3709  0.7770
              Bcc     0.0024     1.257     0.449     0.419  0.4412  0.8873  0.1347
 
              Baa    -0.0045    -0.605    -0.216    -0.202 -0.0566  0.4430  0.8948
    53 C(13)  Bbb     0.0018     0.240     0.086     0.080  0.9403 -0.2777  0.1970
              Bcc     0.0027     0.364     0.130     0.122  0.3357  0.8524 -0.4008
 
              Baa    -0.0004    -0.211    -0.075    -0.070 -0.6338  0.1349  0.7616
    54 H(1)   Bbb    -0.0002    -0.120    -0.043    -0.040  0.7561 -0.0993  0.6469
              Bcc     0.0006     0.332     0.118     0.111  0.1628  0.9859 -0.0391
 
              Baa    -0.0006    -0.337    -0.120    -0.112  0.7678 -0.2446  0.5922
    55 H(1)   Bbb    -0.0003    -0.174    -0.062    -0.058 -0.5548  0.2087  0.8054
              Bcc     0.0010     0.511     0.182     0.171  0.3206  0.9469 -0.0246
 
              Baa    -0.0017    -0.229    -0.082    -0.076 -0.3417 -0.1743  0.9235
    56 C(13)  Bbb    -0.0006    -0.076    -0.027    -0.025  0.4029  0.8606  0.3115
              Bcc     0.0023     0.305     0.109     0.102  0.8491 -0.4785  0.2238
 
              Baa    -0.0007    -0.381    -0.136    -0.127 -0.5015 -0.0798  0.8615
    57 H(1)   Bbb    -0.0001    -0.079    -0.028    -0.026  0.3026  0.9167  0.2611
              Bcc     0.0009     0.459     0.164     0.153  0.8105 -0.3916  0.4355
 
              Baa    -0.0014    -0.733    -0.262    -0.245  0.5123  0.6344 -0.5788
    58 H(1)   Bbb    -0.0009    -0.483    -0.172    -0.161 -0.0804  0.7065  0.7032
              Bcc     0.0023     1.216     0.434     0.406  0.8551 -0.3137  0.4129
 
              Baa    -0.0017    -0.918    -0.328    -0.306 -0.2398 -0.6115  0.7540
    59 H(1)   Bbb    -0.0006    -0.296    -0.106    -0.099  0.1811  0.7349  0.6536
              Bcc     0.0023     1.214     0.433     0.405  0.9538 -0.2933  0.0654
 
              Baa    -0.0016    -0.214    -0.076    -0.071 -0.1770  0.5523  0.8146
    60 C(13)  Bbb    -0.0005    -0.071    -0.025    -0.024  0.3684  0.8047 -0.4656
              Bcc     0.0021     0.284     0.101     0.095  0.9127 -0.2177  0.3459
 
              Baa    -0.0007    -0.354    -0.126    -0.118 -0.2878  0.5915  0.7532
    61 H(1)   Bbb    -0.0002    -0.131    -0.047    -0.044  0.3558  0.7962 -0.4893
              Bcc     0.0009     0.485     0.173     0.162  0.8891 -0.1272  0.4396
 
              Baa    -0.0014    -0.740    -0.264    -0.247  0.1918  0.7576  0.6240
    62 H(1)   Bbb    -0.0006    -0.345    -0.123    -0.115 -0.3762 -0.5305  0.7597
              Bcc     0.0020     1.085     0.387     0.362  0.9065 -0.3804  0.1832
 
              Baa    -0.0012    -0.618    -0.221    -0.206 -0.0886  0.8787  0.4691
    63 H(1)   Bbb    -0.0007    -0.390    -0.139    -0.130 -0.5302 -0.4403  0.7246
              Bcc     0.0019     1.009     0.360     0.336  0.8432 -0.1846  0.5049
 
              Baa    -0.7666    55.473    19.794    18.504 -0.2487  0.7265  0.6406
    64 O(17)  Bbb    -0.2546    18.424     6.574     6.146  0.2660 -0.5847  0.7664
              Bcc     1.0213   -73.898   -26.368   -24.650  0.9313  0.3610 -0.0479
 
              Baa    -1.4746   106.703    38.074    35.592 -0.2389  0.7028  0.6700
    65 O(17)  Bbb    -0.8113    58.706    20.948    19.582  0.2749 -0.6128  0.7409
              Bcc     2.2859  -165.409   -59.022   -55.174  0.9313  0.3612 -0.0468
 
              Baa    -0.0002    -0.030    -0.011    -0.010  0.7851  0.1669  0.5965
    66 C(13)  Bbb     0.0001     0.012     0.004     0.004 -0.0668  0.9802 -0.1863
              Bcc     0.0001     0.017     0.006     0.006 -0.6158  0.1064  0.7807
 
              Baa    -0.0002    -0.082    -0.029    -0.027  0.9091 -0.2880  0.3009
    67 H(1)   Bbb    -0.0000    -0.003    -0.001    -0.001  0.3717  0.8869 -0.2742
              Bcc     0.0002     0.085     0.030     0.028 -0.1879  0.3612  0.9134
 
              Baa    -0.0001    -0.045    -0.016    -0.015  0.7072  0.5735  0.4135
    68 H(1)   Bbb     0.0000     0.004     0.001     0.001  0.7067 -0.5904 -0.3899
              Bcc     0.0001     0.041     0.015     0.014 -0.0206 -0.5679  0.8228
 
              Baa    -0.0003    -0.134    -0.048    -0.045  0.8685  0.3759  0.3231
    69 H(1)   Bbb     0.0000     0.010     0.004     0.003 -0.4194  0.9047  0.0748
              Bcc     0.0002     0.124     0.044     0.041 -0.2642 -0.2005  0.9434
 
              Baa    -0.0011    -0.043    -0.015    -0.014  0.0878 -0.4173  0.9045
    70 N(14)  Bbb     0.0001     0.003     0.001     0.001  0.9946  0.0876 -0.0561
              Bcc     0.0010     0.040     0.014     0.013 -0.0558  0.9046  0.4227
 
              Baa    -0.0004    -0.218    -0.078    -0.073 -0.2159 -0.5708  0.7922
    71 H(1)   Bbb     0.0001     0.056     0.020     0.019  0.9743 -0.0730  0.2130
              Bcc     0.0003     0.163     0.058     0.054 -0.0638  0.8178  0.5719
 
              Baa    -0.0012    -0.162    -0.058    -0.054  0.2978 -0.0168  0.9545
    72 C(13)  Bbb     0.0002     0.031     0.011     0.010  0.9260  0.2479 -0.2846
              Bcc     0.0010     0.131     0.047     0.044 -0.2319  0.9686  0.0894
 
              Baa    -0.0066    -0.882    -0.315    -0.294 -0.1732 -0.4751  0.8627
    73 C(13)  Bbb     0.0027     0.363     0.130     0.121  0.6418  0.6100  0.4648
              Bcc     0.0039     0.519     0.185     0.173  0.7470 -0.6342 -0.1992
 
              Baa    -0.0048    -2.563    -0.915    -0.855  0.5328  0.6041 -0.5926
    74 H(1)   Bbb     0.0019     1.027     0.366     0.343 -0.6874  0.7174  0.1134
              Bcc     0.0029     1.536     0.548     0.513  0.4937  0.3469  0.7975
 
              Baa    -0.0113    -0.435    -0.155    -0.145  0.1156 -0.1667  0.9792
    75 N(14)  Bbb     0.0039     0.151     0.054     0.050  0.9584  0.2777 -0.0659
              Bcc     0.0074     0.284     0.101     0.095 -0.2610  0.9461  0.1919
 
              Baa    -0.0066    -0.888    -0.317    -0.296  0.4563  0.2191  0.8624
    76 C(13)  Bbb     0.0030     0.399     0.142     0.133  0.5371  0.7049 -0.4633
              Bcc     0.0036     0.489     0.175     0.163  0.7094 -0.6746 -0.2039
 
              Baa    -0.0053    -2.804    -1.001    -0.935  0.7192  0.4157  0.5567
    77 H(1)   Bbb     0.0020     1.052     0.375     0.351 -0.4827  0.8753 -0.0300
              Bcc     0.0033     1.752     0.625     0.584 -0.4998 -0.2471  0.8302
 

 ---------------------------------------------------------------------------------

 Unable to Open any file for archive entry.
 1\1\GINC-BGN1017\SP\UAPFD\Gen\C34H34Fe1N6O2(1+,2)\BECSLEIP\05-Sep-2024
 \0\\# apfd/gen scf=maxcycle=999 geom=check\\2veb_III_D\\1,2\Fe,0,10.66
 21827722,49.2527922912,8.1666229445\N,0,10.3187449823,48.8885029599,10
 .0818308132\N,0,12.2248045827,50.3779226457,8.6638473615\N,0,11.134039
 2885,49.4952338546,6.2458991417\N,0,9.1459549796,48.0556918304,7.66779
 22222\C,0,9.5022782508,47.9354479745,10.5989651326\C,0,9.5191292147,47
 .9983543344,12.0445266227\C,0,10.3409473131,49.0329702756,12.375019105
 5\C,0,10.8412952694,49.5727714849,11.1301201894\C,0,12.3847333463,50.9
 958872194,9.861834417\C,0,13.4239255412,51.9952933733,9.7737074985\C,0
 ,13.9129195653,51.9272646541,8.5032192163\C,0,13.1216224972,50.9328170
 124,7.8130870151\C,0,12.3014127431,49.9530234462,5.7269483834\C,0,12.2
 700280253,49.8792062194,4.2789438086\C,0,11.0239882341,49.4106531142,3
 .9507769674\C,0,10.3472488602,49.1428910892,5.1966168041\C,0,8.5931674
 723,47.9570804405,6.4367064239\C,0,7.5048398968,46.9974817578,6.460758
 2659\C,0,7.4378853522,46.5262316795,7.7479667509\C,0,8.4589765516,47.2
 209076878,8.4904302529\C,0,8.6790381973,47.1020347706,9.8554477469\H,0
 ,8.0988919257,46.3688620877,10.3953673705\C,0,11.7417231032,50.6210641
 685,11.0292195127\H,0,12.0174869834,51.1326035764,11.9391799637\C,0,13
 .2808918658,50.5867616617,6.4770248557\H,0,14.1470625352,50.973080223,
 5.9618457636\C,0,9.1023031565,48.5389714036,5.287001059\H,0,8.57339820
 97,48.3560982205,4.3639207983\C,0,8.7600746793,47.0740165304,12.932330
 6259\H,0,9.0460832739,46.0419310742,12.7329856096\H,0,7.6870720446,47.
 1672043748,12.7608642359\H,0,8.9605608472,47.2896704286,13.9786129141\
 C,0,10.720017572,49.5441863133,13.7220797888\H,0,10.4882167876,50.6057
 567824,13.8115110253\H,0,11.7897822384,49.4165080949,13.8854528165\H,0
 ,10.1872551802,49.0091043275,14.5039959418\C,0,6.4735490704,45.5498592
 858,8.3240875202\H,0,5.5700612104,45.5136709442,7.7186154293\H,0,6.203
 1083775,45.8273320931,9.3413223997\H,0,6.9093494301,44.5504051997,8.35
 2761792\C,0,6.6851010539,46.6639283336,5.3165685786\H,0,6.5274652534,4
 7.4703426241,4.6092765816\C,0,6.1378399714,45.4774596065,5.0734431871\
 H,0,6.3026239516,44.6280311534,5.712184972\H,0,5.5269903475,45.3085803
 734,4.2022775089\C,0,10.4289122,49.2311477556,2.598491759\H,0,9.375078
 7727,49.5051800717,2.602333349\H,0,10.5062004893,48.1920213857,2.27611
 2251\H,0,10.9502055562,49.8553135372,1.8755506367\C,0,13.3618370173,50
 .2695000698,3.4141339241\H,0,14.0041344476,51.0540853485,3.7957556945\
 C,0,13.6362005511,49.7337172604,2.2293718142\H,0,14.4667364456,50.0787
 367886,1.6364630278\H,0,13.0672791371,48.916173352,1.8235284246\C,0,15
 .0102673609,52.7112114707,7.8706001619\H,0,15.4702498047,53.3847308957
 ,8.5893501319\H,0,14.6295841981,53.3026066659,7.0370005496\H,0,15.7793
 19616,52.04178953,7.4864400162\C,0,13.8543204506,52.8624517395,10.9062
 454173\H,0,14.5855907498,53.5956697692,10.5762386119\H,0,14.3048374111
 ,52.2604321318,11.6952455602\H,0,13.0012367218,53.3918571334,11.329843
 0421\O,0,11.6437335153,47.8867165797,8.0757594489\O,0,12.4610986727,47
 .6278579798,9.0231298591\C,0,8.4487498689,54.5173152418,7.3970355273\H
 ,0,8.5438536624,55.2035923816,8.2385613749\H,0,7.4558892766,54.6430873
 479,6.9655193721\H,0,9.1900554455,54.7802498709,6.6488427261\N,0,7.844
 9120094,52.497008927,8.7489050681\H,0,7.047315464,52.9141518642,9.2009
 847137\C,0,8.6592215754,53.1151762887,7.8349917496\C,0,8.3088303424,51
 .240836127,8.9257523338\H,0,7.8681108411,50.5230924761,9.5873335722\N,
 0,9.3632460772,51.0250454295,8.1831223763\C,0,9.5958283171,52.17949415
 41,7.4978176318\H,0,10.4150919974,52.2548614293,6.8125425391\\Version=
 ES64L-G16RevC.02\State=2-A\HF=-3057.0304305\S2=1.631746\S2-1=0.\S2A=0.
 983229\RMSD=7.612e-09\Dipole=-1.8500017,2.2061742,0.4442549\Quadrupole
 =-4.3986637,-6.5522496,10.9509133,17.3631577,-6.5214274,3.8818139\PG=C
 01 [X(C34H34Fe1N6O2)]\\@
 The archive entry for this job was punched.


    THE DOUGHNUT CREED
 AS YOU RAMBLE ON THROUGH LIFE, BROTHER
 WHATEVER BE YOUR GOAL
 KEEP YOUR EYE UPON THE DOUGHNUT
 AND NOT UPON THE HOLE.
 Job cpu time:       0 days  2 hours 45 minutes 43.6 seconds.
 Elapsed time:       0 days  0 hours  2 minutes 55.5 seconds.
 File lengths (MBytes):  RWF=    442 Int=      0 D2E=      0 Chk=    157 Scr=      1
 Normal termination of Gaussian 16 at Thu Sep  5 18:25:23 2024.
OOK BACK.  SOMETHING MAY BE GAINING ON YOU.
 Job cpu time:       0 days  2 hours 48 minutes 41.4 seconds.
 Elapsed time:       0 days  0 hours  2 minutes 49.3 seconds.
 File lengths (MBytes):  RWF=    442 Int=      0 D2E=      0 Chk=    157 Scr=      1
 Normal termination of Gaussian 16 at Thu Sep  5 18:24:47 2024.
