 Entering Gaussian System, Link 0=g16
 Input=2vlx01.com
 Output=2vlx01.log
 Initial command:
 /sw/chem/gaussian/g16_C02/a100/g16/l1.exe "/local/becsleip_8005660/Gau-2484968.inp" -scrdir="/local/becsleip_8005660/"
 Entering Link 1 = /sw/chem/gaussian/g16_C02/a100/g16/l1.exe PID=   2484969.
  
 Copyright (c) 1988-2021, Gaussian, Inc.  All Rights Reserved.
  
 This is part of the Gaussian(R) 16 program.  It is based on
 the Gaussian(R) 09 system (copyright 2009, Gaussian, Inc.),
 the Gaussian(R) 03 system (copyright 2003, Gaussian, Inc.),
 the Gaussian(R) 98 system (copyright 1998, Gaussian, Inc.),
 the Gaussian(R) 94 system (copyright 1995, Gaussian, Inc.),
 the Gaussian 92(TM) system (copyright 1992, Gaussian, Inc.),
 the Gaussian 90(TM) system (copyright 1990, Gaussian, Inc.),
 the Gaussian 88(TM) system (copyright 1988, Gaussian, Inc.),
 the Gaussian 86(TM) system (copyright 1986, Carnegie Mellon
 University), and the Gaussian 82(TM) system (copyright 1983,
 Carnegie Mellon University). Gaussian is a federally registered
 trademark of Gaussian, Inc.
  
 This software contains proprietary and confidential information,
 including trade secrets, belonging to Gaussian, Inc.
  
 This software is provided under written license and may be
 used, copied, transmitted, or stored only in accord with that
 written license.
  
 The following legend is applicable only to US Government
 contracts under FAR:
  
                    RESTRICTED RIGHTS LEGEND
  
 Use, reproduction and disclosure by the US Government is
 subject to restrictions as set forth in subparagraphs (a)
 and (c) of the Commercial Computer Software - Restricted
 Rights clause in FAR 52.227-19.
  
 Gaussian, Inc.
 340 Quinnipiac St., Bldg. 40, Wallingford CT 06492
  
  
 ---------------------------------------------------------------
 Warning -- This program may not be used in any manner that
 competes with the business of Gaussian, Inc. or will provide
 assistance to any competitor of Gaussian, Inc.  The licensee
 of this program is prohibited from giving any competitor of
 Gaussian, Inc. access to this program.  By using this program,
 the user acknowledges that Gaussian, Inc. is engaged in the
 business of creating and licensing software in the field of
 computational chemistry and represents and warrants to the
 licensee that it is not a competitor of Gaussian, Inc. and that
 it will not use this program in any manner prohibited above.
 ---------------------------------------------------------------
  

 Cite this work as:
 Gaussian 16, Revision C.02,
 M. J. Frisch, G. W. Trucks, H. B. Schlegel, G. E. Scuseria, 
 M. A. Robb, J. R. Cheeseman, G. Scalmani, V. Barone, 
 G. A. Petersson, H. Nakatsuji, X. Li, M. Caricato, A. V. Marenich, 
 J. Bloino, B. G. Janesko, R. Gomperts, B. Mennucci, H. P. Hratchian, 
 J. V. Ortiz, A. F. Izmaylov, J. L. Sonnenberg, D. Williams-Young, 
 F. Ding, F. Lipparini, F. Egidi, J. Goings, B. Peng, A. Petrone, 
 T. Henderson, D. Ranasinghe, V. G. Zakrzewski, J. Gao, N. Rega, 
 G. Zheng, W. Liang, M. Hada, M. Ehara, K. Toyota, R. Fukuda, 
 J. Hasegawa, M. Ishida, T. Nakajima, Y. Honda, O. Kitao, H. Nakai, 
 T. Vreven, K. Throssell, J. A. Montgomery, Jr., J. E. Peralta, 
 F. Ogliaro, M. J. Bearpark, J. J. Heyd, E. N. Brothers, K. N. Kudin, 
 V. N. Staroverov, T. A. Keith, R. Kobayashi, J. Normand, 
 K. Raghavachari, A. P. Rendell, J. C. Burant, S. S. Iyengar, 
 J. Tomasi, M. Cossi, J. M. Millam, M. Klene, C. Adamo, R. Cammi, 
 J. W. Ochterski, R. L. Martin, K. Morokuma, O. Farkas, 
 J. B. Foresman, and D. J. Fox, Gaussian, Inc., Wallingford CT, 2019.
 
 ******************************************
 Gaussian 16:  ES64L-G16RevC.02  7-Dec-2021
                 5-Sep-2024 
 ******************************************
 %mem=16GB
 %CPU=0-71
 SetSPE:  set environment variable "OMP_PROC_BIND" = "true"
 SetSPE:  set environment variable "OMP_PLACES" = "{0},{1},{2},{3},{4},{5},{6},{7},{8},{9},{10},{11},{12},{13},{14},{15},{16},{17},{18},{19},{20},{21},{22},{23},{24},{25},{26},{27},{28},{29},{30},{31},{32},{33},{34},{35},{36},{37},{38},{39},{40},{41},{42},{43},{44},{45},{46},{47},{48},{49},{50},{51},{52},{53},{54},{55},{56},{57},{58},{59},{60},{61},{62},{63},{64},{65},{66},{67},{68},{69},{70},{71}"
 Will use up to   72 processors via shared memory.
 %gpucpu=0,1,2,3=0,1,2,3
 Will use    4 GPUs:
 Thread  CPU   GPU
      0    0     0
      1    1     1
      2    2     2
      3    3     3
      4    4    -1
      5    5    -1
      6    6    -1
      7    7    -1
      8    8    -1
      9    9    -1
     10   10    -1
     11   11    -1
     12   12    -1
     13   13    -1
     14   14    -1
     15   15    -1
     16   16    -1
     17   17    -1
     18   18    -1
     19   19    -1
     20   20    -1
     21   21    -1
     22   22    -1
     23   23    -1
     24   24    -1
     25   25    -1
     26   26    -1
     27   27    -1
     28   28    -1
     29   29    -1
     30   30    -1
     31   31    -1
     32   32    -1
     33   33    -1
     34   34    -1
     35   35    -1
     36   36    -1
     37   37    -1
     38   38    -1
     39   39    -1
     40   40    -1
     41   41    -1
     42   42    -1
     43   43    -1
     44   44    -1
     45   45    -1
     46   46    -1
     47   47    -1
     48   48    -1
     49   49    -1
     50   50    -1
     51   51    -1
     52   52    -1
     53   53    -1
     54   54    -1
     55   55    -1
     56   56    -1
     57   57    -1
     58   58    -1
     59   59    -1
     60   60    -1
     61   61    -1
     62   62    -1
     63   63    -1
     64   64    -1
     65   65    -1
     66   66    -1
     67   67    -1
     68   68    -1
     69   69    -1
     70   70    -1
     71   71    -1
 SetGPE:  set environment variable "OMP_PROC_BIND" = "true"
 SetGPE:  set environment variable "OMP_PLACES" = "{0},{1},{2},{3},{4},{5},{6},{7},{8},{9},{10},{11},{12},{13},{14},{15},{16},{17},{18},{19},{20},{21},{22},{23},{24},{25},{26},{27},{28},{29},{30},{31},{32},{33},{34},{35},{36},{37},{38},{39},{40},{41},{42},{43},{44},{45},{46},{47},{48},{49},{50},{51},{52},{53},{54},{55},{56},{57},{58},{59},{60},{61},{62},{63},{64},{65},{66},{67},{68},{69},{70},{71}"
 %chk=2vlx_II_O.chk
 Properties for Device   0
 Minimum vector length:                              32
 Maximum vector length:                            1024
 Number of SMPs:                                    108
 Maximum number of threads per SMP:                2048
 Number of ASync Engines:                             5
 Memory:                                           9207742464
 Properties for Device   1
 Minimum vector length:                              32
 Maximum vector length:                            1024
 Number of SMPs:                                    108
 Maximum number of threads per SMP:                2048
 Number of ASync Engines:                             5
 Memory:                                           9207742464
 Properties for Device   2
 Minimum vector length:                              32
 Maximum vector length:                            1024
 Number of SMPs:                                    108
 Maximum number of threads per SMP:                2048
 Number of ASync Engines:                             5
 Memory:                                           9207742464
 Properties for Device   3
 Minimum vector length:                              32
 Maximum vector length:                            1024
 Number of SMPs:                                    108
 Maximum number of threads per SMP:                2048
 Number of ASync Engines:                             5
 Memory:                                           9207742464
   8286968217 words of memory will be used on each GPU.
 ------------------------------------------
 # polar def2tzvp apfd int=(grid=ultrafine)
 ------------------------------------------
 1/38=1,172=1/1;
 2/12=2,17=6,18=5,40=1/2;
 3/5=44,7=101,11=2,25=1,30=1,74=-44,75=-5/1,2,3;
 4//1;
 5/5=2,38=5,98=1/2;
 8/6=4,10=90,11=11/1;
 10/6=1,13=10/2;
 6/7=2,8=2,9=2,10=2,28=1/1;
 99/5=1,9=1/99;
 ---------
 2vlx_II_S
 ---------
 Symbolic Z-matrix:
 Charge =  0 Multiplicity = 1
 Fe                    17.079   -31.028   -3.342 
 N                     16.095   -32.373   -2.177 
 N                     17.06    -29.723   -1.781 
 N                     18.027   -29.652   -4.504 
 N                     17.076   -32.346   -4.892 
 C                     15.716   -33.643   -2.55 
 C                     15.106   -34.294   -1.408 
 C                     15.11    -33.43    -0.387 
 C                     15.732   -32.214   -0.853 
 C                     16.539   -29.934   -0.52 
 C                     16.716   -28.739    0.276 
 C                     17.321   -27.833   -0.503 
 C                     17.553   -28.433   -1.799 
 C                     18.299   -28.353   -4.146 
 C                     18.767   -27.642   -5.319 
 C                     18.764   -28.512   -6.346 
 C                     18.307   -29.785   -5.843 
 C                     17.546   -32.077   -6.177 
 C                     17.243   -33.176   -7.05 
 C                     16.519   -34.185   -6.191 
 C                     16.456   -33.598   -4.875 
 C                     15.879   -34.204   -3.792 
 H                     15.517   -35.223   -3.928 
 C                     15.936   -31.087   -0.095 
 H                     15.587   -31.113    0.937 
 C                     18.147   -27.821   -2.884 
 H                     18.535   -26.815   -2.727 
 C                     18.185   -30.937   -6.577 
 H                     18.638   -30.944   -7.568 
 C                     14.571   -33.64     1.04 
 H                     14.149   -34.664    1.13 
 H                     13.77    -32.9      1.251 
 H                     15.397   -33.525    1.774 
 C                     14.574   -35.736   -1.409 
 H                     15.163   -36.348   -2.125 
 H                     13.508   -35.743   -1.722 
 H                     14.674   -36.174   -0.393 
 C                     16.265   -28.594    1.746 
 H                     16.477   -29.537    2.294 
 H                     15.173   -28.392    1.785 
 H                     16.823   -27.764    2.23 
 C                     17.725   -26.406   -0.128 
 H                     18.735   -26.027   -0.34 
 C                     16.839   -25.599    0.469 
 H                     15.822   -25.954    0.692 
 H                     17.117   -24.571    0.744 
 C                     19.173   -26.158   -5.305 
 H                     19.399   -25.845   -4.263 
 H                     18.339   -25.537   -5.695 
 H                     20.08    -26.011   -5.93 
 C                     19.155   -28.306   -7.821 
 H                     19.304   -29.175   -8.478 
 C                     19.323   -27.094   -8.34 
 H                     19.185   -26.197   -7.719 
 H                     19.602   -26.973   -9.397 
 C                     17.574   -33.313   -8.541 
 H                     18.67    -33.443   -8.667 
 H                     17.255   -32.396   -9.082 
 H                     17.055   -34.201   -8.961 
 C                     15.954   -35.53    -6.678 
 H                     16.57    -35.907   -7.522 
 H                     14.909   -35.393   -7.028 
 H                     15.983   -36.271   -5.851 
 C                     22.557   -32.221   -2.612 
 H                     23.029   -32.067   -1.618 
 H                     22.912   -31.429   -3.306 
 H                     22.846   -33.222   -2.998 
 N                     20.363   -32.972   -1.626 
 H                     20.776   -33.657   -1.026 
 C                     21.069   -32.143   -2.475 
 C                     19.072   -32.71    -1.741 
 H                     18.289   -33.207   -1.169 
 N                     18.914   -31.763   -2.65 
 C                     20.148   -31.401   -3.132 
 H                     20.254   -30.646   -3.901 
 H                     16.208   -29.646   -5.189 
 O                     15.297   -29.901   -5.007 
 O                     15.434   -30.387   -3.849 
 H                     14.635   -30.923   -3.798 
 
 Stoichiometry    C34H36FeN6O2
 Framework group  C1[X(C34H36FeN6O2)]
 Deg. of freedom   231
 Full point group                 C1      NOp   1
 Largest Abelian subgroup         C1      NOp   1
 Largest concise Abelian subgroup C1      NOp   1
                         Standard orientation:                         
 ---------------------------------------------------------------------
 Center     Atomic      Atomic             Coordinates (Angstroms)
 Number     Number       Type             X           Y           Z
 ---------------------------------------------------------------------
      1         26           0       -0.136207   -0.144375   -0.267916
      2          7           0       -2.054034   -0.800119   -0.430543
      3          7           0       -0.832853    1.767375   -0.265513
      4          7           0        1.778739    0.534341   -0.146882
      5          7           0        0.537230   -2.064238   -0.283340
      6          6           0       -2.458460   -2.115153   -0.483401
      7          6           0       -3.906584   -2.148645   -0.526771
      8          6           0       -4.351228   -0.887270   -0.513471
      9          6           0       -3.196944   -0.023343   -0.450591
     10          6           0       -2.149126    2.178594   -0.331892
     11          6           0       -2.198741    3.624436   -0.324800
     12          6           0       -0.934139    4.061551   -0.266371
     13          6           0       -0.058832    2.910358   -0.221302
     14          6           0        2.166210    1.851948   -0.204572
     15          6           0        3.610257    1.901207   -0.317599
     16          6           0        4.057510    0.631775   -0.329758
     17          6           0        2.912758   -0.239239   -0.214589
     18          6           0        1.878459   -2.445772   -0.287932
     19          6           0        1.983274   -3.867380   -0.460514
     20          6           0        0.562197   -4.365251   -0.573662
     21          6           0       -0.268934   -3.192388   -0.455303
     22          6           0       -1.636667   -3.214371   -0.498604
     23          1           0       -2.115862   -4.191968   -0.549376
     24          6           0       -3.235144    1.348899   -0.408146
     25          1           0       -4.217686    1.819275   -0.437457
     26          6           0        1.319801    2.938590   -0.164918
     27          1           0        1.786463    3.919592   -0.080720
     28          6           0        2.952618   -1.609272   -0.168054
     29          1           0        3.928156   -2.072428   -0.022619
     30          6           0       -5.808361   -0.391010   -0.551429
     31          1           0       -6.495998   -1.262855   -0.593868
     32          1           0       -5.967033    0.237691   -1.453249
     33          1           0       -6.028609    0.197204    0.364951
     34          6           0       -4.747262   -3.434811   -0.564542
     35          1           0       -4.206780   -4.246779   -0.032840
     36          1           0       -4.913893   -3.743964   -1.618597
     37          1           0       -5.722349   -3.261155   -0.061403
     38          6           0       -3.500288    4.453981   -0.380981
     39          1           0       -4.274935    3.972540    0.253553
     40          1           0       -3.869963    4.501173   -1.427835
     41          1           0       -3.308974    5.479445    0.001565
     42          6           0       -0.452582    5.513280   -0.238879
     43          1           0        0.280215    5.854948    0.506075
     44          6           0       -0.927247    6.388586   -1.133970
     45          1           0       -1.661134    6.071969   -1.889753
     46          1           0       -0.589359    7.435218   -1.124724
     47          6           0        4.409618    3.213010   -0.404104
     48          1           0        3.792697    4.049948   -0.011991
     49          1           0        4.671859    3.423651   -1.462479
     50          1           0        5.334264    3.130185    0.206676
     51          6           0        5.493853    0.087671   -0.438439
     52          1           0        5.701704   -0.968010   -0.211845
     53          6           0        6.511772    0.860949   -0.802323
     54          1           0        6.349639    1.922910   -1.037366
     55          1           0        7.528907    0.448436   -0.873038
     56          6           0        3.258411   -4.716895   -0.521842
     57          1           0        3.731648   -4.748225    0.482676
     58          1           0        3.974145   -4.267780   -1.243889
     59          1           0        3.005097   -5.752762   -0.833475
     60          6           0        0.144315   -5.827399   -0.803703
     61          1           0        0.902123   -6.504437   -0.355075
     62          1           0        0.079083   -6.031680   -1.893340
     63          1           0       -0.838781   -6.017086   -0.322670
     64          6           0        0.890658   -0.049914    5.290974
     65          1           0        0.338870    0.660256    5.943450
     66          1           0        1.938698    0.302569    5.180111
     67          1           0        0.876057   -1.057180    5.759718
     68          7           0       -1.094432   -0.457147    3.793171
     69          1           0       -1.719215   -0.667547    4.544951
     70          6           0        0.232440   -0.108185    3.948457
     71          6           0       -1.390982   -0.465814    2.504554
     72          1           0       -2.378055   -0.689424    2.100862
     73          7           0       -0.301489   -0.162153    1.819829
     74          6           0        0.729783    0.053815    2.700715
     75          1           0        1.724892    0.303284    2.354095
     76          1           0        1.624338   -0.056752   -1.992090
     77          8           0        1.008983   -0.296513   -2.693462
     78          8           0       -0.087580   -0.084419   -2.103126
     79          1           0       -0.676652   -0.614690   -2.650943
 ---------------------------------------------------------------------
 Rotational constants (GHZ):           0.0892266           0.0873191           0.0580666
 Standard basis: def2TZVP (5D, 7F)
 There are  1780 symmetry adapted cartesian basis functions of A   symmetry.
 There are  1563 symmetry adapted basis functions of A   symmetry.
  1563 basis functions,  2532 primitive gaussians,  1780 cartesian basis functions
   162 alpha electrons      162 beta electrons
       nuclear repulsion energy      6245.5091467162 Hartrees.
 NAtoms=   79 NActive=   79 NUniq=   79 SFac= 1.00D+00 NAtFMM=   60 NAOKFM=T Big=T
 Integral buffers will be    131072 words long.
 Raffenetti 2 integral format.
 Two-electron integral symmetry is turned on.
 R6APFD:  NTU= -4 IXU= 1 FactS= 1.050
 Nuclear repulsion after empirical dispersion term =     6245.3529654079 Hartrees.
 One-electron integrals computed using PRISM.
   1 Symmetry operations used in ECPInt.
 ECPInt:  NShTT=  193131 NPrTT=  597869 LenC2=  151661 LenP2D=  309746.
 LDataN:  DoStor=T MaxTD1= 6 Len=  172
 Number of processors reduced to  22 by ecpmxn.
 NBasis=  1563 RedAO= T EigKep=  3.46D-06  NBF=  1563
 NBsUse=  1563 1.00D-06 EigRej= -1.00D+00 NBFU=  1563
 ExpMin= 4.20D-02 ExpMax= 3.01D+05 ExpMxC= 2.91D+03 IAcc=3 IRadAn=         5 AccDes= 0.00D+00
 Harris functional with IExCor= 3731 and IRadAn=       5 diagonalized for initial guess.
 HarFok:  IExCor= 3731 AccDes= 0.00D+00 IRadAn=         5 IDoV= 1 UseB2=F ITyADJ=14
 ICtDFT=  3500011 ScaDFX=  1.000000  1.000000  1.000000  1.000000
 FoFCou: FMM=F IPFlag=           0 FMFlag=      100000 FMFlg1=        2001
         NFxFlg=           0 DoJE=T BraDBF=F KetDBF=T FulRan=T
         wScrn=  0.000000 ICntrl=       500 IOpCl=  0 I1Cent=   200000004 NGrid=           0
         NMat0=    1 NMatS0=      1 NMatT0=    0 NMatD0=    1 NMtDS0=    0 NMtDT0=    0
 Petite list used in FoFCou.
 Requested convergence on RMS density matrix=1.00D-08 within 128 cycles.
 Requested convergence on MAX density matrix=1.00D-06.
 Requested convergence on             energy=1.00D-06.
 No special actions if energy rises.
 EnCoef did     4 forward-backward iterations
 EnCoef did   100 forward-backward iterations
 EnCoef did   100 forward-backward iterations
 EnCoef did   100 forward-backward iterations
 EnCoef did     3 forward-backward iterations
 EnCoef did   100 forward-backward iterations
 EnCoef did     1 forward-backward iterations
 EnCoef did     2 forward-backward iterations
 Restarting incremental Fock formation.
 SCF Done:  E(RAPFD) =  -3059.04577820     A.U. after   27 cycles
            NFock= 27  Conv=0.37D-08     -V/T= 2.0039
 DoSCS=F DFT=T ScalE2(SS,OS)=  1.000000  1.000000
 Range of M.O.s used for correlation:     1  1563
 NBasis=  1563 NAE=   162 NBE=   162 NFC=     0 NFV=     0
 NROrb=   1563 NOA=   162 NOB=   162 NVA=  1401 NVB=  1401

 **** Warning!!: The largest alpha MO coefficient is  0.44775530D+02


 **** Warning!!: The smallest alpha delta epsilon is  0.96870078D-01

          Differentiating once with respect to electric field.
                with respect to dipole field.
          Electric field/nuclear overlap derivatives assumed to be zero.
          There are     3 degrees of freedom in the 1st order CPHF.  IDoFFX=0 NUNeed=     3.
      3 vectors produced by pass  0 Test12= 7.57D-12 3.33D-08 XBig12= 1.86D+03 2.78D+01.
 AX will form     3 AO Fock derivatives at one time.
      3 vectors produced by pass  1 Test12= 7.57D-12 3.33D-08 XBig12= 1.30D+03 9.93D+00.
      3 vectors produced by pass  2 Test12= 7.57D-12 3.33D-08 XBig12= 3.41D+02 3.73D+00.
      3 vectors produced by pass  3 Test12= 7.57D-12 3.33D-08 XBig12= 3.25D+02 4.55D+00.
      3 vectors produced by pass  4 Test12= 7.57D-12 3.33D-08 XBig12= 1.35D+02 2.16D+00.
      3 vectors produced by pass  5 Test12= 7.57D-12 3.33D-08 XBig12= 8.00D+01 2.19D+00.
      3 vectors produced by pass  6 Test12= 7.57D-12 3.33D-08 XBig12= 5.24D+01 1.70D+00.
      3 vectors produced by pass  7 Test12= 7.57D-12 3.33D-08 XBig12= 2.64D+01 1.05D+00.
      3 vectors produced by pass  8 Test12= 7.57D-12 3.33D-08 XBig12= 1.33D+01 1.15D+00.
      3 vectors produced by pass  9 Test12= 7.57D-12 3.33D-08 XBig12= 5.16D+00 5.52D-01.
      3 vectors produced by pass 10 Test12= 7.57D-12 3.33D-08 XBig12= 3.23D+00 6.15D-01.
      3 vectors produced by pass 11 Test12= 7.57D-12 3.33D-08 XBig12= 1.59D+00 3.81D-01.
      3 vectors produced by pass 12 Test12= 7.57D-12 3.33D-08 XBig12= 5.22D-01 1.36D-01.
      3 vectors produced by pass 13 Test12= 7.57D-12 3.33D-08 XBig12= 1.88D-01 6.51D-02.
      3 vectors produced by pass 14 Test12= 7.57D-12 3.33D-08 XBig12= 7.27D-02 5.97D-02.
      3 vectors produced by pass 15 Test12= 7.57D-12 3.33D-08 XBig12= 4.00D-02 5.87D-02.
      3 vectors produced by pass 16 Test12= 7.57D-12 3.33D-08 XBig12= 1.59D-02 2.53D-02.
      3 vectors produced by pass 17 Test12= 7.57D-12 3.33D-08 XBig12= 6.81D-03 1.16D-02.
      3 vectors produced by pass 18 Test12= 7.57D-12 3.33D-08 XBig12= 2.00D-03 5.38D-03.
      3 vectors produced by pass 19 Test12= 7.57D-12 3.33D-08 XBig12= 3.57D-04 2.87D-03.
      3 vectors produced by pass 20 Test12= 7.57D-12 3.33D-08 XBig12= 7.41D-05 1.88D-03.
      3 vectors produced by pass 21 Test12= 7.57D-12 3.33D-08 XBig12= 1.75D-05 6.53D-04.
      3 vectors produced by pass 22 Test12= 7.57D-12 3.33D-08 XBig12= 5.06D-06 5.17D-04.
      3 vectors produced by pass 23 Test12= 7.57D-12 3.33D-08 XBig12= 6.68D-07 1.51D-04.
      3 vectors produced by pass 24 Test12= 7.57D-12 3.33D-08 XBig12= 1.82D-07 5.93D-05.
      3 vectors produced by pass 25 Test12= 7.57D-12 3.33D-08 XBig12= 3.73D-08 3.29D-05.
      3 vectors produced by pass 26 Test12= 7.57D-12 3.33D-08 XBig12= 5.84D-09 1.42D-05.
      3 vectors produced by pass 27 Test12= 7.57D-12 3.33D-08 XBig12= 8.34D-10 4.91D-06.
      3 vectors produced by pass 28 Test12= 7.57D-12 3.33D-08 XBig12= 1.44D-10 2.42D-06.
      3 vectors produced by pass 29 Test12= 7.57D-12 3.33D-08 XBig12= 1.55D-11 7.78D-07.
      3 vectors produced by pass 30 Test12= 7.57D-12 3.33D-08 XBig12= 2.38D-12 2.82D-07.
      3 vectors produced by pass 31 Test12= 7.57D-12 3.33D-08 XBig12= 5.87D-13 1.14D-07.
      1 vectors produced by pass 32 Test12= 7.57D-12 3.33D-08 XBig12= 7.27D-14 4.01D-08.
 InvSVY:  IOpt=1 It=  1 EMax= 2.13D-14
 Solved reduced A of dimension    97 with     3 vectors.
 Isotropic polarizability for W=    0.000000      583.00 Bohr**3.
 End of Minotr F.D. properties file   721 does not exist.
 End of Minotr F.D. properties file   722 does not exist.
 End of Minotr F.D. properties file   788 does not exist.

 **********************************************************************

            Population analysis using the SCF Density.

 **********************************************************************

 Orbital symmetries:
       Occupied  (A) (A) (A) (A) (A) (A) (A) (A) (A) (A) (A) (A)
                 (A) (A) (A) (A) (A) (A) (A) (A) (A) (A) (A) (A)
                 (A) (A) (A) (A) (A) (A) (A) (A) (A) (A) (A) (A)
                 (A) (A) (A) (A) (A) (A) (A) (A) (A) (A) (A) (A)
                 (A) (A) (A) (A) (A) (A) (A) (A) (A) (A) (A) (A)
                 (A) (A) (A) (A) (A) (A) (A) (A) (A) (A) (A) (A)
                 (A) (A) (A) (A) (A) (A) (A) (A) (A) (A) (A) (A)
                 (A) (A) (A) (A) (A) (A) (A) (A) (A) (A) (A) (A)
                 (A) (A) (A) (A) (A) (A) (A) (A) (A) (A) (A) (A)
                 (A) (A) (A) (A) (A) (A) (A) (A) (A) (A) (A) (A)
                 (A) (A) (A) (A) (A) (A) (A) (A) (A) (A) (A) (A)
                 (A) (A) (A) (A) (A) (A) (A) (A) (A) (A) (A) (A)
                 (A) (A) (A) (A) (A) (A) (A) (A) (A) (A) (A) (A)
                 (A) (A) (A) (A) (A) (A)
       Virtual   (A) (A) (A) (A) (A) (A) (A) (A) (A) (A) (A) (A)
                 (A) (A) (A) (A) (A) (A) (A) (A) (A) (A) (A) (A)
                 (A) (A) (A) (A) (A) (A) (A) (A) (A) (A) (A) (A)
                 (A) (A) (A) (A) (A) (A) (A) (A) (A) (A) (A) (A)
                 (A) (A) (A) (A) (A) (A) (A) (A) (A) (A) (A) (A)
                 (A) (A) (A) (A) (A) (A) (A) (A) (A) (A) (A) (A)
                 (A) (A) (A) (A) (A) (A) (A) (A) (A) (A) (A) (A)
                 (A) (A) (A) (A) (A) (A) (A) (A) (A) (A) (A) (A)
                 (A) (A) (A) (A) (A) (A) (A) (A) (A) (A) (A) (A)
                 (A) (A) (A) (A) (A) (A) (A) (A) (A) (A) (A) (A)
                 (A) (A) (A) (A) (A) (A) (A) (A) (A) (A) (A) (A)
                 (A) (A) (A) (A) (A) (A) (A) (A) (A) (A) (A) (A)
                 (A) (A) (A) (A) (A) (A) (A) (A) (A) (A) (A) (A)
                 (A) (A) (A) (A) (A) (A) (A) (A) (A) (A) (A) (A)
                 (A) (A) (A) (A) (A) (A) (A) (A) (A) (A) (A) (A)
                 (A) (A) (A) (A) (A) (A) (A) (A) (A) (A) (A) (A)
                 (A) (A) (A) (A) (A) (A) (A) (A) (A) (A) (A) (A)
                 (A) (A) (A) (A) (A) (A) (A) (A) (A) (A) (A) (A)
                 (A) (A) (A) (A) (A) (A) (A) (A) (A) (A) (A) (A)
                 (A) (A) (A) (A) (A) (A) (A) (A) (A) (A) (A) (A)
                 (A) (A) (A) (A) (A) (A) (A) (A) (A) (A) (A) (A)
                 (A) (A) (A) (A) (A) (A) (A) (A) (A) (A) (A) (A)
                 (A) (A) (A) (A) (A) (A) (A) (A) (A) (A) (A) (A)
                 (A) (A) (A) (A) (A) (A) (A) (A) (A) (A) (A) (A)
                 (A) (A) (A) (A) (A) (A) (A) (A) (A) (A) (A) (A)
                 (A) (A) (A) (A) (A) (A) (A) (A) (A) (A) (A) (A)
                 (A) (A) (A) (A) (A) (A) (A) (A) (A) (A) (A) (A)
                 (A) (A) (A) (A) (A) (A) (A) (A) (A) (A) (A) (A)
                 (A) (A) (A) (A) (A) (A) (A) (A) (A) (A) (A) (A)
                 (A) (A) (A) (A) (A) (A) (A) (A) (A) (A) (A) (A)
                 (A) (A) (A) (A) (A) (A) (A) (A) (A) (A) (A) (A)
                 (A) (A) (A) (A) (A) (A) (A) (A) (A) (A) (A) (A)
                 (A) (A) (A) (A) (A) (A) (A) (A) (A) (A) (A) (A)
                 (A) (A) (A) (A) (A) (A) (A) (A) (A) (A) (A) (A)
                 (A) (A) (A) (A) (A) (A) (A) (A) (A) (A) (A) (A)
                 (A) (A) (A) (A) (A) (A) (A) (A) (A) (A) (A) (A)
                 (A) (A) (A) (A) (A) (A) (A) (A) (A) (A) (A) (A)
                 (A) (A) (A) (A) (A) (A) (A) (A) (A) (A) (A) (A)
                 (A) (A) (A) (A) (A) (A) (A) (A) (A) (A) (A) (A)
                 (A) (A) (A) (A) (A) (A) (A) (A) (A) (A) (A) (A)
                 (A) (A) (A) (A) (A) (A) (A) (A) (A) (A) (A) (A)
                 (A) (A) (A) (A) (A) (A) (A) (A) (A) (A) (A) (A)
                 (A) (A) (A) (A) (A) (A) (A) (A) (A) (A) (A) (A)
                 (A) (A) (A) (A) (A) (A) (A) (A) (A) (A) (A) (A)
                 (A) (A) (A) (A) (A) (A) (A) (A) (A) (A) (A) (A)
                 (A) (A) (A) (A) (A) (A) (A) (A) (A) (A) (A) (A)
                 (A) (A) (A) (A) (A) (A) (A) (A) (A) (A) (A) (A)
                 (A) (A) (A) (A) (A) (A) (A) (A) (A) (A) (A) (A)
                 (A) (A) (A) (A) (A) (A) (A) (A) (A) (A) (A) (A)
                 (A) (A) (A) (A) (A) (A) (A) (A) (A) (A) (A) (A)
                 (A) (A) (A) (A) (A) (A) (A) (A) (A) (A) (A) (A)
                 (A) (A) (A) (A) (A) (A) (A) (A) (A) (A) (A) (A)
                 (A) (A) (A) (A) (A) (A) (A) (A) (A) (A) (A) (A)
                 (A) (A) (A) (A) (A) (A) (A) (A) (A) (A) (A) (A)
                 (A) (A) (A) (A) (A) (A) (A) (A) (A) (A) (A) (A)
                 (A) (A) (A) (A) (A) (A) (A) (A) (A) (A) (A) (A)
                 (A) (A) (A) (A) (A) (A) (A) (A) (A) (A) (A) (A)
                 (A) (A) (A) (A) (A) (A) (A) (A) (A) (A) (A) (A)
                 (A) (A) (A) (A) (A) (A) (A) (A) (A) (A) (A) (A)
                 (A) (A) (A) (A) (A) (A) (A) (A) (A) (A) (A) (A)
                 (A) (A) (A) (A) (A) (A) (A) (A) (A) (A) (A) (A)
                 (A) (A) (A) (A) (A) (A) (A) (A) (A) (A) (A) (A)
                 (A) (A) (A) (A) (A) (A) (A) (A) (A) (A) (A) (A)
                 (A) (A) (A) (A) (A) (A) (A) (A) (A) (A) (A) (A)
                 (A) (A) (A) (A) (A) (A) (A) (A) (A) (A) (A) (A)
                 (A) (A) (A) (A) (A) (A) (A) (A) (A) (A) (A) (A)
                 (A) (A) (A) (A) (A) (A) (A) (A) (A) (A) (A) (A)
                 (A) (A) (A) (A) (A) (A) (A) (A) (A) (A) (A) (A)
                 (A) (A) (A) (A) (A) (A) (A) (A) (A) (A) (A) (A)
                 (A) (A) (A) (A) (A) (A) (A) (A) (A) (A) (A) (A)
                 (A) (A) (A) (A) (A) (A) (A) (A) (A) (A) (A) (A)
                 (A) (A) (A) (A) (A) (A) (A) (A) (A) (A) (A) (A)
                 (A) (A) (A) (A) (A) (A) (A) (A) (A) (A) (A) (A)
                 (A) (A) (A) (A) (A) (A) (A) (A) (A) (A) (A) (A)
                 (A) (A) (A) (A) (A) (A) (A) (A) (A) (A) (A) (A)
                 (A) (A) (A) (A) (A) (A) (A) (A) (A) (A) (A) (A)
                 (A) (A) (A) (A) (A) (A) (A) (A) (A) (A) (A) (A)
                 (A) (A) (A) (A) (A) (A) (A) (A) (A) (A) (A) (A)
                 (A) (A) (A) (A) (A) (A) (A) (A) (A) (A) (A) (A)
                 (A) (A) (A) (A) (A) (A) (A) (A) (A) (A) (A) (A)
                 (A) (A) (A) (A) (A) (A) (A) (A) (A) (A) (A) (A)
                 (A) (A) (A) (A) (A) (A) (A) (A) (A) (A) (A) (A)
                 (A) (A) (A) (A) (A) (A) (A) (A) (A) (A) (A) (A)
                 (A) (A) (A) (A) (A) (A) (A) (A) (A) (A) (A) (A)
                 (A) (A) (A) (A) (A) (A) (A) (A) (A) (A) (A) (A)
                 (A) (A) (A) (A) (A) (A) (A) (A) (A) (A) (A) (A)
                 (A) (A) (A) (A) (A) (A) (A) (A) (A) (A) (A) (A)
                 (A) (A) (A) (A) (A) (A) (A) (A) (A) (A) (A) (A)
                 (A) (A) (A) (A) (A) (A) (A) (A) (A) (A) (A) (A)
                 (A) (A) (A) (A) (A) (A) (A) (A) (A) (A) (A) (A)
                 (A) (A) (A) (A) (A) (A) (A) (A) (A) (A) (A) (A)
                 (A) (A) (A) (A) (A) (A) (A) (A) (A) (A) (A) (A)
                 (A) (A) (A) (A) (A) (A) (A) (A) (A) (A) (A) (A)
                 (A) (A) (A) (A) (A) (A) (A) (A) (A) (A) (A) (A)
                 (A) (A) (A) (A) (A) (A) (A) (A) (A) (A) (A) (A)
                 (A) (A) (A) (A) (A) (A) (A) (A) (A) (A) (A) (A)
                 (A) (A) (A) (A) (A) (A) (A) (A) (A) (A) (A) (A)
                 (A) (A) (A) (A) (A) (A) (A) (A) (A) (A) (A) (A)
                 (A) (A) (A) (A) (A) (A) (A) (A) (A) (A) (A) (A)
                 (A) (A) (A) (A) (A) (A) (A) (A) (A) (A) (A) (A)
                 (A) (A) (A) (A) (A) (A) (A) (A) (A) (A) (A) (A)
                 (A) (A) (A) (A) (A) (A) (A) (A) (A) (A) (A) (A)
                 (A) (A) (A) (A) (A) (A) (A) (A) (A) (A) (A) (A)
                 (A) (A) (A) (A) (A) (A) (A) (A) (A) (A) (A) (A)
                 (A) (A) (A) (A) (A) (A) (A) (A) (A) (A) (A) (A)
                 (A) (A) (A) (A) (A) (A) (A) (A) (A) (A) (A) (A)
                 (A) (A) (A) (A) (A) (A) (A) (A) (A) (A) (A) (A)
                 (A) (A) (A) (A) (A) (A) (A) (A) (A) (A) (A) (A)
                 (A) (A) (A) (A) (A) (A) (A) (A) (A) (A) (A) (A)
                 (A) (A) (A) (A) (A) (A) (A) (A) (A) (A) (A) (A)
                 (A) (A) (A) (A) (A) (A) (A) (A) (A) (A) (A) (A)
                 (A) (A) (A) (A) (A) (A) (A) (A) (A) (A) (A) (A)
                 (A) (A) (A) (A) (A) (A) (A) (A) (A) (A) (A) (A)
                 (A) (A) (A) (A) (A) (A) (A) (A) (A) (A) (A) (A)
                 (A) (A) (A) (A) (A) (A) (A) (A) (A) (A) (A) (A)
                 (A) (A) (A) (A) (A) (A) (A) (A) (A) (A) (A) (A)
                 (A) (A) (A) (A) (A) (A) (A) (A) (A)
 The electronic state is 1-A.
 Alpha  occ. eigenvalues -- -256.17420 -30.02449 -25.86557 -25.86307 -25.86139
 Alpha  occ. eigenvalues --  -19.24440 -19.19833 -14.41450 -14.35395 -14.34249
 Alpha  occ. eigenvalues --  -14.33794 -14.33297 -14.32889 -10.25364 -10.23516
 Alpha  occ. eigenvalues --  -10.21831 -10.21752 -10.21733 -10.21515 -10.21506
 Alpha  occ. eigenvalues --  -10.21494 -10.21357 -10.21279 -10.21162 -10.20835
 Alpha  occ. eigenvalues --  -10.20831 -10.20727 -10.20291 -10.20147 -10.20118
 Alpha  occ. eigenvalues --  -10.20054 -10.19950 -10.19897 -10.19776 -10.19771
 Alpha  occ. eigenvalues --  -10.19633 -10.19608 -10.19363 -10.19299 -10.19203
 Alpha  occ. eigenvalues --  -10.19179 -10.19151 -10.19076 -10.19071 -10.19046
 Alpha  occ. eigenvalues --  -10.18861 -10.18839  -3.40143  -2.16845  -2.16163
 Alpha  occ. eigenvalues --   -2.15816  -1.25025  -1.05403  -0.96781  -0.96001
 Alpha  occ. eigenvalues --   -0.94865  -0.93101  -0.89804  -0.89409  -0.82618
 Alpha  occ. eigenvalues --   -0.81346  -0.80985  -0.80366  -0.80210  -0.79878
 Alpha  occ. eigenvalues --   -0.79639  -0.77775  -0.76361  -0.75499  -0.74593
 Alpha  occ. eigenvalues --   -0.73953  -0.72399  -0.71233  -0.70928  -0.69854
 Alpha  occ. eigenvalues --   -0.68144  -0.68018  -0.66511  -0.64693  -0.64247
 Alpha  occ. eigenvalues --   -0.64075  -0.61321  -0.59649  -0.59506  -0.58965
 Alpha  occ. eigenvalues --   -0.58183  -0.57138  -0.56673  -0.55465  -0.54601
 Alpha  occ. eigenvalues --   -0.53654  -0.53516  -0.52260  -0.51065  -0.50419
 Alpha  occ. eigenvalues --   -0.50259  -0.48830  -0.48078  -0.48054  -0.47402
 Alpha  occ. eigenvalues --   -0.47267  -0.46425  -0.44961  -0.44839  -0.44530
 Alpha  occ. eigenvalues --   -0.44071  -0.43937  -0.43121  -0.43025  -0.42940
 Alpha  occ. eigenvalues --   -0.42665  -0.42582  -0.42514  -0.42328  -0.42137
 Alpha  occ. eigenvalues --   -0.42077  -0.41792  -0.41371  -0.41236  -0.41101
 Alpha  occ. eigenvalues --   -0.40868  -0.40276  -0.40090  -0.39996  -0.39522
 Alpha  occ. eigenvalues --   -0.39383  -0.38922  -0.38641  -0.38543  -0.37906
 Alpha  occ. eigenvalues --   -0.37557  -0.37111  -0.36858  -0.36608  -0.36302
 Alpha  occ. eigenvalues --   -0.35637  -0.34988  -0.34785  -0.34099  -0.33548
 Alpha  occ. eigenvalues --   -0.33382  -0.32494  -0.31891  -0.31270  -0.30607
 Alpha  occ. eigenvalues --   -0.30472  -0.29806  -0.28895  -0.28290  -0.27330
 Alpha  occ. eigenvalues --   -0.27284  -0.25259  -0.24491  -0.23993  -0.23467
 Alpha  occ. eigenvalues --   -0.22524  -0.21272  -0.19252  -0.18879  -0.18736
 Alpha  occ. eigenvalues --   -0.18315  -0.16955
 Alpha virt. eigenvalues --   -0.07268  -0.06944  -0.02093   0.00248   0.01432
 Alpha virt. eigenvalues --    0.01823   0.02053   0.03378   0.04036   0.04314
 Alpha virt. eigenvalues --    0.04597   0.04989   0.05271   0.05408   0.05662
 Alpha virt. eigenvalues --    0.05850   0.06361   0.06449   0.07112   0.07510
 Alpha virt. eigenvalues --    0.07802   0.08018   0.08592   0.08801   0.09188
 Alpha virt. eigenvalues --    0.09612   0.09741   0.10293   0.10471   0.10781
 Alpha virt. eigenvalues --    0.11073   0.11314   0.11494   0.11770   0.11962
 Alpha virt. eigenvalues --    0.12170   0.12357   0.12835   0.13010   0.13076
 Alpha virt. eigenvalues --    0.13167   0.13473   0.13728   0.13928   0.14007
 Alpha virt. eigenvalues --    0.14286   0.14531   0.14703   0.14839   0.15011
 Alpha virt. eigenvalues --    0.15319   0.15596   0.15746   0.15914   0.16021
 Alpha virt. eigenvalues --    0.16343   0.16522   0.16675   0.16924   0.17100
 Alpha virt. eigenvalues --    0.17436   0.17750   0.18102   0.18772   0.18902
 Alpha virt. eigenvalues --    0.19570   0.19945   0.20251   0.20396   0.20422
 Alpha virt. eigenvalues --    0.20693   0.20955   0.21260   0.21693   0.21883
 Alpha virt. eigenvalues --    0.22366   0.22567   0.22984   0.23077   0.23361
 Alpha virt. eigenvalues --    0.23555   0.23801   0.24023   0.24256   0.24632
 Alpha virt. eigenvalues --    0.24855   0.24908   0.25247   0.25693   0.25955
 Alpha virt. eigenvalues --    0.26085   0.26428   0.26568   0.26974   0.27065
 Alpha virt. eigenvalues --    0.27447   0.27698   0.28030   0.28304   0.28407
 Alpha virt. eigenvalues --    0.28534   0.28890   0.29030   0.29458   0.29722
 Alpha virt. eigenvalues --    0.29925   0.30160   0.30208   0.30735   0.30963
 Alpha virt. eigenvalues --    0.31197   0.31363   0.31763   0.31967   0.32426
 Alpha virt. eigenvalues --    0.32738   0.33072   0.33472   0.33700   0.33844
 Alpha virt. eigenvalues --    0.34181   0.34659   0.34817   0.35050   0.35077
 Alpha virt. eigenvalues --    0.35391   0.35728   0.36338   0.36619   0.36677
 Alpha virt. eigenvalues --    0.36777   0.37036   0.37364   0.37629   0.37770
 Alpha virt. eigenvalues --    0.38078   0.38350   0.38729   0.38892   0.39059
 Alpha virt. eigenvalues --    0.39123   0.39273   0.39592   0.39863   0.40187
 Alpha virt. eigenvalues --    0.40538   0.40642   0.40851   0.41052   0.41177
 Alpha virt. eigenvalues --    0.41377   0.41438   0.41608   0.41822   0.41997
 Alpha virt. eigenvalues --    0.42567   0.42721   0.42805   0.43038   0.43428
 Alpha virt. eigenvalues --    0.43581   0.43624   0.43963   0.44136   0.44571
 Alpha virt. eigenvalues --    0.44604   0.44799   0.44926   0.45223   0.45347
 Alpha virt. eigenvalues --    0.45680   0.45828   0.46115   0.46404   0.46579
 Alpha virt. eigenvalues --    0.46671   0.46870   0.47175   0.47251   0.47591
 Alpha virt. eigenvalues --    0.47734   0.48025   0.48321   0.48462   0.48654
 Alpha virt. eigenvalues --    0.48804   0.48925   0.49075   0.49480   0.49846
 Alpha virt. eigenvalues --    0.49963   0.50192   0.50567   0.50699   0.50970
 Alpha virt. eigenvalues --    0.51108   0.51291   0.51741   0.51957   0.52116
 Alpha virt. eigenvalues --    0.52436   0.52733   0.53090   0.53267   0.53564
 Alpha virt. eigenvalues --    0.53913   0.54278   0.54607   0.54659   0.55000
 Alpha virt. eigenvalues --    0.55163   0.55391   0.55782   0.56077   0.56282
 Alpha virt. eigenvalues --    0.56597   0.56797   0.57144   0.57323   0.57736
 Alpha virt. eigenvalues --    0.58044   0.58214   0.58381   0.58754   0.58998
 Alpha virt. eigenvalues --    0.59496   0.59822   0.60084   0.60170   0.60527
 Alpha virt. eigenvalues --    0.60598   0.61309   0.61546   0.62033   0.62170
 Alpha virt. eigenvalues --    0.62554   0.62929   0.63136   0.63263   0.63559
 Alpha virt. eigenvalues --    0.64169   0.64383   0.64560   0.64879   0.64992
 Alpha virt. eigenvalues --    0.65176   0.65517   0.65620   0.65897   0.66137
 Alpha virt. eigenvalues --    0.66330   0.67064   0.67389   0.67744   0.68077
 Alpha virt. eigenvalues --    0.68474   0.68561   0.68995   0.69339   0.69530
 Alpha virt. eigenvalues --    0.69990   0.70105   0.70304   0.70537   0.70838
 Alpha virt. eigenvalues --    0.71017   0.71261   0.71791   0.72322   0.72618
 Alpha virt. eigenvalues --    0.72713   0.73029   0.73335   0.73675   0.74016
 Alpha virt. eigenvalues --    0.74763   0.74918   0.75284   0.75454   0.76054
 Alpha virt. eigenvalues --    0.76305   0.76727   0.77189   0.77462   0.77895
 Alpha virt. eigenvalues --    0.78289   0.78583   0.78679   0.79218   0.79359
 Alpha virt. eigenvalues --    0.79499   0.80046   0.80402   0.80740   0.81021
 Alpha virt. eigenvalues --    0.81803   0.82210   0.82643   0.82999   0.83134
 Alpha virt. eigenvalues --    0.83368   0.83877   0.84243   0.84330   0.84751
 Alpha virt. eigenvalues --    0.85473   0.85698   0.86109   0.86335   0.87187
 Alpha virt. eigenvalues --    0.87352   0.87462   0.88274   0.88473   0.89040
 Alpha virt. eigenvalues --    0.89264   0.89518   0.89855   0.90006   0.90384
 Alpha virt. eigenvalues --    0.90656   0.91167   0.91527   0.91927   0.92045
 Alpha virt. eigenvalues --    0.92362   0.92558   0.93332   0.93975   0.94301
 Alpha virt. eigenvalues --    0.94462   0.94566   0.94806   0.94944   0.95389
 Alpha virt. eigenvalues --    0.95773   0.96050   0.96376   0.96599   0.97133
 Alpha virt. eigenvalues --    0.97352   0.97639   0.97941   0.98134   0.98583
 Alpha virt. eigenvalues --    0.99124   0.99478   0.99931   0.99957   1.00277
 Alpha virt. eigenvalues --    1.00616   1.01005   1.01383   1.01726   1.02219
 Alpha virt. eigenvalues --    1.02497   1.02664   1.03006   1.03127   1.03354
 Alpha virt. eigenvalues --    1.03641   1.04256   1.04764   1.04972   1.05062
 Alpha virt. eigenvalues --    1.05463   1.05817   1.06159   1.06974   1.07098
 Alpha virt. eigenvalues --    1.07409   1.07900   1.08308   1.08789   1.09086
 Alpha virt. eigenvalues --    1.09586   1.09614   1.10123   1.10751   1.11278
 Alpha virt. eigenvalues --    1.11975   1.12420   1.12739   1.12953   1.13290
 Alpha virt. eigenvalues --    1.14254   1.14293   1.14414   1.14760   1.15556
 Alpha virt. eigenvalues --    1.15794   1.16297   1.16685   1.16902   1.17304
 Alpha virt. eigenvalues --    1.17701   1.18228   1.18489   1.18882   1.19199
 Alpha virt. eigenvalues --    1.19660   1.20311   1.20441   1.20613   1.21204
 Alpha virt. eigenvalues --    1.21988   1.22193   1.23179   1.23265   1.23666
 Alpha virt. eigenvalues --    1.23891   1.24527   1.25034   1.25070   1.25337
 Alpha virt. eigenvalues --    1.26050   1.26420   1.27023   1.27356   1.27920
 Alpha virt. eigenvalues --    1.28129   1.28346   1.28596   1.28945   1.29517
 Alpha virt. eigenvalues --    1.29886   1.30501   1.30783   1.31176   1.31921
 Alpha virt. eigenvalues --    1.32055   1.32621   1.33099   1.33646   1.34048
 Alpha virt. eigenvalues --    1.34513   1.34890   1.35504   1.36255   1.36867
 Alpha virt. eigenvalues --    1.37041   1.37596   1.37768   1.38055   1.38512
 Alpha virt. eigenvalues --    1.39186   1.39341   1.40079   1.40596   1.40918
 Alpha virt. eigenvalues --    1.41271   1.42114   1.42725   1.43273   1.44246
 Alpha virt. eigenvalues --    1.44352   1.44712   1.45208   1.45650   1.45712
 Alpha virt. eigenvalues --    1.46400   1.47060   1.47694   1.47779   1.48155
 Alpha virt. eigenvalues --    1.48201   1.48719   1.48735   1.48884   1.49564
 Alpha virt. eigenvalues --    1.49860   1.50493   1.50620   1.50860   1.51391
 Alpha virt. eigenvalues --    1.51613   1.51809   1.51940   1.52148   1.52284
 Alpha virt. eigenvalues --    1.52326   1.52875   1.53350   1.53662   1.53907
 Alpha virt. eigenvalues --    1.54149   1.54705   1.55082   1.55204   1.55646
 Alpha virt. eigenvalues --    1.55703   1.56082   1.56300   1.56326   1.56595
 Alpha virt. eigenvalues --    1.57150   1.57539   1.58111   1.58258   1.58604
 Alpha virt. eigenvalues --    1.59143   1.59221   1.59677   1.59969   1.60340
 Alpha virt. eigenvalues --    1.60507   1.60751   1.61169   1.61677   1.61686
 Alpha virt. eigenvalues --    1.61914   1.62388   1.62534   1.62908   1.63159
 Alpha virt. eigenvalues --    1.63593   1.63675   1.64041   1.64592   1.64723
 Alpha virt. eigenvalues --    1.64944   1.65151   1.65596   1.66104   1.66274
 Alpha virt. eigenvalues --    1.66850   1.67061   1.67348   1.67628   1.67835
 Alpha virt. eigenvalues --    1.68300   1.68616   1.68872   1.69089   1.69383
 Alpha virt. eigenvalues --    1.69700   1.69742   1.70126   1.70496   1.71360
 Alpha virt. eigenvalues --    1.71671   1.72022   1.72306   1.72427   1.73144
 Alpha virt. eigenvalues --    1.73642   1.74399   1.74612   1.74950   1.75430
 Alpha virt. eigenvalues --    1.75720   1.75936   1.76495   1.76766   1.78353
 Alpha virt. eigenvalues --    1.78658   1.78881   1.79950   1.80110   1.80553
 Alpha virt. eigenvalues --    1.81144   1.81810   1.82035   1.82969   1.83047
 Alpha virt. eigenvalues --    1.83763   1.84172   1.84183   1.84645   1.84832
 Alpha virt. eigenvalues --    1.85307   1.86171   1.86527   1.86754   1.87399
 Alpha virt. eigenvalues --    1.87447   1.88130   1.88352   1.88963   1.89489
 Alpha virt. eigenvalues --    1.90030   1.90547   1.90996   1.91736   1.91974
 Alpha virt. eigenvalues --    1.92200   1.93200   1.93323   1.93653   1.93871
 Alpha virt. eigenvalues --    1.94537   1.94600   1.95338   1.95914   1.96230
 Alpha virt. eigenvalues --    1.96345   1.96795   1.97015   1.97615   1.97832
 Alpha virt. eigenvalues --    1.98682   1.99079   1.99291   1.99737   2.00438
 Alpha virt. eigenvalues --    2.00732   2.01326   2.01749   2.01893   2.02916
 Alpha virt. eigenvalues --    2.03453   2.03670   2.04370   2.04498   2.04622
 Alpha virt. eigenvalues --    2.05470   2.06167   2.06708   2.06888   2.07145
 Alpha virt. eigenvalues --    2.07470   2.08073   2.08579   2.08772   2.09632
 Alpha virt. eigenvalues --    2.09886   2.10362   2.10943   2.11110   2.11876
 Alpha virt. eigenvalues --    2.11893   2.12165   2.12616   2.13049   2.13480
 Alpha virt. eigenvalues --    2.13983   2.14429   2.15009   2.15321   2.15731
 Alpha virt. eigenvalues --    2.16051   2.16729   2.16969   2.17078   2.17940
 Alpha virt. eigenvalues --    2.18135   2.18585   2.18933   2.19234   2.19807
 Alpha virt. eigenvalues --    2.20132   2.20506   2.20733   2.21564   2.21837
 Alpha virt. eigenvalues --    2.22210   2.22469   2.23338   2.23881   2.24104
 Alpha virt. eigenvalues --    2.24815   2.25155   2.26003   2.26301   2.26473
 Alpha virt. eigenvalues --    2.27081   2.27674   2.28376   2.28526   2.28996
 Alpha virt. eigenvalues --    2.29178   2.30119   2.30359   2.30956   2.31412
 Alpha virt. eigenvalues --    2.31761   2.32357   2.32636   2.32894   2.33092
 Alpha virt. eigenvalues --    2.33452   2.33796   2.34141   2.34334   2.34651
 Alpha virt. eigenvalues --    2.34719   2.35204   2.35491   2.36040   2.36338
 Alpha virt. eigenvalues --    2.36602   2.36809   2.37136   2.37876   2.38133
 Alpha virt. eigenvalues --    2.38501   2.38907   2.39293   2.40398   2.40660
 Alpha virt. eigenvalues --    2.41042   2.41248   2.41514   2.42380   2.42650
 Alpha virt. eigenvalues --    2.43346   2.43636   2.43871   2.44452   2.44561
 Alpha virt. eigenvalues --    2.45041   2.45215   2.45888   2.46519   2.46639
 Alpha virt. eigenvalues --    2.47693   2.48242   2.48996   2.49398   2.49772
 Alpha virt. eigenvalues --    2.49954   2.50321   2.50552   2.51121   2.51334
 Alpha virt. eigenvalues --    2.51637   2.51986   2.52258   2.52662   2.53199
 Alpha virt. eigenvalues --    2.53625   2.54143   2.54333   2.54742   2.54817
 Alpha virt. eigenvalues --    2.55052   2.55518   2.56157   2.56431   2.56638
 Alpha virt. eigenvalues --    2.57785   2.58021   2.58043   2.58790   2.58994
 Alpha virt. eigenvalues --    2.59638   2.59971   2.60192   2.60734   2.61393
 Alpha virt. eigenvalues --    2.61599   2.62198   2.62277   2.62778   2.63555
 Alpha virt. eigenvalues --    2.63791   2.64075   2.64404   2.64713   2.65167
 Alpha virt. eigenvalues --    2.65747   2.66400   2.66618   2.67006   2.67243
 Alpha virt. eigenvalues --    2.67721   2.67966   2.68500   2.68758   2.69055
 Alpha virt. eigenvalues --    2.69510   2.69984   2.70052   2.70549   2.71435
 Alpha virt. eigenvalues --    2.71686   2.72464   2.72741   2.73041   2.73407
 Alpha virt. eigenvalues --    2.74175   2.74662   2.75270   2.75544   2.76433
 Alpha virt. eigenvalues --    2.76932   2.77172   2.77397   2.77856   2.78115
 Alpha virt. eigenvalues --    2.78410   2.79259   2.79556   2.79747   2.80032
 Alpha virt. eigenvalues --    2.80402   2.81089   2.81513   2.81756   2.82108
 Alpha virt. eigenvalues --    2.83165   2.83297   2.83817   2.84193   2.85031
 Alpha virt. eigenvalues --    2.85319   2.85468   2.85715   2.85967   2.86520
 Alpha virt. eigenvalues --    2.87046   2.87392   2.87741   2.88100   2.88773
 Alpha virt. eigenvalues --    2.88844   2.89571   2.89714   2.89889   2.90304
 Alpha virt. eigenvalues --    2.90773   2.91260   2.91406   2.91793   2.92004
 Alpha virt. eigenvalues --    2.92480   2.92818   2.93182   2.93468   2.93885
 Alpha virt. eigenvalues --    2.94628   2.95184   2.95766   2.95950   2.96305
 Alpha virt. eigenvalues --    2.96345   2.96557   2.96941   2.97525   2.98094
 Alpha virt. eigenvalues --    2.98536   2.98885   2.99539   2.99807   2.99952
 Alpha virt. eigenvalues --    3.00276   3.00545   3.01007   3.01342   3.01615
 Alpha virt. eigenvalues --    3.01932   3.02120   3.02755   3.03311   3.03358
 Alpha virt. eigenvalues --    3.03758   3.04278   3.04631   3.04910   3.05091
 Alpha virt. eigenvalues --    3.05532   3.06133   3.06513   3.06766   3.07028
 Alpha virt. eigenvalues --    3.07387   3.07638   3.07973   3.08402   3.08712
 Alpha virt. eigenvalues --    3.09100   3.09405   3.09637   3.10012   3.10133
 Alpha virt. eigenvalues --    3.10539   3.10678   3.11098   3.11234   3.11700
 Alpha virt. eigenvalues --    3.11890   3.12416   3.12951   3.13193   3.13406
 Alpha virt. eigenvalues --    3.13668   3.14027   3.14505   3.14891   3.15077
 Alpha virt. eigenvalues --    3.15117   3.15486   3.15857   3.16037   3.16186
 Alpha virt. eigenvalues --    3.16568   3.16830   3.17227   3.17784   3.17812
 Alpha virt. eigenvalues --    3.17972   3.18891   3.19272   3.19709   3.19929
 Alpha virt. eigenvalues --    3.20225   3.20596   3.20775   3.21297   3.21518
 Alpha virt. eigenvalues --    3.21854   3.22108   3.22647   3.22928   3.23229
 Alpha virt. eigenvalues --    3.23316   3.23667   3.23869   3.24206   3.24442
 Alpha virt. eigenvalues --    3.24723   3.25080   3.25325   3.25786   3.26080
 Alpha virt. eigenvalues --    3.26628   3.26735   3.27018   3.27440   3.27800
 Alpha virt. eigenvalues --    3.28107   3.28138   3.28581   3.28892   3.29089
 Alpha virt. eigenvalues --    3.29426   3.29679   3.30097   3.30460   3.30844
 Alpha virt. eigenvalues --    3.31351   3.31691   3.31962   3.32142   3.32266
 Alpha virt. eigenvalues --    3.32513   3.32623   3.32903   3.33068   3.34150
 Alpha virt. eigenvalues --    3.34299   3.34477   3.34775   3.34860   3.35235
 Alpha virt. eigenvalues --    3.35555   3.35693   3.36021   3.36137   3.36452
 Alpha virt. eigenvalues --    3.36710   3.37031   3.37294   3.37302   3.37433
 Alpha virt. eigenvalues --    3.37916   3.38025   3.38798   3.38878   3.39309
 Alpha virt. eigenvalues --    3.39801   3.39919   3.40657   3.40927   3.41116
 Alpha virt. eigenvalues --    3.41352   3.41685   3.42108   3.42658   3.42963
 Alpha virt. eigenvalues --    3.43413   3.43787   3.43887   3.44195   3.44512
 Alpha virt. eigenvalues --    3.44643   3.45009   3.45537   3.46326   3.46470
 Alpha virt. eigenvalues --    3.46930   3.47730   3.48161   3.48355   3.48819
 Alpha virt. eigenvalues --    3.49211   3.49527   3.49692   3.50327   3.50917
 Alpha virt. eigenvalues --    3.51213   3.52035   3.52546   3.52680   3.52748
 Alpha virt. eigenvalues --    3.53576   3.54309   3.54970   3.55399   3.55721
 Alpha virt. eigenvalues --    3.56164   3.56559   3.57077   3.57287   3.57724
 Alpha virt. eigenvalues --    3.58108   3.59064   3.59524   3.59888   3.60086
 Alpha virt. eigenvalues --    3.61134   3.61442   3.61753   3.62603   3.62637
 Alpha virt. eigenvalues --    3.63192   3.63249   3.63726   3.63974   3.64393
 Alpha virt. eigenvalues --    3.64962   3.65603   3.65865   3.66531   3.66787
 Alpha virt. eigenvalues --    3.67061   3.67470   3.67964   3.68226   3.68475
 Alpha virt. eigenvalues --    3.69202   3.69354   3.69854   3.69884   3.70461
 Alpha virt. eigenvalues --    3.70977   3.71040   3.71366   3.71682   3.71916
 Alpha virt. eigenvalues --    3.72711   3.72829   3.73398   3.73644   3.73770
 Alpha virt. eigenvalues --    3.75059   3.75184   3.75637   3.76337   3.76668
 Alpha virt. eigenvalues --    3.77166   3.77524   3.78061   3.78397   3.79434
 Alpha virt. eigenvalues --    3.80808   3.81065   3.81250   3.82445   3.82650
 Alpha virt. eigenvalues --    3.83260   3.83768   3.83838   3.84943   3.85585
 Alpha virt. eigenvalues --    3.85912   3.86121   3.86959   3.87373   3.88173
 Alpha virt. eigenvalues --    3.88454   3.88685   3.90242   3.90613   3.91336
 Alpha virt. eigenvalues --    3.91911   3.92333   3.92724   3.93369   3.93972
 Alpha virt. eigenvalues --    3.94206   3.94720   3.96106   3.96507   3.97074
 Alpha virt. eigenvalues --    3.97376   3.97911   3.98695   3.99596   4.00067
 Alpha virt. eigenvalues --    4.00377   4.01314   4.01659   4.02965   4.03120
 Alpha virt. eigenvalues --    4.03513   4.03829   4.04783   4.05255   4.06278
 Alpha virt. eigenvalues --    4.06857   4.07822   4.08676   4.08896   4.09423
 Alpha virt. eigenvalues --    4.10901   4.11341   4.11743   4.13076   4.13191
 Alpha virt. eigenvalues --    4.14456   4.15113   4.15294   4.15998   4.16702
 Alpha virt. eigenvalues --    4.17344   4.17615   4.18503   4.18586   4.18865
 Alpha virt. eigenvalues --    4.19820   4.20241   4.20374   4.20756   4.21869
 Alpha virt. eigenvalues --    4.22193   4.22558   4.22947   4.23409   4.24095
 Alpha virt. eigenvalues --    4.24678   4.25102   4.25314   4.25977   4.26173
 Alpha virt. eigenvalues --    4.26377   4.27444   4.27647   4.27904   4.28985
 Alpha virt. eigenvalues --    4.29271   4.29845   4.30796   4.31262   4.31731
 Alpha virt. eigenvalues --    4.32464   4.32940   4.33289   4.33675   4.34756
 Alpha virt. eigenvalues --    4.35152   4.35446   4.35717   4.36895   4.37019
 Alpha virt. eigenvalues --    4.37959   4.38422   4.38564   4.38827   4.39455
 Alpha virt. eigenvalues --    4.39708   4.39990   4.40662   4.40939   4.41665
 Alpha virt. eigenvalues --    4.42886   4.43160   4.43459   4.44233   4.44993
 Alpha virt. eigenvalues --    4.46074   4.46268   4.46593   4.47632   4.48803
 Alpha virt. eigenvalues --    4.49546   4.49858   4.51006   4.52621   4.53685
 Alpha virt. eigenvalues --    4.54211   4.54544   4.54658   4.55342   4.56723
 Alpha virt. eigenvalues --    4.57560   4.58099   4.59483   4.60585   4.61916
 Alpha virt. eigenvalues --    4.62111   4.62444   4.62911   4.63276   4.65120
 Alpha virt. eigenvalues --    4.65633   4.66498   4.67186   4.67676   4.68448
 Alpha virt. eigenvalues --    4.69723   4.70293   4.70677   4.71281   4.72301
 Alpha virt. eigenvalues --    4.72545   4.72745   4.73187   4.74784   4.76290
 Alpha virt. eigenvalues --    4.77095   4.78193   4.78773   4.79477   4.80002
 Alpha virt. eigenvalues --    4.80341   4.80766   4.81579   4.81898   4.82782
 Alpha virt. eigenvalues --    4.83258   4.83954   4.84542   4.85085   4.85419
 Alpha virt. eigenvalues --    4.86530   4.87387   4.89594   4.89819   4.90807
 Alpha virt. eigenvalues --    4.91658   4.91905   4.92600   4.93281   4.93438
 Alpha virt. eigenvalues --    4.94670   4.95507   4.95748   4.96557   4.97439
 Alpha virt. eigenvalues --    4.98242   4.98764   4.99378   5.00456   5.00966
 Alpha virt. eigenvalues --    5.02661   5.02990   5.03816   5.04190   5.04598
 Alpha virt. eigenvalues --    5.06101   5.07133   5.08043   5.09615   5.10096
 Alpha virt. eigenvalues --    5.10646   5.11213   5.12274   5.14437   5.15865
 Alpha virt. eigenvalues --    5.16018   5.17987   5.19011   5.19317   5.20913
 Alpha virt. eigenvalues --    5.21640   5.23366   5.24475   5.25036   5.26389
 Alpha virt. eigenvalues --    5.27898   5.28927   5.31364   5.31783   5.33702
 Alpha virt. eigenvalues --    5.35706   5.36466   5.36773   5.37473   5.38217
 Alpha virt. eigenvalues --    5.38492   5.38968   5.39934   5.41493   5.43036
 Alpha virt. eigenvalues --    5.43596   5.44756   5.45867   5.47010   5.47363
 Alpha virt. eigenvalues --    5.48219   5.49814   5.50048   5.50535   5.52857
 Alpha virt. eigenvalues --    5.54109   5.56919   5.57416   5.58116   5.58934
 Alpha virt. eigenvalues --    5.60389   5.62376   5.62760   5.65847   5.66991
 Alpha virt. eigenvalues --    5.68687   5.70605   5.71997   5.73898   5.74715
 Alpha virt. eigenvalues --    5.75928   5.78705   5.80358   5.80628   5.83255
 Alpha virt. eigenvalues --    5.90516   5.94002   5.95242   5.98418   5.99075
 Alpha virt. eigenvalues --    6.00076   6.01914   6.03002   6.06279   6.07559
 Alpha virt. eigenvalues --    6.09401   6.11816   6.12901   6.14642   6.16540
 Alpha virt. eigenvalues --    6.19762   6.23672   6.24973   6.30175   6.31159
 Alpha virt. eigenvalues --    6.34551   6.37239   6.41432   6.49787   6.54775
 Alpha virt. eigenvalues --    6.60115   6.68431   6.83466   6.94570   7.13310
 Alpha virt. eigenvalues --    7.21359   7.42770   7.63889   8.73045  22.19819
 Alpha virt. eigenvalues --   22.24599  22.30539  22.31395  22.33897  22.38470
 Alpha virt. eigenvalues --   22.40233  22.41322  22.45012  22.72651  22.74630
 Alpha virt. eigenvalues --   22.76073  22.83610  22.87926  22.92339  22.94291
 Alpha virt. eigenvalues --   22.97065  23.02417  23.04859  23.06392  23.12924
 Alpha virt. eigenvalues --   23.16562  23.19434  23.24611  23.27043  23.29800
 Alpha virt. eigenvalues --   23.38660  23.42206  23.48365  23.53192  23.59885
 Alpha virt. eigenvalues --   23.70661  23.73958  23.82355  32.43772  32.68243
 Alpha virt. eigenvalues --   32.94903  32.97823  33.03347  33.15438  44.05422
 Alpha virt. eigenvalues --   44.37481
          Condensed to atoms (all electrons):
 Mulliken charges:
               1
     1  Fe  -0.248340
     2  N   -0.094140
     3  N    0.009661
     4  N   -0.234989
     5  N    0.005744
     6  C    0.214163
     7  C   -0.014331
     8  C   -0.062309
     9  C    0.217511
    10  C    0.272365
    11  C   -0.068765
    12  C    0.056075
    13  C    0.188304
    14  C    0.351181
    15  C   -0.031193
    16  C    0.094002
    17  C    0.145712
    18  C    0.202475
    19  C   -0.052057
    20  C   -0.080089
    21  C    0.257666
    22  C   -0.457754
    23  H    0.100026
    24  C   -0.471864
    25  H    0.127722
    26  C   -0.474341
    27  H    0.085972
    28  C   -0.387317
    29  H    0.127169
    30  C   -0.405339
    31  H    0.124527
    32  H    0.138851
    33  H    0.132324
    34  C   -0.422553
    35  H    0.126331
    36  H    0.142617
    37  H    0.125917
    38  C   -0.431418
    39  H    0.125518
    40  H    0.140818
    41  H    0.158419
    42  C   -0.260532
    43  H    0.119406
    44  C   -0.253125
    45  H    0.138223
    46  H    0.121205
    47  C   -0.447211
    48  H    0.129146
    49  H    0.151752
    50  H    0.146611
    51  C   -0.207908
    52  H    0.102851
    53  C   -0.275797
    54  H    0.140734
    55  H    0.120475
    56  C   -0.426925
    57  H    0.133325
    58  H    0.140858
    59  H    0.129511
    60  C   -0.426025
    61  H    0.130654
    62  H    0.142480
    63  H    0.123885
    64  C   -0.396996
    65  H    0.131597
    66  H    0.145945
    67  H    0.135366
    68  N   -0.221977
    69  H    0.227508
    70  C    0.159890
    71  C    0.023227
    72  H    0.177624
    73  N   -0.029456
    74  C   -0.185196
    75  H    0.154387
    76  H    0.337276
    77  O   -0.313586
    78  O   -0.096464
    79  H    0.342994
 Sum of Mulliken charges =  -0.00000
 Mulliken charges with hydrogens summed into heavy atoms:
               1
     1  Fe  -0.248340
     2  N   -0.094140
     3  N    0.009661
     4  N   -0.234989
     5  N    0.005744
     6  C    0.214163
     7  C   -0.014331
     8  C   -0.062309
     9  C    0.217511
    10  C    0.272365
    11  C   -0.068765
    12  C    0.056075
    13  C    0.188304
    14  C    0.351181
    15  C   -0.031193
    16  C    0.094002
    17  C    0.145712
    18  C    0.202475
    19  C   -0.052057
    20  C   -0.080089
    21  C    0.257666
    22  C   -0.357728
    24  C   -0.344142
    26  C   -0.388369
    28  C   -0.260148
    30  C   -0.009638
    34  C   -0.027689
    38  C   -0.006663
    42  C   -0.141126
    44  C    0.006302
    47  C   -0.019702
    51  C   -0.105057
    53  C   -0.014588
    56  C   -0.023230
    60  C   -0.029007
    64  C    0.015912
    68  N    0.005531
    70  C    0.159890
    71  C    0.200852
    73  N   -0.029456
    74  C   -0.030810
    77  O    0.023690
    78  O    0.246530
 Electronic spatial extent (au):  <R**2>=          20662.5846
 Charge=             -0.0000 electrons
 Dipole moment (field-independent basis, Debye):
    X=             -2.2578    Y=             -0.9839    Z=              4.7849  Tot=              5.3816
 Quadrupole moment (field-independent basis, Debye-Ang):
   XX=           -238.4601   YY=           -246.5067   ZZ=           -239.1444
   XY=              3.9950   XZ=             -1.1501   YZ=             -1.4523
 Traceless Quadrupole moment (field-independent basis, Debye-Ang):
   XX=              2.9103   YY=             -5.1363   ZZ=              2.2260
   XY=              3.9950   XZ=             -1.1501   YZ=             -1.4523
 Octapole moment (field-independent basis, Debye-Ang**2):
  XXX=            -27.0097  YYY=            -13.0334  ZZZ=            124.9261  XYY=             12.1259
  XXY=            -16.3416  XXZ=              4.9349  XZZ=            -54.9101  YZZ=            -21.1582
  YYZ=            -18.8533  XYZ=              8.7590
 Hexadecapole moment (field-independent basis, Debye-Ang**3):
 XXXX=         -12162.8256 YYYY=         -11814.8550 ZZZZ=          -3272.4875 XXXY=            -12.0134
 XXXZ=            -77.4339 YYYX=             72.9602 YYYZ=             11.2420 ZZZX=            -78.3324
 ZZZY=            -57.0836 XXYY=          -4008.6315 XXZZ=          -2734.0483 YYZZ=          -2738.4241
 XXYZ=            -50.6373 YYXZ=             39.3616 ZZXY=             34.2345
 N-N= 6.245352965408D+03 E-N=-1.968062523787D+04  KE= 3.047107904710D+03
  Exact polarizability:     722.376       1.985     703.933       5.366      -0.678     322.691
 Approx polarizability:    1348.890       7.183    1295.339      22.324       9.561     512.354

 ----------------------------------------------------------------------

 Electric dipole moment (input orientation):
 (Debye = 10**-18 statcoulomb cm , SI units = C m)
                  (au)            (Debye)         (10**-30 SI)
   Tot        0.211727D+01      0.538156D+01      0.179509D+02
   x          0.131689D+01      0.334721D+01      0.111651D+02
   y         -0.130038D+01     -0.330523D+01     -0.110251D+02
   z          0.102841D+01      0.261397D+01      0.871926D+01

 Dipole polarizability, Alpha (input orientation).
 (esu units = cm**3 , SI units = C**2 m**2 J**-1)
 Alpha(0;0):
               (au)            (10**-24 esu)      (10**-40 SI)
   iso        0.583000D+03      0.863917D+02      0.961237D+02
   aniso      0.390917D+03      0.579280D+02      0.644536D+02
   xx         0.394211D+03      0.584160D+02      0.649966D+02
   yx         0.112640D+03      0.166915D+02      0.185718D+02
   yy         0.671196D+03      0.994610D+02      0.110665D+03
   zx        -0.103790D+03     -0.153802D+02     -0.171127D+02
   zy         0.266293D+02      0.394606D+01      0.439058D+01
   zz         0.683594D+03      0.101298D+03      0.112709D+03

 First dipole hyperpolarizability, Beta (input orientation).
 ||, _|_  parallel and perpendicular components, (z) with respect to z axis,
 vector components x,y,z.  Values do not include the 1/n! factor of 1/2.
 (esu units = statvolt**-1 cm**4 , SI units = C**3 m**3 J**-2)
 Beta(0;0,0):
               (au)            (10**-30 esu)      (10**-50 SI)
   || (z)    -0.947062D+02     -0.818188D+00     -0.303662D+00
   _|_(z)    -0.315687D+02     -0.272729D+00     -0.101221D+00
   x          0.101292D+04      0.875082D+01      0.324778D+01
   y          0.343719D+04      0.296947D+02      0.110209D+02
   z         -0.473531D+03     -0.409094D+01     -0.151831D+01
   ||         0.722897D+03      0.624527D+01      0.231787D+01
   xxx        0.115891D+03      0.100121D+01      0.371588D+00
   xxy       -0.357811D+02     -0.309121D+00     -0.114727D+00
   yxy        0.746548D+02      0.644959D+00      0.239370D+00
   yyy        0.575055D+03      0.496803D+01      0.184383D+01
   xxz       -0.984718D+01     -0.850719D-01     -0.315736D-01
   yxz       -0.223281D+03     -0.192898D+01     -0.715921D+00
   yyz       -0.251464D+02     -0.217245D+00     -0.806285D-01
   zxz        0.147094D+03      0.127077D+01      0.471635D+00
   zyz        0.606456D+03      0.523931D+01      0.194452D+01
   zzz       -0.122850D+03     -0.106133D+01     -0.393902D+00

 ----------------------------------------------------------------------

 Dipole orientation:
    26         12.72313884        -39.32814078         53.01840758
     7          9.32501571        -40.35048712         54.49223122
     7         11.49590658        -35.68566219         52.91428670
     7         16.08248178        -38.27609603         51.46904500
     7         13.90037677        -42.98687106         53.12185533
     6          8.61664236        -42.75817391         55.17838862
     6          6.10548343        -42.64699682         56.26521370
     6          5.33082347        -40.24186507         56.20430113
     6          7.33872778        -38.76601173         55.09632116
     6          9.18305880        -34.77275330         53.70427309
     6          9.07548032        -32.07801484         53.25600637
     6         11.27689166        -31.41077911         52.20053929
     6         12.83290118        -33.64819114         51.98001324
     6         16.67302478        -35.89691937         50.60969678
     6         19.05130282        -36.02847419         49.25787737
     6         19.83149739        -38.44854346         49.32142171
     6         17.98302595        -39.88165028         50.72345493
     6         16.19833285        -43.87063820         52.18257952
     6         16.26695179        -46.58061124         52.30065226
     6         13.75514210        -47.35804041         53.40922639
     6         12.40551607        -45.03363158         53.86183547
     6         10.03169167        -44.91145007         54.88106393
     1          9.19047236        -46.68191334         55.51342565
     6          7.28051076        -36.19813432         54.72383207
     1          5.56710995        -35.20659852         55.29106876
     6         15.23575208        -33.75597431         50.97196648
     1         16.08231183        -31.96683428         50.40452817
     6         18.11549663        -42.41707913         51.24336918
     1         19.91003169        -43.35702593         50.87430487
     6          2.79819244        -39.14362816         57.12434020
     1          1.60505017        -40.68799240         57.89942639
     1          1.79020175        -38.24456858         55.51768284
     1          3.14582938        -37.72824956         58.63545362
     6          4.66245786        -44.93978009         57.31262306
     1          6.02989419        -46.34748962         58.05800745
     1          3.53702397        -45.83087243         55.78050604
     1          3.39523741        -44.32955045         58.87109129
     6          6.78779098        -30.38658457         53.90692485
     1          5.98181332        -30.97712972         55.75357730
     1          5.31383691        -30.58709173         52.42477512
     1          7.40209590        -28.38347009         54.04371952
     6         12.09413915        -28.76726335         51.36338358
     1         13.93911792        -27.98821075         51.91603436
     6         10.54620811        -27.36703580         49.93336401
     1          8.69017766        -28.10288408         49.35472744
     1         11.11101950        -25.46336987         49.31941267
     6         20.32334834        -33.72260599         48.02555803
     1         19.56657053        -31.96211355         48.88435760
     1         19.91781048        -33.70489961         45.96657550
     1         22.39706926        -33.80004377         48.34732219
     6         22.21174647        -39.68004025         48.18801203
     1         22.76998780        -41.59541440         48.76867127
     6         23.64545680        -38.49192884         46.50240960
     1         23.15850774        -36.57351420         45.86913779
     1         25.33656295        -39.41254740         45.71969045
     6         18.41548975        -48.34344059         51.48012899
     1         20.03227475        -48.14044861         52.80355860
     1         19.05105565        -47.83341856         49.54431376
     1         17.75228972        -50.33510232         51.51523498
     6         12.88435196        -50.09415761         53.85917285
     1         14.55415407        -51.30597236         54.24605500
     1         11.90172440        -50.81495813         52.15064644
     1         11.59281963        -50.16499583         55.51237825
     6         18.94193684        -37.50129939         61.51175667
     1         18.50815023        -35.90117145         62.80017734
     1         20.63863275        -37.01761345         60.37277988
     1         19.31319228        -39.22023310         62.65891843
     7         14.35162842        -38.48180613         60.70967160
     1         13.89082129        -38.55057227         62.54086170
     6         16.73906807        -37.95530592         59.79803244
     6         12.80969610        -38.87314310         58.78263100
     1         10.80152388        -39.29044891         58.96418323
     7         14.11739936        -38.66970670         56.66344720
     6         16.58454679        -38.11915526         57.25128030
     1         18.00339638        -37.89566791         55.79373840
     1         14.34815084        -39.94647874         48.69533282
     8         12.73705200        -40.53741542         48.08758904
     8         11.33132123        -39.81207655         49.87559643
     1          9.89420326        -40.89683025         49.60538595

 Electric dipole moment (dipole orientation):
 (Debye = 10**-18 statcoulomb cm , SI units = C m)
                  (au)            (Debye)         (10**-30 SI)
   Tot        0.211727D+01      0.538156D+01      0.179509D+02
   x          0.000000D+00      0.000000D+00      0.000000D+00
   y          0.000000D+00      0.000000D+00      0.000000D+00
   z          0.211727D+01      0.538156D+01      0.179509D+02

 Dipole polarizability, Alpha (dipole orientation).
 (esu units = cm**3 , SI units = C**2 m**2 J**-1)
 Alpha(0;0):
               (au)            (10**-24 esu)      (10**-40 SI)
   iso        0.583000D+03      0.863917D+02      0.961237D+02
   aniso      0.390917D+03      0.579280D+02      0.644536D+02
   xx         0.654288D+03      0.969554D+02      0.107877D+03
   yx        -0.265062D+02     -0.392781D+01     -0.437028D+01
   yy         0.692404D+03      0.102604D+03      0.114162D+03
   zx        -0.147957D+03     -0.219249D+02     -0.243948D+02
   zy        -0.591176D+02     -0.876033D+01     -0.974718D+01
   zz         0.402309D+03      0.596161D+02      0.663318D+02

 First dipole hyperpolarizability, Beta (dipole orientation).
 ||, _|_  parallel and perpendicular components, (z) with respect to z axis,
 vector components x,y,z.  Values do not include the 1/n! factor of 1/2.
 (esu units = statvolt**-1 cm**4 , SI units = C**3 m**3 J**-2)
 Beta(0;0,0):
               (au)            (10**-30 esu)      (10**-50 SI)
   || (z)    -0.342208D+03     -0.295641D+01     -0.109724D+01
   _|_(z)    -0.114069D+03     -0.985469D+00     -0.365747D+00
   x          0.192746D+04      0.166517D+02      0.618012D+01
   y          0.253412D+04      0.218929D+02      0.812532D+01
   z         -0.171104D+04     -0.147820D+02     -0.548621D+01
   ||         0.722897D+03      0.624527D+01      0.231787D+01
   xxx        0.560917D+03      0.484588D+01      0.179850D+01
   xxy        0.130732D+03      0.112942D+01      0.419173D+00
   yxy       -0.245914D+03     -0.212451D+01     -0.788490D+00
   yyy        0.609124D+03      0.526236D+01      0.195307D+01
   xxz       -0.412195D+03     -0.356104D+01     -0.132165D+01
   yxz       -0.159893D+02     -0.138135D+00     -0.512674D-01
   yyz       -0.147111D+03     -0.127092D+01     -0.471690D+00
   zxz        0.327483D+03      0.282920D+01      0.105003D+01
   zyz        0.104852D+03      0.905840D+00      0.336194D+00
   zzz       -0.110404D+02     -0.953804D-01     -0.353995D-01

 ----------------------------------------------------------------------
 Unable to Open any file for archive entry.
 1\1\GINC-BGN1026\SP\RAPFD\def2TZVP\C34H36Fe1N6O2\BECSLEIP\05-Sep-2024\
 0\\# polar def2tzvp apfd int=(grid=ultrafine)\\2vlx_II_S\\0,1\Fe,0,17.
 079,-31.028,-3.342\N,0,16.095,-32.373,-2.177\N,0,17.06,-29.723,-1.781\
 N,0,18.027,-29.652,-4.504\N,0,17.076,-32.346,-4.892\C,0,15.716,-33.643
 ,-2.55\C,0,15.106,-34.294,-1.408\C,0,15.11,-33.43,-0.387\C,0,15.732,-3
 2.214,-0.853\C,0,16.539,-29.934,-0.52\C,0,16.716,-28.739,0.276\C,0,17.
 321,-27.833,-0.503\C,0,17.553,-28.433,-1.799\C,0,18.299,-28.353,-4.146
 \C,0,18.767,-27.642,-5.319\C,0,18.764,-28.512,-6.346\C,0,18.307,-29.78
 5,-5.843\C,0,17.546,-32.077,-6.177\C,0,17.243,-33.176,-7.05\C,0,16.519
 ,-34.185,-6.191\C,0,16.456,-33.598,-4.875\C,0,15.879,-34.204,-3.792\H,
 0,15.517,-35.223,-3.928\C,0,15.936,-31.087,-0.095\H,0,15.587,-31.113,0
 .937\C,0,18.147,-27.821,-2.884\H,0,18.535,-26.815,-2.727\C,0,18.185,-3
 0.937,-6.577\H,0,18.638,-30.944,-7.568\C,0,14.571,-33.64,1.04\H,0,14.1
 49,-34.664,1.13\H,0,13.77,-32.9,1.251\H,0,15.397,-33.525,1.774\C,0,14.
 574,-35.736,-1.409\H,0,15.163,-36.348,-2.125\H,0,13.508,-35.743,-1.722
 \H,0,14.674,-36.174,-0.393\C,0,16.265,-28.594,1.746\H,0,16.477,-29.537
 ,2.294\H,0,15.173,-28.392,1.785\H,0,16.823,-27.764,2.23\C,0,17.725,-26
 .406,-0.128\H,0,18.735,-26.027,-0.34\C,0,16.839,-25.599,0.469\H,0,15.8
 22,-25.954,0.692\H,0,17.117,-24.571,0.744\C,0,19.173,-26.158,-5.305\H,
 0,19.399,-25.845,-4.263\H,0,18.339,-25.537,-5.695\H,0,20.08,-26.011,-5
 .93\C,0,19.155,-28.306,-7.821\H,0,19.304,-29.175,-8.478\C,0,19.323,-27
 .094,-8.34\H,0,19.185,-26.197,-7.719\H,0,19.602,-26.973,-9.397\C,0,17.
 574,-33.313,-8.541\H,0,18.67,-33.443,-8.667\H,0,17.255,-32.396,-9.082\
 H,0,17.055,-34.201,-8.961\C,0,15.954,-35.53,-6.678\H,0,16.57,-35.907,-
 7.522\H,0,14.909,-35.393,-7.028\H,0,15.983,-36.271,-5.851\C,0,22.557,-
 32.221,-2.612\H,0,23.029,-32.067,-1.618\H,0,22.912,-31.429,-3.306\H,0,
 22.846,-33.222,-2.998\N,0,20.363,-32.972,-1.626\H,0,20.776,-33.657,-1.
 026\C,0,21.069,-32.143,-2.475\C,0,19.072,-32.71,-1.741\H,0,18.289,-33.
 207,-1.169\N,0,18.914,-31.763,-2.65\C,0,20.148,-31.401,-3.132\H,0,20.2
 54,-30.646,-3.901\H,0,16.208,-29.646,-5.189\O,0,15.297,-29.901,-5.007\
 O,0,15.434,-30.387,-3.849\H,0,14.635,-30.923,-3.798\\Version=ES64L-G16
 RevC.02\State=1-A\HF=-3059.0457782\RMSD=3.729e-09\Dipole=1.3168935,-1.
 3003772,1.0284145\Polar=394.2107136,112.6397828,671.1961681,-103.79040
 81,26.6293091,683.5935395\HyperPolar=115.8909244,-35.781071,74.654809,
 575.0551633,-9.8471759,-223.2813528,-25.1464088,147.0935436,606.456289
 ,-122.8500356\Quadrupole=1.0758383,0.8602874,-1.9361257,-0.3924646,-0.
 2582841,-4.3216661\PG=C01 [X(C34H36Fe1N6O2)]\\@
 The archive entry for this job was punched.


      SCIENCE SANS CONSCIENCE N'EST QUE RUINE DE L'AME.

                                                  -- RABELAIS
 Job cpu time:       2 days 10 hours 31 minutes 32.0 seconds.
 Elapsed time:       0 days  0 hours 50 minutes 54.7 seconds.
 File lengths (MBytes):  RWF=   1258 Int=      0 D2E=      0 Chk=    161 Scr=      1
 Normal termination of Gaussian 16 at Thu Sep  5 14:34:26 2024.
 Initial command:
 /sw/chem/gaussian/g16_C02/a100/g16/l1.exe "/local/becsleip_8005660/Gau-2484968.inp" -scrdir="/local/becsleip_8005660/"
 Entering Link 1 = /sw/chem/gaussian/g16_C02/a100/g16/l1.exe PID=   2486744.
  
 Copyright (c) 1988-2021, Gaussian, Inc.  All Rights Reserved.
  
 This is part of the Gaussian(R) 16 program.  It is based on
 the Gaussian(R) 09 system (copyright 2009, Gaussian, Inc.),
 the Gaussian(R) 03 system (copyright 2003, Gaussian, Inc.),
 the Gaussian(R) 98 system (copyright 1998, Gaussian, Inc.),
 the Gaussian(R) 94 system (copyright 1995, Gaussian, Inc.),
 the Gaussian 92(TM) system (copyright 1992, Gaussian, Inc.),
 the Gaussian 90(TM) system (copyright 1990, Gaussian, Inc.),
 the Gaussian 88(TM) system (copyright 1988, Gaussian, Inc.),
 the Gaussian 86(TM) system (copyright 1986, Carnegie Mellon
 University), and the Gaussian 82(TM) system (copyright 1983,
 Carnegie Mellon University). Gaussian is a federally registered
 trademark of Gaussian, Inc.
  
 This software contains proprietary and confidential information,
 including trade secrets, belonging to Gaussian, Inc.
  
 This software is provided under written license and may be
 used, copied, transmitted, or stored only in accord with that
 written license.
  
 The following legend is applicable only to US Government
 contracts under FAR:
  
                    RESTRICTED RIGHTS LEGEND
  
 Use, reproduction and disclosure by the US Government is
 subject to restrictions as set forth in subparagraphs (a)
 and (c) of the Commercial Computer Software - Restricted
 Rights clause in FAR 52.227-19.
  
 Gaussian, Inc.
 340 Quinnipiac St., Bldg. 40, Wallingford CT 06492
  
  
 ---------------------------------------------------------------
 Warning -- This program may not be used in any manner that
 competes with the business of Gaussian, Inc. or will provide
 assistance to any competitor of Gaussian, Inc.  The licensee
 of this program is prohibited from giving any competitor of
 Gaussian, Inc. access to this program.  By using this program,
 the user acknowledges that Gaussian, Inc. is engaged in the
 business of creating and licensing software in the field of
 computational chemistry and represents and warrants to the
 licensee that it is not a competitor of Gaussian, Inc. and that
 it will not use this program in any manner prohibited above.
 ---------------------------------------------------------------
  

 Cite this work as:
 Gaussian 16, Revision C.02,
 M. J. Frisch, G. W. Trucks, H. B. Schlegel, G. E. Scuseria, 
 M. A. Robb, J. R. Cheeseman, G. Scalmani, V. Barone, 
 G. A. Petersson, H. Nakatsuji, X. Li, M. Caricato, A. V. Marenich, 
 J. Bloino, B. G. Janesko, R. Gomperts, B. Mennucci, H. P. Hratchian, 
 J. V. Ortiz, A. F. Izmaylov, J. L. Sonnenberg, D. Williams-Young, 
 F. Ding, F. Lipparini, F. Egidi, J. Goings, B. Peng, A. Petrone, 
 T. Henderson, D. Ranasinghe, V. G. Zakrzewski, J. Gao, N. Rega, 
 G. Zheng, W. Liang, M. Hada, M. Ehara, K. Toyota, R. Fukuda, 
 J. Hasegawa, M. Ishida, T. Nakajima, Y. Honda, O. Kitao, H. Nakai, 
 T. Vreven, K. Throssell, J. A. Montgomery, Jr., J. E. Peralta, 
 F. Ogliaro, M. J. Bearpark, J. J. Heyd, E. N. Brothers, K. N. Kudin, 
 V. N. Staroverov, T. A. Keith, R. Kobayashi, J. Normand, 
 K. Raghavachari, A. P. Rendell, J. C. Burant, S. S. Iyengar, 
 J. Tomasi, M. Cossi, J. M. Millam, M. Klene, C. Adamo, R. Cammi, 
[...]
  1287. RY*(   1) H  69                  0.00056     2.15773   
  1288. RY*(   2) H  69                  0.00039     1.95200   
  1289. RY*(   3) H  69                  0.00034     1.15817   
  1290. RY*(   4) H  69                  0.00021     2.63103   
  1291. RY*(   5) H  69                  0.00001     3.08585   
  1292. RY*(   1) C  70                  0.00429     1.68236   
  1293. RY*(   2) C  70                  0.00257     0.91719   
  1294. RY*(   3) C  70                  0.00193     1.50734   
  1295. RY*(   4) C  70                  0.00161     2.02144   
  1296. RY*(   5) C  70                  0.00126     1.80998   
  1297. RY*(   6) C  70                  0.00122     1.68828   
  1298. RY*(   7) C  70                  0.00037     2.88944   
  1299. RY*(   8) C  70                  0.00021     2.92260   
  1300. RY*(   9) C  70                  0.00014     2.30271   
  1301. RY*(  10) C  70                  0.00007     3.59113   
  1302. RY*(  11) C  70                  0.00003     3.05959   
  1303. RY*(  12) C  70                  0.00002     2.27820   
  1304. RY*(  13) C  70                  0.00001     2.02279   
  1305. RY*(  14) C  70                  0.00001     1.50813   
  1306. RY*(  15) C  70                  0.00001     2.77233   
  1307. RY*(  16) C  70                  0.00000     1.37636   
  1308. RY*(  17) C  70                  0.00000     3.38839   
  1309. RY*(  18) C  70                  0.00001     1.67912   
  1310. RY*(  19) C  70                  0.00000    20.81581   
  1311. RY*(  20) C  70                  0.00000     3.96560   
  1312. RY*(  21) C  70                  0.00000     3.45182   
  1313. RY*(  22) C  70                  0.00000     3.43490   
  1314. RY*(  23) C  70                  0.00000     3.62324   
  1315. RY*(  24) C  70                  0.00000     3.34782   
  1316. RY*(  25) C  70                  0.00000     3.59080   
  1317. RY*(  26) C  70                  0.00000     3.55496   
  1318. RY*(   1) C  71                  0.00407     1.62486   
  1319. RY*(   2) C  71                  0.00299     0.62523   
  1320. RY*(   3) C  71                  0.00236     1.28517   
  1321. RY*(   4) C  71                  0.00144     2.50052   
  1322. RY*(   5) C  71                  0.00085     1.70655   
  1323. RY*(   6) C  71                  0.00042     1.54642   
  1324. RY*(   7) C  71                  0.00025     1.82934   
  1325. RY*(   8) C  71                  0.00011     2.76735   
  1326. RY*(   9) C  71                  0.00005     2.14894   
  1327. RY*(  10) C  71                  0.00004     1.97432   
  1328. RY*(  11) C  71                  0.00004     1.97683   
  1329. RY*(  12) C  71                  0.00002     2.30455   
  1330. RY*(  13) C  71                  0.00002     3.13527   
  1331. RY*(  14) C  71                  0.00002     3.05112   
  1332. RY*(  15) C  71                  0.00003     3.04909   
  1333. RY*(  16) C  71                  0.00002     3.66621   
  1334. RY*(  17) C  71                  0.00000     3.19337   
  1335. RY*(  18) C  71                  0.00000    21.19917   
  1336. RY*(  19) C  71                  0.00000     3.23145   
  1337. RY*(  20) C  71                  0.00000     3.48692   
  1338. RY*(  21) C  71                  0.00001     3.78120   
  1339. RY*(  22) C  71                  0.00000     3.62498   
  1340. RY*(  23) C  71                  0.00000     3.81673   
  1341. RY*(  24) C  71                  0.00000     3.59421   
  1342. RY*(  25) C  71                  0.00000     3.55993   
  1343. RY*(  26) C  71                  0.00000     3.52397   
  1344. RY*(   1) H  72                  0.00075     0.69482   
  1345. RY*(   2) H  72                  0.00031     2.54934   
  1346. RY*(   3) H  72                  0.00020     2.08234   
  1347. RY*(   4) H  72                  0.00013     2.37610   
  1348. RY*(   5) H  72                  0.00002     3.15394   
  1349. RY*(   1) N  73                  0.00701     1.28070   
  1350. RY*(   2) N  73                  0.00644     1.10205   
  1351. RY*(   3) N  73                  0.00583     1.24835   
  1352. RY*(   4) N  73                  0.00098     1.45239   
  1353. RY*(   5) N  73                  0.00060     2.03614   
  1354. RY*(   6) N  73                  0.00048     1.93741   
  1355. RY*(   7) N  73                  0.00035     3.08513   
  1356. RY*(   8) N  73                  0.00032     3.26709   
  1357. RY*(   9) N  73                  0.00014     3.26615   
  1358. RY*(  10) N  73                  0.00012     3.62511   
  1359. RY*(  11) N  73                  0.00010     2.84954   
  1360. RY*(  12) N  73                  0.00006     3.23236   
  1361. RY*(  13) N  73                  0.00004     4.80212   
  1362. RY*(  14) N  73                  0.00004     3.46641   
  1363. RY*(  15) N  73                  0.00002     2.77906   
  1364. RY*(  16) N  73                  0.00000    31.48228   
  1365. RY*(  17) N  73                  0.00000     4.84839   
  1366. RY*(  18) N  73                  0.00001     4.12253   
  1367. RY*(  19) N  73                  0.00001     4.24517   
  1368. RY*(  20) N  73                  0.00001     4.23938   
  1369. RY*(  21) N  73                  0.00001     4.70333   
  1370. RY*(  22) N  73                  0.00000     4.06528   
  1371. RY*(  23) N  73                  0.00001     4.66446   
  1372. RY*(  24) N  73                  0.00000     4.61007   
  1373. RY*(  25) N  73                  0.00000     4.62996   
  1374. RY*(  26) N  73                  0.00000     4.61725   
  1375. RY*(   1) C  74                  0.00405     1.50369   
  1376. RY*(   2) C  74                  0.00238     0.74661   
  1377. RY*(   3) C  74                  0.00170     1.84479   
  1378. RY*(   4) C  74                  0.00066     1.96413   
  1379. RY*(   5) C  74                  0.00060     1.49253   
  1380. RY*(   6) C  74                  0.00046     1.71948   
  1381. RY*(   7) C  74                  0.00041     2.41633   
  1382. RY*(   8) C  74                  0.00022     1.31417   
  1383. RY*(   9) C  74                  0.00017     1.83442   
  1384. RY*(  10) C  74                  0.00017     1.76304   
  1385. RY*(  11) C  74                  0.00010     1.16872   
  1386. RY*(  12) C  74                  0.00006     1.69417   
  1387. RY*(  13) C  74                  0.00004     3.11750   
  1388. RY*(  14) C  74                  0.00004     1.46632   
  1389. RY*(  15) C  74                  0.00001     2.20900   
  1390. RY*(  16) C  74                  0.00000    21.71980   
  1391. RY*(  17) C  74                  0.00000     3.59045   
  1392. RY*(  18) C  74                  0.00001     3.33218   
  1393. RY*(  19) C  74                  0.00000     3.30446   
  1394. RY*(  20) C  74                  0.00001     3.83413   
  1395. RY*(  21) C  74                  0.00001     4.13260   
  1396. RY*(  22) C  74                  0.00000     3.45940   
  1397. RY*(  23) C  74                  0.00001     3.68278   
  1398. RY*(  24) C  74                  0.00001     3.47640   
  1399. RY*(  25) C  74                  0.00000     3.53348   
  1400. RY*(  26) C  74                  0.00000     3.49019   
  1401. RY*(   1) H  75                  0.00052     0.64045   
  1402. RY*(   2) H  75                  0.00031     2.37816   
  1403. RY*(   3) H  75                  0.00023     2.27502   
  1404. RY*(   4) H  75                  0.00010     2.67538   
  1405. RY*(   5) H  75                  0.00001     3.19704   
  1547. BD*(   1) C  64 - H  65          0.01091     0.33478   
  1548. BD*(   1) C  64 - H  66          0.00324     0.34293   
  1549. BD*(   1) C  64 - H  67          0.01209     0.33563   
  1550. BD*(   1) C  64 - C  70          0.01479     0.37639   
  1551. BD*(   1) N  68 - H  69          0.01557     0.37645   
  1552. BD*(   1) N  68 - C  70          0.02914     0.41734   
  1553. BD*(   1) N  68 - C  71          0.02101     0.49244   
  1554. BD*(   1) C  70 - C  74          0.02036     0.58281   
  1555. BD*(   2) C  70 - C  74          0.29443     0.03811  1558(v),1549(v),1547(v)
                                                    1381(g),1296(g)
  1556. BD*(   1) C  71 - H  72          0.01864     0.36428   
  1557. BD*(   1) C  71 - N  73          0.01494     0.53330   
  1558. BD*(   2) C  71 - N  73          0.41743    -0.00405  1555(v),1319(g),1475(r)
                                                    1376(v),1478(r),1470(r)
                                                    154(r),159(r)
  1559. BD*(   1) N  73 - C  74          0.01450     0.47867   
  1560. BD*(   1) C  74 - H  75          0.01474     0.41202   
       -------------------------------
              Total Lewis   42.72514  ( 97.7575%)
        Valence non-Lewis    0.90177  (  2.0633%)
        Rydberg non-Lewis    0.07833  (  0.1792%)
       -------------------------------
            Total unit  3   43.70524  (100.0000%)
           Charge unit  3    0.29476
 
 Molecular unit  4  (H2O2)
    94. BD (   1) H  76 - O  77          1.98802    -0.75810  156(r),153(r),1563(v)
                                                    1438(v),155(r),1440(v)
                                                    1562(g),152(r),154(r),151(r)
                                                    170(r),175(r),171(r),1503(r)
                                                    177(r),1473(r),251(r)
    95. BD (   1) O  77 - O  78          1.99342    -0.99374  156(r),152(r),153(r),170(r)
                                                    171(r),1352(r),172(r),184(r)
                                                    173(r),177(r),200(r),155(r)
                                                    179(r),224(r),249(r),225(r)
                                                    198(r),174(r),180(r),1351(r)
    96. BD (   1) O  78 - H  79          1.97734    -0.79183  156(r),153(r),152(r),1561(v)
                                                    171(r),1562(g),1412(v)
                                                    1563(g),155(r),175(r),251(r)
                                                    179(r),184(r),250(r),151(r)
                                                    177(r),170(r),225(r),253(r)
                                                    226(r),224(r),180(r),200(r)
                                                    248(r)
   146. CR (   1) O  77                  1.99979   -19.02226  156(r),153(r),152(r)
   147. CR (   1) O  78                  1.99959   -19.03823  156(r),153(r),152(r),1562(g)
                                                    177(r),179(r)
   165. LP (   1) O  77                  1.98685    -0.55063  1439(v),153(r),1563(v)
                                                    156(r),1407(v),152(r),173(r)
                                                    1475(r),614(r)
   166. LP (   2) O  77                  1.98096    -0.44458  1437(v),1406(v),152(r)
                                                    1441(v),153(r),154(r),155(r)
                                                    614(r),156(r),169(r),170(r)
                                                    174(r),589(r),588(r),162(r)
   167. LP (   1) O  78                  1.97752    -0.42823  156(r),154(r),153(r),1411(v)
                                                    152(r),1464(v),155(r),159(r)
                                                    174(r),171(r),177(r),176(r)
                                                    169(r),1478(r),173(r),181(r)
                                                    274(r)
   168. LP (   2) O  78                  1.71959    -0.58991  156(r),152(r),153(r),1563(g)
                                                    1561(v),1412(v),1440(g)
                                                    1466(v),1465(v),151(r)
                                                    155(r),199(r),277(r),177(r)
                                                    274(r),174(r),276(r),250(r)
                                                    159(r),176(r),196(r),198(r)
                                                    222(r),251(r),225(r),224(r)
                                                    1469(r),1471(r),170(r)
                                                    1472(r),1468(r),1474(r)
                                                    1476(r),172(r),1477(r)
                                                    1473(r),175(r),154(r)
                                                    1475(r),231(r)
  1406. RY*(   1) H  76                  0.00247     1.12293   
  1407. RY*(   2) H  76                  0.00106     2.43941   
  1408. RY*(   3) H  76                  0.00058     2.66537   
  1409. RY*(   4) H  76                  0.00024     1.88839   
  1410. RY*(   5) H  76                  0.00009     2.97366   
  1411. RY*(   1) O  77                  0.00362     1.11459   
  1412. RY*(   2) O  77                  0.00149     1.77763   
  1413. RY*(   3) O  77                  0.00056     1.58514   
  1414. RY*(   4) O  77                  0.00033     1.39590   
  1415. RY*(   5) O  77                  0.00012     2.54593   
  1416. RY*(   6) O  77                  0.00006     2.61631   
  1417. RY*(   7) O  77                  0.00003     3.33142   
  1418. RY*(   8) O  77                  0.00002     2.60114   
  1419. RY*(   9) O  77                  0.00001     2.95849   
  1420. RY*(  10) O  77                  0.00002     3.06330   
  1421. RY*(  11) O  77                  0.00002     3.23654   
  1422. RY*(  12) O  77                  0.00001     2.62231   
  1423. RY*(  13) O  77                  0.00000     6.40549   
  1424. RY*(  14) O  77                  0.00001     3.99419   
  1425. RY*(  15) O  77                  0.00000     6.29218   
  1426. RY*(  16) O  77                  0.00000     6.33691   
  1427. RY*(  17) O  77                  0.00000     6.29973   
  1428. RY*(  18) O  77                  0.00000    42.60366   
  1429. RY*(  19) O  77                  0.00000     5.92578   
  1430. RY*(  20) O  77                  0.00000     5.16805   
  1431. RY*(  21) O  77                  0.00000     5.90130   
  1432. RY*(  22) O  77                  0.00000     5.07277   
  1433. RY*(  23) O  77                  0.00000     5.26816   
  1434. RY*(  24) O  77                  0.00000     5.52691   
  1435. RY*(  25) O  77                  0.00000     5.34495   
  1436. RY*(  26) O  77                  0.00000     5.38467   
  1437. RY*(   1) O  78                  0.00742     0.93021   
  1438. RY*(   2) O  78                  0.00361     1.38413   
  1439. RY*(   3) O  78                  0.00145     2.26433   
  1440. RY*(   4) O  78                  0.00120     1.85622   
  1441. RY*(   5) O  78                  0.00078     2.11295   
  1442. RY*(   6) O  78                  0.00047     2.86970   
  1443. RY*(   7) O  78                  0.00020     3.15020   
  1444. RY*(   8) O  78                  0.00009     3.58137   
  1445. RY*(   9) O  78                  0.00006     3.01297   
  1446. RY*(  10) O  78                  0.00004     4.94027   
  1447. RY*(  11) O  78                  0.00002     3.79391   
  1448. RY*(  12) O  78                  0.00001     3.32877   
  1449. RY*(  13) O  78                  0.00002     2.68820   
  1450. RY*(  14) O  78                  0.00000    42.29453   
  1451. RY*(  15) O  78                  0.00000     6.56706   
  1452. RY*(  16) O  78                  0.00000     6.36688   
  1453. RY*(  17) O  78                  0.00000     6.16849   
  1454. RY*(  18) O  78                  0.00000     6.50738   
  1455. RY*(  19) O  78                  0.00000     6.16800   
  1456. RY*(  20) O  78                  0.00000     5.37243   
  1457. RY*(  21) O  78                  0.00000     5.24675   
  1458. RY*(  22) O  78                  0.00000     5.27076   
  1459. RY*(  23) O  78                  0.00000     5.75664   
  1460. RY*(  24) O  78                  0.00000     5.70785   
  1461. RY*(  25) O  78                  0.00000     5.48843   
  1462. RY*(  26) O  78                  0.00000     5.42059   
  1463. RY*(   1) H  79                  0.00227     0.77504   
  1464. RY*(   2) H  79                  0.00090     2.16366   
  1465. RY*(   3) H  79                  0.00048     2.37095   
  1466. RY*(   4) H  79                  0.00012     2.12811   
  1467. RY*(   5) H  79                  0.00003     3.08540   
  1561. BD*(   1) H  76 - O  77          0.02825     0.42169   
  1562. BD*(   1) O  77 - O  78          0.01326     0.27523   
  1563. BD*(   1) O  78 - H  79          0.02279     0.35889   
       -------------------------------
              Total Lewis   17.62309  ( 99.4681%)
        Valence non-Lewis    0.06430  (  0.3629%)
        Rydberg non-Lewis    0.02994  (  0.1690%)
       -------------------------------
            Total unit  4   17.71734  (100.0000%)
           Charge unit  4    0.28266
 Unable to Open any file for archive entry.
 1\1\GINC-BGN1026\SP\RAPFD\def2TZVP\C34H36Fe1N6O2\BECSLEIP\05-Sep-2024\
 0\\# apfd/def2TZVP int=(grid=ultrafine) geom=check guess=read pop=nbo 
 scf=qc\\2vlx_II_S_nbo\\0,1\Fe,0,17.079,-31.028,-3.342\N,0,16.095,-32.3
 73,-2.177\N,0,17.06,-29.723,-1.781\N,0,18.027,-29.652,-4.504\N,0,17.07
 6,-32.346,-4.892\C,0,15.716,-33.643,-2.55\C,0,15.106,-34.294,-1.408\C,
 0,15.11,-33.43,-0.387\C,0,15.732,-32.214,-0.853\C,0,16.539,-29.934,-0.
 52\C,0,16.716,-28.739,0.276\C,0,17.321,-27.833,-0.503\C,0,17.553,-28.4
 33,-1.799\C,0,18.299,-28.353,-4.146\C,0,18.767,-27.642,-5.319\C,0,18.7
 64,-28.512,-6.346\C,0,18.307,-29.785,-5.843\C,0,17.546,-32.077,-6.177\
 C,0,17.243,-33.176,-7.05\C,0,16.519,-34.185,-6.191\C,0,16.456,-33.598,
 -4.875\C,0,15.879,-34.204,-3.792\H,0,15.517,-35.223,-3.928\C,0,15.936,
 -31.087,-0.095\H,0,15.587,-31.113,0.937\C,0,18.147,-27.821,-2.884\H,0,
 18.535,-26.815,-2.727\C,0,18.185,-30.937,-6.577\H,0,18.638,-30.944,-7.
 568\C,0,14.571,-33.64,1.04\H,0,14.149,-34.664,1.13\H,0,13.77,-32.9,1.2
 51\H,0,15.397,-33.525,1.774\C,0,14.574,-35.736,-1.409\H,0,15.163,-36.3
 48,-2.125\H,0,13.508,-35.743,-1.722\H,0,14.674,-36.174,-0.393\C,0,16.2
 65,-28.594,1.746\H,0,16.477,-29.537,2.294\H,0,15.173,-28.392,1.785\H,0
 ,16.823,-27.764,2.23\C,0,17.725,-26.406,-0.128\H,0,18.735,-26.027,-0.3
 4\C,0,16.839,-25.599,0.469\H,0,15.822,-25.954,0.692\H,0,17.117,-24.571
 ,0.744\C,0,19.173,-26.158,-5.305\H,0,19.399,-25.845,-4.263\H,0,18.339,
 -25.537,-5.695\H,0,20.08,-26.011,-5.93\C,0,19.155,-28.306,-7.821\H,0,1
 9.304,-29.175,-8.478\C,0,19.323,-27.094,-8.34\H,0,19.185,-26.197,-7.71
 9\H,0,19.602,-26.973,-9.397\C,0,17.574,-33.313,-8.541\H,0,18.67,-33.44
 3,-8.667\H,0,17.255,-32.396,-9.082\H,0,17.055,-34.201,-8.961\C,0,15.95
 4,-35.53,-6.678\H,0,16.57,-35.907,-7.522\H,0,14.909,-35.393,-7.028\H,0
 ,15.983,-36.271,-5.851\C,0,22.557,-32.221,-2.612\H,0,23.029,-32.067,-1
 .618\H,0,22.912,-31.429,-3.306\H,0,22.846,-33.222,-2.998\N,0,20.363,-3
 2.972,-1.626\H,0,20.776,-33.657,-1.026\C,0,21.069,-32.143,-2.475\C,0,1
 9.072,-32.71,-1.741\H,0,18.289,-33.207,-1.169\N,0,18.914,-31.763,-2.65
 \C,0,20.148,-31.401,-3.132\H,0,20.254,-30.646,-3.901\H,0,16.208,-29.64
 6,-5.189\O,0,15.297,-29.901,-5.007\O,0,15.434,-30.387,-3.849\H,0,14.63
 5,-30.923,-3.798\\Version=ES64L-G16RevC.02\State=1-A\HF=-3059.0457782\
 RMSD=1.743e-09\Dipole=1.3168935,-1.3003772,1.0284145\Quadrupole=1.0758
 383,0.8602874,-1.9361257,-0.3924646,-0.2582841,-4.3216661\PG=C01 [X(C3
 4H36Fe1N6O2)]\\@
 The archive entry for this job was punched.


 IBM COMPATIBILITY IS LIKE PREGNANCY. YOU ARE OR
 OR YOU ARE NOT. -- ADAM OSBORNE
 Job cpu time:       0 days  0 hours 50 minutes 29.8 seconds.
 Elapsed time:       0 days  0 hours  1 minutes  3.8 seconds.
 File lengths (MBytes):  RWF=    825 Int=      0 D2E=      0 Chk=    150 Scr=      1
 Normal termination of Gaussian 16 at Thu Sep  5 14:35:32 2024.
