 Entering Gaussian System, Link 0=g16
 Input=2vlx16.com
 Output=2vlx16.log
 Initial command:
 /sw/chem/gaussian/g16_C02/a100/g16/l1.exe "/local/becsleip_8007126/Gau-2524330.inp" -scrdir="/local/becsleip_8007126/"
 Entering Link 1 = /sw/chem/gaussian/g16_C02/a100/g16/l1.exe PID=   2524331.
  
 Copyright (c) 1988-2021, Gaussian, Inc.  All Rights Reserved.
  
 This is part of the Gaussian(R) 16 program.  It is based on
 the Gaussian(R) 09 system (copyright 2009, Gaussian, Inc.),
 the Gaussian(R) 03 system (copyright 2003, Gaussian, Inc.),
 the Gaussian(R) 98 system (copyright 1998, Gaussian, Inc.),
 the Gaussian(R) 94 system (copyright 1995, Gaussian, Inc.),
 the Gaussian 92(TM) system (copyright 1992, Gaussian, Inc.),
 the Gaussian 90(TM) system (copyright 1990, Gaussian, Inc.),
 the Gaussian 88(TM) system (copyright 1988, Gaussian, Inc.),
 the Gaussian 86(TM) system (copyright 1986, Carnegie Mellon
 University), and the Gaussian 82(TM) system (copyright 1983,
 Carnegie Mellon University). Gaussian is a federally registered
 trademark of Gaussian, Inc.
  
 This software contains proprietary and confidential information,
 including trade secrets, belonging to Gaussian, Inc.
  
 This software is provided under written license and may be
 used, copied, transmitted, or stored only in accord with that
 written license.
  
 The following legend is applicable only to US Government
 contracts under FAR:
  
                    RESTRICTED RIGHTS LEGEND
  
 Use, reproduction and disclosure by the US Government is
 subject to restrictions as set forth in subparagraphs (a)
 and (c) of the Commercial Computer Software - Restricted
 Rights clause in FAR 52.227-19.
  
 Gaussian, Inc.
 340 Quinnipiac St., Bldg. 40, Wallingford CT 06492
  
  
 ---------------------------------------------------------------
 Warning -- This program may not be used in any manner that
 competes with the business of Gaussian, Inc. or will provide
 assistance to any competitor of Gaussian, Inc.  The licensee
 of this program is prohibited from giving any competitor of
 Gaussian, Inc. access to this program.  By using this program,
 the user acknowledges that Gaussian, Inc. is engaged in the
 business of creating and licensing software in the field of
 computational chemistry and represents and warrants to the
 licensee that it is not a competitor of Gaussian, Inc. and that
 it will not use this program in any manner prohibited above.
 ---------------------------------------------------------------
  

 Cite this work as:
 Gaussian 16, Revision C.02,
 M. J. Frisch, G. W. Trucks, H. B. Schlegel, G. E. Scuseria, 
 M. A. Robb, J. R. Cheeseman, G. Scalmani, V. Barone, 
 G. A. Petersson, H. Nakatsuji, X. Li, M. Caricato, A. V. Marenich, 
 J. Bloino, B. G. Janesko, R. Gomperts, B. Mennucci, H. P. Hratchian, 
 J. V. Ortiz, A. F. Izmaylov, J. L. Sonnenberg, D. Williams-Young, 
 F. Ding, F. Lipparini, F. Egidi, J. Goings, B. Peng, A. Petrone, 
 T. Henderson, D. Ranasinghe, V. G. Zakrzewski, J. Gao, N. Rega, 
 G. Zheng, W. Liang, M. Hada, M. Ehara, K. Toyota, R. Fukuda, 
 J. Hasegawa, M. Ishida, T. Nakajima, Y. Honda, O. Kitao, H. Nakai, 
 T. Vreven, K. Throssell, J. A. Montgomery, Jr., J. E. Peralta, 
 F. Ogliaro, M. J. Bearpark, J. J. Heyd, E. N. Brothers, K. N. Kudin, 
 V. N. Staroverov, T. A. Keith, R. Kobayashi, J. Normand, 
 K. Raghavachari, A. P. Rendell, J. C. Burant, S. S. Iyengar, 
 J. Tomasi, M. Cossi, J. M. Millam, M. Klene, C. Adamo, R. Cammi, 
 J. W. Ochterski, R. L. Martin, K. Morokuma, O. Farkas, 
 J. B. Foresman, and D. J. Fox, Gaussian, Inc., Wallingford CT, 2019.
 
 ******************************************
 Gaussian 16:  ES64L-G16RevC.02  7-Dec-2021
                 6-Sep-2024 
 ******************************************
 %mem=16GB
 %CPU=0-71
 SetSPE:  set environment variable "OMP_PROC_BIND" = "true"
 SetSPE:  set environment variable "OMP_PLACES" = "{0},{1},{2},{3},{4},{5},{6},{7},{8},{9},{10},{11},{12},{13},{14},{15},{16},{17},{18},{19},{20},{21},{22},{23},{24},{25},{26},{27},{28},{29},{30},{31},{32},{33},{34},{35},{36},{37},{38},{39},{40},{41},{42},{43},{44},{45},{46},{47},{48},{49},{50},{51},{52},{53},{54},{55},{56},{57},{58},{59},{60},{61},{62},{63},{64},{65},{66},{67},{68},{69},{70},{71}"
 Will use up to   72 processors via shared memory.
 %gpucpu=0,1,2,3=0,1,2,3
 Will use    4 GPUs:
 Thread  CPU   GPU
      0    0     0
      1    1     1
      2    2     2
      3    3     3
      4    4    -1
      5    5    -1
      6    6    -1
      7    7    -1
      8    8    -1
      9    9    -1
     10   10    -1
     11   11    -1
     12   12    -1
     13   13    -1
     14   14    -1
     15   15    -1
     16   16    -1
     17   17    -1
     18   18    -1
     19   19    -1
     20   20    -1
     21   21    -1
     22   22    -1
     23   23    -1
     24   24    -1
     25   25    -1
     26   26    -1
     27   27    -1
     28   28    -1
     29   29    -1
     30   30    -1
     31   31    -1
     32   32    -1
     33   33    -1
     34   34    -1
     35   35    -1
     36   36    -1
     37   37    -1
     38   38    -1
     39   39    -1
     40   40    -1
     41   41    -1
     42   42    -1
     43   43    -1
     44   44    -1
     45   45    -1
     46   46    -1
     47   47    -1
     48   48    -1
     49   49    -1
     50   50    -1
     51   51    -1
     52   52    -1
     53   53    -1
     54   54    -1
     55   55    -1
     56   56    -1
     57   57    -1
     58   58    -1
     59   59    -1
     60   60    -1
     61   61    -1
     62   62    -1
     63   63    -1
     64   64    -1
     65   65    -1
     66   66    -1
     67   67    -1
     68   68    -1
     69   69    -1
     70   70    -1
     71   71    -1
 SetGPE:  set environment variable "OMP_PROC_BIND" = "true"
 SetGPE:  set environment variable "OMP_PLACES" = "{0},{1},{2},{3},{4},{5},{6},{7},{8},{9},{10},{11},{12},{13},{14},{15},{16},{17},{18},{19},{20},{21},{22},{23},{24},{25},{26},{27},{28},{29},{30},{31},{32},{33},{34},{35},{36},{37},{38},{39},{40},{41},{42},{43},{44},{45},{46},{47},{48},{49},{50},{51},{52},{53},{54},{55},{56},{57},{58},{59},{60},{61},{62},{63},{64},{65},{66},{67},{68},{69},{70},{71}"
 %oldchk=2vlx_III_Dre.chk
 %chk=2vlx_III_Hn.chk
 Properties for Device   0
 Minimum vector length:                              32
 Maximum vector length:                            1024
 Number of SMPs:                                    108
 Maximum number of threads per SMP:                2048
 Number of ASync Engines:                             5
 Memory:                                           9207742464
 Properties for Device   1
 Minimum vector length:                              32
 Maximum vector length:                            1024
 Number of SMPs:                                    108
 Maximum number of threads per SMP:                2048
 Number of ASync Engines:                             5
 Memory:                                           9207742464
 Properties for Device   2
 Minimum vector length:                              32
 Maximum vector length:                            1024
 Number of SMPs:                                    108
 Maximum number of threads per SMP:                2048
 Number of ASync Engines:                             5
 Memory:                                           9207742464
 Properties for Device   3
 Minimum vector length:                              32
 Maximum vector length:                            1024
 Number of SMPs:                                    108
 Maximum number of threads per SMP:                2048
 Number of ASync Engines:                             5
 Memory:                                           9207742464
   8286968217 words of memory will be used on each GPU.
 Copying data from "2vlx_III_Dre.chk" to current chk file "2vlx_III_Hn.chk"
 IOpt=  2 FromEx=T IUOpen= 4 IOptOp= 5 NList=   0 IFRang= 0 IUIn= 4 IUOut= 2.
 --------------------------------------------------------------
 # apfd/def2TZVP guess=read scf=maxcycle=999 geom=check pop=nbo
 --------------------------------------------------------------
 1/29=2,38=1,172=1/1;
 2/12=2,40=1/2;
 3/5=44,7=101,11=2,14=-4,25=1,30=1,74=-44,116=-2/1,2,3;
 4/5=1/1;
 5/5=2,7=999,38=6/2;
 6/7=2,8=2,9=2,10=2,28=1,40=1/1,7;
 99/5=1,9=1/99;
 ----------
 2vlx_III_H
 ----------
 Structure from the checkpoint file:  "2vlx_III_Hn.chk"
 Charge =  1 Multiplicity = 6
 Z-Matrix found in chk file.
 Fe,0,17.079,-31.028,-3.342
 N,0,16.095,-32.373,-2.177
 N,0,17.06,-29.723,-1.781
 N,0,18.027,-29.652,-4.504
 N,0,17.076,-32.346,-4.892
 C,0,15.716,-33.643,-2.55
 C,0,15.106,-34.294,-1.408
 C,0,15.11,-33.43,-0.387
 C,0,15.732,-32.214,-0.853
 C,0,16.539,-29.934,-0.52
 C,0,16.716,-28.739,0.276
 C,0,17.321,-27.833,-0.503
 C,0,17.553,-28.433,-1.799
 C,0,18.299,-28.353,-4.146
 C,0,18.767,-27.642,-5.319
 C,0,18.764,-28.512,-6.346
 C,0,18.307,-29.785,-5.843
 C,0,17.546,-32.077,-6.177
 C,0,17.243,-33.176,-7.05
 C,0,16.519,-34.185,-6.191
 C,0,16.456,-33.598,-4.875
 C,0,15.879,-34.204,-3.792
 H,0,15.517,-35.223,-3.928
 C,0,15.936,-31.087,-0.095
 H,0,15.587,-31.113,0.937
 C,0,18.147,-27.821,-2.884
 H,0,18.535,-26.815,-2.727
 C,0,18.185,-30.937,-6.577
 H,0,18.638,-30.944,-7.568
 C,0,14.571,-33.64,1.04
 H,0,14.149,-34.664,1.13
 H,0,13.77,-32.9,1.251
 H,0,15.397,-33.525,1.774
 C,0,14.574,-35.736,-1.409
 H,0,15.163,-36.348,-2.125
 H,0,13.508,-35.743,-1.722
 H,0,14.674,-36.174,-0.393
 C,0,16.265,-28.594,1.746
 H,0,16.477,-29.537,2.294
 H,0,15.173,-28.392,1.785
 H,0,16.823,-27.764,2.23
 C,0,17.725,-26.406,-0.128
 H,0,18.735,-26.027,-0.34
 C,0,16.839,-25.599,0.469
 H,0,15.822,-25.954,0.692
 H,0,17.117,-24.571,0.744
 C,0,19.173,-26.158,-5.305
 H,0,19.399,-25.845,-4.263
 H,0,18.339,-25.537,-5.695
 H,0,20.08,-26.011,-5.93
 C,0,19.155,-28.306,-7.821
 H,0,19.304,-29.175,-8.478
 C,0,19.323,-27.094,-8.34
 H,0,19.185,-26.197,-7.719
 H,0,19.602,-26.973,-9.397
 C,0,17.574,-33.313,-8.541
 H,0,18.67,-33.443,-8.667
 H,0,17.255,-32.396,-9.082
 H,0,17.055,-34.201,-8.961
 C,0,15.954,-35.53,-6.678
 H,0,16.57,-35.907,-7.522
 H,0,14.909,-35.393,-7.028
 H,0,15.983,-36.271,-5.851
 C,0,22.557,-32.221,-2.612
 H,0,23.029,-32.067,-1.618
 H,0,22.912,-31.429,-3.306
 H,0,22.846,-33.222,-2.998
 N,0,20.363,-32.972,-1.626
 H,0,20.776,-33.657,-1.026
 C,0,21.069,-32.143,-2.475
 C,0,19.072,-32.71,-1.741
 H,0,18.289,-33.207,-1.169
 N,0,18.914,-31.763,-2.65
 C,0,20.148,-31.401,-3.132
 H,0,20.254,-30.646,-3.901
 H,0,16.208,-29.646,-5.189
 O,0,15.297,-29.901,-5.007
 O,0,15.434,-30.387,-3.849
 H,0,14.635,-30.923,-3.798
 Recover connectivity data from disk.
 Stoichiometry    C34H36FeN6O2(1+,6)
 Framework group  C1[X(C34H36FeN6O2)]
 Deg. of freedom   231
 Full point group                 C1      NOp   1
 Largest Abelian subgroup         C1      NOp   1
 Largest concise Abelian subgroup C1      NOp   1
                         Standard orientation:                         
 ---------------------------------------------------------------------
 Center     Atomic      Atomic             Coordinates (Angstroms)
 Number     Number       Type             X           Y           Z
 ---------------------------------------------------------------------
      1         26           0       -0.136207   -0.144375   -0.267916
      2          7           0       -2.054034   -0.800119   -0.430543
      3          7           0       -0.832853    1.767375   -0.265513
      4          7           0        1.778739    0.534341   -0.146882
      5          7           0        0.537230   -2.064238   -0.283340
      6          6           0       -2.458460   -2.115153   -0.483401
      7          6           0       -3.906584   -2.148645   -0.526771
      8          6           0       -4.351228   -0.887270   -0.513471
      9          6           0       -3.196944   -0.023343   -0.450591
     10          6           0       -2.149126    2.178594   -0.331892
     11          6           0       -2.198741    3.624436   -0.324800
     12          6           0       -0.934139    4.061551   -0.266371
     13          6           0       -0.058832    2.910358   -0.221302
     14          6           0        2.166210    1.851948   -0.204572
     15          6           0        3.610257    1.901207   -0.317599
     16          6           0        4.057510    0.631775   -0.329758
     17          6           0        2.912758   -0.239239   -0.214589
     18          6           0        1.878459   -2.445772   -0.287932
     19          6           0        1.983274   -3.867380   -0.460514
     20          6           0        0.562197   -4.365251   -0.573662
     21          6           0       -0.268934   -3.192388   -0.455303
     22          6           0       -1.636667   -3.214371   -0.498604
     23          1           0       -2.115862   -4.191968   -0.549376
     24          6           0       -3.235144    1.348899   -0.408146
     25          1           0       -4.217686    1.819275   -0.437457
     26          6           0        1.319801    2.938590   -0.164918
     27          1           0        1.786463    3.919592   -0.080720
     28          6           0        2.952618   -1.609272   -0.168054
     29          1           0        3.928156   -2.072428   -0.022619
     30          6           0       -5.808361   -0.391010   -0.551429
     31          1           0       -6.495998   -1.262855   -0.593868
     32          1           0       -5.967033    0.237691   -1.453249
     33          1           0       -6.028609    0.197204    0.364951
     34          6           0       -4.747262   -3.434811   -0.564542
     35          1           0       -4.206780   -4.246779   -0.032840
     36          1           0       -4.913893   -3.743964   -1.618597
     37          1           0       -5.722349   -3.261155   -0.061403
     38          6           0       -3.500288    4.453981   -0.380981
     39          1           0       -4.274935    3.972540    0.253553
     40          1           0       -3.869963    4.501173   -1.427835
     41          1           0       -3.308974    5.479445    0.001565
     42          6           0       -0.452582    5.513280   -0.238879
     43          1           0        0.280215    5.854948    0.506075
     44          6           0       -0.927247    6.388586   -1.133970
     45          1           0       -1.661134    6.071969   -1.889753
     46          1           0       -0.589359    7.435218   -1.124724
     47          6           0        4.409618    3.213010   -0.404104
     48          1           0        3.792697    4.049948   -0.011991
     49          1           0        4.671859    3.423651   -1.462479
     50          1           0        5.334264    3.130185    0.206676
     51          6           0        5.493853    0.087671   -0.438439
     52          1           0        5.701704   -0.968010   -0.211845
     53          6           0        6.511772    0.860949   -0.802323
     54          1           0        6.349639    1.922910   -1.037366
     55          1           0        7.528907    0.448436   -0.873038
     56          6           0        3.258411   -4.716895   -0.521842
     57          1           0        3.731648   -4.748225    0.482676
     58          1           0        3.974145   -4.267780   -1.243889
     59          1           0        3.005097   -5.752762   -0.833475
     60          6           0        0.144315   -5.827399   -0.803703
     61          1           0        0.902123   -6.504437   -0.355075
     62          1           0        0.079083   -6.031680   -1.893340
     63          1           0       -0.838781   -6.017086   -0.322670
     64          6           0        0.890658   -0.049914    5.290974
     65          1           0        0.338870    0.660256    5.943450
     66          1           0        1.938698    0.302569    5.180111
     67          1           0        0.876057   -1.057180    5.759718
     68          7           0       -1.094432   -0.457147    3.793171
     69          1           0       -1.719215   -0.667547    4.544951
     70          6           0        0.232440   -0.108185    3.948457
     71          6           0       -1.390982   -0.465814    2.504554
     72          1           0       -2.378055   -0.689424    2.100862
     73          7           0       -0.301489   -0.162153    1.819829
     74          6           0        0.729783    0.053815    2.700715
     75          1           0        1.724892    0.303284    2.354095
     76          1           0        1.624338   -0.056752   -1.992090
     77          8           0        1.008983   -0.296513   -2.693462
     78          8           0       -0.087580   -0.084419   -2.103126
     79          1           0       -0.676652   -0.614690   -2.650943
 ---------------------------------------------------------------------
 Rotational constants (GHZ):           0.0892266           0.0873191           0.0580666
 Standard basis: def2TZVP (5D, 7F)
 There are  1780 symmetry adapted cartesian basis functions of A   symmetry.
 There are  1563 symmetry adapted basis functions of A   symmetry.
  1563 basis functions,  2532 primitive gaussians,  1780 cartesian basis functions
   164 alpha electrons      159 beta electrons
       nuclear repulsion energy      6245.5091467162 Hartrees.
 NAtoms=   79 NActive=   79 NUniq=   79 SFac= 1.00D+00 NAtFMM=   60 NAOKFM=T Big=T
 Integral buffers will be    131072 words long.
 Raffenetti 2 integral format.
 Two-electron integral symmetry is turned on.
 R6APFD:  NTU= -4 IXU= 1 FactS= 1.050
 Nuclear repulsion after empirical dispersion term =     6245.3529654079 Hartrees.
 One-electron integrals computed using PRISM.
   1 Symmetry operations used in ECPInt.
 ECPInt:  NShTT=  193131 NPrTT=  597869 LenC2=  151661 LenP2D=  309746.
 LDataN:  DoStor=T MaxTD1= 6 Len=  172
 Number of processors reduced to  22 by ecpmxn.
 NBasis=  1563 RedAO= T EigKep=  3.46D-06  NBF=  1563
 NBsUse=  1563 1.00D-06 EigRej= -1.00D+00 NBFU=  1563
 Initial guess from the checkpoint file:  "2vlx_III_Hn.chk"
 B after Tr=    -0.000000    0.000000    0.000000
         Rot=    1.000000    0.000000    0.000000   -0.000000 Ang=   0.00 deg.
 Initial guess <Sx>= 0.0000 <Sy>= 0.0000 <Sz>= 2.5000 <S**2>= 8.7585 S= 2.5014
 Requested convergence on RMS density matrix=1.00D-08 within 999 cycles.
 Requested convergence on MAX density matrix=1.00D-06.
 Requested convergence on             energy=1.00D-06.
 No special actions if energy rises.
 SCF Done:  E(UAPFD) =  -3058.84475514     A.U. after   17 cycles
            NFock= 17  Conv=0.61D-08     -V/T= 2.0036
 <Sx>= 0.0000 <Sy>= 0.0000 <Sz>= 2.5000 <S**2>= 8.7588 S= 2.5015
 <L.S>=  0.00000000000    
 Annihilation of the first spin contaminant:
 S**2 before annihilation     8.7588,   after     8.7500

 **********************************************************************

            Population analysis using the SCF Density.

 **********************************************************************

 Orbital symmetries:
 Alpha Orbitals:
       Occupied  (A) (A) (A) (A) (A) (A) (A) (A) (A) (A) (A) (A)
                 (A) (A) (A) (A) (A) (A) (A) (A) (A) (A) (A) (A)
                 (A) (A) (A) (A) (A) (A) (A) (A) (A) (A) (A) (A)
                 (A) (A) (A) (A) (A) (A) (A) (A) (A) (A) (A) (A)
                 (A) (A) (A) (A) (A) (A) (A) (A) (A) (A) (A) (A)
                 (A) (A) (A) (A) (A) (A) (A) (A) (A) (A) (A) (A)
                 (A) (A) (A) (A) (A) (A) (A) (A) (A) (A) (A) (A)
                 (A) (A) (A) (A) (A) (A) (A) (A) (A) (A) (A) (A)
                 (A) (A) (A) (A) (A) (A) (A) (A) (A) (A) (A) (A)
                 (A) (A) (A) (A) (A) (A) (A) (A) (A) (A) (A) (A)
                 (A) (A) (A) (A) (A) (A) (A) (A) (A) (A) (A) (A)
                 (A) (A) (A) (A) (A) (A) (A) (A) (A) (A) (A) (A)
                 (A) (A) (A) (A) (A) (A) (A) (A) (A) (A) (A) (A)
                 (A) (A) (A) (A) (A) (A) (A) (A)
       Virtual   (A) (A) (A) (A) (A) (A) (A) (A) (A) (A) (A) (A)
                 (A) (A) (A) (A) (A) (A) (A) (A) (A) (A) (A) (A)
                 (A) (A) (A) (A) (A) (A) (A) (A) (A) (A) (A) (A)
                 (A) (A) (A) (A) (A) (A) (A) (A) (A) (A) (A) (A)
                 (A) (A) (A) (A) (A) (A) (A) (A) (A) (A) (A) (A)
                 (A) (A) (A) (A) (A) (A) (A) (A) (A) (A) (A) (A)
                 (A) (A) (A) (A) (A) (A) (A) (A) (A) (A) (A) (A)
                 (A) (A) (A) (A) (A) (A) (A) (A) (A) (A) (A) (A)
                 (A) (A) (A) (A) (A) (A) (A) (A) (A) (A) (A) (A)
                 (A) (A) (A) (A) (A) (A) (A) (A) (A) (A) (A) (A)
                 (A) (A) (A) (A) (A) (A) (A) (A) (A) (A) (A) (A)
                 (A) (A) (A) (A) (A) (A) (A) (A) (A) (A) (A) (A)
                 (A) (A) (A) (A) (A) (A) (A) (A) (A) (A) (A) (A)
                 (A) (A) (A) (A) (A) (A) (A) (A) (A) (A) (A) (A)
                 (A) (A) (A) (A) (A) (A) (A) (A) (A) (A) (A) (A)
                 (A) (A) (A) (A) (A) (A) (A) (A) (A) (A) (A) (A)
                 (A) (A) (A) (A) (A) (A) (A) (A) (A) (A) (A) (A)
                 (A) (A) (A) (A) (A) (A) (A) (A) (A) (A) (A) (A)
                 (A) (A) (A) (A) (A) (A) (A) (A) (A) (A) (A) (A)
                 (A) (A) (A) (A) (A) (A) (A) (A) (A) (A) (A) (A)
                 (A) (A) (A) (A) (A) (A) (A) (A) (A) (A) (A) (A)
                 (A) (A) (A) (A) (A) (A) (A) (A) (A) (A) (A) (A)
                 (A) (A) (A) (A) (A) (A) (A) (A) (A) (A) (A) (A)
                 (A) (A) (A) (A) (A) (A) (A) (A) (A) (A) (A) (A)
                 (A) (A) (A) (A) (A) (A) (A) (A) (A) (A) (A) (A)
                 (A) (A) (A) (A) (A) (A) (A) (A) (A) (A) (A) (A)
                 (A) (A) (A) (A) (A) (A) (A) (A) (A) (A) (A) (A)
                 (A) (A) (A) (A) (A) (A) (A) (A) (A) (A) (A) (A)
                 (A) (A) (A) (A) (A) (A) (A) (A) (A) (A) (A) (A)
                 (A) (A) (A) (A) (A) (A) (A) (A) (A) (A) (A) (A)
                 (A) (A) (A) (A) (A) (A) (A) (A) (A) (A) (A) (A)
                 (A) (A) (A) (A) (A) (A) (A) (A) (A) (A) (A) (A)
                 (A) (A) (A) (A) (A) (A) (A) (A) (A) (A) (A) (A)
                 (A) (A) (A) (A) (A) (A) (A) (A) (A) (A) (A) (A)
                 (A) (A) (A) (A) (A) (A) (A) (A) (A) (A) (A) (A)
                 (A) (A) (A) (A) (A) (A) (A) (A) (A) (A) (A) (A)
                 (A) (A) (A) (A) (A) (A) (A) (A) (A) (A) (A) (A)
                 (A) (A) (A) (A) (A) (A) (A) (A) (A) (A) (A) (A)
                 (A) (A) (A) (A) (A) (A) (A) (A) (A) (A) (A) (A)
                 (A) (A) (A) (A) (A) (A) (A) (A) (A) (A) (A) (A)
                 (A) (A) (A) (A) (A) (A) (A) (A) (A) (A) (A) (A)
                 (A) (A) (A) (A) (A) (A) (A) (A) (A) (A) (A) (A)
                 (A) (A) (A) (A) (A) (A) (A) (A) (A) (A) (A) (A)
                 (A) (A) (A) (A) (A) (A) (A) (A) (A) (A) (A) (A)
                 (A) (A) (A) (A) (A) (A) (A) (A) (A) (A) (A) (A)
                 (A) (A) (A) (A) (A) (A) (A) (A) (A) (A) (A) (A)
                 (A) (A) (A) (A) (A) (A) (A) (A) (A) (A) (A) (A)
                 (A) (A) (A) (A) (A) (A) (A) (A) (A) (A) (A) (A)
                 (A) (A) (A) (A) (A) (A) (A) (A) (A) (A) (A) (A)
                 (A) (A) (A) (A) (A) (A) (A) (A) (A) (A) (A) (A)
                 (A) (A) (A) (A) (A) (A) (A) (A) (A) (A) (A) (A)
                 (A) (A) (A) (A) (A) (A) (A) (A) (A) (A) (A) (A)
                 (A) (A) (A) (A) (A) (A) (A) (A) (A) (A) (A) (A)
                 (A) (A) (A) (A) (A) (A) (A) (A) (A) (A) (A) (A)
                 (A) (A) (A) (A) (A) (A) (A) (A) (A) (A) (A) (A)
                 (A) (A) (A) (A) (A) (A) (A) (A) (A) (A) (A) (A)
                 (A) (A) (A) (A) (A) (A) (A) (A) (A) (A) (A) (A)
                 (A) (A) (A) (A) (A) (A) (A) (A) (A) (A) (A) (A)
                 (A) (A) (A) (A) (A) (A) (A) (A) (A) (A) (A) (A)
                 (A) (A) (A) (A) (A) (A) (A) (A) (A) (A) (A) (A)
                 (A) (A) (A) (A) (A) (A) (A) (A) (A) (A) (A) (A)
                 (A) (A) (A) (A) (A) (A) (A) (A) (A) (A) (A) (A)
                 (A) (A) (A) (A) (A) (A) (A) (A) (A) (A) (A) (A)
                 (A) (A) (A) (A) (A) (A) (A) (A) (A) (A) (A) (A)
                 (A) (A) (A) (A) (A) (A) (A) (A) (A) (A) (A) (A)
                 (A) (A) (A) (A) (A) (A) (A) (A) (A) (A) (A) (A)
                 (A) (A) (A) (A) (A) (A) (A) (A) (A) (A) (A) (A)
                 (A) (A) (A) (A) (A) (A) (A) (A) (A) (A) (A) (A)
                 (A) (A) (A) (A) (A) (A) (A) (A) (A) (A) (A) (A)
                 (A) (A) (A) (A) (A) (A) (A) (A) (A) (A) (A) (A)
                 (A) (A) (A) (A) (A) (A) (A) (A) (A) (A) (A) (A)
                 (A) (A) (A) (A) (A) (A) (A) (A) (A) (A) (A) (A)
                 (A) (A) (A) (A) (A) (A) (A) (A) (A) (A) (A) (A)
                 (A) (A) (A) (A) (A) (A) (A) (A) (A) (A) (A) (A)
                 (A) (A) (A) (A) (A) (A) (A) (A) (A) (A) (A) (A)
                 (A) (A) (A) (A) (A) (A) (A) (A) (A) (A) (A) (A)
                 (A) (A) (A) (A) (A) (A) (A) (A) (A) (A) (A) (A)
                 (A) (A) (A) (A) (A) (A) (A) (A) (A) (A) (A) (A)
                 (A) (A) (A) (A) (A) (A) (A) (A) (A) (A) (A) (A)
                 (A) (A) (A) (A) (A) (A) (A) (A) (A) (A) (A) (A)
                 (A) (A) (A) (A) (A) (A) (A) (A) (A) (A) (A) (A)
                 (A) (A) (A) (A) (A) (A) (A) (A) (A) (A) (A) (A)
                 (A) (A) (A) (A) (A) (A) (A) (A) (A) (A) (A) (A)
                 (A) (A) (A) (A) (A) (A) (A) (A) (A) (A) (A) (A)
                 (A) (A) (A) (A) (A) (A) (A) (A) (A) (A) (A) (A)
                 (A) (A) (A) (A) (A) (A) (A) (A) (A) (A) (A) (A)
                 (A) (A) (A) (A) (A) (A) (A) (A) (A) (A) (A) (A)
                 (A) (A) (A) (A) (A) (A) (A) (A) (A) (A) (A) (A)
                 (A) (A) (A) (A) (A) (A) (A) (A) (A) (A) (A) (A)
                 (A) (A) (A) (A) (A) (A) (A) (A) (A) (A) (A) (A)
                 (A) (A) (A) (A) (A) (A) (A) (A) (A) (A) (A) (A)
                 (A) (A) (A) (A) (A) (A) (A) (A) (A) (A) (A) (A)
                 (A) (A) (A) (A) (A) (A) (A) (A) (A) (A) (A) (A)
                 (A) (A) (A) (A) (A) (A) (A) (A) (A) (A) (A) (A)
                 (A) (A) (A) (A) (A) (A) (A) (A) (A) (A) (A) (A)
                 (A) (A) (A) (A) (A) (A) (A) (A) (A) (A) (A) (A)
                 (A) (A) (A) (A) (A) (A) (A) (A) (A) (A) (A) (A)
                 (A) (A) (A) (A) (A) (A) (A) (A) (A) (A) (A) (A)
                 (A) (A) (A) (A) (A) (A) (A) (A) (A) (A) (A) (A)
                 (A) (A) (A) (A) (A) (A) (A) (A) (A) (A) (A) (A)
                 (A) (A) (A) (A) (A) (A) (A) (A) (A) (A) (A) (A)
                 (A) (A) (A) (A) (A) (A) (A) (A) (A) (A) (A) (A)
                 (A) (A) (A) (A) (A) (A) (A) (A) (A) (A) (A) (A)
                 (A) (A) (A) (A) (A) (A) (A) (A) (A) (A) (A) (A)
                 (A) (A) (A) (A) (A) (A) (A) (A) (A) (A) (A) (A)
                 (A) (A) (A) (A) (A) (A) (A) (A) (A) (A) (A) (A)
                 (A) (A) (A) (A) (A) (A) (A) (A) (A) (A) (A) (A)
                 (A) (A) (A) (A) (A) (A) (A) (A) (A) (A) (A) (A)
                 (A) (A) (A) (A) (A) (A) (A) (A) (A) (A) (A) (A)
                 (A) (A) (A) (A) (A) (A) (A) (A) (A) (A) (A) (A)
                 (A) (A) (A) (A) (A) (A) (A) (A) (A) (A) (A) (A)
                 (A) (A) (A) (A) (A) (A) (A) (A) (A) (A) (A) (A)
                 (A) (A) (A) (A) (A) (A) (A) (A) (A) (A) (A) (A)
                 (A) (A) (A) (A) (A) (A) (A) (A) (A) (A) (A) (A)
                 (A) (A) (A) (A) (A) (A) (A) (A) (A) (A) (A) (A)
                 (A) (A) (A) (A) (A) (A) (A) (A) (A) (A) (A) (A)
                 (A) (A) (A) (A) (A) (A) (A)
 Beta  Orbitals:
       Occupied  (A) (A) (A) (A) (A) (A) (A) (A) (A) (A) (A) (A)
                 (A) (A) (A) (A) (A) (A) (A) (A) (A) (A) (A) (A)
                 (A) (A) (A) (A) (A) (A) (A) (A) (A) (A) (A) (A)
                 (A) (A) (A) (A) (A) (A) (A) (A) (A) (A) (A) (A)
                 (A) (A) (A) (A) (A) (A) (A) (A) (A) (A) (A) (A)
                 (A) (A) (A) (A) (A) (A) (A) (A) (A) (A) (A) (A)
                 (A) (A) (A) (A) (A) (A) (A) (A) (A) (A) (A) (A)
                 (A) (A) (A) (A) (A) (A) (A) (A) (A) (A) (A) (A)
                 (A) (A) (A) (A) (A) (A) (A) (A) (A) (A) (A) (A)
                 (A) (A) (A) (A) (A) (A) (A) (A) (A) (A) (A) (A)
                 (A) (A) (A) (A) (A) (A) (A) (A) (A) (A) (A) (A)
                 (A) (A) (A) (A) (A) (A) (A) (A) (A) (A) (A) (A)
                 (A) (A) (A) (A) (A) (A) (A) (A) (A) (A) (A) (A)
                 (A) (A) (A)
       Virtual   (A) (A) (A) (A) (A) (A) (A) (A) (A) (A) (A) (A)
                 (A) (A) (A) (A) (A) (A) (A) (A) (A) (A) (A) (A)
                 (A) (A) (A) (A) (A) (A) (A) (A) (A) (A) (A) (A)
                 (A) (A) (A) (A) (A) (A) (A) (A) (A) (A) (A) (A)
                 (A) (A) (A) (A) (A) (A) (A) (A) (A) (A) (A) (A)
                 (A) (A) (A) (A) (A) (A) (A) (A) (A) (A) (A) (A)
                 (A) (A) (A) (A) (A) (A) (A) (A) (A) (A) (A) (A)
                 (A) (A) (A) (A) (A) (A) (A) (A) (A) (A) (A) (A)
                 (A) (A) (A) (A) (A) (A) (A) (A) (A) (A) (A) (A)
                 (A) (A) (A) (A) (A) (A) (A) (A) (A) (A) (A) (A)
                 (A) (A) (A) (A) (A) (A) (A) (A) (A) (A) (A) (A)
                 (A) (A) (A) (A) (A) (A) (A) (A) (A) (A) (A) (A)
                 (A) (A) (A) (A) (A) (A) (A) (A) (A) (A) (A) (A)
                 (A) (A) (A) (A) (A) (A) (A) (A) (A) (A) (A) (A)
                 (A) (A) (A) (A) (A) (A) (A) (A) (A) (A) (A) (A)
                 (A) (A) (A) (A) (A) (A) (A) (A) (A) (A) (A) (A)
                 (A) (A) (A) (A) (A) (A) (A) (A) (A) (A) (A) (A)
                 (A) (A) (A) (A) (A) (A) (A) (A) (A) (A) (A) (A)
                 (A) (A) (A) (A) (A) (A) (A) (A) (A) (A) (A) (A)
                 (A) (A) (A) (A) (A) (A) (A) (A) (A) (A) (A) (A)
                 (A) (A) (A) (A) (A) (A) (A) (A) (A) (A) (A) (A)
                 (A) (A) (A) (A) (A) (A) (A) (A) (A) (A) (A) (A)
                 (A) (A) (A) (A) (A) (A) (A) (A) (A) (A) (A) (A)
                 (A) (A) (A) (A) (A) (A) (A) (A) (A) (A) (A) (A)
                 (A) (A) (A) (A) (A) (A) (A) (A) (A) (A) (A) (A)
                 (A) (A) (A) (A) (A) (A) (A) (A) (A) (A) (A) (A)
                 (A) (A) (A) (A) (A) (A) (A) (A) (A) (A) (A) (A)
                 (A) (A) (A) (A) (A) (A) (A) (A) (A) (A) (A) (A)
                 (A) (A) (A) (A) (A) (A) (A) (A) (A) (A) (A) (A)
                 (A) (A) (A) (A) (A) (A) (A) (A) (A) (A) (A) (A)
                 (A) (A) (A) (A) (A) (A) (A) (A) (A) (A) (A) (A)
                 (A) (A) (A) (A) (A) (A) (A) (A) (A) (A) (A) (A)
                 (A) (A) (A) (A) (A) (A) (A) (A) (A) (A) (A) (A)
                 (A) (A) (A) (A) (A) (A) (A) (A) (A) (A) (A) (A)
                 (A) (A) (A) (A) (A) (A) (A) (A) (A) (A) (A) (A)
                 (A) (A) (A) (A) (A) (A) (A) (A) (A) (A) (A) (A)
                 (A) (A) (A) (A) (A) (A) (A) (A) (A) (A) (A) (A)
                 (A) (A) (A) (A) (A) (A) (A) (A) (A) (A) (A) (A)
                 (A) (A) (A) (A) (A) (A) (A) (A) (A) (A) (A) (A)
                 (A) (A) (A) (A) (A) (A) (A) (A) (A) (A) (A) (A)
                 (A) (A) (A) (A) (A) (A) (A) (A) (A) (A) (A) (A)
                 (A) (A) (A) (A) (A) (A) (A) (A) (A) (A) (A) (A)
                 (A) (A) (A) (A) (A) (A) (A) (A) (A) (A) (A) (A)
                 (A) (A) (A) (A) (A) (A) (A) (A) (A) (A) (A) (A)
                 (A) (A) (A) (A) (A) (A) (A) (A) (A) (A) (A) (A)
                 (A) (A) (A) (A) (A) (A) (A) (A) (A) (A) (A) (A)
                 (A) (A) (A) (A) (A) (A) (A) (A) (A) (A) (A) (A)
                 (A) (A) (A) (A) (A) (A) (A) (A) (A) (A) (A) (A)
                 (A) (A) (A) (A) (A) (A) (A) (A) (A) (A) (A) (A)
                 (A) (A) (A) (A) (A) (A) (A) (A) (A) (A) (A) (A)
                 (A) (A) (A) (A) (A) (A) (A) (A) (A) (A) (A) (A)
                 (A) (A) (A) (A) (A) (A) (A) (A) (A) (A) (A) (A)
                 (A) (A) (A) (A) (A) (A) (A) (A) (A) (A) (A) (A)
                 (A) (A) (A) (A) (A) (A) (A) (A) (A) (A) (A) (A)
                 (A) (A) (A) (A) (A) (A) (A) (A) (A) (A) (A) (A)
                 (A) (A) (A) (A) (A) (A) (A) (A) (A) (A) (A) (A)
                 (A) (A) (A) (A) (A) (A) (A) (A) (A) (A) (A) (A)
                 (A) (A) (A) (A) (A) (A) (A) (A) (A) (A) (A) (A)
                 (A) (A) (A) (A) (A) (A) (A) (A) (A) (A) (A) (A)
                 (A) (A) (A) (A) (A) (A) (A) (A) (A) (A) (A) (A)
                 (A) (A) (A) (A) (A) (A) (A) (A) (A) (A) (A) (A)
                 (A) (A) (A) (A) (A) (A) (A) (A) (A) (A) (A) (A)
                 (A) (A) (A) (A) (A) (A) (A) (A) (A) (A) (A) (A)
                 (A) (A) (A) (A) (A) (A) (A) (A) (A) (A) (A) (A)
                 (A) (A) (A) (A) (A) (A) (A) (A) (A) (A) (A) (A)
                 (A) (A) (A) (A) (A) (A) (A) (A) (A) (A) (A) (A)
                 (A) (A) (A) (A) (A) (A) (A) (A) (A) (A) (A) (A)
                 (A) (A) (A) (A) (A) (A) (A) (A) (A) (A) (A) (A)
                 (A) (A) (A) (A) (A) (A) (A) (A) (A) (A) (A) (A)
                 (A) (A) (A) (A) (A) (A) (A) (A) (A) (A) (A) (A)
                 (A) (A) (A) (A) (A) (A) (A) (A) (A) (A) (A) (A)
                 (A) (A) (A) (A) (A) (A) (A) (A) (A) (A) (A) (A)
                 (A) (A) (A) (A) (A) (A) (A) (A) (A) (A) (A) (A)
                 (A) (A) (A) (A) (A) (A) (A) (A) (A) (A) (A) (A)
                 (A) (A) (A) (A) (A) (A) (A) (A) (A) (A) (A) (A)
                 (A) (A) (A) (A) (A) (A) (A) (A) (A) (A) (A) (A)
                 (A) (A) (A) (A) (A) (A) (A) (A) (A) (A) (A) (A)
                 (A) (A) (A) (A) (A) (A) (A) (A) (A) (A) (A) (A)
                 (A) (A) (A) (A) (A) (A) (A) (A) (A) (A) (A) (A)
                 (A) (A) (A) (A) (A) (A) (A) (A) (A) (A) (A) (A)
                 (A) (A) (A) (A) (A) (A) (A) (A) (A) (A) (A) (A)
                 (A) (A) (A) (A) (A) (A) (A) (A) (A) (A) (A) (A)
                 (A) (A) (A) (A) (A) (A) (A) (A) (A) (A) (A) (A)
                 (A) (A) (A) (A) (A) (A) (A) (A) (A) (A) (A) (A)
                 (A) (A) (A) (A) (A) (A) (A) (A) (A) (A) (A) (A)
                 (A) (A) (A) (A) (A) (A) (A) (A) (A) (A) (A) (A)
                 (A) (A) (A) (A) (A) (A) (A) (A) (A) (A) (A) (A)
                 (A) (A) (A) (A) (A) (A) (A) (A) (A) (A) (A) (A)
                 (A) (A) (A) (A) (A) (A) (A) (A) (A) (A) (A) (A)
                 (A) (A) (A) (A) (A) (A) (A) (A) (A) (A) (A) (A)
                 (A) (A) (A) (A) (A) (A) (A) (A) (A) (A) (A) (A)
                 (A) (A) (A) (A) (A) (A) (A) (A) (A) (A) (A) (A)
                 (A) (A) (A) (A) (A) (A) (A) (A) (A) (A) (A) (A)
                 (A) (A) (A) (A) (A) (A) (A) (A) (A) (A) (A) (A)
                 (A) (A) (A) (A) (A) (A) (A) (A) (A) (A) (A) (A)
                 (A) (A) (A) (A) (A) (A) (A) (A) (A) (A) (A) (A)
                 (A) (A) (A) (A) (A) (A) (A) (A) (A) (A) (A) (A)
                 (A) (A) (A) (A) (A) (A) (A) (A) (A) (A) (A) (A)
                 (A) (A) (A) (A) (A) (A) (A) (A) (A) (A) (A) (A)
                 (A) (A) (A) (A) (A) (A) (A) (A) (A) (A) (A) (A)
                 (A) (A) (A) (A) (A) (A) (A) (A) (A) (A) (A) (A)
                 (A) (A) (A) (A) (A) (A) (A) (A) (A) (A) (A) (A)
                 (A) (A) (A) (A) (A) (A) (A) (A) (A) (A) (A) (A)
                 (A) (A) (A) (A) (A) (A) (A) (A) (A) (A) (A) (A)
                 (A) (A) (A) (A) (A) (A) (A) (A) (A) (A) (A) (A)
                 (A) (A) (A) (A) (A) (A) (A) (A) (A) (A) (A) (A)
                 (A) (A) (A) (A) (A) (A) (A) (A) (A) (A) (A) (A)
                 (A) (A) (A) (A) (A) (A) (A) (A) (A) (A) (A) (A)
                 (A) (A) (A) (A) (A) (A) (A) (A) (A) (A) (A) (A)
                 (A) (A) (A) (A) (A) (A) (A) (A) (A) (A) (A) (A)
                 (A) (A) (A) (A) (A) (A) (A) (A) (A) (A) (A) (A)
                 (A) (A) (A) (A) (A) (A) (A) (A) (A) (A) (A) (A)
                 (A) (A) (A) (A) (A) (A) (A) (A) (A) (A) (A) (A)
                 (A) (A) (A) (A) (A) (A) (A) (A) (A) (A) (A) (A)
                 (A) (A) (A) (A) (A) (A) (A) (A) (A) (A) (A) (A)
                 (A) (A) (A) (A) (A) (A) (A) (A) (A) (A) (A) (A)
                 (A) (A) (A) (A) (A) (A) (A) (A) (A) (A) (A) (A)
 The electronic state is 6-A.
 Alpha  occ. eigenvalues -- -256.42006 -30.32930 -26.15957 -26.15841 -26.15775
 Alpha  occ. eigenvalues --  -19.38456 -19.33250 -14.51949 -14.46632 -14.46177
 Alpha  occ. eigenvalues --  -14.45510 -14.44834 -14.44684 -10.36588 -10.33917
 Alpha  occ. eigenvalues --  -10.33864 -10.33706 -10.33476 -10.33426 -10.33417
 Alpha  occ. eigenvalues --  -10.33328 -10.33151 -10.33121 -10.31678 -10.31575
 Alpha  occ. eigenvalues --  -10.31551 -10.31048 -10.30935 -10.30456 -10.30421
 Alpha  occ. eigenvalues --  -10.30399 -10.30393 -10.30333 -10.30239 -10.30212
 Alpha  occ. eigenvalues --  -10.30172 -10.30069 -10.30056 -10.29720 -10.29418
 Alpha  occ. eigenvalues --  -10.29397 -10.29371 -10.29256 -10.29155 -10.28813
 Alpha  occ. eigenvalues --  -10.28288 -10.28123  -3.78502  -2.55297  -2.55185
 Alpha  occ. eigenvalues --   -2.54828  -1.39256  -1.16258  -1.09114  -1.08206
 Alpha  occ. eigenvalues --   -1.06903  -1.05403  -1.03569  -1.01015  -0.94214
 Alpha  occ. eigenvalues --   -0.92167  -0.91764  -0.91482  -0.91069  -0.90930
 Alpha  occ. eigenvalues --   -0.90266  -0.88804  -0.86534  -0.86061  -0.85421
 Alpha  occ. eigenvalues --   -0.84307  -0.82364  -0.81313  -0.81106  -0.80094
 Alpha  occ. eigenvalues --   -0.78661  -0.78448  -0.77439  -0.75949  -0.75677
 Alpha  occ. eigenvalues --   -0.75431  -0.74725  -0.71940  -0.71048  -0.69839
 Alpha  occ. eigenvalues --   -0.69651  -0.69050  -0.68580  -0.66148  -0.65650
 Alpha  occ. eigenvalues --   -0.64621  -0.64221  -0.63862  -0.63213  -0.62464
 Alpha  occ. eigenvalues --   -0.62069  -0.61512  -0.61020  -0.59125  -0.58914
 Alpha  occ. eigenvalues --   -0.58626  -0.57818  -0.57681  -0.56656  -0.55753
 Alpha  occ. eigenvalues --   -0.55591  -0.55259  -0.55173  -0.54909  -0.54719
 Alpha  occ. eigenvalues --   -0.54224  -0.53670  -0.53568  -0.53450  -0.53190
 Alpha  occ. eigenvalues --   -0.53153  -0.52728  -0.52550  -0.52350  -0.51994
 Alpha  occ. eigenvalues --   -0.51335  -0.51207  -0.50791  -0.50741  -0.50553
 Alpha  occ. eigenvalues --   -0.50480  -0.50215  -0.50166  -0.50062  -0.49834
 Alpha  occ. eigenvalues --   -0.49442  -0.49314  -0.49017  -0.48587  -0.48400
 Alpha  occ. eigenvalues --   -0.48009  -0.47798  -0.47320  -0.46975  -0.46681
 Alpha  occ. eigenvalues --   -0.46448  -0.46021  -0.45414  -0.44249  -0.43909
 Alpha  occ. eigenvalues --   -0.43646  -0.43467  -0.43153  -0.42762  -0.40881
 Alpha  occ. eigenvalues --   -0.40795  -0.39387  -0.38529  -0.38378  -0.37570
 Alpha  occ. eigenvalues --   -0.35337  -0.34958  -0.34631  -0.33856  -0.33447
 Alpha  occ. eigenvalues --   -0.33080  -0.32282  -0.30526  -0.30012
 Alpha virt. eigenvalues --   -0.18921  -0.18528  -0.12547  -0.09234  -0.08918
 Alpha virt. eigenvalues --   -0.08500  -0.07423  -0.06509  -0.05697  -0.05408
 Alpha virt. eigenvalues --   -0.04622  -0.04430  -0.04103  -0.03833  -0.03042
 Alpha virt. eigenvalues --   -0.02936  -0.02412  -0.01841  -0.01590  -0.01486
 Alpha virt. eigenvalues --   -0.00595  -0.00418  -0.00111   0.00111   0.00456
 Alpha virt. eigenvalues --    0.00765   0.01283   0.01581   0.01874   0.01916
 Alpha virt. eigenvalues --    0.02208   0.02591   0.02825   0.03238   0.03331
 Alpha virt. eigenvalues --    0.03612   0.03661   0.03803   0.03845   0.03988
 Alpha virt. eigenvalues --    0.04212   0.04393   0.04654   0.05087   0.05282
 Alpha virt. eigenvalues --    0.05430   0.05659   0.05887   0.06120   0.06184
 Alpha virt. eigenvalues --    0.06408   0.06719   0.06961   0.07069   0.07181
 Alpha virt. eigenvalues --    0.07627   0.07781   0.07885   0.07991   0.08002
 Alpha virt. eigenvalues --    0.08475   0.08698   0.09203   0.09250   0.09795
 Alpha virt. eigenvalues --    0.10071   0.10418   0.10554   0.10762   0.11027
 Alpha virt. eigenvalues --    0.11098   0.11594   0.12007   0.12367   0.12630
 Alpha virt. eigenvalues --    0.12876   0.13136   0.13493   0.13663   0.14021
 Alpha virt. eigenvalues --    0.14310   0.14631   0.14672   0.15006   0.15305
 Alpha virt. eigenvalues --    0.15370   0.15833   0.16112   0.16378   0.16478
 Alpha virt. eigenvalues --    0.16702   0.16944   0.17097   0.17244   0.17475
 Alpha virt. eigenvalues --    0.17863   0.18052   0.18250   0.18554   0.18883
 Alpha virt. eigenvalues --    0.19009   0.19433   0.19504   0.19776   0.19892
 Alpha virt. eigenvalues --    0.20071   0.20435   0.20892   0.21067   0.21428
 Alpha virt. eigenvalues --    0.21619   0.21703   0.21913   0.22263   0.22400
 Alpha virt. eigenvalues --    0.22812   0.23254   0.23375   0.23652   0.24043
 Alpha virt. eigenvalues --    0.24485   0.24610   0.24893   0.25087   0.25213
 Alpha virt. eigenvalues --    0.25463   0.26247   0.26423   0.26608   0.26719
 Alpha virt. eigenvalues --    0.27042   0.27281   0.27742   0.27988   0.28034
 Alpha virt. eigenvalues --    0.28377   0.28549   0.28810   0.29083   0.29362
 Alpha virt. eigenvalues --    0.29538   0.29748   0.29921   0.30191   0.30402
 Alpha virt. eigenvalues --    0.30756   0.31039   0.31090   0.31382   0.31561
 Alpha virt. eigenvalues --    0.31853   0.32009   0.32303   0.32599   0.32728
 Alpha virt. eigenvalues --    0.33013   0.33235   0.33517   0.33821   0.33914
 Alpha virt. eigenvalues --    0.34091   0.34290   0.34519   0.34924   0.35081
 Alpha virt. eigenvalues --    0.35475   0.35666   0.35819   0.36051   0.36197
 Alpha virt. eigenvalues --    0.36464   0.36801   0.36848   0.37164   0.37200
 Alpha virt. eigenvalues --    0.37443   0.37823   0.37970   0.38150   0.38269
 Alpha virt. eigenvalues --    0.38484   0.38552   0.38976   0.39266   0.39361
 Alpha virt. eigenvalues --    0.39575   0.39922   0.40000   0.40185   0.40583
 Alpha virt. eigenvalues --    0.40695   0.40796   0.41072   0.41326   0.41465
 Alpha virt. eigenvalues --    0.41704   0.41977   0.42178   0.42353   0.42418
 Alpha virt. eigenvalues --    0.42876   0.43103   0.43698   0.43803   0.43950
 Alpha virt. eigenvalues --    0.44262   0.44363   0.44638   0.44917   0.45116
 Alpha virt. eigenvalues --    0.45306   0.45494   0.46071   0.46323   0.46727
 Alpha virt. eigenvalues --    0.46895   0.47146   0.47339   0.47774   0.47969
 Alpha virt. eigenvalues --    0.48101   0.48760   0.48882   0.49191   0.49348
 Alpha virt. eigenvalues --    0.49736   0.49963   0.50210   0.50445   0.50811
 Alpha virt. eigenvalues --    0.51073   0.51518   0.51675   0.52156   0.52433
 Alpha virt. eigenvalues --    0.52815   0.52926   0.53265   0.53507   0.53803
 Alpha virt. eigenvalues --    0.54153   0.54318   0.54460   0.54762   0.54854
 Alpha virt. eigenvalues --    0.55082   0.55296   0.55749   0.55874   0.56455
 Alpha virt. eigenvalues --    0.56868   0.57265   0.57294   0.57658   0.57938
 Alpha virt. eigenvalues --    0.58304   0.58587   0.58771   0.59332   0.59729
 Alpha virt. eigenvalues --    0.59789   0.60017   0.60364   0.60438   0.60782
 Alpha virt. eigenvalues --    0.60946   0.61887   0.61918   0.62109   0.62155
 Alpha virt. eigenvalues --    0.62507   0.62642   0.63474   0.64076   0.64115
 Alpha virt. eigenvalues --    0.64523   0.64730   0.65131   0.65480   0.66433
 Alpha virt. eigenvalues --    0.66644   0.66779   0.67121   0.67367   0.67773
 Alpha virt. eigenvalues --    0.68146   0.68606   0.68850   0.68966   0.69156
 Alpha virt. eigenvalues --    0.69720   0.69919   0.70734   0.70777   0.71431
 Alpha virt. eigenvalues --    0.72108   0.72439   0.72715   0.72844   0.73463
 Alpha virt. eigenvalues --    0.73681   0.73960   0.74395   0.74985   0.75412
 Alpha virt. eigenvalues --    0.75732   0.75790   0.76561   0.76801   0.76990
 Alpha virt. eigenvalues --    0.77440   0.77820   0.78264   0.78686   0.78908
 Alpha virt. eigenvalues --    0.79322   0.79625   0.79676   0.80164   0.80781
 Alpha virt. eigenvalues --    0.80975   0.81041   0.81657   0.82166   0.82295
 Alpha virt. eigenvalues --    0.83033   0.83119   0.83445   0.83878   0.84325
 Alpha virt. eigenvalues --    0.84375   0.84506   0.85019   0.85488   0.85639
 Alpha virt. eigenvalues --    0.85907   0.86210   0.86617   0.86756   0.86933
 Alpha virt. eigenvalues --    0.87714   0.87926   0.88057   0.88487   0.88832
 Alpha virt. eigenvalues --    0.89153   0.89417   0.89707   0.89944   0.90602
 Alpha virt. eigenvalues --    0.91065   0.91244   0.91536   0.91776   0.92236
 Alpha virt. eigenvalues --    0.92560   0.92741   0.92927   0.92958   0.93314
 Alpha virt. eigenvalues --    0.93699   0.93841   0.94452   0.94798   0.95144
 Alpha virt. eigenvalues --    0.95463   0.95866   0.96532   0.96586   0.96870
 Alpha virt. eigenvalues --    0.97561   0.98178   0.98562   0.98870   0.98947
 Alpha virt. eigenvalues --    0.99197   0.99900   1.00605   1.01171   1.01694
 Alpha virt. eigenvalues --    1.01811   1.02560   1.02692   1.03461   1.03888
 Alpha virt. eigenvalues --    1.03986   1.04605   1.04923   1.05412   1.05597
 Alpha virt. eigenvalues --    1.05958   1.06313   1.06863   1.07023   1.07460
 Alpha virt. eigenvalues --    1.08133   1.08483   1.08823   1.09105   1.09313
 Alpha virt. eigenvalues --    1.09564   1.10080   1.10497   1.10928   1.11257
 Alpha virt. eigenvalues --    1.11789   1.12315   1.12587   1.12997   1.13522
 Alpha virt. eigenvalues --    1.13955   1.14213   1.14325   1.14995   1.15632
 Alpha virt. eigenvalues --    1.15898   1.16376   1.16984   1.17068   1.17377
 Alpha virt. eigenvalues --    1.17651   1.18139   1.18450   1.18731   1.18875
 Alpha virt. eigenvalues --    1.19224   1.19408   1.20332   1.20998   1.21456
 Alpha virt. eigenvalues --    1.21777   1.21837   1.22955   1.23037   1.23610
 Alpha virt. eigenvalues --    1.24112   1.24825   1.25677   1.25734   1.26275
 Alpha virt. eigenvalues --    1.26599   1.26909   1.27210   1.27945   1.28165
 Alpha virt. eigenvalues --    1.28883   1.29216   1.29748   1.30230   1.31051
 Alpha virt. eigenvalues --    1.31757   1.32325   1.33204   1.33405   1.33827
 Alpha virt. eigenvalues --    1.34243   1.34537   1.34654   1.34975   1.35571
 Alpha virt. eigenvalues --    1.36401   1.36618   1.37034   1.37334   1.37538
 Alpha virt. eigenvalues --    1.37881   1.38197   1.38550   1.39059   1.39195
 Alpha virt. eigenvalues --    1.39911   1.40244   1.40312   1.41093   1.41442
 Alpha virt. eigenvalues --    1.41742   1.41956   1.42120   1.42408   1.42884
 Alpha virt. eigenvalues --    1.43390   1.43496   1.43689   1.44148   1.44303
 Alpha virt. eigenvalues --    1.44903   1.45095   1.45492   1.45728   1.45814
 Alpha virt. eigenvalues --    1.45955   1.46303   1.46577   1.46923   1.47255
 Alpha virt. eigenvalues --    1.47643   1.48084   1.48382   1.48625   1.48862
 Alpha virt. eigenvalues --    1.49224   1.49519   1.50026   1.50170   1.50275
 Alpha virt. eigenvalues --    1.50780   1.50908   1.51168   1.51385   1.51731
 Alpha virt. eigenvalues --    1.52129   1.52727   1.53002   1.53430   1.53562
 Alpha virt. eigenvalues --    1.53668   1.53973   1.54166   1.54370   1.54869
 Alpha virt. eigenvalues --    1.55056   1.55456   1.55895   1.56320   1.56474
 Alpha virt. eigenvalues --    1.56918   1.57013   1.57436   1.57688   1.58151
 Alpha virt. eigenvalues --    1.58379   1.58567   1.58878   1.58980   1.59117
 Alpha virt. eigenvalues --    1.59868   1.60271   1.60698   1.61082   1.61222
 Alpha virt. eigenvalues --    1.61527   1.61833   1.62330   1.63002   1.63750
 Alpha virt. eigenvalues --    1.63953   1.64094   1.64830   1.65093   1.65327
 Alpha virt. eigenvalues --    1.65675   1.66410   1.67716   1.67906   1.68419
 Alpha virt. eigenvalues --    1.69010   1.69434   1.70140   1.70645   1.71283
 Alpha virt. eigenvalues --    1.71340   1.72208   1.72964   1.73331   1.73542
 Alpha virt. eigenvalues --    1.73883   1.74075   1.74608   1.74631   1.75217
 Alpha virt. eigenvalues --    1.75781   1.76063   1.76395   1.76731   1.77403
 Alpha virt. eigenvalues --    1.77656   1.78262   1.78575   1.79243   1.79746
 Alpha virt. eigenvalues --    1.80231   1.80513   1.80766   1.81488   1.81938
 Alpha virt. eigenvalues --    1.82276   1.82503   1.82879   1.83425   1.84109
 Alpha virt. eigenvalues --    1.84548   1.85131   1.85621   1.85764   1.86303
 Alpha virt. eigenvalues --    1.86516   1.86680   1.87175   1.87713   1.87949
 Alpha virt. eigenvalues --    1.88169   1.88349   1.89173   1.89442   1.89756
 Alpha virt. eigenvalues --    1.90551   1.91031   1.91995   1.92589   1.92774
 Alpha virt. eigenvalues --    1.93110   1.93559   1.93974   1.94397   1.95447
 Alpha virt. eigenvalues --    1.95770   1.95981   1.96411   1.96972   1.97097
 Alpha virt. eigenvalues --    1.97721   1.98031   1.98114   1.98874   1.99796
 Alpha virt. eigenvalues --    2.00124   2.00187   2.00752   2.00979   2.01258
 Alpha virt. eigenvalues --    2.01978   2.02299   2.02602   2.02764   2.03025
 Alpha virt. eigenvalues --    2.03813   2.04166   2.05132   2.05219   2.05656
 Alpha virt. eigenvalues --    2.06045   2.06463   2.06989   2.07156   2.07520
 Alpha virt. eigenvalues --    2.07897   2.08441   2.08870   2.09309   2.09652
 Alpha virt. eigenvalues --    2.10541   2.10773   2.10910   2.11588   2.12016
 Alpha virt. eigenvalues --    2.12364   2.13216   2.13313   2.14102   2.14315
 Alpha virt. eigenvalues --    2.14638   2.15291   2.16003   2.16414   2.16692
 Alpha virt. eigenvalues --    2.17100   2.17780   2.18274   2.18439   2.19485
 Alpha virt. eigenvalues --    2.19977   2.20345   2.20828   2.21131   2.21788
 Alpha virt. eigenvalues --    2.22250   2.22604   2.22955   2.23331   2.23517
 Alpha virt. eigenvalues --    2.23787   2.24210   2.24333   2.24560   2.24731
 Alpha virt. eigenvalues --    2.25166   2.25558   2.25915   2.26286   2.26680
 Alpha virt. eigenvalues --    2.26953   2.27387   2.27850   2.28111   2.28512
 Alpha virt. eigenvalues --    2.29128   2.29706   2.29974   2.30193   2.30780
 Alpha virt. eigenvalues --    2.30996   2.31443   2.31766   2.32381   2.32606
 Alpha virt. eigenvalues --    2.32880   2.33486   2.33848   2.34200   2.34770
 Alpha virt. eigenvalues --    2.35094   2.35346   2.35715   2.36689   2.37212
 Alpha virt. eigenvalues --    2.37949   2.38492   2.38871   2.39316   2.39581
 Alpha virt. eigenvalues --    2.39934   2.40529   2.40746   2.41169   2.41998
 Alpha virt. eigenvalues --    2.42205   2.42516   2.42673   2.43189   2.43794
 Alpha virt. eigenvalues --    2.44218   2.44421   2.44546   2.44977   2.45149
 Alpha virt. eigenvalues --    2.45756   2.46014   2.46130   2.46786   2.47093
 Alpha virt. eigenvalues --    2.47150   2.47949   2.48456   2.48810   2.49229
 Alpha virt. eigenvalues --    2.49320   2.50091   2.50480   2.51346   2.51378
 Alpha virt. eigenvalues --    2.52000   2.52169   2.52502   2.52985   2.53434
 Alpha virt. eigenvalues --    2.53594   2.53944   2.54547   2.55132   2.55361
 Alpha virt. eigenvalues --    2.55703   2.56199   2.56620   2.56853   2.57559
 Alpha virt. eigenvalues --    2.58000   2.58089   2.58444   2.58637   2.59355
 Alpha virt. eigenvalues --    2.59455   2.59820   2.60566   2.60738   2.60928
 Alpha virt. eigenvalues --    2.61700   2.62242   2.62412   2.63662   2.63987
 Alpha virt. eigenvalues --    2.64077   2.64718   2.64799   2.65466   2.65831
 Alpha virt. eigenvalues --    2.66200   2.66679   2.67147   2.67814   2.68319
 Alpha virt. eigenvalues --    2.68483   2.68873   2.69162   2.69577   2.70219
 Alpha virt. eigenvalues --    2.70547   2.71069   2.71215   2.72052   2.72387
 Alpha virt. eigenvalues --    2.72753   2.72991   2.73938   2.74272   2.74456
 Alpha virt. eigenvalues --    2.74689   2.74997   2.75386   2.76002   2.76314
 Alpha virt. eigenvalues --    2.76968   2.77215   2.77472   2.77996   2.78341
 Alpha virt. eigenvalues --    2.78784   2.79219   2.79442   2.79815   2.80231
 Alpha virt. eigenvalues --    2.80572   2.80851   2.80923   2.81636   2.81765
 Alpha virt. eigenvalues --    2.82434   2.82638   2.83050   2.83991   2.84316
 Alpha virt. eigenvalues --    2.84589   2.84958   2.85239   2.85401   2.85903
 Alpha virt. eigenvalues --    2.86220   2.86415   2.87081   2.87465   2.88120
 Alpha virt. eigenvalues --    2.88471   2.88990   2.89194   2.89356   2.89622
 Alpha virt. eigenvalues --    2.90150   2.90286   2.90875   2.91275   2.91475
 Alpha virt. eigenvalues --    2.91976   2.92228   2.92554   2.92934   2.93191
 Alpha virt. eigenvalues --    2.93666   2.94045   2.94194   2.94630   2.95216
 Alpha virt. eigenvalues --    2.95694   2.95810   2.96151   2.96408   2.96944
 Alpha virt. eigenvalues --    2.97271   2.97568   2.97764   2.98603   2.98850
 Alpha virt. eigenvalues --    2.98980   2.99290   2.99382   2.99735   3.00103
 Alpha virt. eigenvalues --    3.00261   3.00499   3.00883   3.01197   3.01479
 Alpha virt. eigenvalues --    3.01850   3.02365   3.02430   3.03079   3.03239
 Alpha virt. eigenvalues --    3.03496   3.03923   3.04282   3.04576   3.04675
 Alpha virt. eigenvalues --    3.04859   3.05271   3.05456   3.06087   3.06183
 Alpha virt. eigenvalues --    3.06393   3.07004   3.07124   3.07583   3.08099
 Alpha virt. eigenvalues --    3.08475   3.08903   3.09123   3.09671   3.09817
 Alpha virt. eigenvalues --    3.09958   3.10294   3.10730   3.11021   3.11654
 Alpha virt. eigenvalues --    3.12054   3.12164   3.12490   3.12743   3.12901
 Alpha virt. eigenvalues --    3.13166   3.13672   3.13916   3.14067   3.14324
 Alpha virt. eigenvalues --    3.14745   3.15239   3.15542   3.15834   3.15971
 Alpha virt. eigenvalues --    3.16248   3.16639   3.17007   3.17383   3.17452
 Alpha virt. eigenvalues --    3.17987   3.18087   3.18416   3.18659   3.19151
 Alpha virt. eigenvalues --    3.19394   3.19727   3.20184   3.20674   3.21108
 Alpha virt. eigenvalues --    3.21521   3.21758   3.21788   3.22033   3.22118
 Alpha virt. eigenvalues --    3.22505   3.22637   3.23272   3.23551   3.23887
 Alpha virt. eigenvalues --    3.23938   3.24359   3.24419   3.24997   3.25113
 Alpha virt. eigenvalues --    3.25142   3.25568   3.26017   3.26151   3.26245
 Alpha virt. eigenvalues --    3.26663   3.26847   3.26889   3.27180   3.27444
 Alpha virt. eigenvalues --    3.27904   3.28036   3.28470   3.28996   3.29249
 Alpha virt. eigenvalues --    3.29720   3.29847   3.30255   3.30539   3.30791
 Alpha virt. eigenvalues --    3.31271   3.31869   3.32165   3.32335   3.32499
 Alpha virt. eigenvalues --    3.32872   3.33565   3.33719   3.33892   3.34168
 Alpha virt. eigenvalues --    3.34890   3.35488   3.35874   3.36212   3.36404
 Alpha virt. eigenvalues --    3.37183   3.37474   3.37972   3.38394   3.38579
 Alpha virt. eigenvalues --    3.38977   3.39369   3.40063   3.40504   3.41019
 Alpha virt. eigenvalues --    3.41658   3.41820   3.42130   3.42774   3.43339
 Alpha virt. eigenvalues --    3.44100   3.44371   3.44771   3.45191   3.45484
 Alpha virt. eigenvalues --    3.46075   3.46296   3.46670   3.47155   3.48297
 Alpha virt. eigenvalues --    3.48590   3.48789   3.49274   3.49788   3.50279
 Alpha virt. eigenvalues --    3.50670   3.51208   3.51552   3.51747   3.52292
 Alpha virt. eigenvalues --    3.52573   3.53000   3.53421   3.54138   3.54458
 Alpha virt. eigenvalues --    3.55001   3.55428   3.55989   3.56130   3.56312
 Alpha virt. eigenvalues --    3.56748   3.57078   3.57466   3.57797   3.58311
 Alpha virt. eigenvalues --    3.58483   3.58865   3.59319   3.59793   3.60417
 Alpha virt. eigenvalues --    3.60700   3.60755   3.61057   3.61514   3.61890
 Alpha virt. eigenvalues --    3.62462   3.62506   3.62842   3.63728   3.64035
 Alpha virt. eigenvalues --    3.64761   3.65509   3.65536   3.66171   3.66442
 Alpha virt. eigenvalues --    3.66613   3.67633   3.67978   3.69696   3.70009
 Alpha virt. eigenvalues --    3.70174   3.70353   3.70904   3.71847   3.72468
 Alpha virt. eigenvalues --    3.72719   3.73141   3.73547   3.73726   3.74860
 Alpha virt. eigenvalues --    3.75390   3.76045   3.76327   3.76713   3.77189
 Alpha virt. eigenvalues --    3.78332   3.78941   3.79478   3.80146   3.80226
 Alpha virt. eigenvalues --    3.80612   3.81247   3.81882   3.82484   3.82846
 Alpha virt. eigenvalues --    3.83450   3.84052   3.84661   3.85282   3.85467
 Alpha virt. eigenvalues --    3.86047   3.86548   3.86848   3.87124   3.87704
 Alpha virt. eigenvalues --    3.88240   3.89091   3.89522   3.90553   3.91299
 Alpha virt. eigenvalues --    3.91585   3.92323   3.92965   3.93646   3.94287
 Alpha virt. eigenvalues --    3.95345   3.96178   3.96809   3.97515   3.98073
 Alpha virt. eigenvalues --    3.98263   3.99242   3.99811   4.00702   4.01741
 Alpha virt. eigenvalues --    4.02309   4.02609   4.03489   4.03627   4.04651
 Alpha virt. eigenvalues --    4.05067   4.05652   4.06728   4.07016   4.07650
 Alpha virt. eigenvalues --    4.08240   4.08636   4.08889   4.09256   4.09306
 Alpha virt. eigenvalues --    4.09724   4.10507   4.10749   4.11643   4.12010
 Alpha virt. eigenvalues --    4.12584   4.13138   4.13393   4.14010   4.14649
 Alpha virt. eigenvalues --    4.15232   4.15882   4.16318   4.16562   4.16979
 Alpha virt. eigenvalues --    4.17803   4.18631   4.19560   4.19820   4.20333
 Alpha virt. eigenvalues --    4.21582   4.22141   4.22451   4.23120   4.23532
 Alpha virt. eigenvalues --    4.23855   4.24277   4.25139   4.26308   4.26650
 Alpha virt. eigenvalues --    4.27382   4.27751   4.27853   4.28256   4.28908
 Alpha virt. eigenvalues --    4.28953   4.29451   4.29770   4.30577   4.31278
 Alpha virt. eigenvalues --    4.31770   4.32961   4.33594   4.34072   4.34556
 Alpha virt. eigenvalues --    4.34999   4.35351   4.36393   4.36705   4.38264
 Alpha virt. eigenvalues --    4.38319   4.39527   4.41465   4.42162   4.43193
 Alpha virt. eigenvalues --    4.43547   4.44026   4.45278   4.45987   4.47286
 Alpha virt. eigenvalues --    4.47963   4.48978   4.50179   4.50908   4.51356
 Alpha virt. eigenvalues --    4.51717   4.52211   4.53672   4.54269   4.54733
 Alpha virt. eigenvalues --    4.55517   4.56885   4.57342   4.57765   4.58597
 Alpha virt. eigenvalues --    4.59739   4.60608   4.61071   4.61180   4.62111
 Alpha virt. eigenvalues --    4.62343   4.63895   4.64202   4.65818   4.66536
 Alpha virt. eigenvalues --    4.67110   4.67577   4.68632   4.68826   4.68991
 Alpha virt. eigenvalues --    4.70013   4.70873   4.71568   4.71987   4.72122
 Alpha virt. eigenvalues --    4.72530   4.72987   4.73138   4.74403   4.75333
 Alpha virt. eigenvalues --    4.76325   4.77575   4.78418   4.80021   4.80141
 Alpha virt. eigenvalues --    4.80373   4.80918   4.81716   4.82630   4.83707
 Alpha virt. eigenvalues --    4.84165   4.84826   4.85474   4.85997   4.87004
 Alpha virt. eigenvalues --    4.87776   4.88598   4.88971   4.90185   4.91157
 Alpha virt. eigenvalues --    4.92355   4.92628   4.93097   4.93505   4.95760
 Alpha virt. eigenvalues --    4.96356   4.97058   4.98796   4.99075   5.00010
 Alpha virt. eigenvalues --    5.00399   5.02759   5.04380   5.04609   5.06752
 Alpha virt. eigenvalues --    5.06924   5.07495   5.08913   5.10002   5.11913
 Alpha virt. eigenvalues --    5.12254   5.12793   5.14213   5.15318   5.16159
 Alpha virt. eigenvalues --    5.19640   5.20365   5.21003   5.23144   5.23931
 Alpha virt. eigenvalues --    5.24706   5.25484   5.26173   5.26321   5.27083
 Alpha virt. eigenvalues --    5.27646   5.29693   5.31288   5.31988   5.32617
 Alpha virt. eigenvalues --    5.33477   5.34761   5.35303   5.35588   5.37007
 Alpha virt. eigenvalues --    5.37869   5.38528   5.41270   5.42177   5.44243
 Alpha virt. eigenvalues --    5.45757   5.46379   5.47270   5.48718   5.50567
 Alpha virt. eigenvalues --    5.50915   5.53793   5.54878   5.55276   5.57814
 Alpha virt. eigenvalues --    5.60245   5.62069   5.62614   5.63790   5.65991
 Alpha virt. eigenvalues --    5.67556   5.68439   5.71033   5.78111   5.81436
 Alpha virt. eigenvalues --    5.82732   5.85837   5.86813   5.87606   5.89551
 Alpha virt. eigenvalues --    5.90428   5.93474   5.94446   5.97388   5.98423
 Alpha virt. eigenvalues --    5.99441   6.00944   6.04042   6.08341   6.10375
 Alpha virt. eigenvalues --    6.11885   6.17774   6.18816   6.20755   6.25116
 Alpha virt. eigenvalues --    6.27577   6.36311   6.40734   6.45881   6.54123
 Alpha virt. eigenvalues --    6.69149   6.79708   6.99316   7.07233   7.28645
 Alpha virt. eigenvalues --    7.49775   8.58988  22.10825  22.15159  22.21064
 Alpha virt. eigenvalues --   22.22013  22.25196  22.29246  22.30708  22.31830
 Alpha virt. eigenvalues --   22.35687  22.62775  22.64641  22.66369  22.72319
 Alpha virt. eigenvalues --   22.76595  22.80873  22.82983  22.85703  22.91205
 Alpha virt. eigenvalues --   22.93603  22.95169  23.01627  23.05181  23.07892
 Alpha virt. eigenvalues --   23.13385  23.16398  23.18318  23.27046  23.30679
 Alpha virt. eigenvalues --   23.37028  23.41984  23.48317  23.59241  23.62325
 Alpha virt. eigenvalues --   23.70589  32.33292  32.56792  32.83014  32.85899
 Alpha virt. eigenvalues --   32.91357  33.03627  43.92055  44.23403
  Beta  occ. eigenvalues -- -256.41857 -30.23246 -26.07844 -26.07747 -26.07713
  Beta  occ. eigenvalues --  -19.38091 -19.33187 -14.51938 -14.46350 -14.45891
  Beta  occ. eigenvalues --  -14.45195 -14.44534 -14.44349 -10.36581 -10.33906
  Beta  occ. eigenvalues --  -10.33839 -10.33695 -10.33449 -10.33408 -10.33392
  Beta  occ. eigenvalues --  -10.33313 -10.33126 -10.33108 -10.31641 -10.31574
  Beta  occ. eigenvalues --  -10.31506 -10.31013 -10.30910 -10.30455 -10.30424
  Beta  occ. eigenvalues --  -10.30397 -10.30362 -10.30343 -10.30218 -10.30214
  Beta  occ. eigenvalues --  -10.30148 -10.30080 -10.30034 -10.29721 -10.29417
  Beta  occ. eigenvalues --  -10.29396 -10.29370 -10.29254 -10.29154 -10.28811
  Beta  occ. eigenvalues --  -10.28273 -10.28117  -3.55725  -2.31059  -2.30786
  Beta  occ. eigenvalues --   -2.30551  -1.38832  -1.16124  -1.08765  -1.07856
  Beta  occ. eigenvalues --   -1.06568  -1.05011  -1.03065  -1.00739  -0.94164
  Beta  occ. eigenvalues --   -0.92007  -0.91681  -0.91362  -0.90921  -0.90755
  Beta  occ. eigenvalues --   -0.90221  -0.88568  -0.86471  -0.86010  -0.85345
  Beta  occ. eigenvalues --   -0.84241  -0.82332  -0.81228  -0.81039  -0.79981
  Beta  occ. eigenvalues --   -0.78545  -0.78297  -0.77229  -0.75810  -0.75328
  Beta  occ. eigenvalues --   -0.74801  -0.73818  -0.71872  -0.70599  -0.69741
  Beta  occ. eigenvalues --   -0.69441  -0.68893  -0.68243  -0.66010  -0.65488
  Beta  occ. eigenvalues --   -0.64400  -0.63947  -0.63168  -0.62226  -0.61800
  Beta  occ. eigenvalues --   -0.61309  -0.61148  -0.59330  -0.58730  -0.58071
  Beta  occ. eigenvalues --   -0.57650  -0.57374  -0.56118  -0.55444  -0.55062
  Beta  occ. eigenvalues --   -0.54788  -0.54095  -0.53689  -0.53537  -0.53376
  Beta  occ. eigenvalues --   -0.53177  -0.52868  -0.52639  -0.52364  -0.52283
  Beta  occ. eigenvalues --   -0.51632  -0.51454  -0.51295  -0.50991  -0.50699
  Beta  occ. eigenvalues --   -0.50496  -0.50393  -0.50223  -0.50128  -0.49769
  Beta  occ. eigenvalues --   -0.49541  -0.49365  -0.49228  -0.48964  -0.48512
  Beta  occ. eigenvalues --   -0.47922  -0.47791  -0.47671  -0.47259  -0.46570
  Beta  occ. eigenvalues --   -0.46489  -0.46294  -0.45556  -0.45033  -0.44455
  Beta  occ. eigenvalues --   -0.43980  -0.43587  -0.43402  -0.43188  -0.42385
  Beta  occ. eigenvalues --   -0.42216  -0.40826  -0.40549  -0.39321  -0.38616
  Beta  occ. eigenvalues --   -0.38058  -0.37049  -0.35060  -0.34695  -0.33854
  Beta  occ. eigenvalues --   -0.33188  -0.32101  -0.30387  -0.29926
  Beta virt. eigenvalues --   -0.21590  -0.20606  -0.19690  -0.17575  -0.17155
  Beta virt. eigenvalues --   -0.12536  -0.12443  -0.12028  -0.09074  -0.08675
  Beta virt. eigenvalues --   -0.08339  -0.07040  -0.06235  -0.05604  -0.05212
  Beta virt. eigenvalues --   -0.04545  -0.04369  -0.03795  -0.03690  -0.03010
  Beta virt. eigenvalues --   -0.02637  -0.02362  -0.01761  -0.01542  -0.01326
  Beta virt. eigenvalues --   -0.00544  -0.00363  -0.00052   0.00152   0.00513
  Beta virt. eigenvalues --    0.00864   0.01398   0.01671   0.01944   0.01974
  Beta virt. eigenvalues --    0.02307   0.02723   0.02879   0.03285   0.03432
  Beta virt. eigenvalues --    0.03664   0.03715   0.03846   0.03902   0.04067
  Beta virt. eigenvalues --    0.04274   0.04459   0.04700   0.05145   0.05377
  Beta virt. eigenvalues --    0.05489   0.05718   0.05959   0.06194   0.06387
  Beta virt. eigenvalues --    0.06454   0.06781   0.06998   0.07120   0.07233
  Beta virt. eigenvalues --    0.07670   0.07855   0.07933   0.08065   0.08077
  Beta virt. eigenvalues --    0.08590   0.08724   0.09260   0.09437   0.09922
  Beta virt. eigenvalues --    0.10176   0.10568   0.10686   0.10941   0.11124
  Beta virt. eigenvalues --    0.11222   0.11723   0.12126   0.12478   0.12727
  Beta virt. eigenvalues --    0.13059   0.13423   0.13571   0.13870   0.14375
  Beta virt. eigenvalues --    0.14566   0.14721   0.14784   0.15183   0.15413
  Beta virt. eigenvalues --    0.15520   0.16026   0.16175   0.16426   0.16611
  Beta virt. eigenvalues --    0.16793   0.17145   0.17259   0.17402   0.17618
  Beta virt. eigenvalues --    0.18042   0.18190   0.18486   0.18778   0.19039
  Beta virt. eigenvalues --    0.19238   0.19667   0.19793   0.19942   0.20139
  Beta virt. eigenvalues --    0.20309   0.20533   0.21068   0.21248   0.21561
  Beta virt. eigenvalues --    0.21756   0.21815   0.22235   0.22446   0.22649
  Beta virt. eigenvalues --    0.23302   0.23444   0.23742   0.23809   0.24283
  Beta virt. eigenvalues --    0.24659   0.24716   0.25075   0.25218   0.25479
  Beta virt. eigenvalues --    0.25791   0.26501   0.26608   0.26803   0.26904
  Beta virt. eigenvalues --    0.27240   0.27525   0.27837   0.28064   0.28113
  Beta virt. eigenvalues --    0.28657   0.28787   0.28928   0.29220   0.29599
  Beta virt. eigenvalues --    0.29669   0.29860   0.30023   0.30287   0.30503
  Beta virt. eigenvalues --    0.30876   0.31215   0.31313   0.31479   0.31707
  Beta virt. eigenvalues --    0.31957   0.32164   0.32386   0.32742   0.32818
  Beta virt. eigenvalues --    0.33170   0.33290   0.33578   0.33956   0.34019
  Beta virt. eigenvalues --    0.34140   0.34405   0.34678   0.35023   0.35158
  Beta virt. eigenvalues --    0.35637   0.35792   0.35964   0.36158   0.36340
  Beta virt. eigenvalues --    0.36596   0.36954   0.37014   0.37265   0.37283
  Beta virt. eigenvalues --    0.37513   0.37898   0.38203   0.38255   0.38393
  Beta virt. eigenvalues --    0.38557   0.38670   0.39066   0.39338   0.39511
  Beta virt. eigenvalues --    0.39628   0.39987   0.40152   0.40359   0.40731
  Beta virt. eigenvalues --    0.40828   0.41030   0.41185   0.41450   0.41599
  Beta virt. eigenvalues --    0.41875   0.42078   0.42296   0.42519   0.42730
  Beta virt. eigenvalues --    0.42986   0.43177   0.43882   0.43978   0.44143
  Beta virt. eigenvalues --    0.44408   0.44582   0.44814   0.45075   0.45252
  Beta virt. eigenvalues --    0.45504   0.45708   0.46155   0.46408   0.46859
  Beta virt. eigenvalues --    0.47007   0.47311   0.47414   0.47905   0.48120
  Beta virt. eigenvalues --    0.48201   0.48886   0.49070   0.49406   0.49486
  Beta virt. eigenvalues --    0.49904   0.50134   0.50289   0.50550   0.50960
  Beta virt. eigenvalues --    0.51247   0.51607   0.51784   0.52334   0.52531
  Beta virt. eigenvalues --    0.52928   0.53006   0.53554   0.53622   0.53897
  Beta virt. eigenvalues --    0.54289   0.54466   0.54608   0.54808   0.55047
  Beta virt. eigenvalues --    0.55174   0.55549   0.55867   0.55976   0.56596
  Beta virt. eigenvalues --    0.57019   0.57383   0.57561   0.57886   0.58037
  Beta virt. eigenvalues --    0.58463   0.58817   0.58976   0.59467   0.59812
  Beta virt. eigenvalues --    0.59910   0.60184   0.60458   0.60561   0.60937
  Beta virt. eigenvalues --    0.61046   0.62056   0.62099   0.62262   0.62439
  Beta virt. eigenvalues --    0.62625   0.62813   0.63631   0.64195   0.64301
  Beta virt. eigenvalues --    0.64638   0.64909   0.65280   0.65622   0.66621
  Beta virt. eigenvalues --    0.66851   0.66873   0.67204   0.67513   0.67944
  Beta virt. eigenvalues --    0.68264   0.68744   0.68980   0.69055   0.69329
  Beta virt. eigenvalues --    0.69842   0.70089   0.70788   0.70952   0.71558
  Beta virt. eigenvalues --    0.72314   0.72562   0.72803   0.72953   0.73587
  Beta virt. eigenvalues --    0.73823   0.74070   0.74458   0.75084   0.75501
  Beta virt. eigenvalues --    0.75827   0.75909   0.76733   0.76935   0.77157
  Beta virt. eigenvalues --    0.77750   0.77988   0.78403   0.78881   0.79037
  Beta virt. eigenvalues --    0.79463   0.79750   0.79874   0.80314   0.80953
  Beta virt. eigenvalues --    0.81136   0.81202   0.81791   0.82275   0.82391
  Beta virt. eigenvalues --    0.83169   0.83335   0.83587   0.84096   0.84421
  Beta virt. eigenvalues --    0.84515   0.84647   0.85125   0.85563   0.85703
  Beta virt. eigenvalues --    0.86103   0.86322   0.86797   0.87068   0.87137
  Beta virt. eigenvalues --    0.87802   0.88144   0.88164   0.88668   0.89031
  Beta virt. eigenvalues --    0.89324   0.89636   0.89844   0.90185   0.90778
  Beta virt. eigenvalues --    0.91279   0.91370   0.91673   0.92092   0.92465
  Beta virt. eigenvalues --    0.92710   0.92842   0.93070   0.93238   0.93803
  Beta virt. eigenvalues --    0.93970   0.94195   0.94608   0.94939   0.95323
  Beta virt. eigenvalues --    0.95573   0.96273   0.96715   0.96893   0.97173
  Beta virt. eigenvalues --    0.97785   0.98496   0.98727   0.99059   0.99200
  Beta virt. eigenvalues --    0.99391   1.00100   1.00755   1.01504   1.01801
  Beta virt. eigenvalues --    1.02075   1.02750   1.02935   1.03593   1.04119
  Beta virt. eigenvalues --    1.04176   1.04723   1.05075   1.05538   1.06050
  Beta virt. eigenvalues --    1.06178   1.06579   1.07005   1.07175   1.07876
  Beta virt. eigenvalues --    1.08256   1.08619   1.09005   1.09398   1.09536
  Beta virt. eigenvalues --    1.09844   1.10247   1.10797   1.11272   1.11863
  Beta virt. eigenvalues --    1.11900   1.12645   1.12819   1.13268   1.13756
  Beta virt. eigenvalues --    1.14145   1.14441   1.14567   1.15560   1.15791
  Beta virt. eigenvalues --    1.16161   1.16531   1.17125   1.17352   1.17523
  Beta virt. eigenvalues --    1.17815   1.18285   1.18836   1.18875   1.19167
  Beta virt. eigenvalues --    1.19754   1.19913   1.20547   1.21297   1.21672
  Beta virt. eigenvalues --    1.21975   1.22196   1.23092   1.23573   1.23788
  Beta virt. eigenvalues --    1.24271   1.25254   1.25831   1.26040   1.26433
  Beta virt. eigenvalues --    1.26802   1.27137   1.27386   1.28158   1.28367
  Beta virt. eigenvalues --    1.29121   1.29543   1.29932   1.30429   1.31336
  Beta virt. eigenvalues --    1.31962   1.32524   1.33312   1.33633   1.34108
  Beta virt. eigenvalues --    1.34497   1.34727   1.34923   1.35398   1.36197
  Beta virt. eigenvalues --    1.36505   1.36844   1.37185   1.37618   1.37770
  Beta virt. eigenvalues --    1.38159   1.38290   1.38709   1.39278   1.39490
  Beta virt. eigenvalues --    1.40099   1.40493   1.40635   1.41292   1.41577
  Beta virt. eigenvalues --    1.41856   1.41994   1.42241   1.42490   1.43052
  Beta virt. eigenvalues --    1.43495   1.43597   1.43801   1.44208   1.44410
  Beta virt. eigenvalues --    1.45057   1.45235   1.45562   1.45816   1.45861
  Beta virt. eigenvalues --    1.46011   1.46365   1.46683   1.47002   1.47397
  Beta virt. eigenvalues --    1.47728   1.48187   1.48537   1.48682   1.48992
  Beta virt. eigenvalues --    1.49294   1.49603   1.50117   1.50274   1.50346
  Beta virt. eigenvalues --    1.50854   1.51016   1.51245   1.51542   1.51826
  Beta virt. eigenvalues --    1.52213   1.52897   1.53119   1.53484   1.53654
  Beta virt. eigenvalues --    1.53766   1.54058   1.54282   1.54464   1.54950
  Beta virt. eigenvalues --    1.55204   1.55567   1.55977   1.56430   1.56557
  Beta virt. eigenvalues --    1.56997   1.57090   1.57560   1.57797   1.58212
  Beta virt. eigenvalues --    1.58488   1.58653   1.58988   1.59102   1.59191
  Beta virt. eigenvalues --    1.59929   1.60336   1.60805   1.61206   1.61381
  Beta virt. eigenvalues --    1.61637   1.61893   1.62441   1.63090   1.63874
  Beta virt. eigenvalues --    1.64068   1.64172   1.64921   1.65211   1.65427
  Beta virt. eigenvalues --    1.65808   1.66508   1.67880   1.68024   1.68511
  Beta virt. eigenvalues --    1.69213   1.69557   1.70225   1.70723   1.71374
  Beta virt. eigenvalues --    1.71445   1.72343   1.73081   1.73483   1.73681
  Beta virt. eigenvalues --    1.74038   1.74202   1.74690   1.74739   1.75297
  Beta virt. eigenvalues --    1.75979   1.76163   1.76542   1.76871   1.77502
  Beta virt. eigenvalues --    1.77795   1.78399   1.78695   1.79452   1.79874
  Beta virt. eigenvalues --    1.80391   1.80707   1.80971   1.81603   1.82146
  Beta virt. eigenvalues --    1.82511   1.82697   1.83083   1.83682   1.84293
  Beta virt. eigenvalues --    1.84714   1.85351   1.85797   1.85901   1.86419
  Beta virt. eigenvalues --    1.86741   1.86776   1.87370   1.87829   1.88164
  Beta virt. eigenvalues --    1.88359   1.88481   1.89462   1.89648   1.90080
  Beta virt. eigenvalues --    1.90852   1.91197   1.92122   1.92823   1.92876
  Beta virt. eigenvalues --    1.93288   1.93765   1.94208   1.94624   1.95628
  Beta virt. eigenvalues --    1.95951   1.96202   1.96602   1.97127   1.97236
  Beta virt. eigenvalues --    1.97984   1.98186   1.98362   1.98993   2.00009
  Beta virt. eigenvalues --    2.00321   2.00393   2.00961   2.01189   2.01435
  Beta virt. eigenvalues --    2.02098   2.02549   2.02841   2.03053   2.03351
  Beta virt. eigenvalues --    2.04017   2.04317   2.05295   2.05378   2.05853
  Beta virt. eigenvalues --    2.06243   2.06560   2.07114   2.07285   2.07773
  Beta virt. eigenvalues --    2.08183   2.08597   2.09067   2.09485   2.09875
  Beta virt. eigenvalues --    2.10672   2.10899   2.11149   2.11774   2.12137
  Beta virt. eigenvalues --    2.12565   2.13371   2.13578   2.14217   2.14580
  Beta virt. eigenvalues --    2.14947   2.15484   2.16121   2.16559   2.16928
  Beta virt. eigenvalues --    2.17333   2.17882   2.18431   2.18584   2.19579
  Beta virt. eigenvalues --    2.20148   2.20620   2.20933   2.21312   2.21933
  Beta virt. eigenvalues --    2.22434   2.22734   2.23054   2.23387   2.23786
  Beta virt. eigenvalues --    2.23895   2.24335   2.24425   2.24733   2.24828
  Beta virt. eigenvalues --    2.25442   2.25655   2.26032   2.26451   2.26766
  Beta virt. eigenvalues --    2.27035   2.27723   2.27944   2.28231   2.28646
  Beta virt. eigenvalues --    2.29196   2.30076   2.30145   2.30467   2.31038
  Beta virt. eigenvalues --    2.31279   2.31754   2.32004   2.32649   2.32796
  Beta virt. eigenvalues --    2.33040   2.33740   2.34065   2.34374   2.34991
  Beta virt. eigenvalues --    2.35348   2.35768   2.35999   2.37078   2.37502
  Beta virt. eigenvalues --    2.38421   2.38794   2.39174   2.39681   2.39762
  Beta virt. eigenvalues --    2.40222   2.40692   2.40972   2.41510   2.42105
  Beta virt. eigenvalues --    2.42299   2.42679   2.42876   2.43302   2.43970
  Beta virt. eigenvalues --    2.44361   2.44519   2.44683   2.45062   2.45271
  Beta virt. eigenvalues --    2.45861   2.46174   2.46245   2.47043   2.47240
  Beta virt. eigenvalues --    2.47584   2.48176   2.48644   2.49019   2.49428
  Beta virt. eigenvalues --    2.49504   2.50219   2.50642   2.51473   2.51546
  Beta virt. eigenvalues --    2.52153   2.52399   2.52897   2.53189   2.53598
  Beta virt. eigenvalues --    2.53803   2.54142   2.54678   2.55263   2.55617
  Beta virt. eigenvalues --    2.55801   2.56358   2.56850   2.57007   2.57790
  Beta virt. eigenvalues --    2.58115   2.58248   2.58603   2.58814   2.59504
  Beta virt. eigenvalues --    2.59731   2.59987   2.60888   2.60939   2.61190
  Beta virt. eigenvalues --    2.62152   2.62403   2.62596   2.63950   2.64158
  Beta virt. eigenvalues --    2.64367   2.64903   2.65328   2.65896   2.66263
  Beta virt. eigenvalues --    2.66542   2.66814   2.67321   2.67944   2.68520
  Beta virt. eigenvalues --    2.68787   2.69050   2.69267   2.69833   2.70398
  Beta virt. eigenvalues --    2.70782   2.71152   2.71387   2.72301   2.72590
  Beta virt. eigenvalues --    2.73009   2.73137   2.74168   2.74418   2.74675
  Beta virt. eigenvalues --    2.74816   2.75196   2.75593   2.76169   2.76474
  Beta virt. eigenvalues --    2.77089   2.77338   2.77953   2.78154   2.78660
  Beta virt. eigenvalues --    2.78979   2.79325   2.79703   2.79912   2.80475
  Beta virt. eigenvalues --    2.80706   2.80998   2.81139   2.81888   2.82009
  Beta virt. eigenvalues --    2.82540   2.82770   2.83182   2.84125   2.84566
  Beta virt. eigenvalues --    2.84757   2.85184   2.85410   2.85591   2.86005
  Beta virt. eigenvalues --    2.86417   2.86734   2.87344   2.87664   2.88288
  Beta virt. eigenvalues --    2.88828   2.89291   2.89429   2.89682   2.89814
  Beta virt. eigenvalues --    2.90377   2.90657   2.91020   2.91390   2.91640
  Beta virt. eigenvalues --    2.92112   2.92469   2.92810   2.93052   2.93520
  Beta virt. eigenvalues --    2.93953   2.94229   2.94436   2.94760   2.95446
  Beta virt. eigenvalues --    2.95805   2.96067   2.96331   2.96601   2.97079
  Beta virt. eigenvalues --    2.97421   2.97747   2.97911   2.98782   2.98946
  Beta virt. eigenvalues --    2.99075   2.99429   2.99495   2.99875   3.00263
  Beta virt. eigenvalues --    3.00355   3.00643   3.00998   3.01455   3.01613
  Beta virt. eigenvalues --    3.02059   3.02474   3.02567   3.03199   3.03341
  Beta virt. eigenvalues --    3.03803   3.04134   3.04404   3.04677   3.04799
  Beta virt. eigenvalues --    3.05031   3.05392   3.05618   3.06192   3.06377
  Beta virt. eigenvalues --    3.06498   3.07147   3.07259   3.07685   3.08224
  Beta virt. eigenvalues --    3.08612   3.09037   3.09326   3.09779   3.10022
  Beta virt. eigenvalues --    3.10093   3.10528   3.10843   3.11124   3.11774
  Beta virt. eigenvalues --    3.12187   3.12241   3.12596   3.12926   3.13009
  Beta virt. eigenvalues --    3.13298   3.13766   3.14014   3.14166   3.14467
  Beta virt. eigenvalues --    3.14912   3.15363   3.15679   3.15935   3.16133
  Beta virt. eigenvalues --    3.16391   3.16770   3.17108   3.17459   3.17566
  Beta virt. eigenvalues --    3.18188   3.18261   3.18569   3.18801   3.19237
  Beta virt. eigenvalues --    3.19571   3.19856   3.20294   3.20794   3.21206
  Beta virt. eigenvalues --    3.21630   3.21858   3.21931   3.22137   3.22252
  Beta virt. eigenvalues --    3.22584   3.22756   3.23416   3.23702   3.24030
  Beta virt. eigenvalues --    3.24061   3.24528   3.24606   3.25122   3.25247
  Beta virt. eigenvalues --    3.25369   3.25667   3.26143   3.26257   3.26441
  Beta virt. eigenvalues --    3.26771   3.26996   3.27019   3.27348   3.27588
  Beta virt. eigenvalues --    3.28101   3.28183   3.28609   3.29163   3.29433
  Beta virt. eigenvalues --    3.30005   3.30059   3.30424   3.30711   3.30951
  Beta virt. eigenvalues --    3.31462   3.32052   3.32281   3.32492   3.32873
  Beta virt. eigenvalues --    3.33041   3.33678   3.33839   3.34026   3.34334
  Beta virt. eigenvalues --    3.35002   3.35646   3.35972   3.36389   3.36736
  Beta virt. eigenvalues --    3.37419   3.37659   3.38097   3.38662   3.38694
  Beta virt. eigenvalues --    3.39127   3.39652   3.40234   3.40669   3.41354
  Beta virt. eigenvalues --    3.41762   3.41967   3.42259   3.43026   3.43638
  Beta virt. eigenvalues --    3.44272   3.44689   3.44935   3.45349   3.45642
  Beta virt. eigenvalues --    3.46348   3.46525   3.47028   3.47449   3.48500
  Beta virt. eigenvalues --    3.48837   3.49040   3.49541   3.50162   3.50556
  Beta virt. eigenvalues --    3.50971   3.51456   3.51750   3.52219   3.52484
  Beta virt. eigenvalues --    3.52877   3.53153   3.53648   3.54346   3.54838
  Beta virt. eigenvalues --    3.55198   3.55742   3.56116   3.56441   3.56669
  Beta virt. eigenvalues --    3.57172   3.57538   3.57621   3.58317   3.58645
  Beta virt. eigenvalues --    3.58799   3.59207   3.59725   3.60017   3.60747
  Beta virt. eigenvalues --    3.60916   3.61067   3.61221   3.61813   3.62149
[...]
                                                    1512(r),970(r),1461(r)
                                                    170(r),164(r),1317(r),961(r)
                                                    173(r),1528(r),1490(r)
                                                    1516(r),1344(r),1492(r)
                                                    177(r),174(r),195(r),1545(r)
                                                    221(r),1343(r),220(r)
                                                    1522(r),1518(r),1521(r)
                                                    178(r),245(r),921(r),1462(r)
                                                    1297(r),1364(r),246(r)
                                                    1358(r)
   101. BD (   1) O  78 - H  79          0.97774    -0.90918  1459(g),1558(v),1559(g)
                                                    1560(g),1542(r),1538(r)
                                                    1540(r),1527(r),1457(g)
                                                    1458(g),1442(g),1552(r)
                                                    154(r),1435(g),155(r)
                                                    1436(g),1440(g),1543(r)
                                                    1437(g),1539(r),1434(g)
                                                    1541(r),1455(g),1548(r)
                                                    1430(g),1431(g),1554(r)
                                                    1452(g),1446(g),1456(g)
                                                    1454(g),1441(g),1553(r)
                                                    1550(r),1438(g),153(r)
                                                    1448(g),170(r),1443(g)
                                                    1549(r),1445(g),1439(g)
                                                    1450(g),177(r),1511(r)
                                                    1317(r),1515(r),970(r)
                                                    1507(r),1544(r),1464(r)
                                                    961(r),173(r),178(r),1496(r)
                                                    1447(g),1528(r),1490(r)
                                                    172(r),1512(r),1297(r)
                                                    1460(r),246(r),1364(r)
                                                    1462(r),1492(r),1268(r)
                                                    1270(r),183(r),221(r),220(r)
                                                    1358(r),187(r),921(r)
                                                    1327(r),244(r),186(r)
                                                    1516(r),1509(r),1551(r)
                                                    180(r),1078(r),1262(r)
                                                    1090(r),1261(r),176(r)
                                                    308(r),168(r),1137(r),188(r)
                                                    873(r),701(r),1225(r)
                                                    1461(r),912(r),662(r)
                                                    1526(r),1465(r),1518(r)
                                                    316(r),1522(r),1525(r)
                                                    1347(r),164(r),1521(r)
                                                    1282(r),1342(r),1467(r)
                                                    297(r),191(r),911(r),157(r)
                                                    310(r),1474(r)
   151. CR (   1) O  77                  0.99989   -19.15277  155(r),1464(r),153(r)
                                                    1461(r),1460(r),164(r)
                                                    165(r),1463(r)
   152. CR (   1) O  78                  0.99979   -19.17567  1459(v),1558(v),1559(g)
                                                    1560(g),1442(g),1542(r)
                                                    1540(r),1538(r),1458(v)
                                                    1457(v),1527(r),1435(g)
                                                    1440(g),1437(g),1436(g)
                                                    1434(g),155(r),1552(r)
                                                    1446(g),1543(r),1431(g)
                                                    1452(g),1454(g),1539(r)
                                                    1541(r),1430(g),1441(g)
                                                    1455(v),154(r),1443(g)
                                                    1548(r),1554(r),1456(v)
                                                    1448(g),1450(g),1445(g)
                                                    1438(g),1550(r),170(r)
                                                    177(r),1553(r),1447(g)
                                                    1317(r),1439(g),178(r)
                                                    1549(r),970(r),173(r)
                                                    1432(g),172(r),1511(r)
                                                    961(r),1449(g),1410(v)
                                                    1464(r),1515(r),1544(r)
                                                    1364(r),1496(r),1433(g)
                                                    1297(r),1268(r),1528(r)
                                                    1507(r),1270(r),183(r)
                                                    186(r),180(r),187(r),1490(r)
                                                    1327(r),176(r),1512(r)
                                                    1262(r),1358(r),921(r)
                                                    166(r),191(r),1261(r),188(r)
                                                    1090(r),701(r),1492(r)
                                                    1463(r),308(r),1461(r)
                                                    316(r),1347(r),1078(r)
                                                    912(r),1137(r),662(r)
                                                    1551(r),310(r),1225(r)
                                                    1516(r),697(r),288(r)
                                                    1460(r),911(r),168(r),524(r)
                                                    873(r),390(r),190(r),283(r)
                                                    1462(r),171(r),518(r)
                                                    1509(r),153(r),174(r),282(r)
                                                    409(r),707(r),1324(r)
                                                    1282(r),520(r),1178(r)
                                                    656(r),1526(r),1170(r)
                                                    185(r),1177(r),189(r),620(r)
                                                    1361(r),1546(r),595(r)
                                                    1338(r),182(r),222(r)
                                                    1169(r),196(r),1277(r)
                                                    1518(r),655(r),1522(r)
                                                    1525(r),438(r),700(r),663(r)
   160. LP (   1) O  77                  0.98991    -0.72821  1459(r),1558(g),155(r)
                                                    1458(r),1457(r),1542(r)
                                                    1432(v),1527(r),1455(r)
                                                    1431(v),1464(r),1399(v)
                                                    1398(v),1442(v),153(r)
                                                    1538(r),1430(v),1543(r)
                                                    1540(r),154(r),1552(r)
                                                    164(r),1550(r),1546(r)
                                                    1496(r),156(r),1462(r)
                                                    246(r),1553(r),166(r),244(r)
                                                    168(r),1513(r),169(r),220(r)
                                                    1511(r),1547(r),1544(r)
                                                    1472(r)
   161. LP (   2) O  77                  0.98243    -0.52589  1429(v),1456(r),1398(v)
                                                    1464(r),1431(v),1430(v)
                                                    1434(v),1463(r),1462(r)
                                                    155(r),164(r),154(r),1542(r)
                                                    1527(r),1460(r),1540(r)
                                                    1472(r),165(r),170(r)
                                                    1546(r)
   162. LP (   1) O  78                  0.94767    -0.56702  1459(v),1559(g),1456(v)
                                                    1540(r),1558(v),1538(r)
                                                    1527(r),1542(r),1455(v)
                                                    1457(v),1458(v),153(r)
                                                    155(r),1560(g),1552(r)
                                                    1442(g),154(r),1435(g)
                                                    1541(r),1440(g),1403(v)
                                                    1434(g),1461(r),1543(r)
                                                    1544(r),1539(r),1463(r)
                                                    1437(g),1430(g),1554(r)
                                                    1549(r),1436(g),1431(g)
                                                    1546(r),1439(g),1550(r)
                                                    1454(g),1551(r),1548(r)
                                                    1441(g),1545(r),1547(r)
                                                    1343(r),168(r),172(r)
                                                    1475(r),970(r),1317(r)
                                                    177(r),1509(r),961(r),164(r)
                                                    174(r),1490(r),1515(r)
                                                    1528(r),1511(r),273(r)
                                                    178(r),217(r),1469(r),270(r)
                                                    165(r),186(r),246(r)
   163. LP (   2) O  78                  0.86169    -0.72809  1459(v),155(r),1560(g)
                                                    1559(g),1457(v),154(r)
                                                    1558(v),1538(r),1540(r)
                                                    1542(r),1527(r),1458(v)
                                                    1442(g),1552(r),1435(g)
                                                    1437(g),1539(r),1436(g)
                                                    1464(r),1541(r),1543(r)
                                                    1430(g),1440(g),1434(g)
                                                    1548(r),1554(r),1431(g)
                                                    1454(g),1446(g),1455(v)
                                                    1404(v),170(r),1456(v)
                                                    1452(g),1553(r),169(r)
                                                    1441(g),1448(g),177(r)
                                                    272(r),1546(r),1317(r)
                                                    153(r),1507(r),167(r),173(r)
                                                    1511(r),220(r),970(r),172(r)
                                                    193(r),171(r),194(r),1544(r)
                                                    961(r),1465(r),1550(r)
                                                    1471(r),1474(r),1470(r)
                                                    1473(r),1528(r),270(r)
                                                    246(r),1467(r),178(r),183(r)
                                                    1349(r),1463(r),186(r)
                                                    1547(r),219(r),1468(r)
                                                    1461(r),1490(r),1460(r)
                                                    1549(r),217(r),1476(r)
                                                    1364(r),1515(r),243(r)
                                                    1512(r),1513(r),1327(r)
                                                    1318(r),175(r),1496(r)
  1398. RY*(   1) H  76                  0.00092     1.38770   
  1399. RY*(   2) H  76                  0.00060     2.27695   
  1400. RY*(   3) H  76                  0.00022     2.59441   
  1401. RY*(   4) H  76                  0.00006     1.58027   
  1402. RY*(   5) H  76                  0.00005     2.85304   
  1403. RY*(   1) O  77                  0.00238     0.93607   
  1404. RY*(   2) O  77                  0.00077     1.33695   
  1405. RY*(   3) O  77                  0.00030     1.58299   
  1406. RY*(   4) O  77                  0.00020     1.64891   
  1407. RY*(   5) O  77                  0.00005     1.84983   
  1408. RY*(   6) O  77                  0.00005     2.94687   
  1409. RY*(   7) O  77                  0.00001     2.55650   
  1410. RY*(   8) O  77                  0.00001     4.96045   
  1411. RY*(   9) O  77                  0.00001     2.57500   
  1412. RY*(  10) O  77                  0.00001     2.91948   
  1413. RY*(  11) O  77                  0.00000     6.19430   
  1414. RY*(  12) O  77                  0.00001     2.24379   
  1415. RY*(  13) O  77                  0.00000     6.22902   
  1416. RY*(  14) O  77                  0.00000    41.98801   
  1417. RY*(  15) O  77                  0.00000     6.18441   
  1418. RY*(  16) O  77                  0.00001     2.42964   
  1419. RY*(  17) O  77                  0.00000     6.23017   
  1420. RY*(  18) O  77                  0.00001     2.79326   
  1421. RY*(  19) O  77                  0.00000     6.25848   
  1422. RY*(  20) O  77                  0.00000     5.17575   
  1423. RY*(  21) O  77                  0.00000     5.60541   
  1424. RY*(  22) O  77                  0.00000     5.06205   
  1425. RY*(  23) O  77                  0.00000     5.38650   
  1426. RY*(  24) O  77                  0.00000     5.41173   
  1427. RY*(  25) O  77                  0.00000     5.15521   
  1428. RY*(  26) O  77                  0.00000     5.26918   
  1429. RY*(   1) O  78                  0.00280     1.11740   
  1430. RY*(   2) O  78                  0.00157     1.94766   
  1431. RY*(   3) O  78                  0.00114     2.20247   
  1432. RY*(   4) O  78                  0.00048     1.66174   
  1433. RY*(   5) O  78                  0.00035     1.45138   
  1434. RY*(   6) O  78                  0.00029     1.82263   
  1435. RY*(   7) O  78                  0.00013     2.48335   
  1436. RY*(   8) O  78                  0.00007     2.22945   
  1437. RY*(   9) O  78                  0.00005     5.48063   
  1438. RY*(  10) O  78                  0.00002     3.08489   
  1439. RY*(  11) O  78                  0.00003     3.13598   
  1440. RY*(  12) O  78                  0.00001     3.92391   
  1441. RY*(  13) O  78                  0.00000     6.64435   
  1442. RY*(  14) O  78                  0.00000     4.02995   
  1443. RY*(  15) O  78                  0.00000     6.50137   
  1444. RY*(  16) O  78                  0.00000    41.93218   
  1445. RY*(  17) O  78                  0.00000     6.37146   
  1446. RY*(  18) O  78                  0.00000     6.39470   
  1447. RY*(  19) O  78                  0.00000     6.46575   
  1448. RY*(  20) O  78                  0.00000     5.33554   
  1449. RY*(  21) O  78                  0.00000     5.23993   
  1450. RY*(  22) O  78                  0.00000     5.19636   
  1451. RY*(  23) O  78                  0.00000     5.47851   
  1452. RY*(  24) O  78                  0.00000     5.54444   
  1453. RY*(  25) O  78                  0.00000     5.27967   
  1454. RY*(  26) O  78                  0.00000     5.35434   
  1455. RY*(   1) H  79                  0.00078     0.61690   
  1456. RY*(   2) H  79                  0.00033     0.51233   
  1457. RY*(   3) H  79                  0.00024     0.88970   
  1458. RY*(   4) H  79                  0.00007     1.80813   
  1459. RY*(   5) H  79                  0.00002     1.58416   
  1558. BD*(   1) H  76 - O  77          0.01427     3.58582   
  1559. BD*(   1) O  77 - O  78          0.00444     2.96179   
  1560. BD*(   1) O  78 - H  79          0.00981     3.51368   
       -------------------------------
              Total Lewis    8.74442  ( 99.5154%)
        Valence non-Lewis    0.02852  (  0.3245%)
        Rydberg non-Lewis    0.01406  (  0.1601%)
       -------------------------------
            Total unit  2    8.78700  (100.0000%)
           Charge unit  2    0.21300
 Unable to Open any file for archive entry.
 1\1\GINC-BGN1026\SP\UAPFD\def2TZVP\C34H36Fe1N6O2(1+,6)\BECSLEIP\06-Sep
 -2024\0\\# apfd/def2TZVP guess=read scf=maxcycle=999 geom=check pop=nb
 o\\2vlx_III_H\\1,6\Fe,0,17.079,-31.028,-3.342\N,0,16.095,-32.373,-2.17
 7\N,0,17.06,-29.723,-1.781\N,0,18.027,-29.652,-4.504\N,0,17.076,-32.34
 6,-4.892\C,0,15.716,-33.643,-2.55\C,0,15.106,-34.294,-1.408\C,0,15.11,
 -33.43,-0.387\C,0,15.732,-32.214,-0.853\C,0,16.539,-29.934,-0.52\C,0,1
 6.716,-28.739,0.276\C,0,17.321,-27.833,-0.503\C,0,17.553,-28.433,-1.79
 9\C,0,18.299,-28.353,-4.146\C,0,18.767,-27.642,-5.319\C,0,18.764,-28.5
 12,-6.346\C,0,18.307,-29.785,-5.843\C,0,17.546,-32.077,-6.177\C,0,17.2
 43,-33.176,-7.05\C,0,16.519,-34.185,-6.191\C,0,16.456,-33.598,-4.875\C
 ,0,15.879,-34.204,-3.792\H,0,15.517,-35.223,-3.928\C,0,15.936,-31.087,
 -0.095\H,0,15.587,-31.113,0.937\C,0,18.147,-27.821,-2.884\H,0,18.535,-
 26.815,-2.727\C,0,18.185,-30.937,-6.577\H,0,18.638,-30.944,-7.568\C,0,
 14.571,-33.64,1.04\H,0,14.149,-34.664,1.13\H,0,13.77,-32.9,1.251\H,0,1
 5.397,-33.525,1.774\C,0,14.574,-35.736,-1.409\H,0,15.163,-36.348,-2.12
 5\H,0,13.508,-35.743,-1.722\H,0,14.674,-36.174,-0.393\C,0,16.265,-28.5
 94,1.746\H,0,16.477,-29.537,2.294\H,0,15.173,-28.392,1.785\H,0,16.823,
 -27.764,2.23\C,0,17.725,-26.406,-0.128\H,0,18.735,-26.027,-0.34\C,0,16
 .839,-25.599,0.469\H,0,15.822,-25.954,0.692\H,0,17.117,-24.571,0.744\C
 ,0,19.173,-26.158,-5.305\H,0,19.399,-25.845,-4.263\H,0,18.339,-25.537,
 -5.695\H,0,20.08,-26.011,-5.93\C,0,19.155,-28.306,-7.821\H,0,19.304,-2
 9.175,-8.478\C,0,19.323,-27.094,-8.34\H,0,19.185,-26.197,-7.719\H,0,19
 .602,-26.973,-9.397\C,0,17.574,-33.313,-8.541\H,0,18.67,-33.443,-8.667
 \H,0,17.255,-32.396,-9.082\H,0,17.055,-34.201,-8.961\C,0,15.954,-35.53
 ,-6.678\H,0,16.57,-35.907,-7.522\H,0,14.909,-35.393,-7.028\H,0,15.983,
 -36.271,-5.851\C,0,22.557,-32.221,-2.612\H,0,23.029,-32.067,-1.618\H,0
 ,22.912,-31.429,-3.306\H,0,22.846,-33.222,-2.998\N,0,20.363,-32.972,-1
 .626\H,0,20.776,-33.657,-1.026\C,0,21.069,-32.143,-2.475\C,0,19.072,-3
 2.71,-1.741\H,0,18.289,-33.207,-1.169\N,0,18.914,-31.763,-2.65\C,0,20.
 148,-31.401,-3.132\H,0,20.254,-30.646,-3.901\H,0,16.208,-29.646,-5.189
 \O,0,15.297,-29.901,-5.007\O,0,15.434,-30.387,-3.849\H,0,14.635,-30.92
 3,-3.798\\Version=ES64L-G16RevC.02\State=6-A\HF=-3058.8447551\S2=8.758
 771\S2-1=0.\S2A=8.750023\RMSD=6.068e-09\Dipole=1.0487651,-1.2980398,0.
 7370599\Quadrupole=-11.8113418,6.6437034,5.1676384,6.9165393,-6.764836
 ,-2.8874839\PG=C01 [X(C34H36Fe1N6O2)]\\@
 The archive entry for this job was punched.


 NOTHING RESEMBLES A NEW PHENOMENON AS MUCH AS A MISTAKE.

                               -- ENRICO FERMI (?)
 Job cpu time:       0 days 13 hours  8 minutes 41.2 seconds.
 Elapsed time:       0 days  0 hours 12 minutes 37.0 seconds.
 File lengths (MBytes):  RWF=   2254 Int=      0 D2E=      0 Chk=    186 Scr=      1
 Normal termination of Gaussian 16 at Fri Sep  6 14:04:00 2024.
