 Entering Gaussian System, Link 0=g16
 Input=2vyz12.com
 Output=2vyz12.log
 Initial command:
 /sw/chem/gaussian/g16_C02/a100/g16/l1.exe "/local/becsleip_8006522/Gau-4015742.inp" -scrdir="/local/becsleip_8006522/"
 Entering Link 1 = /sw/chem/gaussian/g16_C02/a100/g16/l1.exe PID=   4015743.
  
 Copyright (c) 1988-2021, Gaussian, Inc.  All Rights Reserved.
  
 This is part of the Gaussian(R) 16 program.  It is based on
 the Gaussian(R) 09 system (copyright 2009, Gaussian, Inc.),
 the Gaussian(R) 03 system (copyright 2003, Gaussian, Inc.),
 the Gaussian(R) 98 system (copyright 1998, Gaussian, Inc.),
 the Gaussian(R) 94 system (copyright 1995, Gaussian, Inc.),
 the Gaussian 92(TM) system (copyright 1992, Gaussian, Inc.),
 the Gaussian 90(TM) system (copyright 1990, Gaussian, Inc.),
 the Gaussian 88(TM) system (copyright 1988, Gaussian, Inc.),
 the Gaussian 86(TM) system (copyright 1986, Carnegie Mellon
 University), and the Gaussian 82(TM) system (copyright 1983,
 Carnegie Mellon University). Gaussian is a federally registered
 trademark of Gaussian, Inc.
  
 This software contains proprietary and confidential information,
 including trade secrets, belonging to Gaussian, Inc.
  
 This software is provided under written license and may be
 used, copied, transmitted, or stored only in accord with that
 written license.
  
 The following legend is applicable only to US Government
 contracts under FAR:
  
                    RESTRICTED RIGHTS LEGEND
  
 Use, reproduction and disclosure by the US Government is
 subject to restrictions as set forth in subparagraphs (a)
 and (c) of the Commercial Computer Software - Restricted
 Rights clause in FAR 52.227-19.
  
 Gaussian, Inc.
 340 Quinnipiac St., Bldg. 40, Wallingford CT 06492
  
  
 ---------------------------------------------------------------
 Warning -- This program may not be used in any manner that
 competes with the business of Gaussian, Inc. or will provide
 assistance to any competitor of Gaussian, Inc.  The licensee
 of this program is prohibited from giving any competitor of
 Gaussian, Inc. access to this program.  By using this program,
 the user acknowledges that Gaussian, Inc. is engaged in the
 business of creating and licensing software in the field of
 computational chemistry and represents and warrants to the
 licensee that it is not a competitor of Gaussian, Inc. and that
 it will not use this program in any manner prohibited above.
 ---------------------------------------------------------------
  

 Cite this work as:
 Gaussian 16, Revision C.02,
 M. J. Frisch, G. W. Trucks, H. B. Schlegel, G. E. Scuseria, 
 M. A. Robb, J. R. Cheeseman, G. Scalmani, V. Barone, 
 G. A. Petersson, H. Nakatsuji, X. Li, M. Caricato, A. V. Marenich, 
 J. Bloino, B. G. Janesko, R. Gomperts, B. Mennucci, H. P. Hratchian, 
 J. V. Ortiz, A. F. Izmaylov, J. L. Sonnenberg, D. Williams-Young, 
 F. Ding, F. Lipparini, F. Egidi, J. Goings, B. Peng, A. Petrone, 
 T. Henderson, D. Ranasinghe, V. G. Zakrzewski, J. Gao, N. Rega, 
 G. Zheng, W. Liang, M. Hada, M. Ehara, K. Toyota, R. Fukuda, 
 J. Hasegawa, M. Ishida, T. Nakajima, Y. Honda, O. Kitao, H. Nakai, 
 T. Vreven, K. Throssell, J. A. Montgomery, Jr., J. E. Peralta, 
 F. Ogliaro, M. J. Bearpark, J. J. Heyd, E. N. Brothers, K. N. Kudin, 
 V. N. Staroverov, T. A. Keith, R. Kobayashi, J. Normand, 
 K. Raghavachari, A. P. Rendell, J. C. Burant, S. S. Iyengar, 
 J. Tomasi, M. Cossi, J. M. Millam, M. Klene, C. Adamo, R. Cammi, 
 J. W. Ochterski, R. L. Martin, K. Morokuma, O. Farkas, 
 J. B. Foresman, and D. J. Fox, Gaussian, Inc., Wallingford CT, 2019.
 
 ******************************************
 Gaussian 16:  ES64L-G16RevC.02  7-Dec-2021
                 6-Sep-2024 
 ******************************************
 %mem=16GB
 %CPU=0-71
 SetSPE:  set environment variable "OMP_PROC_BIND" = "true"
 SetSPE:  set environment variable "OMP_PLACES" = "{0},{1},{2},{3},{4},{5},{6},{7},{8},{9},{10},{11},{12},{13},{14},{15},{16},{17},{18},{19},{20},{21},{22},{23},{24},{25},{26},{27},{28},{29},{30},{31},{32},{33},{34},{35},{36},{37},{38},{39},{40},{41},{42},{43},{44},{45},{46},{47},{48},{49},{50},{51},{52},{53},{54},{55},{56},{57},{58},{59},{60},{61},{62},{63},{64},{65},{66},{67},{68},{69},{70},{71}"
 Will use up to   72 processors via shared memory.
 %gpucpu=0,1,2,3=0,1,2,3
 Will use    4 GPUs:
 Thread  CPU   GPU
      0    0     0
      1    1     1
      2    2     2
      3    3     3
      4    4    -1
      5    5    -1
      6    6    -1
      7    7    -1
      8    8    -1
      9    9    -1
     10   10    -1
     11   11    -1
     12   12    -1
     13   13    -1
     14   14    -1
     15   15    -1
     16   16    -1
     17   17    -1
     18   18    -1
     19   19    -1
     20   20    -1
     21   21    -1
     22   22    -1
     23   23    -1
     24   24    -1
     25   25    -1
     26   26    -1
     27   27    -1
     28   28    -1
     29   29    -1
     30   30    -1
     31   31    -1
     32   32    -1
     33   33    -1
     34   34    -1
     35   35    -1
     36   36    -1
     37   37    -1
     38   38    -1
     39   39    -1
     40   40    -1
     41   41    -1
     42   42    -1
     43   43    -1
     44   44    -1
     45   45    -1
     46   46    -1
     47   47    -1
     48   48    -1
     49   49    -1
     50   50    -1
     51   51    -1
     52   52    -1
     53   53    -1
     54   54    -1
     55   55    -1
     56   56    -1
     57   57    -1
     58   58    -1
     59   59    -1
     60   60    -1
     61   61    -1
     62   62    -1
     63   63    -1
     64   64    -1
     65   65    -1
     66   66    -1
     67   67    -1
     68   68    -1
     69   69    -1
     70   70    -1
     71   71    -1
 SetGPE:  set environment variable "OMP_PROC_BIND" = "true"
 SetGPE:  set environment variable "OMP_PLACES" = "{0},{1},{2},{3},{4},{5},{6},{7},{8},{9},{10},{11},{12},{13},{14},{15},{16},{17},{18},{19},{20},{21},{22},{23},{24},{25},{26},{27},{28},{29},{30},{31},{32},{33},{34},{35},{36},{37},{38},{39},{40},{41},{42},{43},{44},{45},{46},{47},{48},{49},{50},{51},{52},{53},{54},{55},{56},{57},{58},{59},{60},{61},{62},{63},{64},{65},{66},{67},{68},{69},{70},{71}"
 %oldchk=2vyz_II_Sre.chk
 %chk=2vyz_III_Dn.chk
 Properties for Device   0
 Minimum vector length:                              32
 Maximum vector length:                            1024
 Number of SMPs:                                    108
 Maximum number of threads per SMP:                2048
 Number of ASync Engines:                             5
 Memory:                                           9207742464
 Properties for Device   1
 Minimum vector length:                              32
 Maximum vector length:                            1024
 Number of SMPs:                                    108
 Maximum number of threads per SMP:                2048
 Number of ASync Engines:                             5
 Memory:                                           9207742464
 Properties for Device   2
 Minimum vector length:                              32
 Maximum vector length:                            1024
 Number of SMPs:                                    108
 Maximum number of threads per SMP:                2048
 Number of ASync Engines:                             5
 Memory:                                           9207742464
 Properties for Device   3
 Minimum vector length:                              32
 Maximum vector length:                            1024
 Number of SMPs:                                    108
 Maximum number of threads per SMP:                2048
 Number of ASync Engines:                             5
 Memory:                                           9207742464
   8286968217 words of memory will be used on each GPU.
 Copying data from "2vyz_II_Sre.chk" to current chk file "2vyz_III_Dn.chk"
 IOpt=  2 FromEx=T IUOpen= 4 IOptOp= 5 NList=   0 IFRang= 0 IUIn= 4 IUOut= 2.
 --------------------------------------------------------------
 # apfd/def2TZVP guess=read scf=maxcycle=999 geom=check pop=nbo
 --------------------------------------------------------------
 1/29=2,38=1,172=1/1;
 2/12=2,40=1/2;
 3/5=44,7=101,11=2,14=-4,25=1,30=1,74=-44,116=-2/1,2,3;
 4/5=1/1;
 5/5=2,7=999,38=6/2;
 6/7=2,8=2,9=2,10=2,28=1,40=1/1,7;
 99/5=1,9=1/99;
 ----------
 2vyz_III_D
 ----------
 Structure from the checkpoint file:  "2vyz_III_Dn.chk"
 Charge =  1 Multiplicity = 2
 Z-Matrix found in chk file.
 Fe,0,28.222,31.335,10.099
 N,0,26.399,32.228,10.372
 N,0,29.053,32.565,11.546
 N,0,30.092,30.424,9.844
 N,0,27.417,30.058,8.661
 C,0,25.223,31.897,9.726
 C,0,24.176,32.791,10.209
 C,0,24.744,33.642,11.1
 C,0,26.164,33.289,11.218
 C,0,28.403,33.563,12.24
 C,0,29.345,34.179,13.171
 C,0,30.541,33.561,13.012
 C,0,30.365,32.526,12.
 C,0,31.257,30.728,10.545
 C,0,32.33,29.856,10.065
 C,0,31.828,29.104,9.067
 C,0,30.404,29.435,8.929
 C,0,28.164,29.159,7.913
 C,0,27.306,28.577,6.891
 C,0,25.928,29.19,7.132
 C,0,26.09,30.098,8.247
 C,0,25.087,30.875,8.8
 H,0,24.072,30.658,8.469
 C,0,27.084,33.906,12.035
 H,0,26.725,34.773,12.588
 C,0,31.341,31.661,11.555
 H,0,32.301,31.723,12.067
 C,0,29.496,28.891,8.053
 H,0,29.895,28.139,7.373
 C,0,24.058,34.79,11.878
 H,0,22.983,34.834,11.602
 H,0,24.537,35.758,11.618
 H,0,24.142,34.606,12.97
 C,0,22.698,32.736,9.739
 H,0,22.125,32.049,10.397
 H,0,22.65,32.359,8.695
 H,0,22.248,33.75,9.797
 C,0,28.98,35.348,14.111
 H,0,28.046,35.104,14.662
 H,0,28.816,36.271,13.515
 H,0,29.799,35.51,14.844
 C,0,31.887,33.774,13.763
 H,0,32.398,32.923,14.237
 C,0,32.455,34.983,13.853
 H,0,31.977,35.86,13.393
 H,0,33.407,35.114,14.388
 C,0,33.811,29.849,10.541
 H,0,34.01,28.921,11.119
 H,0,34.,30.728,11.194
 H,0,34.488,29.877,9.661
 C,0,32.658,28.043,8.284
 H,0,33.553,27.609,8.754
 C,0,32.35,27.62,7.063
 H,0,31.467,28.017,6.541
 H,0,32.974,26.868,6.559
 C,0,27.691,27.515,5.84
 H,0,28.031,26.591,6.354
 H,0,28.518,27.898,5.204
 H,0,26.808,27.273,5.21
 C,0,24.624,28.929,6.348
 H,0,23.991,28.21,6.91
 H,0,24.864,28.496,5.353
 H,0,24.064,29.881,6.223
 O,0,28.544,32.815,8.583
 O,0,29.71,33.126,8.694
 C,0,27.587,26.581,13.118
 H,0,28.403,26.031,12.602
 H,0,26.623,26.068,12.916
 H,0,27.792,26.588,14.21
 N,0,26.601,28.9,13.062
 H,0,25.928,28.719,13.78
 C,0,27.53,27.984,12.606
 C,0,26.751,30.038,12.398
 H,0,26.162,30.938,12.572
 N,0,27.721,29.878,11.512
 C,0,28.218,28.599,11.614
 H,0,29.015,28.249,10.97
 Recover connectivity data from disk.
 Stoichiometry    C34H34FeN6O2(1+,2)
 Framework group  C1[X(C34H34FeN6O2)]
 Deg. of freedom   225
 Full point group                 C1      NOp   1
 Largest Abelian subgroup         C1      NOp   1
 Largest concise Abelian subgroup C1      NOp   1
                         Standard orientation:                         
 ---------------------------------------------------------------------
 Center     Atomic      Atomic             Coordinates (Angstroms)
 Number     Number       Type             X           Y           Z
 ---------------------------------------------------------------------
      1         26           0        0.059404    0.189666   -0.339004
      2          7           0        1.018178    1.999504   -0.362311
      3          7           0        1.884650   -0.787844   -0.237913
      4          7           0       -0.903951   -1.671052   -0.299968
      5          7           0       -1.796982    1.136063   -0.408026
      6          6           0        0.414902    3.242502   -0.391778
      7          6           0        1.466363    4.253790   -0.413218
      8          6           0        2.657710    3.604708   -0.422816
      9          6           0        2.385488    2.162712   -0.384412
     10          6           0        3.129300   -0.195517   -0.249577
     11          6           0        4.147493   -1.238105   -0.150216
     12          6           0        3.507328   -2.431929   -0.099274
     13          6           0        2.075211   -2.159780   -0.135636
     14          6           0       -0.284529   -2.915775   -0.210407
     15          6           0       -1.318927   -3.951205   -0.206143
     16          6           0       -2.509178   -3.338482   -0.352375
     17          6           0       -2.266396   -1.890728   -0.390391
     18          6           0       -3.007744    0.467197   -0.519324
     19          6           0       -4.064543    1.447319   -0.724044
     20          6           0       -3.364040    2.803679   -0.675920
     21          6           0       -1.959805    2.515348   -0.478640
     22          6           0       -0.953586    3.460643   -0.381240
     23          1           0       -1.274504    4.497274   -0.284892
     24          6           0        3.331303    1.162892   -0.365134
     25          1           0        4.368037    1.485372   -0.452138
     26          6           0        1.074590   -3.106148   -0.091245
     27          1           0        1.399777   -4.135669    0.056830
     28          6           0       -3.196282   -0.885514   -0.502788
     29          1           0       -4.231378   -1.213831   -0.591617
     30          6           0        4.072585    4.229432   -0.463213
     31          1           0        3.988202    5.336757   -0.484336
     32          1           0        4.606173    3.890916   -1.376863
     33          1           0        4.641516    3.929016    0.442019
     34          6           0        1.204014    5.783222   -0.433708
     35          1           0        1.147939    6.163790    0.608063
     36          1           0        0.240576    5.991863   -0.946177
     37          1           0        2.033967    6.299089   -0.962026
     38          6           0        5.665301   -0.955899   -0.148033
     39          1           0        5.894999   -0.164464    0.597864
     40          1           0        5.982983   -0.606430   -1.153513
     41          1           0        6.218483   -1.879890    0.124959
     42          6           0        4.080121   -3.870846    0.050754
     43          1           0        3.717002   -4.531275    0.851988
     44          6           0        5.019029   -4.340953   -0.779823
     45          1           0        5.409006   -3.713220   -1.594121
     46          1           0        5.411814   -5.361051   -0.658127
     47          6           0       -1.099667   -5.489951   -0.141545
     48          1           0       -1.434911   -5.870769    0.847120
     49          1           0       -0.020476   -5.721478   -0.270045
     50          1           0       -1.692320   -5.987101   -0.938487
     51          6           0       -3.869981   -4.095864   -0.400341
     52          1           0       -3.943075   -5.096072    0.051901
     53          6           0       -4.968574   -3.603763   -0.962090
     54          1           0       -4.958068   -2.608798   -1.430830
     55          1           0       -5.901876   -4.184996   -0.965639
     56          6           0       -5.575148    1.175207   -0.881199
     57          1           0       -5.957350    0.668565    0.030288
     58          1           0       -5.749113    0.516090   -1.758932
     59          1           0       -6.117800    2.135955   -1.014036
     60          6           0       -3.997075    4.203527   -0.827208
     61          1           0       -4.136494    4.657924    0.176575
     62          1           0       -4.987582    4.116380   -1.323610
     63          1           0       -3.327006    4.855762   -1.428146
     64          8           0        0.169008    0.281300   -2.477211
     65          8           0        0.408539   -0.854366   -2.825759
     66          6           0       -1.523893   -0.152312    5.091864
     67          1           0       -2.323619   -0.902131    4.910698
     68          1           0       -1.987154    0.785333    5.465336
     69          1           0       -0.817732   -0.554967    5.849323
     70          7           0        0.248547    1.020223    3.736611
     71          1           0        0.619656    1.530518    4.513201
     72          6           0       -0.795043    0.117578    3.815252
     73          6           0        0.665972    1.093163    2.480078
     74          1           0        1.493621    1.713910    2.138220
     75          7           0       -0.089647    0.294326    1.743603
     76          6           0       -1.018060   -0.319729    2.552454
     77          1           0       -1.749164   -1.010225    2.151023
 ---------------------------------------------------------------------
 Rotational constants (GHZ):           0.0894506           0.0863605           0.0572504
 Standard basis: def2TZVP (5D, 7F)
 There are  1768 symmetry adapted cartesian basis functions of A   symmetry.
 There are  1551 symmetry adapted basis functions of A   symmetry.
  1551 basis functions,  2516 primitive gaussians,  1768 cartesian basis functions
   161 alpha electrons      160 beta electrons
       nuclear repulsion energy      6101.8368968679 Hartrees.
 NAtoms=   77 NActive=   77 NUniq=   77 SFac= 1.00D+00 NAtFMM=   60 NAOKFM=T Big=T
 Integral buffers will be    131072 words long.
 Raffenetti 2 integral format.
 Two-electron integral symmetry is turned on.
 R6APFD:  NTU= -4 IXU= 1 FactS= 1.050
 Nuclear repulsion after empirical dispersion term =     6101.6790150084 Hartrees.
 One-electron integrals computed using PRISM.
   1 Symmetry operations used in ECPInt.
 ECPInt:  NShTT=  188191 NPrTT=  584825 LenC2=  146827 LenP2D=  300135.
 LDataN:  DoStor=T MaxTD1= 6 Len=  172
 Number of processors reduced to  23 by ecpmxn.
 NBasis=  1551 RedAO= T EigKep=  4.04D-06  NBF=  1551
 NBsUse=  1551 1.00D-06 EigRej= -1.00D+00 NBFU=  1551
 Initial guess from the checkpoint file:  "2vyz_III_Dn.chk"
 B after Tr=     0.000000    0.000000   -0.000000
         Rot=    1.000000    0.000000   -0.000000    0.000000 Ang=   0.00 deg.
 Initial guess <Sx>= 0.0000 <Sy>= 0.0000 <Sz>= 0.5000 <S**2>= 2.2665 S= 1.0863
 Requested convergence on RMS density matrix=1.00D-08 within 999 cycles.
 Requested convergence on MAX density matrix=1.00D-06.
 Requested convergence on             energy=1.00D-06.
 No special actions if energy rises.
 Restarting incremental Fock formation.
 SCF Done:  E(UAPFD) =  -3057.60492964     A.U. after   40 cycles
            NFock= 40  Conv=0.26D-08     -V/T= 2.0044
 <Sx>= 0.0000 <Sy>= 0.0000 <Sz>= 0.5000 <S**2>= 2.2953 S= 1.0954
 <L.S>=  0.00000000000    
 Annihilation of the first spin contaminant:
 S**2 before annihilation     2.2953,   after     2.8148

 **********************************************************************

            Population analysis using the SCF Density.

 **********************************************************************

 Orbital symmetries:
 Alpha Orbitals:
       Occupied  (A) (A) (A) (A) (A) (A) (A) (A) (A) (A) (A) (A)
                 (A) (A) (A) (A) (A) (A) (A) (A) (A) (A) (A) (A)
                 (A) (A) (A) (A) (A) (A) (A) (A) (A) (A) (A) (A)
                 (A) (A) (A) (A) (A) (A) (A) (A) (A) (A) (A) (A)
                 (A) (A) (A) (A) (A) (A) (A) (A) (A) (A) (A) (A)
                 (A) (A) (A) (A) (A) (A) (A) (A) (A) (A) (A) (A)
                 (A) (A) (A) (A) (A) (A) (A) (A) (A) (A) (A) (A)
                 (A) (A) (A) (A) (A) (A) (A) (A) (A) (A) (A) (A)
                 (A) (A) (A) (A) (A) (A) (A) (A) (A) (A) (A) (A)
                 (A) (A) (A) (A) (A) (A) (A) (A) (A) (A) (A) (A)
                 (A) (A) (A) (A) (A) (A) (A) (A) (A) (A) (A) (A)
                 (A) (A) (A) (A) (A) (A) (A) (A) (A) (A) (A) (A)
                 (A) (A) (A) (A) (A) (A) (A) (A) (A) (A) (A) (A)
                 (A) (A) (A) (A) (A)
       Virtual   (A) (A) (A) (A) (A) (A) (A) (A) (A) (A) (A) (A)
                 (A) (A) (A) (A) (A) (A) (A) (A) (A) (A) (A) (A)
                 (A) (A) (A) (A) (A) (A) (A) (A) (A) (A) (A) (A)
                 (A) (A) (A) (A) (A) (A) (A) (A) (A) (A) (A) (A)
                 (A) (A) (A) (A) (A) (A) (A) (A) (A) (A) (A) (A)
                 (A) (A) (A) (A) (A) (A) (A) (A) (A) (A) (A) (A)
                 (A) (A) (A) (A) (A) (A) (A) (A) (A) (A) (A) (A)
                 (A) (A) (A) (A) (A) (A) (A) (A) (A) (A) (A) (A)
                 (A) (A) (A) (A) (A) (A) (A) (A) (A) (A) (A) (A)
                 (A) (A) (A) (A) (A) (A) (A) (A) (A) (A) (A) (A)
                 (A) (A) (A) (A) (A) (A) (A) (A) (A) (A) (A) (A)
                 (A) (A) (A) (A) (A) (A) (A) (A) (A) (A) (A) (A)
                 (A) (A) (A) (A) (A) (A) (A) (A) (A) (A) (A) (A)
                 (A) (A) (A) (A) (A) (A) (A) (A) (A) (A) (A) (A)
                 (A) (A) (A) (A) (A) (A) (A) (A) (A) (A) (A) (A)
                 (A) (A) (A) (A) (A) (A) (A) (A) (A) (A) (A) (A)
                 (A) (A) (A) (A) (A) (A) (A) (A) (A) (A) (A) (A)
                 (A) (A) (A) (A) (A) (A) (A) (A) (A) (A) (A) (A)
                 (A) (A) (A) (A) (A) (A) (A) (A) (A) (A) (A) (A)
                 (A) (A) (A) (A) (A) (A) (A) (A) (A) (A) (A) (A)
                 (A) (A) (A) (A) (A) (A) (A) (A) (A) (A) (A) (A)
                 (A) (A) (A) (A) (A) (A) (A) (A) (A) (A) (A) (A)
                 (A) (A) (A) (A) (A) (A) (A) (A) (A) (A) (A) (A)
                 (A) (A) (A) (A) (A) (A) (A) (A) (A) (A) (A) (A)
                 (A) (A) (A) (A) (A) (A) (A) (A) (A) (A) (A) (A)
                 (A) (A) (A) (A) (A) (A) (A) (A) (A) (A) (A) (A)
                 (A) (A) (A) (A) (A) (A) (A) (A) (A) (A) (A) (A)
                 (A) (A) (A) (A) (A) (A) (A) (A) (A) (A) (A) (A)
                 (A) (A) (A) (A) (A) (A) (A) (A) (A) (A) (A) (A)
                 (A) (A) (A) (A) (A) (A) (A) (A) (A) (A) (A) (A)
                 (A) (A) (A) (A) (A) (A) (A) (A) (A) (A) (A) (A)
                 (A) (A) (A) (A) (A) (A) (A) (A) (A) (A) (A) (A)
                 (A) (A) (A) (A) (A) (A) (A) (A) (A) (A) (A) (A)
                 (A) (A) (A) (A) (A) (A) (A) (A) (A) (A) (A) (A)
                 (A) (A) (A) (A) (A) (A) (A) (A) (A) (A) (A) (A)
                 (A) (A) (A) (A) (A) (A) (A) (A) (A) (A) (A) (A)
                 (A) (A) (A) (A) (A) (A) (A) (A) (A) (A) (A) (A)
                 (A) (A) (A) (A) (A) (A) (A) (A) (A) (A) (A) (A)
                 (A) (A) (A) (A) (A) (A) (A) (A) (A) (A) (A) (A)
                 (A) (A) (A) (A) (A) (A) (A) (A) (A) (A) (A) (A)
                 (A) (A) (A) (A) (A) (A) (A) (A) (A) (A) (A) (A)
                 (A) (A) (A) (A) (A) (A) (A) (A) (A) (A) (A) (A)
                 (A) (A) (A) (A) (A) (A) (A) (A) (A) (A) (A) (A)
                 (A) (A) (A) (A) (A) (A) (A) (A) (A) (A) (A) (A)
                 (A) (A) (A) (A) (A) (A) (A) (A) (A) (A) (A) (A)
                 (A) (A) (A) (A) (A) (A) (A) (A) (A) (A) (A) (A)
                 (A) (A) (A) (A) (A) (A) (A) (A) (A) (A) (A) (A)
                 (A) (A) (A) (A) (A) (A) (A) (A) (A) (A) (A) (A)
                 (A) (A) (A) (A) (A) (A) (A) (A) (A) (A) (A) (A)
                 (A) (A) (A) (A) (A) (A) (A) (A) (A) (A) (A) (A)
                 (A) (A) (A) (A) (A) (A) (A) (A) (A) (A) (A) (A)
                 (A) (A) (A) (A) (A) (A) (A) (A) (A) (A) (A) (A)
                 (A) (A) (A) (A) (A) (A) (A) (A) (A) (A) (A) (A)
                 (A) (A) (A) (A) (A) (A) (A) (A) (A) (A) (A) (A)
                 (A) (A) (A) (A) (A) (A) (A) (A) (A) (A) (A) (A)
                 (A) (A) (A) (A) (A) (A) (A) (A) (A) (A) (A) (A)
                 (A) (A) (A) (A) (A) (A) (A) (A) (A) (A) (A) (A)
                 (A) (A) (A) (A) (A) (A) (A) (A) (A) (A) (A) (A)
                 (A) (A) (A) (A) (A) (A) (A) (A) (A) (A) (A) (A)
                 (A) (A) (A) (A) (A) (A) (A) (A) (A) (A) (A) (A)
                 (A) (A) (A) (A) (A) (A) (A) (A) (A) (A) (A) (A)
                 (A) (A) (A) (A) (A) (A) (A) (A) (A) (A) (A) (A)
                 (A) (A) (A) (A) (A) (A) (A) (A) (A) (A) (A) (A)
                 (A) (A) (A) (A) (A) (A) (A) (A) (A) (A) (A) (A)
                 (A) (A) (A) (A) (A) (A) (A) (A) (A) (A) (A) (A)
                 (A) (A) (A) (A) (A) (A) (A) (A) (A) (A) (A) (A)
                 (A) (A) (A) (A) (A) (A) (A) (A) (A) (A) (A) (A)
                 (A) (A) (A) (A) (A) (A) (A) (A) (A) (A) (A) (A)
                 (A) (A) (A) (A) (A) (A) (A) (A) (A) (A) (A) (A)
                 (A) (A) (A) (A) (A) (A) (A) (A) (A) (A) (A) (A)
                 (A) (A) (A) (A) (A) (A) (A) (A) (A) (A) (A) (A)
                 (A) (A) (A) (A) (A) (A) (A) (A) (A) (A) (A) (A)
                 (A) (A) (A) (A) (A) (A) (A) (A) (A) (A) (A) (A)
                 (A) (A) (A) (A) (A) (A) (A) (A) (A) (A) (A) (A)
                 (A) (A) (A) (A) (A) (A) (A) (A) (A) (A) (A) (A)
                 (A) (A) (A) (A) (A) (A) (A) (A) (A) (A) (A) (A)
                 (A) (A) (A) (A) (A) (A) (A) (A) (A) (A) (A) (A)
                 (A) (A) (A) (A) (A) (A) (A) (A) (A) (A) (A) (A)
                 (A) (A) (A) (A) (A) (A) (A) (A) (A) (A) (A) (A)
                 (A) (A) (A) (A) (A) (A) (A) (A) (A) (A) (A) (A)
                 (A) (A) (A) (A) (A) (A) (A) (A) (A) (A) (A) (A)
                 (A) (A) (A) (A) (A) (A) (A) (A) (A) (A) (A) (A)
                 (A) (A) (A) (A) (A) (A) (A) (A) (A) (A) (A) (A)
                 (A) (A) (A) (A) (A) (A) (A) (A) (A) (A) (A) (A)
                 (A) (A) (A) (A) (A) (A) (A) (A) (A) (A) (A) (A)
                 (A) (A) (A) (A) (A) (A) (A) (A) (A) (A) (A) (A)
                 (A) (A) (A) (A) (A) (A) (A) (A) (A) (A) (A) (A)
                 (A) (A) (A) (A) (A) (A) (A) (A) (A) (A) (A) (A)
                 (A) (A) (A) (A) (A) (A) (A) (A) (A) (A) (A) (A)
                 (A) (A) (A) (A) (A) (A) (A) (A) (A) (A) (A) (A)
                 (A) (A) (A) (A) (A) (A) (A) (A) (A) (A) (A) (A)
                 (A) (A) (A) (A) (A) (A) (A) (A) (A) (A) (A) (A)
                 (A) (A) (A) (A) (A) (A) (A) (A) (A) (A) (A) (A)
                 (A) (A) (A) (A) (A) (A) (A) (A) (A) (A) (A) (A)
                 (A) (A) (A) (A) (A) (A) (A) (A) (A) (A) (A) (A)
                 (A) (A) (A) (A) (A) (A) (A) (A) (A) (A) (A) (A)
                 (A) (A) (A) (A) (A) (A) (A) (A) (A) (A) (A) (A)
                 (A) (A) (A) (A) (A) (A) (A) (A) (A) (A) (A) (A)
                 (A) (A) (A) (A) (A) (A) (A) (A) (A) (A) (A) (A)
                 (A) (A) (A) (A) (A) (A) (A) (A) (A) (A) (A) (A)
                 (A) (A) (A) (A) (A) (A) (A) (A) (A) (A) (A) (A)
                 (A) (A) (A) (A) (A) (A) (A) (A) (A) (A) (A) (A)
                 (A) (A) (A) (A) (A) (A) (A) (A) (A) (A) (A) (A)
                 (A) (A) (A) (A) (A) (A) (A) (A) (A) (A) (A) (A)
                 (A) (A) (A) (A) (A) (A) (A) (A) (A) (A) (A) (A)
                 (A) (A) (A) (A) (A) (A) (A) (A) (A) (A) (A) (A)
                 (A) (A) (A) (A) (A) (A) (A) (A) (A) (A) (A) (A)
                 (A) (A) (A) (A) (A) (A) (A) (A) (A) (A) (A) (A)
                 (A) (A) (A) (A) (A) (A) (A) (A) (A) (A) (A) (A)
                 (A) (A) (A) (A) (A) (A) (A) (A) (A) (A) (A) (A)
                 (A) (A) (A) (A) (A) (A) (A) (A) (A) (A) (A) (A)
                 (A) (A) (A) (A) (A) (A) (A) (A) (A) (A) (A) (A)
                 (A) (A) (A) (A) (A) (A) (A) (A) (A) (A) (A) (A)
                 (A) (A) (A) (A) (A) (A) (A) (A) (A) (A) (A) (A)
                 (A) (A) (A) (A) (A) (A) (A) (A) (A) (A) (A) (A)
                 (A) (A) (A) (A) (A) (A) (A) (A) (A) (A)
 Beta  Orbitals:
       Occupied  (A) (A) (A) (A) (A) (A) (A) (A) (A) (A) (A) (A)
                 (A) (A) (A) (A) (A) (A) (A) (A) (A) (A) (A) (A)
                 (A) (A) (A) (A) (A) (A) (A) (A) (A) (A) (A) (A)
                 (A) (A) (A) (A) (A) (A) (A) (A) (A) (A) (A) (A)
                 (A) (A) (A) (A) (A) (A) (A) (A) (A) (A) (A) (A)
                 (A) (A) (A) (A) (A) (A) (A) (A) (A) (A) (A) (A)
                 (A) (A) (A) (A) (A) (A) (A) (A) (A) (A) (A) (A)
                 (A) (A) (A) (A) (A) (A) (A) (A) (A) (A) (A) (A)
                 (A) (A) (A) (A) (A) (A) (A) (A) (A) (A) (A) (A)
                 (A) (A) (A) (A) (A) (A) (A) (A) (A) (A) (A) (A)
                 (A) (A) (A) (A) (A) (A) (A) (A) (A) (A) (A) (A)
                 (A) (A) (A) (A) (A) (A) (A) (A) (A) (A) (A) (A)
                 (A) (A) (A) (A) (A) (A) (A) (A) (A) (A) (A) (A)
                 (A) (A) (A) (A)
       Virtual   (A) (A) (A) (A) (A) (A) (A) (A) (A) (A) (A) (A)
                 (A) (A) (A) (A) (A) (A) (A) (A) (A) (A) (A) (A)
                 (A) (A) (A) (A) (A) (A) (A) (A) (A) (A) (A) (A)
                 (A) (A) (A) (A) (A) (A) (A) (A) (A) (A) (A) (A)
                 (A) (A) (A) (A) (A) (A) (A) (A) (A) (A) (A) (A)
                 (A) (A) (A) (A) (A) (A) (A) (A) (A) (A) (A) (A)
                 (A) (A) (A) (A) (A) (A) (A) (A) (A) (A) (A) (A)
                 (A) (A) (A) (A) (A) (A) (A) (A) (A) (A) (A) (A)
                 (A) (A) (A) (A) (A) (A) (A) (A) (A) (A) (A) (A)
                 (A) (A) (A) (A) (A) (A) (A) (A) (A) (A) (A) (A)
                 (A) (A) (A) (A) (A) (A) (A) (A) (A) (A) (A) (A)
                 (A) (A) (A) (A) (A) (A) (A) (A) (A) (A) (A) (A)
                 (A) (A) (A) (A) (A) (A) (A) (A) (A) (A) (A) (A)
                 (A) (A) (A) (A) (A) (A) (A) (A) (A) (A) (A) (A)
                 (A) (A) (A) (A) (A) (A) (A) (A) (A) (A) (A) (A)
                 (A) (A) (A) (A) (A) (A) (A) (A) (A) (A) (A) (A)
                 (A) (A) (A) (A) (A) (A) (A) (A) (A) (A) (A) (A)
                 (A) (A) (A) (A) (A) (A) (A) (A) (A) (A) (A) (A)
                 (A) (A) (A) (A) (A) (A) (A) (A) (A) (A) (A) (A)
                 (A) (A) (A) (A) (A) (A) (A) (A) (A) (A) (A) (A)
                 (A) (A) (A) (A) (A) (A) (A) (A) (A) (A) (A) (A)
                 (A) (A) (A) (A) (A) (A) (A) (A) (A) (A) (A) (A)
                 (A) (A) (A) (A) (A) (A) (A) (A) (A) (A) (A) (A)
                 (A) (A) (A) (A) (A) (A) (A) (A) (A) (A) (A) (A)
                 (A) (A) (A) (A) (A) (A) (A) (A) (A) (A) (A) (A)
                 (A) (A) (A) (A) (A) (A) (A) (A) (A) (A) (A) (A)
                 (A) (A) (A) (A) (A) (A) (A) (A) (A) (A) (A) (A)
                 (A) (A) (A) (A) (A) (A) (A) (A) (A) (A) (A) (A)
                 (A) (A) (A) (A) (A) (A) (A) (A) (A) (A) (A) (A)
                 (A) (A) (A) (A) (A) (A) (A) (A) (A) (A) (A) (A)
                 (A) (A) (A) (A) (A) (A) (A) (A) (A) (A) (A) (A)
                 (A) (A) (A) (A) (A) (A) (A) (A) (A) (A) (A) (A)
                 (A) (A) (A) (A) (A) (A) (A) (A) (A) (A) (A) (A)
                 (A) (A) (A) (A) (A) (A) (A) (A) (A) (A) (A) (A)
                 (A) (A) (A) (A) (A) (A) (A) (A) (A) (A) (A) (A)
                 (A) (A) (A) (A) (A) (A) (A) (A) (A) (A) (A) (A)
                 (A) (A) (A) (A) (A) (A) (A) (A) (A) (A) (A) (A)
                 (A) (A) (A) (A) (A) (A) (A) (A) (A) (A) (A) (A)
                 (A) (A) (A) (A) (A) (A) (A) (A) (A) (A) (A) (A)
                 (A) (A) (A) (A) (A) (A) (A) (A) (A) (A) (A) (A)
                 (A) (A) (A) (A) (A) (A) (A) (A) (A) (A) (A) (A)
                 (A) (A) (A) (A) (A) (A) (A) (A) (A) (A) (A) (A)
                 (A) (A) (A) (A) (A) (A) (A) (A) (A) (A) (A) (A)
                 (A) (A) (A) (A) (A) (A) (A) (A) (A) (A) (A) (A)
                 (A) (A) (A) (A) (A) (A) (A) (A) (A) (A) (A) (A)
                 (A) (A) (A) (A) (A) (A) (A) (A) (A) (A) (A) (A)
                 (A) (A) (A) (A) (A) (A) (A) (A) (A) (A) (A) (A)
                 (A) (A) (A) (A) (A) (A) (A) (A) (A) (A) (A) (A)
                 (A) (A) (A) (A) (A) (A) (A) (A) (A) (A) (A) (A)
                 (A) (A) (A) (A) (A) (A) (A) (A) (A) (A) (A) (A)
                 (A) (A) (A) (A) (A) (A) (A) (A) (A) (A) (A) (A)
                 (A) (A) (A) (A) (A) (A) (A) (A) (A) (A) (A) (A)
                 (A) (A) (A) (A) (A) (A) (A) (A) (A) (A) (A) (A)
                 (A) (A) (A) (A) (A) (A) (A) (A) (A) (A) (A) (A)
                 (A) (A) (A) (A) (A) (A) (A) (A) (A) (A) (A) (A)
                 (A) (A) (A) (A) (A) (A) (A) (A) (A) (A) (A) (A)
                 (A) (A) (A) (A) (A) (A) (A) (A) (A) (A) (A) (A)
                 (A) (A) (A) (A) (A) (A) (A) (A) (A) (A) (A) (A)
                 (A) (A) (A) (A) (A) (A) (A) (A) (A) (A) (A) (A)
                 (A) (A) (A) (A) (A) (A) (A) (A) (A) (A) (A) (A)
                 (A) (A) (A) (A) (A) (A) (A) (A) (A) (A) (A) (A)
                 (A) (A) (A) (A) (A) (A) (A) (A) (A) (A) (A) (A)
                 (A) (A) (A) (A) (A) (A) (A) (A) (A) (A) (A) (A)
                 (A) (A) (A) (A) (A) (A) (A) (A) (A) (A) (A) (A)
                 (A) (A) (A) (A) (A) (A) (A) (A) (A) (A) (A) (A)
                 (A) (A) (A) (A) (A) (A) (A) (A) (A) (A) (A) (A)
                 (A) (A) (A) (A) (A) (A) (A) (A) (A) (A) (A) (A)
                 (A) (A) (A) (A) (A) (A) (A) (A) (A) (A) (A) (A)
                 (A) (A) (A) (A) (A) (A) (A) (A) (A) (A) (A) (A)
                 (A) (A) (A) (A) (A) (A) (A) (A) (A) (A) (A) (A)
                 (A) (A) (A) (A) (A) (A) (A) (A) (A) (A) (A) (A)
                 (A) (A) (A) (A) (A) (A) (A) (A) (A) (A) (A) (A)
                 (A) (A) (A) (A) (A) (A) (A) (A) (A) (A) (A) (A)
                 (A) (A) (A) (A) (A) (A) (A) (A) (A) (A) (A) (A)
                 (A) (A) (A) (A) (A) (A) (A) (A) (A) (A) (A) (A)
                 (A) (A) (A) (A) (A) (A) (A) (A) (A) (A) (A) (A)
                 (A) (A) (A) (A) (A) (A) (A) (A) (A) (A) (A) (A)
                 (A) (A) (A) (A) (A) (A) (A) (A) (A) (A) (A) (A)
                 (A) (A) (A) (A) (A) (A) (A) (A) (A) (A) (A) (A)
                 (A) (A) (A) (A) (A) (A) (A) (A) (A) (A) (A) (A)
                 (A) (A) (A) (A) (A) (A) (A) (A) (A) (A) (A) (A)
                 (A) (A) (A) (A) (A) (A) (A) (A) (A) (A) (A) (A)
                 (A) (A) (A) (A) (A) (A) (A) (A) (A) (A) (A) (A)
                 (A) (A) (A) (A) (A) (A) (A) (A) (A) (A) (A) (A)
                 (A) (A) (A) (A) (A) (A) (A) (A) (A) (A) (A) (A)
                 (A) (A) (A) (A) (A) (A) (A) (A) (A) (A) (A) (A)
                 (A) (A) (A) (A) (A) (A) (A) (A) (A) (A) (A) (A)
                 (A) (A) (A) (A) (A) (A) (A) (A) (A) (A) (A) (A)
                 (A) (A) (A) (A) (A) (A) (A) (A) (A) (A) (A) (A)
                 (A) (A) (A) (A) (A) (A) (A) (A) (A) (A) (A) (A)
                 (A) (A) (A) (A) (A) (A) (A) (A) (A) (A) (A) (A)
                 (A) (A) (A) (A) (A) (A) (A) (A) (A) (A) (A) (A)
                 (A) (A) (A) (A) (A) (A) (A) (A) (A) (A) (A) (A)
                 (A) (A) (A) (A) (A) (A) (A) (A) (A) (A) (A) (A)
                 (A) (A) (A) (A) (A) (A) (A) (A) (A) (A) (A) (A)
                 (A) (A) (A) (A) (A) (A) (A) (A) (A) (A) (A) (A)
                 (A) (A) (A) (A) (A) (A) (A) (A) (A) (A) (A) (A)
                 (A) (A) (A) (A) (A) (A) (A) (A) (A) (A) (A) (A)
                 (A) (A) (A) (A) (A) (A) (A) (A) (A) (A) (A) (A)
                 (A) (A) (A) (A) (A) (A) (A) (A) (A) (A) (A) (A)
                 (A) (A) (A) (A) (A) (A) (A) (A) (A) (A) (A) (A)
                 (A) (A) (A) (A) (A) (A) (A) (A) (A) (A) (A) (A)
                 (A) (A) (A) (A) (A) (A) (A) (A) (A) (A) (A) (A)
                 (A) (A) (A) (A) (A) (A) (A) (A) (A) (A) (A) (A)
                 (A) (A) (A) (A) (A) (A) (A) (A) (A) (A) (A) (A)
                 (A) (A) (A) (A) (A) (A) (A) (A) (A) (A) (A) (A)
                 (A) (A) (A) (A) (A) (A) (A) (A) (A) (A) (A) (A)
                 (A) (A) (A) (A) (A) (A) (A) (A) (A) (A) (A) (A)
                 (A) (A) (A) (A) (A) (A) (A) (A) (A) (A) (A) (A)
                 (A) (A) (A) (A) (A) (A) (A) (A) (A) (A) (A) (A)
                 (A) (A) (A) (A) (A) (A) (A) (A) (A) (A) (A) (A)
                 (A) (A) (A) (A) (A) (A) (A) (A) (A) (A) (A) (A)
                 (A) (A) (A) (A) (A) (A) (A) (A) (A) (A) (A) (A)
                 (A) (A) (A) (A) (A) (A) (A) (A) (A) (A) (A) (A)
                 (A) (A) (A) (A) (A) (A) (A) (A) (A) (A) (A) (A)
                 (A) (A) (A) (A) (A) (A) (A) (A) (A) (A) (A)
 The electronic state is 2-A.
 Alpha  occ. eigenvalues -- -256.31461 -30.16550 -26.00924 -26.00198 -26.00111
 Alpha  occ. eigenvalues --  -19.40035 -19.39434 -14.51131 -14.45844 -14.45815
 Alpha  occ. eigenvalues --  -14.45783 -14.45637 -14.44885 -10.35626 -10.35125
 Alpha  occ. eigenvalues --  -10.34942 -10.34906 -10.34840 -10.34829 -10.34770
 Alpha  occ. eigenvalues --  -10.34575 -10.34460 -10.33231 -10.32619 -10.32409
 Alpha  occ. eigenvalues --  -10.31630 -10.31579 -10.31546 -10.31361 -10.31272
 Alpha  occ. eigenvalues --  -10.31192 -10.31177 -10.30915 -10.30878 -10.30790
 Alpha  occ. eigenvalues --  -10.30764 -10.30661 -10.30651 -10.29960 -10.29742
 Alpha  occ. eigenvalues --  -10.29702 -10.29687 -10.29612 -10.29510 -10.29424
 Alpha  occ. eigenvalues --  -10.28866 -10.28783  -3.54720  -2.32073  -2.30243
 Alpha  occ. eigenvalues --   -2.30147  -1.39646  -1.15134  -1.07929  -1.07186
 Alpha  occ. eigenvalues --   -1.06669  -1.05191  -0.99722  -0.94172  -0.93177
 Alpha  occ. eigenvalues --   -0.91847  -0.91703  -0.91154  -0.90959  -0.90591
 Alpha  occ. eigenvalues --   -0.89566  -0.88433  -0.86893  -0.86351  -0.85917
 Alpha  occ. eigenvalues --   -0.84472  -0.82532  -0.81224  -0.80415  -0.79903
 Alpha  occ. eigenvalues --   -0.78718  -0.78154  -0.77131  -0.76259  -0.75617
 Alpha  occ. eigenvalues --   -0.73734  -0.71105  -0.70482  -0.69716  -0.68900
 Alpha  occ. eigenvalues --   -0.68303  -0.65967  -0.65934  -0.65242  -0.65083
 Alpha  occ. eigenvalues --   -0.64830  -0.64049  -0.63530  -0.62508  -0.61936
 Alpha  occ. eigenvalues --   -0.61829  -0.61324  -0.59383  -0.58630  -0.57550
 Alpha  occ. eigenvalues --   -0.57103  -0.56786  -0.56568  -0.55310  -0.55217
 Alpha  occ. eigenvalues --   -0.54566  -0.54423  -0.54062  -0.53391  -0.53217
 Alpha  occ. eigenvalues --   -0.52896  -0.52730  -0.52483  -0.52205  -0.51663
 Alpha  occ. eigenvalues --   -0.51322  -0.50972  -0.50797  -0.50661  -0.50641
 Alpha  occ. eigenvalues --   -0.50515  -0.50197  -0.49959  -0.49724  -0.49524
 Alpha  occ. eigenvalues --   -0.49473  -0.49259  -0.49174  -0.48826  -0.48204
 Alpha  occ. eigenvalues --   -0.47748  -0.47633  -0.47523  -0.46744  -0.46556
 Alpha  occ. eigenvalues --   -0.46063  -0.45816  -0.44748  -0.44274  -0.44151
 Alpha  occ. eigenvalues --   -0.43746  -0.43253  -0.42548  -0.41710  -0.41282
 Alpha  occ. eigenvalues --   -0.40400  -0.40053  -0.39567  -0.39151  -0.39032
 Alpha  occ. eigenvalues --   -0.38043  -0.37876  -0.36114  -0.35468  -0.34172
 Alpha  occ. eigenvalues --   -0.33647  -0.33432  -0.33092  -0.32127  -0.31149
 Alpha  occ. eigenvalues --   -0.30750
 Alpha virt. eigenvalues --   -0.26141  -0.18353  -0.17882  -0.12868  -0.10448
 Alpha virt. eigenvalues --   -0.09890  -0.09197  -0.08684  -0.08044  -0.06134
 Alpha virt. eigenvalues --   -0.05907  -0.04812  -0.04803  -0.04210  -0.04003
 Alpha virt. eigenvalues --   -0.03667  -0.03174  -0.03041  -0.02163  -0.01753
 Alpha virt. eigenvalues --   -0.01465  -0.01393  -0.00871  -0.00371  -0.00260
 Alpha virt. eigenvalues --    0.00125   0.00656   0.01261   0.01297   0.01705
 Alpha virt. eigenvalues --    0.01758   0.01891   0.02067   0.02513   0.02668
 Alpha virt. eigenvalues --    0.02819   0.03109   0.03410   0.03520   0.03701
 Alpha virt. eigenvalues --    0.03734   0.03909   0.04202   0.04333   0.04507
 Alpha virt. eigenvalues --    0.04870   0.05200   0.05302   0.05617   0.05792
 Alpha virt. eigenvalues --    0.05936   0.06108   0.06421   0.06544   0.06578
 Alpha virt. eigenvalues --    0.06706   0.06978   0.07129   0.07500   0.07834
 Alpha virt. eigenvalues --    0.08377   0.08484   0.08797   0.08916   0.09177
 Alpha virt. eigenvalues --    0.09457   0.09747   0.10023   0.10300   0.10552
 Alpha virt. eigenvalues --    0.11045   0.11268   0.11331   0.11576   0.11940
 Alpha virt. eigenvalues --    0.12133   0.12563   0.12863   0.13137   0.13305
 Alpha virt. eigenvalues --    0.13431   0.13648   0.13903   0.14385   0.14757
 Alpha virt. eigenvalues --    0.14877   0.15099   0.15377   0.15956   0.16095
 Alpha virt. eigenvalues --    0.16499   0.16594   0.16732   0.17000   0.17466
 Alpha virt. eigenvalues --    0.17511   0.17644   0.18010   0.18280   0.18461
 Alpha virt. eigenvalues --    0.19000   0.19260   0.19325   0.19539   0.19682
 Alpha virt. eigenvalues --    0.19922   0.20093   0.20280   0.20573   0.20847
 Alpha virt. eigenvalues --    0.21011   0.21301   0.21471   0.21917   0.22032
 Alpha virt. eigenvalues --    0.22393   0.22858   0.23161   0.23253   0.23600
 Alpha virt. eigenvalues --    0.24020   0.24175   0.24289   0.24445   0.24914
 Alpha virt. eigenvalues --    0.25147   0.25381   0.25784   0.25889   0.26101
 Alpha virt. eigenvalues --    0.26455   0.26639   0.26825   0.27280   0.27322
 Alpha virt. eigenvalues --    0.27546   0.27954   0.28148   0.28426   0.28620
 Alpha virt. eigenvalues --    0.28747   0.29087   0.29263   0.29706   0.29753
 Alpha virt. eigenvalues --    0.30089   0.30172   0.30634   0.30831   0.31136
 Alpha virt. eigenvalues --    0.31625   0.31776   0.31915   0.32134   0.32536
 Alpha virt. eigenvalues --    0.32825   0.32983   0.33453   0.33666   0.33740
 Alpha virt. eigenvalues --    0.34109   0.34327   0.34519   0.34763   0.35066
 Alpha virt. eigenvalues --    0.35299   0.35378   0.35471   0.35713   0.35810
 Alpha virt. eigenvalues --    0.36228   0.36450   0.36566   0.36959   0.37014
 Alpha virt. eigenvalues --    0.37257   0.37345   0.37451   0.37788   0.37870
 Alpha virt. eigenvalues --    0.38057   0.38219   0.38492   0.38636   0.39021
 Alpha virt. eigenvalues --    0.39320   0.39464   0.39756   0.39874   0.40190
 Alpha virt. eigenvalues --    0.40288   0.40754   0.41008   0.41058   0.41196
 Alpha virt. eigenvalues --    0.41572   0.41743   0.41841   0.42074   0.42235
 Alpha virt. eigenvalues --    0.42389   0.42790   0.42980   0.43277   0.43664
 Alpha virt. eigenvalues --    0.43703   0.43948   0.44163   0.44639   0.44941
 Alpha virt. eigenvalues --    0.45135   0.45413   0.45572   0.45955   0.46201
 Alpha virt. eigenvalues --    0.46562   0.46899   0.47245   0.47441   0.47719
 Alpha virt. eigenvalues --    0.47893   0.48154   0.48428   0.48762   0.49049
 Alpha virt. eigenvalues --    0.49293   0.49650   0.50026   0.50093   0.50371
 Alpha virt. eigenvalues --    0.50665   0.50930   0.51065   0.51402   0.51729
 Alpha virt. eigenvalues --    0.51783   0.51946   0.52246   0.52683   0.52759
 Alpha virt. eigenvalues --    0.53074   0.53364   0.53641   0.54015   0.54813
 Alpha virt. eigenvalues --    0.55020   0.55205   0.55405   0.56073   0.56272
 Alpha virt. eigenvalues --    0.56408   0.56904   0.57148   0.57286   0.57464
 Alpha virt. eigenvalues --    0.57772   0.57968   0.58351   0.58754   0.59250
 Alpha virt. eigenvalues --    0.59654   0.59912   0.60170   0.60344   0.60733
 Alpha virt. eigenvalues --    0.60912   0.61496   0.61842   0.62094   0.62264
 Alpha virt. eigenvalues --    0.62677   0.63060   0.63372   0.64042   0.64114
 Alpha virt. eigenvalues --    0.64548   0.64746   0.65171   0.65566   0.65652
 Alpha virt. eigenvalues --    0.65954   0.66285   0.66651   0.67480   0.67748
 Alpha virt. eigenvalues --    0.68196   0.68434   0.68599   0.69035   0.69735
 Alpha virt. eigenvalues --    0.70033   0.70455   0.70726   0.70979   0.71563
 Alpha virt. eigenvalues --    0.71934   0.72530   0.72942   0.73168   0.73312
 Alpha virt. eigenvalues --    0.73395   0.74334   0.74587   0.74613   0.75088
 Alpha virt. eigenvalues --    0.75186   0.75428   0.75836   0.76709   0.76796
 Alpha virt. eigenvalues --    0.76908   0.77364   0.78095   0.78358   0.78877
 Alpha virt. eigenvalues --    0.79212   0.79554   0.80042   0.80299   0.80487
 Alpha virt. eigenvalues --    0.80938   0.81117   0.81139   0.81689   0.82163
 Alpha virt. eigenvalues --    0.82269   0.82680   0.82989   0.83293   0.83958
 Alpha virt. eigenvalues --    0.84473   0.84564   0.85140   0.85268   0.85785
 Alpha virt. eigenvalues --    0.85800   0.86009   0.86616   0.87020   0.87205
 Alpha virt. eigenvalues --    0.87733   0.87789   0.87994   0.88314   0.88774
 Alpha virt. eigenvalues --    0.88864   0.89352   0.89452   0.89929   0.90097
 Alpha virt. eigenvalues --    0.90567   0.90777   0.91520   0.91686   0.92224
 Alpha virt. eigenvalues --    0.92401   0.92688   0.92774   0.93045   0.93397
 Alpha virt. eigenvalues --    0.93709   0.94173   0.94425   0.94785   0.95056
 Alpha virt. eigenvalues --    0.95678   0.96065   0.96173   0.96807   0.97273
 Alpha virt. eigenvalues --    0.97455   0.98245   0.98638   0.98955   0.99255
 Alpha virt. eigenvalues --    0.99933   1.00403   1.00490   1.00845   1.01154
 Alpha virt. eigenvalues --    1.01951   1.02702   1.03652   1.03941   1.04235
 Alpha virt. eigenvalues --    1.04524   1.05172   1.05766   1.05844   1.06334
 Alpha virt. eigenvalues --    1.06520   1.06867   1.07228   1.07431   1.07890
 Alpha virt. eigenvalues --    1.08441   1.08525   1.08888   1.09166   1.09647
 Alpha virt. eigenvalues --    1.10114   1.10558   1.10773   1.10890   1.11337
 Alpha virt. eigenvalues --    1.11746   1.12061   1.12648   1.13207   1.13397
 Alpha virt. eigenvalues --    1.13728   1.14438   1.14515   1.14578   1.15108
 Alpha virt. eigenvalues --    1.15600   1.16086   1.16361   1.16771   1.17047
 Alpha virt. eigenvalues --    1.17280   1.17763   1.18278   1.18379   1.18948
 Alpha virt. eigenvalues --    1.19453   1.20069   1.20329   1.20541   1.21130
 Alpha virt. eigenvalues --    1.22039   1.22304   1.22529   1.23422   1.24147
 Alpha virt. eigenvalues --    1.24408   1.25146   1.25367   1.25918   1.26392
 Alpha virt. eigenvalues --    1.27145   1.27756   1.28320   1.28699   1.29178
 Alpha virt. eigenvalues --    1.29400   1.30034   1.30429   1.30937   1.31222
 Alpha virt. eigenvalues --    1.31447   1.32329   1.32963   1.34166   1.34234
 Alpha virt. eigenvalues --    1.34679   1.34846   1.35362   1.35784   1.36243
 Alpha virt. eigenvalues --    1.36552   1.36768   1.37186   1.37369   1.37657
 Alpha virt. eigenvalues --    1.38073   1.38750   1.38872   1.39466   1.40059
 Alpha virt. eigenvalues --    1.40588   1.40613   1.41044   1.41133   1.41162
 Alpha virt. eigenvalues --    1.41625   1.42059   1.42271   1.42308   1.42858
 Alpha virt. eigenvalues --    1.43101   1.43160   1.43731   1.43996   1.44327
 Alpha virt. eigenvalues --    1.44457   1.44666   1.44933   1.45003   1.45562
 Alpha virt. eigenvalues --    1.45665   1.45908   1.46371   1.46665   1.46954
 Alpha virt. eigenvalues --    1.47427   1.47759   1.47874   1.48111   1.48459
 Alpha virt. eigenvalues --    1.49083   1.49245   1.49457   1.49587   1.50177
 Alpha virt. eigenvalues --    1.50203   1.51054   1.51295   1.51430   1.51567
 Alpha virt. eigenvalues --    1.51945   1.52245   1.52601   1.52960   1.53282
 Alpha virt. eigenvalues --    1.53454   1.53509   1.54220   1.54439   1.54630
 Alpha virt. eigenvalues --    1.54741   1.55233   1.55380   1.55891   1.56256
 Alpha virt. eigenvalues --    1.56541   1.56756   1.57072   1.57567   1.57797
 Alpha virt. eigenvalues --    1.57979   1.58128   1.58536   1.59072   1.59424
 Alpha virt. eigenvalues --    1.59772   1.60117   1.60383   1.60845   1.61523
 Alpha virt. eigenvalues --    1.61730   1.62252   1.62809   1.63204   1.63739
 Alpha virt. eigenvalues --    1.64065   1.64419   1.65096   1.65376   1.66068
 Alpha virt. eigenvalues --    1.66764   1.67724   1.68201   1.68557   1.69038
 Alpha virt. eigenvalues --    1.69845   1.70109   1.70323   1.70607   1.71599
 Alpha virt. eigenvalues --    1.71969   1.72627   1.72829   1.73050   1.73467
 Alpha virt. eigenvalues --    1.74024   1.74288   1.74778   1.74897   1.75641
 Alpha virt. eigenvalues --    1.76159   1.76576   1.76722   1.77534   1.77646
 Alpha virt. eigenvalues --    1.78217   1.78940   1.79244   1.79342   1.79813
 Alpha virt. eigenvalues --    1.80165   1.80778   1.81271   1.81777   1.82185
 Alpha virt. eigenvalues --    1.82480   1.83279   1.83627   1.84225   1.84379
 Alpha virt. eigenvalues --    1.84789   1.85639   1.86102   1.86347   1.86615
 Alpha virt. eigenvalues --    1.86853   1.86949   1.87335   1.88076   1.88175
 Alpha virt. eigenvalues --    1.88318   1.88750   1.89511   1.90010   1.90440
 Alpha virt. eigenvalues --    1.91364   1.91837   1.92280   1.92503   1.93006
 Alpha virt. eigenvalues --    1.93304   1.94037   1.94513   1.94922   1.95220
 Alpha virt. eigenvalues --    1.95587   1.95938   1.96510   1.96841   1.97630
 Alpha virt. eigenvalues --    1.97818   1.98433   1.98474   1.98646   1.99578
 Alpha virt. eigenvalues --    2.00368   2.00665   2.01129   2.01600   2.02099
 Alpha virt. eigenvalues --    2.02335   2.03002   2.03403   2.03851   2.04070
 Alpha virt. eigenvalues --    2.04303   2.04535   2.05236   2.05262   2.05851
 Alpha virt. eigenvalues --    2.06338   2.06730   2.07103   2.07563   2.08197
 Alpha virt. eigenvalues --    2.08579   2.09075   2.09312   2.09743   2.10395
 Alpha virt. eigenvalues --    2.11292   2.11564   2.12117   2.12549   2.12796
 Alpha virt. eigenvalues --    2.13241   2.14221   2.14396   2.14895   2.15204
 Alpha virt. eigenvalues --    2.16129   2.16360   2.16587   2.17267   2.17665
 Alpha virt. eigenvalues --    2.18274   2.18591   2.19056   2.19517   2.19860
 Alpha virt. eigenvalues --    2.20166   2.21019   2.21123   2.22081   2.22399
 Alpha virt. eigenvalues --    2.22592   2.22886   2.22899   2.23565   2.24017
 Alpha virt. eigenvalues --    2.24191   2.24406   2.24835   2.25298   2.25363
 Alpha virt. eigenvalues --    2.25833   2.26394   2.26699   2.27090   2.27290
 Alpha virt. eigenvalues --    2.27999   2.28142   2.28211   2.28815   2.29266
 Alpha virt. eigenvalues --    2.29691   2.29978   2.30194   2.30559   2.30911
 Alpha virt. eigenvalues --    2.31116   2.31579   2.31907   2.32693   2.33449
 Alpha virt. eigenvalues --    2.34131   2.34387   2.34720   2.35770   2.36041
 Alpha virt. eigenvalues --    2.36835   2.37370   2.37664   2.38994   2.39150
 Alpha virt. eigenvalues --    2.39339   2.39892   2.39965   2.40853   2.40990
 Alpha virt. eigenvalues --    2.41513   2.42030   2.42263   2.42431   2.42933
 Alpha virt. eigenvalues --    2.43236   2.43444   2.43727   2.43793   2.44196
 Alpha virt. eigenvalues --    2.44780   2.44921   2.45258   2.46067   2.46300
 Alpha virt. eigenvalues --    2.46685   2.47513   2.47747   2.47979   2.48690
 Alpha virt. eigenvalues --    2.49146   2.49441   2.49980   2.50734   2.51121
 Alpha virt. eigenvalues --    2.51358   2.51692   2.52083   2.52244   2.52472
 Alpha virt. eigenvalues --    2.53028   2.53045   2.53437   2.53811   2.54290
 Alpha virt. eigenvalues --    2.54938   2.55137   2.55856   2.56063   2.56341
 Alpha virt. eigenvalues --    2.56865   2.57259   2.57932   2.58227   2.58309
 Alpha virt. eigenvalues --    2.58717   2.59375   2.59923   2.60211   2.60562
 Alpha virt. eigenvalues --    2.60804   2.61299   2.61873   2.62314   2.62640
 Alpha virt. eigenvalues --    2.62755   2.63240   2.64096   2.64570   2.64627
 Alpha virt. eigenvalues --    2.65161   2.65546   2.66205   2.66552   2.66697
 Alpha virt. eigenvalues --    2.67319   2.67492   2.68395   2.68836   2.69174
 Alpha virt. eigenvalues --    2.69668   2.70006   2.70168   2.70456   2.70824
 Alpha virt. eigenvalues --    2.71324   2.71835   2.72669   2.72891   2.73143
 Alpha virt. eigenvalues --    2.73753   2.74130   2.74427   2.74667   2.74985
 Alpha virt. eigenvalues --    2.75440   2.76009   2.76522   2.76787   2.77006
 Alpha virt. eigenvalues --    2.77791   2.78132   2.78717   2.78988   2.79305
 Alpha virt. eigenvalues --    2.79874   2.80233   2.80913   2.81087   2.81622
 Alpha virt. eigenvalues --    2.81833   2.82241   2.82722   2.83304   2.83562
 Alpha virt. eigenvalues --    2.83696   2.83898   2.84191   2.85098   2.85961
 Alpha virt. eigenvalues --    2.86326   2.86661   2.86725   2.87312   2.87727
 Alpha virt. eigenvalues --    2.88087   2.88575   2.88787   2.89265   2.89577
 Alpha virt. eigenvalues --    2.89754   2.89936   2.90349   2.90673   2.91109
 Alpha virt. eigenvalues --    2.91395   2.91956   2.92453   2.92507   2.92799
 Alpha virt. eigenvalues --    2.93416   2.93668   2.94097   2.94593   2.94652
 Alpha virt. eigenvalues --    2.94951   2.95603   2.95710   2.96107   2.96521
 Alpha virt. eigenvalues --    2.97130   2.97264   2.97667   2.97841   2.98156
 Alpha virt. eigenvalues --    2.98593   2.98910   2.99153   2.99325   2.99619
 Alpha virt. eigenvalues --    3.00020   3.00296   3.00745   3.01009   3.01619
 Alpha virt. eigenvalues --    3.02004   3.02231   3.02423   3.02447   3.02935
 Alpha virt. eigenvalues --    3.03218   3.03266   3.03448   3.03711   3.04305
 Alpha virt. eigenvalues --    3.04625   3.04652   3.04924   3.05611   3.05882
 Alpha virt. eigenvalues --    3.06383   3.06844   3.07218   3.07511   3.07616
 Alpha virt. eigenvalues --    3.08126   3.08428   3.08686   3.08902   3.09268
 Alpha virt. eigenvalues --    3.09650   3.09963   3.10460   3.10812   3.11104
 Alpha virt. eigenvalues --    3.11299   3.11346   3.11826   3.12017   3.12606
 Alpha virt. eigenvalues --    3.12744   3.13233   3.13397   3.13864   3.14016
 Alpha virt. eigenvalues --    3.14429   3.14733   3.15041   3.15146   3.15672
 Alpha virt. eigenvalues --    3.16075   3.16276   3.16486   3.16752   3.17230
 Alpha virt. eigenvalues --    3.17378   3.17460   3.17850   3.18355   3.18466
 Alpha virt. eigenvalues --    3.19387   3.19744   3.20020   3.20283   3.20515
 Alpha virt. eigenvalues --    3.20811   3.21107   3.21266   3.21496   3.21802
 Alpha virt. eigenvalues --    3.21846   3.22187   3.22325   3.22623   3.23028
 Alpha virt. eigenvalues --    3.23284   3.23449   3.23629   3.24127   3.24322
 Alpha virt. eigenvalues --    3.24656   3.24887   3.25152   3.25518   3.25673
 Alpha virt. eigenvalues --    3.25803   3.26276   3.26356   3.26516   3.27059
 Alpha virt. eigenvalues --    3.27203   3.27578   3.27782   3.27932   3.28206
 Alpha virt. eigenvalues --    3.28491   3.28901   3.29465   3.29837   3.29976
 Alpha virt. eigenvalues --    3.30561   3.30619   3.31062   3.31358   3.31726
 Alpha virt. eigenvalues --    3.32086   3.32573   3.32912   3.32961   3.33481
 Alpha virt. eigenvalues --    3.33814   3.34122   3.34587   3.35140   3.35429
 Alpha virt. eigenvalues --    3.35557   3.35941   3.36788   3.37743   3.38073
 Alpha virt. eigenvalues --    3.39178   3.39312   3.39583   3.40286   3.40409
 Alpha virt. eigenvalues --    3.40912   3.41304   3.41818   3.42277   3.42474
 Alpha virt. eigenvalues --    3.42769   3.43024   3.43646   3.44244   3.44672
 Alpha virt. eigenvalues --    3.45465   3.45786   3.46206   3.46519   3.47092
 Alpha virt. eigenvalues --    3.47301   3.47750   3.48286   3.48779   3.49772
 Alpha virt. eigenvalues --    3.49886   3.50643   3.50820   3.51061   3.51507
 Alpha virt. eigenvalues --    3.52276   3.52739   3.52839   3.53197   3.53877
 Alpha virt. eigenvalues --    3.54657   3.55085   3.55491   3.55635   3.55821
 Alpha virt. eigenvalues --    3.55966   3.56193   3.56369   3.57040   3.57760
 Alpha virt. eigenvalues --    3.57842   3.58543   3.58994   3.59126   3.59583
 Alpha virt. eigenvalues --    3.59868   3.60247   3.60488   3.61096   3.61178
 Alpha virt. eigenvalues --    3.61556   3.61949   3.62322   3.62964   3.63487
 Alpha virt. eigenvalues --    3.64223   3.64545   3.65156   3.66634   3.66854
 Alpha virt. eigenvalues --    3.67247   3.68030   3.68932   3.69659   3.70047
 Alpha virt. eigenvalues --    3.70593   3.71120   3.71538   3.72309   3.72988
 Alpha virt. eigenvalues --    3.73002   3.73113   3.73983   3.74216   3.74689
 Alpha virt. eigenvalues --    3.75228   3.76191   3.76558   3.77292   3.77931
 Alpha virt. eigenvalues --    3.78758   3.79068   3.79666   3.80757   3.81261
 Alpha virt. eigenvalues --    3.81546   3.82255   3.82573   3.82951   3.83697
 Alpha virt. eigenvalues --    3.84179   3.85305   3.85788   3.86306   3.86771
 Alpha virt. eigenvalues --    3.87471   3.87556   3.88570   3.89834   3.90089
 Alpha virt. eigenvalues --    3.90747   3.91332   3.92014   3.93213   3.93298
 Alpha virt. eigenvalues --    3.93737   3.94434   3.96559   3.97787   3.98168
 Alpha virt. eigenvalues --    3.98556   3.99254   3.99909   4.00826   4.01411
 Alpha virt. eigenvalues --    4.02380   4.02610   4.02713   4.03547   4.03780
 Alpha virt. eigenvalues --    4.04029   4.04756   4.05300   4.05512   4.06060
 Alpha virt. eigenvalues --    4.06386   4.07176   4.07755   4.08318   4.08429
 Alpha virt. eigenvalues --    4.08597   4.09194   4.10317   4.10761   4.11000
 Alpha virt. eigenvalues --    4.11577   4.12092   4.12754   4.12840   4.13632
 Alpha virt. eigenvalues --    4.13833   4.14255   4.14717   4.15160   4.15878
 Alpha virt. eigenvalues --    4.16487   4.17304   4.17545   4.18508   4.18946
 Alpha virt. eigenvalues --    4.19120   4.19592   4.20139   4.21162   4.21663
 Alpha virt. eigenvalues --    4.21762   4.22571   4.23638   4.23915   4.24278
 Alpha virt. eigenvalues --    4.25021   4.25518   4.25743   4.26083   4.26778
 Alpha virt. eigenvalues --    4.27164   4.27457   4.28322   4.28528   4.28773
 Alpha virt. eigenvalues --    4.29476   4.30384   4.30708   4.31096   4.31252
 Alpha virt. eigenvalues --    4.31997   4.33361   4.33782   4.34142   4.34388
 Alpha virt. eigenvalues --    4.35077   4.36789   4.37550   4.39161   4.39551
 Alpha virt. eigenvalues --    4.40055   4.41131   4.41515   4.42982   4.43575
 Alpha virt. eigenvalues --    4.45280   4.45822   4.46258   4.46963   4.48244
 Alpha virt. eigenvalues --    4.49171   4.49779   4.50640   4.50957   4.51503
 Alpha virt. eigenvalues --    4.52339   4.53133   4.53905   4.54231   4.54460
 Alpha virt. eigenvalues --    4.54901   4.55789   4.56207   4.57372   4.58388
 Alpha virt. eigenvalues --    4.58670   4.59786   4.60153   4.61106   4.61583
 Alpha virt. eigenvalues --    4.62804   4.63073   4.64002   4.64456   4.65404
 Alpha virt. eigenvalues --    4.66005   4.66308   4.67123   4.68192   4.68873
 Alpha virt. eigenvalues --    4.69674   4.70222   4.71304   4.71522   4.72579
 Alpha virt. eigenvalues --    4.73162   4.74571   4.75641   4.77457   4.77539
 Alpha virt. eigenvalues --    4.78094   4.78365   4.79021   4.80051   4.80332
 Alpha virt. eigenvalues --    4.80718   4.82000   4.82602   4.84116   4.84648
 Alpha virt. eigenvalues --    4.85092   4.85559   4.86723   4.86915   4.87164
 Alpha virt. eigenvalues --    4.88116   4.88588   4.89648   4.90177   4.90906
 Alpha virt. eigenvalues --    4.92098   4.92779   4.93133   4.93862   4.94028
 Alpha virt. eigenvalues --    4.96659   4.97702   4.99125   4.99896   5.00129
 Alpha virt. eigenvalues --    5.00969   5.01571   5.02505   5.03996   5.06156
 Alpha virt. eigenvalues --    5.06561   5.07188   5.07955   5.09133   5.10676
 Alpha virt. eigenvalues --    5.11167   5.12553   5.13024   5.13840   5.14293
 Alpha virt. eigenvalues --    5.17422   5.20558   5.21406   5.22731   5.23101
 Alpha virt. eigenvalues --    5.23615   5.24463   5.25183   5.25364   5.25927
 Alpha virt. eigenvalues --    5.27259   5.27934   5.30472   5.31512   5.32466
 Alpha virt. eigenvalues --    5.32708   5.33050   5.33681   5.35413   5.38590
 Alpha virt. eigenvalues --    5.39832   5.41776   5.41954   5.43243   5.45452
 Alpha virt. eigenvalues --    5.46521   5.46902   5.47217   5.47947   5.50519
 Alpha virt. eigenvalues --    5.52933   5.54101   5.59783   5.60862   5.61579
 Alpha virt. eigenvalues --    5.62142   5.63405   5.64450   5.66031   5.68181
 Alpha virt. eigenvalues --    5.68601   5.76119   5.79242   5.80898   5.81671
 Alpha virt. eigenvalues --    5.82640   5.83436   5.84397   5.86595   5.92572
 Alpha virt. eigenvalues --    5.93097   5.95112   5.95312   5.97230   6.04053
 Alpha virt. eigenvalues --    6.07160   6.08838   6.15264   6.15601   6.18668
 Alpha virt. eigenvalues --    6.19485   6.22077   6.23126   6.26370   6.32927
 Alpha virt. eigenvalues --    6.33941   6.39482   6.45524   6.55130   7.12680
 Alpha virt. eigenvalues --    7.15227   7.40662   8.61071  22.08429  22.11361
 Alpha virt. eigenvalues --   22.19410  22.19652  22.25821  22.26186  22.28730
 Alpha virt. eigenvalues --   22.30224  22.33145  22.61712  22.62130  22.64161
 Alpha virt. eigenvalues --   22.71151  22.73947  22.75292  22.76890  22.79952
 Alpha virt. eigenvalues --   22.87145  22.90681  22.93499  22.96687  23.00301
 Alpha virt. eigenvalues --   23.01458  23.08522  23.09170  23.15722  23.19009
 Alpha virt. eigenvalues --   23.21951  23.30693  23.35027  23.43797  23.51620
 Alpha virt. eigenvalues --   23.55129  23.65042  32.33175  32.58713  32.78464
 Alpha virt. eigenvalues --   32.82680  32.84367  32.97503  43.65606  44.02388
  Beta  occ. eigenvalues -- -256.31451 -30.16028 -26.00132 -26.00011 -25.99775
  Beta  occ. eigenvalues --  -19.37356 -19.36360 -14.51129 -14.45856 -14.45743
  Beta  occ. eigenvalues --  -14.45642 -14.45537 -14.44753 -10.35622 -10.35413
  Beta  occ. eigenvalues --  -10.35234 -10.35187 -10.35145 -10.35108 -10.35052
  Beta  occ. eigenvalues --  -10.34866 -10.34718 -10.33232 -10.32733 -10.32387
  Beta  occ. eigenvalues --  -10.31673 -10.31631 -10.31560 -10.31357 -10.31299
  Beta  occ. eigenvalues --  -10.31221 -10.31024 -10.30872 -10.30787 -10.30745
  Beta  occ. eigenvalues --  -10.30663 -10.30648 -10.30538 -10.29960 -10.29740
  Beta  occ. eigenvalues --  -10.29701 -10.29683 -10.29612 -10.29512 -10.29422
  Beta  occ. eigenvalues --  -10.28913 -10.28794  -3.53492  -2.30005  -2.29370
  Beta  occ. eigenvalues --   -2.29144  -1.34303  -1.15145  -1.08145  -1.07403
  Beta  occ. eigenvalues --   -1.06899  -1.05397  -0.99749  -0.94498  -0.92092
  Beta  occ. eigenvalues --   -0.91893  -0.91293  -0.91035  -0.90635  -0.89565
  Beta  occ. eigenvalues --   -0.88495  -0.87108  -0.86279  -0.85959  -0.84823
  Beta  occ. eigenvalues --   -0.84758  -0.82561  -0.81400  -0.80415  -0.79964
  Beta  occ. eigenvalues --   -0.78954  -0.78187  -0.77300  -0.76620  -0.75875
  Beta  occ. eigenvalues --   -0.73754  -0.71109  -0.70701  -0.69891  -0.69017
  Beta  occ. eigenvalues --   -0.68379  -0.66129  -0.65276  -0.65046  -0.64140
  Beta  occ. eigenvalues --   -0.62786  -0.62146  -0.62033  -0.61581  -0.60471
  Beta  occ. eigenvalues --   -0.59439  -0.58751  -0.57616  -0.57207  -0.56892
  Beta  occ. eigenvalues --   -0.56745  -0.56408  -0.55575  -0.55402  -0.55150
  Beta  occ. eigenvalues --   -0.54681  -0.54634  -0.54263  -0.53706  -0.53252
  Beta  occ. eigenvalues --   -0.53173  -0.52864  -0.52594  -0.52214  -0.51672
  Beta  occ. eigenvalues --   -0.51353  -0.50979  -0.50856  -0.50736  -0.50690
  Beta  occ. eigenvalues --   -0.50605  -0.50322  -0.50045  -0.49817  -0.49734
  Beta  occ. eigenvalues --   -0.49513  -0.49342  -0.49305  -0.48848  -0.48235
  Beta  occ. eigenvalues --   -0.48173  -0.47771  -0.47599  -0.46792  -0.46648
  Beta  occ. eigenvalues --   -0.46062  -0.45908  -0.44782  -0.44549  -0.44334
  Beta  occ. eigenvalues --   -0.44137  -0.43532  -0.42533  -0.41842  -0.41181
  Beta  occ. eigenvalues --   -0.40711  -0.40067  -0.39473  -0.38777  -0.38159
  Beta  occ. eigenvalues --   -0.35661  -0.34784  -0.34157  -0.33574  -0.33023
  Beta  occ. eigenvalues --   -0.32759  -0.31725  -0.30770  -0.30184  -0.29886
  Beta virt. eigenvalues --   -0.20159  -0.19326  -0.18784  -0.18321  -0.13382
  Beta virt. eigenvalues --   -0.10800  -0.09747  -0.09151  -0.08958  -0.07905
  Beta virt. eigenvalues --   -0.07117  -0.06059  -0.04846  -0.04826  -0.04675
  Beta virt. eigenvalues --   -0.04167  -0.03797  -0.03614  -0.03174  -0.02268
  Beta virt. eigenvalues --   -0.02116  -0.01589  -0.01418  -0.00908  -0.00628
  Beta virt. eigenvalues --   -0.00404   0.00030   0.00545   0.01031   0.01144
  Beta virt. eigenvalues --    0.01511   0.01586   0.01732   0.01849   0.02100
  Beta virt. eigenvalues --    0.02554   0.02656   0.03006   0.03319   0.03531
  Beta virt. eigenvalues --    0.03570   0.03642   0.03890   0.04202   0.04344
  Beta virt. eigenvalues --    0.04408   0.04646   0.05038   0.05293   0.05604
  Beta virt. eigenvalues --    0.05785   0.05906   0.06063   0.06338   0.06479
  Beta virt. eigenvalues --    0.06497   0.06714   0.06955   0.07054   0.07453
  Beta virt. eigenvalues --    0.07838   0.08374   0.08407   0.08780   0.09014
  Beta virt. eigenvalues --    0.09208   0.09402   0.09780   0.10028   0.10185
  Beta virt. eigenvalues --    0.10613   0.11021   0.11294   0.11503   0.11563
  Beta virt. eigenvalues --    0.11936   0.12049   0.12570   0.12844   0.13085
  Beta virt. eigenvalues --    0.13382   0.13471   0.13508   0.13955   0.14539
  Beta virt. eigenvalues --    0.14793   0.14926   0.15117   0.15329   0.15855
  Beta virt. eigenvalues --    0.16135   0.16441   0.16603   0.16711   0.16965
  Beta virt. eigenvalues --    0.17417   0.17510   0.17649   0.18018   0.18291
  Beta virt. eigenvalues --    0.18522   0.18950   0.19211   0.19363   0.19608
  Beta virt. eigenvalues --    0.19652   0.19967   0.20096   0.20249   0.20579
  Beta virt. eigenvalues --    0.20794   0.20989   0.21183   0.21432   0.21861
  Beta virt. eigenvalues --    0.22111   0.22376   0.22793   0.23127   0.23241
  Beta virt. eigenvalues --    0.23567   0.23974   0.24194   0.24280   0.24359
  Beta virt. eigenvalues --    0.24933   0.25168   0.25334   0.25754   0.25960
  Beta virt. eigenvalues --    0.26101   0.26531   0.26717   0.26893   0.27193
  Beta virt. eigenvalues --    0.27215   0.27459   0.27921   0.28037   0.28396
  Beta virt. eigenvalues --    0.28485   0.28819   0.28983   0.29233   0.29616
  Beta virt. eigenvalues --    0.29704   0.29972   0.30106   0.30615   0.30802
  Beta virt. eigenvalues --    0.31030   0.31595   0.31733   0.31917   0.32103
  Beta virt. eigenvalues --    0.32505   0.32748   0.32947   0.33405   0.33618
  Beta virt. eigenvalues --    0.33684   0.34077   0.34291   0.34447   0.34702
  Beta virt. eigenvalues --    0.35045   0.35271   0.35392   0.35455   0.35659
  Beta virt. eigenvalues --    0.35893   0.36185   0.36533   0.36581   0.37025
  Beta virt. eigenvalues --    0.37131   0.37226   0.37345   0.37535   0.37808
  Beta virt. eigenvalues --    0.37909   0.38027   0.38260   0.38572   0.38663
  Beta virt. eigenvalues --    0.39003   0.39402   0.39545   0.39894   0.40056
  Beta virt. eigenvalues --    0.40253   0.40297   0.40718   0.40995   0.41109
  Beta virt. eigenvalues --    0.41165   0.41559   0.41751   0.41844   0.42075
  Beta virt. eigenvalues --    0.42279   0.42397   0.42780   0.43069   0.43372
  Beta virt. eigenvalues --    0.43556   0.43779   0.43894   0.44210   0.44671
  Beta virt. eigenvalues --    0.44978   0.45149   0.45373   0.45516   0.45975
  Beta virt. eigenvalues --    0.46147   0.46511   0.47022   0.47165   0.47400
  Beta virt. eigenvalues --    0.47761   0.47924   0.48070   0.48409   0.48752
  Beta virt. eigenvalues --    0.49095   0.49295   0.49683   0.49986   0.50088
  Beta virt. eigenvalues --    0.50431   0.50599   0.50918   0.50988   0.51314
  Beta virt. eigenvalues --    0.51650   0.51703   0.51954   0.52228   0.52656
  Beta virt. eigenvalues --    0.52770   0.53101   0.53309   0.53666   0.53948
  Beta virt. eigenvalues --    0.54765   0.55040   0.55218   0.55499   0.56100
  Beta virt. eigenvalues --    0.56282   0.56468   0.56999   0.57179   0.57237
  Beta virt. eigenvalues --    0.57505   0.57786   0.57980   0.58370   0.58782
  Beta virt. eigenvalues --    0.59252   0.59617   0.59895   0.60147   0.60336
  Beta virt. eigenvalues --    0.60820   0.60935   0.61523   0.61790   0.62086
  Beta virt. eigenvalues --    0.62221   0.62686   0.63055   0.63316   0.63964
  Beta virt. eigenvalues --    0.64196   0.64568   0.64688   0.65101   0.65533
  Beta virt. eigenvalues --    0.65617   0.65866   0.66249   0.66658   0.67498
  Beta virt. eigenvalues --    0.67714   0.68221   0.68362   0.68566   0.69029
  Beta virt. eigenvalues --    0.69790   0.70000   0.70452   0.70645   0.70873
  Beta virt. eigenvalues --    0.71462   0.71929   0.72559   0.72846   0.73115
  Beta virt. eigenvalues --    0.73194   0.73370   0.74260   0.74514   0.74722
  Beta virt. eigenvalues --    0.75030   0.75156   0.75519   0.75809   0.76710
  Beta virt. eigenvalues --    0.76741   0.76909   0.77355   0.78095   0.78310
  Beta virt. eigenvalues --    0.78844   0.79168   0.79517   0.79991   0.80291
  Beta virt. eigenvalues --    0.80510   0.80875   0.81113   0.81178   0.81707
  Beta virt. eigenvalues --    0.82136   0.82210   0.82676   0.82956   0.83301
  Beta virt. eigenvalues --    0.83937   0.84401   0.84525   0.85109   0.85223
  Beta virt. eigenvalues --    0.85743   0.85829   0.85968   0.86594   0.86951
  Beta virt. eigenvalues --    0.87154   0.87666   0.87836   0.88036   0.88261
  Beta virt. eigenvalues --    0.88732   0.88823   0.89347   0.89435   0.89854
  Beta virt. eigenvalues --    0.90010   0.90587   0.90913   0.91449   0.91640
  Beta virt. eigenvalues --    0.92156   0.92363   0.92676   0.92752   0.92986
  Beta virt. eigenvalues --    0.93372   0.93628   0.94181   0.94367   0.94697
  Beta virt. eigenvalues --    0.94942   0.95603   0.95970   0.96116   0.96773
  Beta virt. eigenvalues --    0.97253   0.97410   0.98138   0.98631   0.98945
  Beta virt. eigenvalues --    0.99151   0.99803   1.00272   1.00477   1.00856
  Beta virt. eigenvalues --    1.01043   1.02009   1.02614   1.03641   1.03925
  Beta virt. eigenvalues --    1.04207   1.04519   1.05138   1.05763   1.05838
  Beta virt. eigenvalues --    1.06274   1.06468   1.06891   1.07252   1.07378
  Beta virt. eigenvalues --    1.07868   1.08394   1.08406   1.08790   1.09106
  Beta virt. eigenvalues --    1.09601   1.10009   1.10485   1.10751   1.10891
  Beta virt. eigenvalues --    1.11245   1.11730   1.11995   1.12641   1.13169
  Beta virt. eigenvalues --    1.13328   1.13693   1.14414   1.14442   1.14623
  Beta virt. eigenvalues --    1.15046   1.15561   1.16037   1.16300   1.16810
  Beta virt. eigenvalues --    1.17173   1.17324   1.17769   1.18199   1.18406
  Beta virt. eigenvalues --    1.18860   1.19260   1.20046   1.20307   1.20474
  Beta virt. eigenvalues --    1.21096   1.22017   1.22374   1.22564   1.23411
  Beta virt. eigenvalues --    1.24192   1.24421   1.25318   1.25425   1.25908
  Beta virt. eigenvalues --    1.26395   1.27226   1.27632   1.28315   1.28706
  Beta virt. eigenvalues --    1.29217   1.29300   1.29944   1.30479   1.31022
  Beta virt. eigenvalues --    1.31271   1.31434   1.32382   1.32973   1.34186
  Beta virt. eigenvalues --    1.34322   1.34776   1.35020   1.35462   1.35889
  Beta virt. eigenvalues --    1.36370   1.36538   1.36888   1.37139   1.37424
  Beta virt. eigenvalues --    1.37600   1.38083   1.38717   1.38951   1.39381
  Beta virt. eigenvalues --    1.40259   1.40534   1.40633   1.40878   1.41139
  Beta virt. eigenvalues --    1.41218   1.41570   1.42085   1.42272   1.42333
  Beta virt. eigenvalues --    1.42846   1.43077   1.43163   1.43745   1.43999
  Beta virt. eigenvalues --    1.44301   1.44386   1.44580   1.44891   1.45059
  Beta virt. eigenvalues --    1.45617   1.45641   1.45968   1.46350   1.46645
  Beta virt. eigenvalues --    1.46923   1.47485   1.47665   1.48029   1.48118
  Beta virt. eigenvalues --    1.48454   1.49031   1.49273   1.49348   1.49596
  Beta virt. eigenvalues --    1.50131   1.50357   1.50999   1.51203   1.51386
  Beta virt. eigenvalues --    1.51533   1.51896   1.52238   1.52564   1.52922
  Beta virt. eigenvalues --    1.53227   1.53363   1.53517   1.54137   1.54331
  Beta virt. eigenvalues --    1.54572   1.54966   1.55155   1.55354   1.55812
  Beta virt. eigenvalues --    1.56214   1.56506   1.56712   1.56995   1.57538
  Beta virt. eigenvalues --    1.57740   1.57950   1.58205   1.58499   1.59054
  Beta virt. eigenvalues --    1.59374   1.59648   1.60056   1.60362   1.60867
  Beta virt. eigenvalues --    1.61672   1.61797   1.62235   1.62780   1.63258
  Beta virt. eigenvalues --    1.63789   1.64109   1.64432   1.65025   1.65327
  Beta virt. eigenvalues --    1.66204   1.66857   1.67754   1.68214   1.68847
  Beta virt. eigenvalues --    1.69219   1.69837   1.70197   1.70230   1.70635
  Beta virt. eigenvalues --    1.71589   1.72045   1.72603   1.72851   1.72964
  Beta virt. eigenvalues --    1.73468   1.73999   1.74361   1.74765   1.74854
  Beta virt. eigenvalues --    1.75573   1.76142   1.76551   1.76824   1.77546
  Beta virt. eigenvalues --    1.77723   1.78182   1.78866   1.79246   1.79324
  Beta virt. eigenvalues --    1.79750   1.80004   1.80946   1.81497   1.81864
  Beta virt. eigenvalues --    1.82119   1.82806   1.83260   1.83582   1.84107
  Beta virt. eigenvalues --    1.84407   1.84662   1.85600   1.85955   1.86235
  Beta virt. eigenvalues --    1.86593   1.86776   1.86947   1.87266   1.87998
  Beta virt. eigenvalues --    1.88275   1.88551   1.88838   1.89560   1.90032
  Beta virt. eigenvalues --    1.90735   1.91356   1.91639   1.92307   1.92565
  Beta virt. eigenvalues --    1.93005   1.93339   1.94094   1.94508   1.95059
  Beta virt. eigenvalues --    1.95184   1.95776   1.96018   1.96463   1.96830
  Beta virt. eigenvalues --    1.97533   1.98131   1.98466   1.98508   1.98682
  Beta virt. eigenvalues --    1.99481   2.00323   2.00641   2.01164   2.01532
  Beta virt. eigenvalues --    2.02210   2.02544   2.02971   2.03402   2.03780
  Beta virt. eigenvalues --    2.04019   2.04250   2.04516   2.05177   2.05221
  Beta virt. eigenvalues --    2.05885   2.06312   2.06708   2.07066   2.07647
  Beta virt. eigenvalues --    2.08185   2.08630   2.09100   2.09763   2.10090
  Beta virt. eigenvalues --    2.10478   2.11449   2.12014   2.12377   2.12650
  Beta virt. eigenvalues --    2.13109   2.13484   2.14185   2.14321   2.14876
  Beta virt. eigenvalues --    2.15209   2.16087   2.16469   2.16577   2.17347
  Beta virt. eigenvalues --    2.17828   2.18198   2.18590   2.19094   2.19658
  Beta virt. eigenvalues --    2.19792   2.20125   2.21113   2.21306   2.22216
  Beta virt. eigenvalues --    2.22357   2.22632   2.22840   2.22985   2.23603
  Beta virt. eigenvalues --    2.23959   2.24156   2.24534   2.24798   2.25245
  Beta virt. eigenvalues --    2.25323   2.25839   2.26348   2.26693   2.27134
  Beta virt. eigenvalues --    2.27206   2.27962   2.28057   2.28177   2.28777
  Beta virt. eigenvalues --    2.29185   2.29681   2.29882   2.30205   2.30526
  Beta virt. eigenvalues --    2.30968   2.31060   2.31582   2.31911   2.32690
  Beta virt. eigenvalues --    2.33372   2.34031   2.34379   2.34879   2.35910
  Beta virt. eigenvalues --    2.36039   2.36830   2.37359   2.37825   2.38947
  Beta virt. eigenvalues --    2.39191   2.39509   2.39843   2.40102   2.40806
  Beta virt. eigenvalues --    2.40949   2.41475   2.42008   2.42332   2.42460
  Beta virt. eigenvalues --    2.42948   2.43326   2.43421   2.43684   2.43878
  Beta virt. eigenvalues --    2.44101   2.44836   2.44890   2.45248   2.46094
  Beta virt. eigenvalues --    2.46393   2.46733   2.47432   2.47763   2.48308
  Beta virt. eigenvalues --    2.48762   2.49314   2.49542   2.50076   2.50670
  Beta virt. eigenvalues --    2.51174   2.51418   2.51660   2.52284   2.52322
  Beta virt. eigenvalues --    2.52554   2.53023   2.53157   2.53489   2.54139
  Beta virt. eigenvalues --    2.54297   2.54925   2.55527   2.55877   2.56241
  Beta virt. eigenvalues --    2.56747   2.57017   2.57237   2.57814   2.58199
  Beta virt. eigenvalues --    2.58566   2.58773   2.59494   2.59919   2.60166
  Beta virt. eigenvalues --    2.60494   2.60835   2.61404   2.61973   2.62323
  Beta virt. eigenvalues --    2.62752   2.63086   2.63333   2.64071   2.64693
  Beta virt. eigenvalues --    2.64924   2.65203   2.65429   2.66153   2.66653
  Beta virt. eigenvalues --    2.66695   2.67443   2.67805   2.68398   2.68746
  Beta virt. eigenvalues --    2.69190   2.69588   2.69913   2.70220   2.70590
  Beta virt. eigenvalues --    2.71060   2.71373   2.71804   2.72623   2.72840
  Beta virt. eigenvalues --    2.73125   2.73874   2.74286   2.74405   2.74720
  Beta virt. eigenvalues --    2.75400   2.75845   2.76040   2.76392   2.76850
  Beta virt. eigenvalues --    2.76953   2.78025   2.78337   2.78765   2.79083
  Beta virt. eigenvalues --    2.79416   2.79724   2.80374   2.80789   2.81217
  Beta virt. eigenvalues --    2.81586   2.81816   2.82139   2.82754   2.83321
  Beta virt. eigenvalues --    2.83492   2.83707   2.84036   2.84221   2.85390
  Beta virt. eigenvalues --    2.85964   2.86273   2.86589   2.86850   2.87371
  Beta virt. eigenvalues --    2.87840   2.88041   2.88547   2.88737   2.89210
  Beta virt. eigenvalues --    2.89608   2.89667   2.90280   2.90570   2.90819
  Beta virt. eigenvalues --    2.91058   2.91391   2.91882   2.92378   2.92635
  Beta virt. eigenvalues --    2.92709   2.93339   2.93595   2.94020   2.94546
  Beta virt. eigenvalues --    2.94583   2.94789   2.95571   2.95678   2.96117
  Beta virt. eigenvalues --    2.96394   2.96948   2.97166   2.97578   2.97761
  Beta virt. eigenvalues --    2.98059   2.98470   2.98811   2.99058   2.99150
  Beta virt. eigenvalues --    2.99490   2.99932   3.00267   3.00612   3.00979
  Beta virt. eigenvalues --    3.01524   3.01929   3.02118   3.02315   3.02388
  Beta virt. eigenvalues --    3.02794   3.03065   3.03223   3.03380   3.03672
  Beta virt. eigenvalues --    3.04269   3.04506   3.04564   3.04916   3.05641
  Beta virt. eigenvalues --    3.05723   3.06359   3.06739   3.07176   3.07508
  Beta virt. eigenvalues --    3.07527   3.08036   3.08302   3.08586   3.08863
  Beta virt. eigenvalues --    3.09174   3.09565   3.09978   3.10368   3.10883
  Beta virt. eigenvalues --    3.10974   3.11099   3.11313   3.11769   3.11941
  Beta virt. eigenvalues --    3.12507   3.12643   3.13152   3.13246   3.13728
  Beta virt. eigenvalues --    3.13908   3.14175   3.14671   3.14823   3.15033
  Beta virt. eigenvalues --    3.15540   3.16028   3.16141   3.16417   3.16687
  Beta virt. eigenvalues --    3.17102   3.17342   3.17405   3.17679   3.18274
  Beta virt. eigenvalues --    3.18349   3.19143   3.19586   3.19862   3.20071
  Beta virt. eigenvalues --    3.20422   3.20564   3.21065   3.21109   3.21312
  Beta virt. eigenvalues --    3.21596   3.21742   3.22010   3.22148   3.22550
  Beta virt. eigenvalues --    3.22863   3.23150   3.23310   3.23432   3.24012
  Beta virt. eigenvalues --    3.24190   3.24494   3.24762   3.25045   3.25330
  Beta virt. eigenvalues --    3.25443   3.25638   3.26105   3.26209   3.26378
  Beta virt. eigenvalues --    3.26882   3.27082   3.27359   3.27627   3.27808
  Beta virt. eigenvalues --    3.28124   3.28290   3.28732   3.29248   3.29666
  Beta virt. eigenvalues --    3.29705   3.30435   3.30500   3.30811   3.31102
  Beta virt. eigenvalues --    3.31481   3.31904   3.32524   3.32735   3.32765
  Beta virt. eigenvalues --    3.33286   3.33611   3.33932   3.34451   3.34961
  Beta virt. eigenvalues --    3.35224   3.35368   3.35764   3.36658   3.37655
  Beta virt. eigenvalues --    3.37905   3.38974   3.39170   3.39438   3.40149
  Beta virt. eigenvalues --    3.40305   3.40860   3.41265   3.41740   3.42107
  Beta virt. eigenvalues --    3.42354   3.42656   3.43011   3.43565   3.44207
  Beta virt. eigenvalues --    3.44463   3.45295   3.45875   3.46074   3.46663
  Beta virt. eigenvalues --    3.46912   3.47182   3.47788   3.48190   3.48800
  Beta virt. eigenvalues --    3.49706   3.49762   3.50509   3.50817   3.50991
  Beta virt. eigenvalues --    3.51294   3.52126   3.52524   3.52792   3.53019
  Beta virt. eigenvalues --    3.53710   3.54480   3.54997   3.55371   3.55547
  Beta virt. eigenvalues --    3.55762   3.55887   3.56108   3.56294   3.56923
  Beta virt. eigenvalues --    3.57619   3.57726   3.58424   3.58869   3.58997
  Beta virt. eigenvalues --    3.59508   3.59799   3.60189   3.60460   3.61022
  Beta virt. eigenvalues --    3.61150   3.61450   3.61831   3.62171   3.62851
  Beta virt. eigenvalues --    3.63383   3.64170   3.64463   3.65097   3.66605
  Beta virt. eigenvalues --    3.66702   3.67220   3.67923   3.68910   3.69589
  Beta virt. eigenvalues --    3.70010   3.70548   3.71185   3.71436   3.72299
  Beta virt. eigenvalues --    3.72937   3.72983   3.73180   3.74005   3.74394
  Beta virt. eigenvalues --    3.74659   3.75117   3.76092   3.76500   3.77307
  Beta virt. eigenvalues --    3.77897   3.78838   3.79293   3.79602   3.80806
  Beta virt. eigenvalues --    3.81221   3.81510   3.82214   3.82508   3.82907
  Beta virt. eigenvalues --    3.83948   3.84377   3.85251   3.85737   3.86256
[...]
                                                    156(r),152(r),1457(r),194(r)
                                                    1476(r),203(r),175(r)
    93. BD (   1) C  73 - N  75          0.99008    -0.94323  152(r),156(r),153(r),1542(v)
                                                    1551(v),1427(v),169(r)
                                                    1547(g),168(r),1541(r)
                                                    1550(g),155(r),196(r),248(r)
                                                    154(r),220(r),173(r),273(r)
                                                    272(r),249(r)
    94. BD (   2) C  73 - N  75          0.93903    -0.42379  1544(v),152(r),1426(v)
                                                    154(r),1311(v),153(r),168(r)
                                                    155(r),170(r),171(r),1466(r)
    95. BD (   1) N  75 - C  76          0.98818    -0.88486  1541(v),156(r),152(r),153(r)
                                                    1547(v),1545(v),169(r)
                                                    1546(g),1370(v),1543(v)
                                                    1548(g),155(r),194(r),246(r)
                                                    170(r),273(r),173(r),196(r)
    96. BD (   1) C  76 - H  77          0.99060    -0.64034  1548(v),1543(v),1342(v)
                                                    1546(g),153(r),1399(v)
                                                    1400(v),156(r),152(r)
                                                    1463(r),151(r)
   142. CR (   1) C  66                  0.99971   -10.15601  1546(v),1342(v),1543(v)
                                                    1296(v)
   143. CR (   1) N  70                  0.99968   -14.31134  1370(v),1344(v),1345(v)
                                                    1338(v),1541(v)
   144. CR (   1) C  72                  0.99954   -10.18483  1546(g),1427(v),1551(v)
   145. CR (   1) C  73                  0.99967   -10.22313  1400(v),1315(v),1542(v)
                                                    1550(v),153(r),152(r),156(r)
   146. CR (   1) N  75                  0.99970   -14.25686  152(r),156(r),153(r),1368(v)
                                                    1425(v),1547(v),168(r)
                                                    174(r),170(r),154(r),173(r)
   147. CR (   1) C  76                  0.99945   -10.16034  1342(v),1541(v),1546(g)
                                                    1401(v),1345(v),1452(v)
                                                    153(r),152(r)
   165. LP (   1) N  75                  0.83776    -0.46768  152(r),153(r),156(r),1545(v)
                                                    1546(v),1368(v),1547(v)
                                                    1551(v),1425(v),1548(g)
                                                    1402(g),1399(g),172(r)
                                                    1550(g),154(r),194(r),272(r)
                                                    223(r),181(r),178(r),249(r)
                                                    182(r),1464(r),1465(r)
                                                    197(r),1467(r),248(r)
                                                    1459(r),1462(r),275(r)
                                                    1458(r),1456(r),1461(r)
                                                    184(r),1221(r),222(r),175(r)
                                                    176(r)
   166. LP (   1) C  76                  0.52782    -0.21119  1544(v),1549(v),1426(g)
                                                    1347(v),151(r)
  1270. RY*(   1) C  66                  0.00055     1.13490   
  1271. RY*(   2) C  66                  0.00030     1.28487   
  1272. RY*(   3) C  66                  0.00027     1.25573   
  1273. RY*(   4) C  66                  0.00009     1.09940   
  1274. RY*(   5) C  66                  0.00006     1.36073   
  1275. RY*(   6) C  66                  0.00004     1.33443   
  1276. RY*(   7) C  66                  0.00003     1.76095   
  1277. RY*(   8) C  66                  0.00004     1.22014   
  1278. RY*(   9) C  66                  0.00000     1.63591   
  1279. RY*(  10) C  66                  0.00001     1.39679   
  1280. RY*(  11) C  66                  0.00000     2.90277   
  1281. RY*(  12) C  66                  0.00000     1.64021   
  1282. RY*(  13) C  66                  0.00000     3.02224   
  1283. RY*(  14) C  66                  0.00000    21.55931   
  1284. RY*(  15) C  66                  0.00000     2.73560   
  1285. RY*(  16) C  66                  0.00000     1.64189   
  1286. RY*(  17) C  66                  0.00000     3.01527   
  1287. RY*(  18) C  66                  0.00000     1.69122   
  1288. RY*(  19) C  66                  0.00000     2.88043   
  1289. RY*(  20) C  66                  0.00000     3.53480   
  1290. RY*(  21) C  66                  0.00000     3.09391   
  1291. RY*(  22) C  66                  0.00000     3.14268   
  1292. RY*(  23) C  66                  0.00000     3.29840   
  1293. RY*(  24) C  66                  0.00000     3.45151   
  1294. RY*(  25) C  66                  0.00000     3.34400   
  1295. RY*(  26) C  66                  0.00000     3.14269   
  1296. RY*(   1) H  67                  0.00010     1.76363   
  1297. RY*(   2) H  67                  0.00006     2.04927   
  1298. RY*(   3) H  67                  0.00005     0.74806   
  1299. RY*(   4) H  67                  0.00003     2.24008   
  1300. RY*(   5) H  67                  0.00000     2.81923   
  1301. RY*(   1) H  68                  0.00026     0.83333   
  1302. RY*(   2) H  68                  0.00010     1.60951   
  1303. RY*(   3) H  68                  0.00005     2.07587   
  1304. RY*(   4) H  68                  0.00003     2.11721   
  1305. RY*(   5) H  68                  0.00001     2.89632   
  1306. RY*(   1) H  69                  0.00026     0.81378   
  1307. RY*(   2) H  69                  0.00009     1.62568   
  1308. RY*(   3) H  69                  0.00005     2.07161   
  1309. RY*(   4) H  69                  0.00003     2.15716   
  1310. RY*(   5) H  69                  0.00001     2.89113   
  1311. RY*(   1) N  70                  0.00136     0.70543   
  1312. RY*(   2) N  70                  0.00122     1.58476   
  1313. RY*(   3) N  70                  0.00050     1.96431   
  1314. RY*(   4) N  70                  0.00043     2.04628   
  1315. RY*(   5) N  70                  0.00026     1.08421   
  1316. RY*(   6) N  70                  0.00012     1.67036   
  1317. RY*(   7) N  70                  0.00013     1.98844   
  1318. RY*(   8) N  70                  0.00003     2.11953   
  1319. RY*(   9) N  70                  0.00004     2.24996   
  1320. RY*(  10) N  70                  0.00003     3.84056   
  1321. RY*(  11) N  70                  0.00000     4.53563   
  1322. RY*(  12) N  70                  0.00000    30.27782   
  1323. RY*(  13) N  70                  0.00000     4.06968   
  1324. RY*(  14) N  70                  0.00001     2.48450   
  1325. RY*(  15) N  70                  0.00000     3.61104   
  1326. RY*(  16) N  70                  0.00001     3.59525   
  1327. RY*(  17) N  70                  0.00000     4.04122   
  1328. RY*(  18) N  70                  0.00000     2.48796   
  1329. RY*(  19) N  70                  0.00001     2.52534   
  1330. RY*(  20) N  70                  0.00000     4.54544   
  1331. RY*(  21) N  70                  0.00000     4.46653   
  1332. RY*(  22) N  70                  0.00000     4.53345   
  1333. RY*(  23) N  70                  0.00000     4.22878   
  1334. RY*(  24) N  70                  0.00000     4.45948   
  1335. RY*(  25) N  70                  0.00000     4.34990   
  1336. RY*(  26) N  70                  0.00000     4.31634   
  1337. RY*(   1) H  71                  0.00027     2.07927   
  1338. RY*(   2) H  71                  0.00020     2.02141   
  1339. RY*(   3) H  71                  0.00015     0.93570   
  1340. RY*(   4) H  71                  0.00010     2.54228   
  1341. RY*(   5) H  71                  0.00000     2.99637   
  1342. RY*(   1) C  72                  0.00217     1.61284   
  1343. RY*(   2) C  72                  0.00148     1.18248   
  1344. RY*(   3) C  72                  0.00101     1.51318   
  1345. RY*(   4) C  72                  0.00081     1.74831   
  1346. RY*(   5) C  72                  0.00066     2.09365   
  1347. RY*(   6) C  72                  0.00062     1.85123   
  1348. RY*(   7) C  72                  0.00021     2.49017   
  1349. RY*(   8) C  72                  0.00015     1.98638   
  1350. RY*(   9) C  72                  0.00008     2.95707   
  1351. RY*(  10) C  72                  0.00003     3.46955   
  1352. RY*(  11) C  72                  0.00003     3.28242   
  1353. RY*(  12) C  72                  0.00000     1.86842   
  1354. RY*(  13) C  72                  0.00000     2.07112   
  1355. RY*(  14) C  72                  0.00000     1.38883   
  1356. RY*(  15) C  72                  0.00000     1.88882   
  1357. RY*(  16) C  72                  0.00000     1.16126   
  1358. RY*(  17) C  72                  0.00000     2.00420   
  1359. RY*(  18) C  72                  0.00000    21.53513   
  1360. RY*(  19) C  72                  0.00000     3.45413   
  1361. RY*(  20) C  72                  0.00000     3.32749   
  1362. RY*(  21) C  72                  0.00001     3.14954   
  1363. RY*(  22) C  72                  0.00000     3.64324   
  1364. RY*(  23) C  72                  0.00000     3.28441   
  1365. RY*(  24) C  72                  0.00000     3.75769   
  1366. RY*(  25) C  72                  0.00000     3.43853   
  1367. RY*(  26) C  72                  0.00000     3.42649   
  1368. RY*(   1) C  73                  0.00217     1.44105   
  1369. RY*(   2) C  73                  0.00148     0.64855   
  1370. RY*(   3) C  73                  0.00118     1.16358   
  1371. RY*(   4) C  73                  0.00072     2.35093   
  1372. RY*(   5) C  73                  0.00044     1.55125   
  1373. RY*(   6) C  73                  0.00024     1.56705   
  1374. RY*(   7) C  73                  0.00012     1.59536   
  1375. RY*(   8) C  73                  0.00005     2.78561   
  1376. RY*(   9) C  73                  0.00002     2.93601   
  1377. RY*(  10) C  73                  0.00003     2.02017   
  1378. RY*(  11) C  73                  0.00002     2.66081   
  1379. RY*(  12) C  73                  0.00002     1.74395   
  1380. RY*(  13) C  73                  0.00001     3.00799   
  1381. RY*(  14) C  73                  0.00000     3.43618   
  1382. RY*(  15) C  73                  0.00000     2.44652   
  1383. RY*(  16) C  73                  0.00000     2.96547   
  1384. RY*(  17) C  73                  0.00000     2.83724   
  1385. RY*(  18) C  73                  0.00000    21.42155   
  1386. RY*(  19) C  73                  0.00001     2.77285   
  1387. RY*(  20) C  73                  0.00000     3.25217   
  1388. RY*(  21) C  73                  0.00000     3.46345   
  1389. RY*(  22) C  73                  0.00000     3.71753   
  1390. RY*(  23) C  73                  0.00000     3.49920   
  1391. RY*(  24) C  73                  0.00000     3.47898   
  1392. RY*(  25) C  73                  0.00000     3.31978   
  1393. RY*(  26) C  73                  0.00000     3.42665   
  1394. RY*(   1) H  74                  0.00037     0.66886   
  1395. RY*(   2) H  74                  0.00015     2.38924   
  1396. RY*(   3) H  74                  0.00010     1.94796   
  1397. RY*(   4) H  74                  0.00006     2.24946   
  1398. RY*(   5) H  74                  0.00001     3.02714   
  1399. RY*(   1) N  75                  0.00453     1.13096   
  1400. RY*(   2) N  75                  0.00372     0.95492   
  1401. RY*(   3) N  75                  0.00262     0.98133   
  1402. RY*(   4) N  75                  0.00064     1.35443   
  1403. RY*(   5) N  75                  0.00030     2.22636   
  1404. RY*(   6) N  75                  0.00024     1.90795   
  1405. RY*(   7) N  75                  0.00019     2.75661   
  1406. RY*(   8) N  75                  0.00016     2.59687   
  1407. RY*(   9) N  75                  0.00007     3.44775   
  1408. RY*(  10) N  75                  0.00006     3.32076   
  1409. RY*(  11) N  75                  0.00005     2.69028   
  1410. RY*(  12) N  75                  0.00003     3.08139   
  1411. RY*(  13) N  75                  0.00001     4.29865   
  1412. RY*(  14) N  75                  0.00001     4.27491   
  1413. RY*(  15) N  75                  0.00001     4.37044   
  1414. RY*(  16) N  75                  0.00002     2.52062   
  1415. RY*(  17) N  75                  0.00001     4.31396   
  1416. RY*(  18) N  75                  0.00000    31.40581   
  1417. RY*(  19) N  75                  0.00001     3.91450   
  1418. RY*(  20) N  75                  0.00000     4.23946   
  1419. RY*(  21) N  75                  0.00001     4.50967   
  1420. RY*(  22) N  75                  0.00000     4.37820   
  1421. RY*(  23) N  75                  0.00000     4.54386   
  1422. RY*(  24) N  75                  0.00000     4.28092   
  1423. RY*(  25) N  75                  0.00000     4.49582   
  1424. RY*(  26) N  75                  0.00000     4.54099   
  1425. RY*(   1) C  76                  0.00222     1.37181   
  1426. RY*(   2) C  76                  0.00122     0.63665   
  1427. RY*(   3) C  76                  0.00091     1.68007   
  1428. RY*(   4) C  76                  0.00035     1.86842   
  1429. RY*(   5) C  76                  0.00031     1.43118   
  1430. RY*(   6) C  76                  0.00023     1.71133   
  1431. RY*(   7) C  76                  0.00018     2.16672   
  1432. RY*(   8) C  76                  0.00012     1.57693   
  1433. RY*(   9) C  76                  0.00010     1.55647   
  1434. RY*(  10) C  76                  0.00010     1.52752   
  1435. RY*(  11) C  76                  0.00005     1.29001   
  1436. RY*(  12) C  76                  0.00002     1.67639   
  1437. RY*(  13) C  76                  0.00002     2.10703   
  1438. RY*(  14) C  76                  0.00003     2.47610   
  1439. RY*(  15) C  76                  0.00001     2.82420   
  1440. RY*(  16) C  76                  0.00000    21.48524   
  1441. RY*(  17) C  76                  0.00000     3.09901   
  1442. RY*(  18) C  76                  0.00001     2.44474   
  1443. RY*(  19) C  76                  0.00000     3.46555   
  1444. RY*(  20) C  76                  0.00000     3.76275   
  1445. RY*(  21) C  76                  0.00000     3.66179   
  1446. RY*(  22) C  76                  0.00000     3.64996   
  1447. RY*(  23) C  76                  0.00000     3.35083   
  1448. RY*(  24) C  76                  0.00000     3.65987   
  1449. RY*(  25) C  76                  0.00000     3.36734   
  1450. RY*(  26) C  76                  0.00000     3.45728   
  1451. RY*(   1) H  77                  0.00028     0.55197   
  1452. RY*(   2) H  77                  0.00016     2.28643   
  1453. RY*(   3) H  77                  0.00010     2.16881   
  1454. RY*(   4) H  77                  0.00005     2.61924   
  1455. RY*(   5) H  77                  0.00001     3.02185   
  1538. BD*(   1) C  66 - H  67          0.00150     0.26193   
  1539. BD*(   1) C  66 - H  68          0.00514     0.25661   
  1540. BD*(   1) C  66 - H  69          0.00503     0.25605   
  1541. BD*(   1) C  66 - C  72          0.00688     0.29069   
  1542. BD*(   1) N  70 - H  71          0.00748     0.28672   
  1543. BD*(   1) N  70 - C  72          0.01456     0.32044   
  1544. BD*(   2) N  70 - C  72          0.37959    -0.14305  1549(v),1539(v),1540(v)
                                                    1343(g),1311(g),1431(v)
                                                    1348(g)
  1545. BD*(   1) N  70 - C  73          0.01060     0.38695   
  1546. BD*(   1) C  72 - C  76          0.01023     0.48167   
  1547. BD*(   1) C  73 - H  74          0.00954     0.26093   
  1548. BD*(   1) C  73 - N  75          0.00805     0.42394   
  1549. BD*(   2) C  73 - N  75          0.21655    -0.10840  1544(v),152(r),1369(g)
                                                    1466(r),1460(r),154(r)
  1550. BD*(   1) N  75 - C  76          0.00745     0.37108   
  1551. BD*(   1) C  76 - H  77          0.00718     0.30972   
       -------------------------------
              Total Lewis   21.12398  ( 96.6559%)
        Valence non-Lewis    0.68980  (  3.1563%)
        Rydberg non-Lewis    0.04105  (  0.1878%)
       -------------------------------
            Total unit  4   21.85482  (100.0000%)
           Charge unit  4    0.14518
 Unable to Open any file for archive entry.
 1\1\GINC-BGN1039\SP\UAPFD\def2TZVP\C34H34Fe1N6O2(1+,2)\BECSLEIP\06-Sep
 -2024\0\\# apfd/def2TZVP guess=read scf=maxcycle=999 geom=check pop=nb
 o\\2vyz_III_D\\1,2\Fe,0,28.222,31.335,10.099\N,0,26.399,32.228,10.372\
 N,0,29.053,32.565,11.546\N,0,30.092,30.424,9.844\N,0,27.417,30.058,8.6
 61\C,0,25.223,31.897,9.726\C,0,24.176,32.791,10.209\C,0,24.744,33.642,
 11.1\C,0,26.164,33.289,11.218\C,0,28.403,33.563,12.24\C,0,29.345,34.17
 9,13.171\C,0,30.541,33.561,13.012\C,0,30.365,32.526,12.\C,0,31.257,30.
 728,10.545\C,0,32.33,29.856,10.065\C,0,31.828,29.104,9.067\C,0,30.404,
 29.435,8.929\C,0,28.164,29.159,7.913\C,0,27.306,28.577,6.891\C,0,25.92
 8,29.19,7.132\C,0,26.09,30.098,8.247\C,0,25.087,30.875,8.8\H,0,24.072,
 30.658,8.469\C,0,27.084,33.906,12.035\H,0,26.725,34.773,12.588\C,0,31.
 341,31.661,11.555\H,0,32.301,31.723,12.067\C,0,29.496,28.891,8.053\H,0
 ,29.895,28.139,7.373\C,0,24.058,34.79,11.878\H,0,22.983,34.834,11.602\
 H,0,24.537,35.758,11.618\H,0,24.142,34.606,12.97\C,0,22.698,32.736,9.7
 39\H,0,22.125,32.049,10.397\H,0,22.65,32.359,8.695\H,0,22.248,33.75,9.
 797\C,0,28.98,35.348,14.111\H,0,28.046,35.104,14.662\H,0,28.816,36.271
 ,13.515\H,0,29.799,35.51,14.844\C,0,31.887,33.774,13.763\H,0,32.398,32
 .923,14.237\C,0,32.455,34.983,13.853\H,0,31.977,35.86,13.393\H,0,33.40
 7,35.114,14.388\C,0,33.811,29.849,10.541\H,0,34.01,28.921,11.119\H,0,3
 4.,30.728,11.194\H,0,34.488,29.877,9.661\C,0,32.658,28.043,8.284\H,0,3
 3.553,27.609,8.754\C,0,32.35,27.62,7.063\H,0,31.467,28.017,6.541\H,0,3
 2.974,26.868,6.559\C,0,27.691,27.515,5.84\H,0,28.031,26.591,6.354\H,0,
 28.518,27.898,5.204\H,0,26.808,27.273,5.21\C,0,24.624,28.929,6.348\H,0
 ,23.991,28.21,6.91\H,0,24.864,28.496,5.353\H,0,24.064,29.881,6.223\O,0
 ,28.544,32.815,8.583\O,0,29.71,33.126,8.694\C,0,27.587,26.581,13.118\H
 ,0,28.403,26.031,12.602\H,0,26.623,26.068,12.916\H,0,27.792,26.588,14.
 21\N,0,26.601,28.9,13.062\H,0,25.928,28.719,13.78\C,0,27.53,27.984,12.
 606\C,0,26.751,30.038,12.398\H,0,26.162,30.938,12.572\N,0,27.721,29.87
 8,11.512\C,0,28.218,28.599,11.614\H,0,29.015,28.249,10.97\\Version=ES6
 4L-G16RevC.02\State=2-A\HF=-3057.6049296\S2=2.295316\S2-1=0.\S2A=2.814
 794\RMSD=2.594e-09\Dipole=-1.0264153,-1.1103816,1.4063618\Quadrupole=1
 2.2395964,-4.2713156,-7.9682808,-5.6409264,1.789744,17.876081\PG=C01 [
 X(C34H34Fe1N6O2)]\\@
 The archive entry for this job was punched.


 ALMOST ALL THE CHEMICAL PROCESSES WHICH OCCUR IN NATURE,
 WHETHER IN ANIMAL OR VEGETABLE ORGANISMS,
 OR IN THE NON-LIVING SURFACE OF THE EARTH ... 
 TAKE PLACE BETWEEN SUBSTANCES IN SOLUTION

                                    -- W. OSTWALD, 1890
 Job cpu time:       1 days  3 hours 43 minutes 53.9 seconds.
 Elapsed time:       0 days  0 hours 26 minutes 11.1 seconds.
 File lengths (MBytes):  RWF=   2220 Int=      0 D2E=      0 Chk=    202 Scr=      1
 Normal termination of Gaussian 16 at Fri Sep  6 11:01:29 2024.
