 Entering Gaussian System, Link 0=g16
 Input=2w6w01.com
 Output=2w6w01.log
 Initial command:
 /sw/chem/gaussian/g16_C02/a100/g16/l1.exe "/local/becsleip_8009106/Gau-928210.inp" -scrdir="/local/becsleip_8009106/"
 Entering Link 1 = /sw/chem/gaussian/g16_C02/a100/g16/l1.exe PID=    928211.
  
 Copyright (c) 1988-2021, Gaussian, Inc.  All Rights Reserved.
  
 This is part of the Gaussian(R) 16 program.  It is based on
 the Gaussian(R) 09 system (copyright 2009, Gaussian, Inc.),
 the Gaussian(R) 03 system (copyright 2003, Gaussian, Inc.),
 the Gaussian(R) 98 system (copyright 1998, Gaussian, Inc.),
 the Gaussian(R) 94 system (copyright 1995, Gaussian, Inc.),
 the Gaussian 92(TM) system (copyright 1992, Gaussian, Inc.),
 the Gaussian 90(TM) system (copyright 1990, Gaussian, Inc.),
 the Gaussian 88(TM) system (copyright 1988, Gaussian, Inc.),
 the Gaussian 86(TM) system (copyright 1986, Carnegie Mellon
 University), and the Gaussian 82(TM) system (copyright 1983,
 Carnegie Mellon University). Gaussian is a federally registered
 trademark of Gaussian, Inc.
  
 This software contains proprietary and confidential information,
 including trade secrets, belonging to Gaussian, Inc.
  
 This software is provided under written license and may be
 used, copied, transmitted, or stored only in accord with that
 written license.
  
 The following legend is applicable only to US Government
 contracts under FAR:
  
                    RESTRICTED RIGHTS LEGEND
  
 Use, reproduction and disclosure by the US Government is
 subject to restrictions as set forth in subparagraphs (a)
 and (c) of the Commercial Computer Software - Restricted
 Rights clause in FAR 52.227-19.
  
 Gaussian, Inc.
 340 Quinnipiac St., Bldg. 40, Wallingford CT 06492
  
  
 ---------------------------------------------------------------
 Warning -- This program may not be used in any manner that
 competes with the business of Gaussian, Inc. or will provide
 assistance to any competitor of Gaussian, Inc.  The licensee
 of this program is prohibited from giving any competitor of
 Gaussian, Inc. access to this program.  By using this program,
 the user acknowledges that Gaussian, Inc. is engaged in the
 business of creating and licensing software in the field of
 computational chemistry and represents and warrants to the
 licensee that it is not a competitor of Gaussian, Inc. and that
 it will not use this program in any manner prohibited above.
 ---------------------------------------------------------------
  

 Cite this work as:
 Gaussian 16, Revision C.02,
 M. J. Frisch, G. W. Trucks, H. B. Schlegel, G. E. Scuseria, 
 M. A. Robb, J. R. Cheeseman, G. Scalmani, V. Barone, 
 G. A. Petersson, H. Nakatsuji, X. Li, M. Caricato, A. V. Marenich, 
 J. Bloino, B. G. Janesko, R. Gomperts, B. Mennucci, H. P. Hratchian, 
 J. V. Ortiz, A. F. Izmaylov, J. L. Sonnenberg, D. Williams-Young, 
 F. Ding, F. Lipparini, F. Egidi, J. Goings, B. Peng, A. Petrone, 
 T. Henderson, D. Ranasinghe, V. G. Zakrzewski, J. Gao, N. Rega, 
 G. Zheng, W. Liang, M. Hada, M. Ehara, K. Toyota, R. Fukuda, 
 J. Hasegawa, M. Ishida, T. Nakajima, Y. Honda, O. Kitao, H. Nakai, 
 T. Vreven, K. Throssell, J. A. Montgomery, Jr., J. E. Peralta, 
 F. Ogliaro, M. J. Bearpark, J. J. Heyd, E. N. Brothers, K. N. Kudin, 
 V. N. Staroverov, T. A. Keith, R. Kobayashi, J. Normand, 
 K. Raghavachari, A. P. Rendell, J. C. Burant, S. S. Iyengar, 
 J. Tomasi, M. Cossi, J. M. Millam, M. Klene, C. Adamo, R. Cammi, 
 J. W. Ochterski, R. L. Martin, K. Morokuma, O. Farkas, 
 J. B. Foresman, and D. J. Fox, Gaussian, Inc., Wallingford CT, 2019.
 
 ******************************************
 Gaussian 16:  ES64L-G16RevC.02  7-Dec-2021
                 9-Sep-2024 
 ******************************************
 %mem=16GB
 %CPU=0-71
 SetSPE:  set environment variable "OMP_PROC_BIND" = "true"
 SetSPE:  set environment variable "OMP_PLACES" = "{0},{1},{2},{3},{4},{5},{6},{7},{8},{9},{10},{11},{12},{13},{14},{15},{16},{17},{18},{19},{20},{21},{22},{23},{24},{25},{26},{27},{28},{29},{30},{31},{32},{33},{34},{35},{36},{37},{38},{39},{40},{41},{42},{43},{44},{45},{46},{47},{48},{49},{50},{51},{52},{53},{54},{55},{56},{57},{58},{59},{60},{61},{62},{63},{64},{65},{66},{67},{68},{69},{70},{71}"
 Will use up to   72 processors via shared memory.
 %gpucpu=0,1,2,3=0,1,2,3
 Will use    4 GPUs:
 Thread  CPU   GPU
      0    0     0
      1    1     1
      2    2     2
      3    3     3
      4    4    -1
      5    5    -1
      6    6    -1
      7    7    -1
      8    8    -1
      9    9    -1
     10   10    -1
     11   11    -1
     12   12    -1
     13   13    -1
     14   14    -1
     15   15    -1
     16   16    -1
     17   17    -1
     18   18    -1
     19   19    -1
     20   20    -1
     21   21    -1
     22   22    -1
     23   23    -1
     24   24    -1
     25   25    -1
     26   26    -1
     27   27    -1
     28   28    -1
     29   29    -1
     30   30    -1
     31   31    -1
     32   32    -1
     33   33    -1
     34   34    -1
     35   35    -1
     36   36    -1
     37   37    -1
     38   38    -1
     39   39    -1
     40   40    -1
     41   41    -1
     42   42    -1
     43   43    -1
     44   44    -1
     45   45    -1
     46   46    -1
     47   47    -1
     48   48    -1
     49   49    -1
     50   50    -1
     51   51    -1
     52   52    -1
     53   53    -1
     54   54    -1
     55   55    -1
     56   56    -1
     57   57    -1
     58   58    -1
     59   59    -1
     60   60    -1
     61   61    -1
     62   62    -1
     63   63    -1
     64   64    -1
     65   65    -1
     66   66    -1
     67   67    -1
     68   68    -1
     69   69    -1
     70   70    -1
     71   71    -1
 SetGPE:  set environment variable "OMP_PROC_BIND" = "true"
 SetGPE:  set environment variable "OMP_PLACES" = "{0},{1},{2},{3},{4},{5},{6},{7},{8},{9},{10},{11},{12},{13},{14},{15},{16},{17},{18},{19},{20},{21},{22},{23},{24},{25},{26},{27},{28},{29},{30},{31},{32},{33},{34},{35},{36},{37},{38},{39},{40},{41},{42},{43},{44},{45},{46},{47},{48},{49},{50},{51},{52},{53},{54},{55},{56},{57},{58},{59},{60},{61},{62},{63},{64},{65},{66},{67},{68},{69},{70},{71}"
 %chk=2w6w_II_O.chk
 Properties for Device   0
 Minimum vector length:                              32
 Maximum vector length:                            1024
 Number of SMPs:                                    108
 Maximum number of threads per SMP:                2048
 Number of ASync Engines:                             5
 Memory:                                           9207742464
 Properties for Device   1
 Minimum vector length:                              32
 Maximum vector length:                            1024
 Number of SMPs:                                    108
 Maximum number of threads per SMP:                2048
 Number of ASync Engines:                             5
 Memory:                                           9207742464
 Properties for Device   2
 Minimum vector length:                              32
 Maximum vector length:                            1024
 Number of SMPs:                                    108
 Maximum number of threads per SMP:                2048
 Number of ASync Engines:                             5
 Memory:                                           9207742464
 Properties for Device   3
 Minimum vector length:                              32
 Maximum vector length:                            1024
 Number of SMPs:                                    108
 Maximum number of threads per SMP:                2048
 Number of ASync Engines:                             5
 Memory:                                           9207742464
   8286968217 words of memory will be used on each GPU.
 ------------------------------------------
 # polar def2tzvp apfd int=(grid=ultrafine)
 ------------------------------------------
 1/38=1,172=1/1;
 2/12=2,17=6,18=5,40=1/2;
 3/5=44,7=101,11=2,25=1,30=1,74=-44,75=-5/1,2,3;
 4//1;
 5/5=2,38=5,98=1/2;
 8/6=4,10=90,11=11/1;
 10/6=1,13=10/2;
 6/7=2,8=2,9=2,10=2,28=1/1;
 99/5=1,9=1/99;
 ---------
 2w6w_II_S
 ---------
 Symbolic Z-matrix:
 Charge =  0 Multiplicity = 1
 Fe                    34.95884   3.70128   10.2001 
 N                     36.86221   3.44295   9.63023 
 N                     34.7616   5.1205    8.76365 
 N                     33.0754   4.0896    10.79687 
 N                     35.20203   2.41282   11.68811 
 C                     37.74065   2.55463   10.16644 
 C                     38.96971   2.52404   9.40403 
 C                     38.81334   3.41949   8.39293 
 C                     37.48938   3.98054   8.5512 
 C                     35.66401   5.42994   7.79327 
 C                     35.09731   6.33805   6.82875 
 C                     33.81772   6.58976   7.24543 
 C                     33.6328   5.8122    8.45632 
 C                     32.24325   5.0624    10.3332 
 C                     31.09554   5.21161   11.18678 
 C                     31.24641   4.29671   12.19721 
 C                     32.50255   3.62131   11.93855 
 C                     34.31087   2.13286   12.67446 
 C                     34.91007   1.28612   13.68327 
 C                     36.18777   1.05954   13.27753 
 C                     36.35255   1.77768   12.03172 
 C                     37.52491   1.79444   11.30131 
 H                     38.34184   1.18349   11.65422 
 C                     36.95625   4.93884   7.71279 
 H                     37.57751   5.29542   6.90524 
 C                     32.46438   5.81404   9.19143 
 H                     31.67618   6.48023   8.8757 
 C                     33.02323   2.6309    12.75464 
 H                     32.42118   2.30946   13.59107 
 C                     39.76278   3.79678   7.30729 
 H                     40.69533   3.24552   7.40011 
 H                     39.98919   4.86238   7.34919 
 H                     39.33372   3.58149   6.32794 
 C                     40.13738   1.65426   9.72257 
 H                     39.84436   0.60421   9.72131 
 H                     40.53504   1.89258   10.70959 
 H                     40.93195   1.78987   8.99266 
 C                     35.7831   6.82279   5.59876 
 H                     36.39986   6.03722   5.16387 
 H                     36.4296   7.67312   5.82251 
 H                     35.04732   7.13634   4.86058 
 C                     32.80291   7.41999   6.63518 
 H                     31.78196   7.07557   6.75446 
 C                     33.02804   8.54692   5.96689 
 H                     34.015    8.96191   5.85863 
 H                     32.22261   9.11119   5.52652 
 C                     30.02737   6.23491   11.01496 
 H                     29.27084   5.89254   10.30695 
 H                     30.44383   7.16784   10.63806 
 H                     29.54027   6.4302    11.96838 
 C                     30.39475   4.04892   13.33914 
 H                     30.90369   3.74416   14.24641 
 C                     29.06998   4.15741   13.35208 
 H                     28.50672   4.40929   12.47079 
 H                     28.49856   3.96954   14.24605 
 C                     34.20493   0.80257   14.90404 
 H                     33.31079   0.24035   14.63397 
 H                     33.89957   1.64259   15.52883 
 H                     34.85088   0.15631   15.49328 
 C                     37.26288   0.2669    13.93861 
 H                     36.90567  -0.17184   14.8671 
 H                     38.12145   0.89927   14.16567 
 H                     37.60033  -0.53865   13.28593 
 O                     35.517    5.362     11.649 
 H                     34.674    5.717     11.932 
 H                     36.319    5.628     11.926 
 C                     32.2437  -0.56563   7.9004 
 H                     31.55773  -0.34983   7.08116 
 H                     31.66443  -0.75955   8.79802 
 H                     32.80601  -1.4645    7.64655 
 N                     33.98757   1.07444   7.16476 
 H                     34.06063   0.72937   6.22184 
 C                     33.15808   0.58007   8.13735 
 C                     34.6785   2.10644   7.70113 
 H                     35.40322   2.68589   7.16693 
 N                     34.33677   2.2946    8.95284 
 C                     33.39294   1.35169   9.23886 
 H                     32.94968   1.29549   10.21127 
 
 Stoichiometry    C34H36FeN6O
 Framework group  C1[X(C34H36FeN6O)]
 Deg. of freedom   228
 Full point group                 C1      NOp   1
 Largest Abelian subgroup         C1      NOp   1
 Largest concise Abelian subgroup C1      NOp   1
                         Standard orientation:                         
 ---------------------------------------------------------------------
 Center     Atomic      Atomic             Coordinates (Angstroms)
 Number     Number       Type             X           Y           Z
 ---------------------------------------------------------------------
      1         26           0       -0.032012   -0.209730   -0.314727
      2          7           0       -1.450769   -1.610767   -0.510989
      3          7           0       -1.470940    1.213194   -0.460593
      4          7           0        1.355466    1.247340   -0.236371
      5          7           0        1.379820   -1.602618   -0.311104
      6          6           0       -1.250160   -2.955302   -0.494484
      7          6           0       -2.512040   -3.662739   -0.495982
      8          6           0       -3.482592   -2.710785   -0.516353
      9          6           0       -2.798370   -1.436230   -0.523129
     10          6           0       -2.817041    1.014091   -0.470432
     11          6           0       -3.526813    2.264264   -0.373508
     12          6           0       -2.571739    3.243588   -0.317822
     13          6           0       -1.294289    2.557709   -0.370297
     14          6           0        1.158225    2.587538   -0.373334
     15          6           0        2.407484    3.279886   -0.541000
     16          6           0        3.386703    2.320438   -0.503960
     17          6           0        2.699123    1.056213   -0.330940
     18          6           0        2.722653   -1.398672   -0.336137
     19          6           0        3.429037   -2.648713   -0.515361
     20          6           0        2.475530   -3.614614   -0.594971
     21          6           0        1.201157   -2.939589   -0.471582
     22          6           0       -0.019361   -3.585683   -0.504823
     23          1           0       -0.012323   -4.663489   -0.563820
     24          6           0       -3.445775   -0.217302   -0.547373
     25          1           0       -4.524712   -0.226927   -0.579653
     26          6           0       -0.078196    3.210772   -0.354825
     27          1           0       -0.090055    4.289860   -0.368176
     28          6           0        3.346403   -0.166407   -0.265827
     29          1           0        4.425774   -0.158175   -0.282901
     30          6           0       -4.964780   -2.870139   -0.527674
     31          1           0       -5.240777   -3.921789   -0.525184
     32          1           0       -5.393523   -2.405615   -1.415880
     33          1           0       -5.410014   -2.397165    0.348469
     34          6           0       -2.645852   -5.147049   -0.476859
     35          1           0       -2.153597   -5.564632    0.401655
     36          1           0       -2.184440   -5.585059   -1.362508
     37          1           0       -3.692484   -5.441389   -0.456368
     38          6           0       -5.006493    2.407350   -0.282757
     39          1           0       -5.438054    1.601701    0.309969
     40          1           0       -5.462388    2.377353   -1.273892
     41          1           0       -5.261375    3.357311    0.183297
     42          6           0       -2.734883    4.675617   -0.198704
     43          1           0       -1.965387    5.189265    0.366315
     44          6           0       -3.727684    5.384997   -0.726320
     45          1           0       -4.491891    4.936019   -1.336590
     46          1           0       -3.793658    6.451506   -0.587578
     47          6           0        2.550276    4.740576   -0.793270
     48          1           0        2.536096    5.300389    0.143334
     49          1           0        1.735432    5.105950   -1.416492
     50          1           0        3.493111    4.942092   -1.298112
     51          6           0        4.816892    2.469260   -0.655993
     52          1           0        5.325478    1.643510   -1.140259
     53          6           0        5.532040    3.513001   -0.248401
     54          1           0        5.090323    4.339462    0.280018
     55          1           0        6.596568    3.562566   -0.407468
     56          6           0        4.912062   -2.774053   -0.594506
     57          1           0        5.380105   -2.372755    0.304614
     58          1           0        5.298615   -2.221571   -1.451580
     59          1           0        5.207129   -3.815310   -0.698625
     60          6           0        2.632259   -5.083411   -0.793083
     61          1           0        3.682554   -5.354409   -0.868187
     62          1           0        2.129003   -5.403389   -1.705741
     63          1           0        2.195552   -5.630701    0.042689
     64          8           0        0.247997   -0.040842   -2.564597
     65          1           0        0.824328    0.716286   -2.671190
     66          1           0       -0.070294   -0.555038   -3.216503
     67          6           0        1.056436   -0.108522    5.132489
     68          1           0        0.742188    0.769000    5.697723
     69          1           0        2.130056   -0.057866    4.978697
     70          1           0        0.829898   -0.995055    5.725216
     71          7           0       -0.996733   -0.194805    3.700997
     72          1           0       -1.653430   -0.183091    4.463966
     73          6           0        0.368449   -0.162253    3.817702
     74          6           0       -1.294329   -0.238883    2.382064
     75          1           0       -2.291014   -0.269985    1.992193
     76          7           0       -0.201246   -0.236293    1.658099
     77          6           0        0.841206   -0.190371    2.537239
     78          1           0        1.853131   -0.178997    2.189254
 ---------------------------------------------------------------------
 Rotational constants (GHZ):           0.0928926           0.0911003           0.0593075
 Standard basis: def2TZVP (5D, 7F)
 There are  1744 symmetry adapted cartesian basis functions of A   symmetry.
 There are  1532 symmetry adapted basis functions of A   symmetry.
  1532 basis functions,  2481 primitive gaussians,  1744 cartesian basis functions
   158 alpha electrons      158 beta electrons
       nuclear repulsion energy      5964.9919139031 Hartrees.
 NAtoms=   78 NActive=   78 NUniq=   78 SFac= 1.00D+00 NAtFMM=   60 NAOKFM=T Big=T
 Integral buffers will be    131072 words long.
 Raffenetti 2 integral format.
 Two-electron integral symmetry is turned on.
 R6APFD:  NTU= -4 IXU= 1 FactS= 1.050
 Nuclear repulsion after empirical dispersion term =     5964.8388229937 Hartrees.
 One-electron integrals computed using PRISM.
   1 Symmetry operations used in ECPInt.
 ECPInt:  NShTT=  186355 NPrTT=  576197 LenC2=  147121 LenP2D=  301056.
 LDataN:  DoStor=T MaxTD1= 6 Len=  172
 Number of processors reduced to  23 by ecpmxn.
 NBasis=  1532 RedAO= T EigKep=  3.33D-06  NBF=  1532
 NBsUse=  1532 1.00D-06 EigRej= -1.00D+00 NBFU=  1532
 ExpMin= 4.20D-02 ExpMax= 3.01D+05 ExpMxC= 2.91D+03 IAcc=3 IRadAn=         5 AccDes= 0.00D+00
 Harris functional with IExCor= 3731 and IRadAn=       5 diagonalized for initial guess.
 HarFok:  IExCor= 3731 AccDes= 0.00D+00 IRadAn=         5 IDoV= 1 UseB2=F ITyADJ=14
 ICtDFT=  3500011 ScaDFX=  1.000000  1.000000  1.000000  1.000000
 FoFCou: FMM=F IPFlag=           0 FMFlag=      100000 FMFlg1=        2001
         NFxFlg=           0 DoJE=T BraDBF=F KetDBF=T FulRan=T
         wScrn=  0.000000 ICntrl=       500 IOpCl=  0 I1Cent=   200000004 NGrid=           0
         NMat0=    1 NMatS0=      1 NMatT0=    0 NMatD0=    1 NMtDS0=    0 NMtDT0=    0
 Petite list used in FoFCou.
 Requested convergence on RMS density matrix=1.00D-08 within 128 cycles.
 Requested convergence on MAX density matrix=1.00D-06.
 Requested convergence on             energy=1.00D-06.
 No special actions if energy rises.
 EnCoef did     3 forward-backward iterations
 EnCoef did   100 forward-backward iterations
 EnCoef did   100 forward-backward iterations
 EnCoef did   100 forward-backward iterations
 EnCoef did     6 forward-backward iterations
 EnCoef did     7 forward-backward iterations
 EnCoef did     6 forward-backward iterations
 Restarting incremental Fock formation.
 SCF Done:  E(RAPFD) =  -2984.02336034     A.U. after   26 cycles
            NFock= 26  Conv=0.37D-08     -V/T= 2.0034
 DoSCS=F DFT=T ScalE2(SS,OS)=  1.000000  1.000000
 Range of M.O.s used for correlation:     1  1532
 NBasis=  1532 NAE=   158 NBE=   158 NFC=     0 NFV=     0
 NROrb=   1532 NOA=   158 NOB=   158 NVA=  1374 NVB=  1374

 **** Warning!!: The largest alpha MO coefficient is  0.44872193D+02

          Differentiating once with respect to electric field.
                with respect to dipole field.
          Electric field/nuclear overlap derivatives assumed to be zero.
          There are     3 degrees of freedom in the 1st order CPHF.  IDoFFX=0 NUNeed=     3.
      3 vectors produced by pass  0 Test12= 7.24D-12 3.33D-08 XBig12= 1.87D+03 2.38D+01.
 AX will form     3 AO Fock derivatives at one time.
      3 vectors produced by pass  1 Test12= 7.24D-12 3.33D-08 XBig12= 1.24D+03 8.70D+00.
      3 vectors produced by pass  2 Test12= 7.24D-12 3.33D-08 XBig12= 3.50D+02 4.83D+00.
      3 vectors produced by pass  3 Test12= 7.24D-12 3.33D-08 XBig12= 2.45D+02 3.27D+00.
      3 vectors produced by pass  4 Test12= 7.24D-12 3.33D-08 XBig12= 1.45D+02 1.79D+00.
      3 vectors produced by pass  5 Test12= 7.24D-12 3.33D-08 XBig12= 5.64D+01 1.80D+00.
      3 vectors produced by pass  6 Test12= 7.24D-12 3.33D-08 XBig12= 4.49D+01 1.49D+00.
      3 vectors produced by pass  7 Test12= 7.24D-12 3.33D-08 XBig12= 2.23D+01 9.98D-01.
      3 vectors produced by pass  8 Test12= 7.24D-12 3.33D-08 XBig12= 1.31D+01 6.94D-01.
      3 vectors produced by pass  9 Test12= 7.24D-12 3.33D-08 XBig12= 5.67D+00 5.28D-01.
      3 vectors produced by pass 10 Test12= 7.24D-12 3.33D-08 XBig12= 3.13D+00 3.08D-01.
      3 vectors produced by pass 11 Test12= 7.24D-12 3.33D-08 XBig12= 1.04D+00 1.81D-01.
      3 vectors produced by pass 12 Test12= 7.24D-12 3.33D-08 XBig12= 4.51D-01 1.20D-01.
      3 vectors produced by pass 13 Test12= 7.24D-12 3.33D-08 XBig12= 1.25D-01 4.97D-02.
      3 vectors produced by pass 14 Test12= 7.24D-12 3.33D-08 XBig12= 4.45D-02 2.62D-02.
      3 vectors produced by pass 15 Test12= 7.24D-12 3.33D-08 XBig12= 1.64D-02 2.50D-02.
      3 vectors produced by pass 16 Test12= 7.24D-12 3.33D-08 XBig12= 6.32D-03 2.13D-02.
      3 vectors produced by pass 17 Test12= 7.24D-12 3.33D-08 XBig12= 2.37D-03 1.03D-02.
      3 vectors produced by pass 18 Test12= 7.24D-12 3.33D-08 XBig12= 9.25D-04 6.52D-03.
      3 vectors produced by pass 19 Test12= 7.24D-12 3.33D-08 XBig12= 1.76D-04 3.31D-03.
      3 vectors produced by pass 20 Test12= 7.24D-12 3.33D-08 XBig12= 6.59D-05 2.35D-03.
      3 vectors produced by pass 21 Test12= 7.24D-12 3.33D-08 XBig12= 1.30D-05 7.87D-04.
      3 vectors produced by pass 22 Test12= 7.24D-12 3.33D-08 XBig12= 2.95D-06 3.84D-04.
      3 vectors produced by pass 23 Test12= 7.24D-12 3.33D-08 XBig12= 5.90D-07 1.56D-04.
      3 vectors produced by pass 24 Test12= 7.24D-12 3.33D-08 XBig12= 1.13D-07 8.17D-05.
      3 vectors produced by pass 25 Test12= 7.24D-12 3.33D-08 XBig12= 1.80D-08 1.91D-05.
      3 vectors produced by pass 26 Test12= 7.24D-12 3.33D-08 XBig12= 3.54D-09 7.26D-06.
      3 vectors produced by pass 27 Test12= 7.24D-12 3.33D-08 XBig12= 4.48D-10 2.56D-06.
      3 vectors produced by pass 28 Test12= 7.24D-12 3.33D-08 XBig12= 6.86D-11 8.61D-07.
      3 vectors produced by pass 29 Test12= 7.24D-12 3.33D-08 XBig12= 1.13D-11 5.07D-07.
      3 vectors produced by pass 30 Test12= 7.24D-12 3.33D-08 XBig12= 1.16D-12 1.93D-07.
      1 vectors produced by pass 31 Test12= 7.24D-12 3.33D-08 XBig12= 1.22D-13 5.99D-08.
 InvSVY:  IOpt=1 It=  1 EMax= 2.13D-14
 Solved reduced A of dimension    94 with     3 vectors.
 Isotropic polarizability for W=    0.000000      576.47 Bohr**3.
 End of Minotr F.D. properties file   721 does not exist.
 End of Minotr F.D. properties file   722 does not exist.
 End of Minotr F.D. properties file   788 does not exist.

 **********************************************************************

            Population analysis using the SCF Density.

 **********************************************************************

 Orbital symmetries:
       Occupied  (A) (A) (A) (A) (A) (A) (A) (A) (A) (A) (A) (A)
                 (A) (A) (A) (A) (A) (A) (A) (A) (A) (A) (A) (A)
                 (A) (A) (A) (A) (A) (A) (A) (A) (A) (A) (A) (A)
                 (A) (A) (A) (A) (A) (A) (A) (A) (A) (A) (A) (A)
                 (A) (A) (A) (A) (A) (A) (A) (A) (A) (A) (A) (A)
                 (A) (A) (A) (A) (A) (A) (A) (A) (A) (A) (A) (A)
                 (A) (A) (A) (A) (A) (A) (A) (A) (A) (A) (A) (A)
                 (A) (A) (A) (A) (A) (A) (A) (A) (A) (A) (A) (A)
                 (A) (A) (A) (A) (A) (A) (A) (A) (A) (A) (A) (A)
                 (A) (A) (A) (A) (A) (A) (A) (A) (A) (A) (A) (A)
                 (A) (A) (A) (A) (A) (A) (A) (A) (A) (A) (A) (A)
                 (A) (A) (A) (A) (A) (A) (A) (A) (A) (A) (A) (A)
                 (A) (A) (A) (A) (A) (A) (A) (A) (A) (A) (A) (A)
                 (A) (A)
       Virtual   (A) (A) (A) (A) (A) (A) (A) (A) (A) (A) (A) (A)
                 (A) (A) (A) (A) (A) (A) (A) (A) (A) (A) (A) (A)
                 (A) (A) (A) (A) (A) (A) (A) (A) (A) (A) (A) (A)
                 (A) (A) (A) (A) (A) (A) (A) (A) (A) (A) (A) (A)
                 (A) (A) (A) (A) (A) (A) (A) (A) (A) (A) (A) (A)
                 (A) (A) (A) (A) (A) (A) (A) (A) (A) (A) (A) (A)
                 (A) (A) (A) (A) (A) (A) (A) (A) (A) (A) (A) (A)
                 (A) (A) (A) (A) (A) (A) (A) (A) (A) (A) (A) (A)
                 (A) (A) (A) (A) (A) (A) (A) (A) (A) (A) (A) (A)
                 (A) (A) (A) (A) (A) (A) (A) (A) (A) (A) (A) (A)
                 (A) (A) (A) (A) (A) (A) (A) (A) (A) (A) (A) (A)
                 (A) (A) (A) (A) (A) (A) (A) (A) (A) (A) (A) (A)
                 (A) (A) (A) (A) (A) (A) (A) (A) (A) (A) (A) (A)
                 (A) (A) (A) (A) (A) (A) (A) (A) (A) (A) (A) (A)
                 (A) (A) (A) (A) (A) (A) (A) (A) (A) (A) (A) (A)
                 (A) (A) (A) (A) (A) (A) (A) (A) (A) (A) (A) (A)
                 (A) (A) (A) (A) (A) (A) (A) (A) (A) (A) (A) (A)
                 (A) (A) (A) (A) (A) (A) (A) (A) (A) (A) (A) (A)
                 (A) (A) (A) (A) (A) (A) (A) (A) (A) (A) (A) (A)
                 (A) (A) (A) (A) (A) (A) (A) (A) (A) (A) (A) (A)
                 (A) (A) (A) (A) (A) (A) (A) (A) (A) (A) (A) (A)
                 (A) (A) (A) (A) (A) (A) (A) (A) (A) (A) (A) (A)
                 (A) (A) (A) (A) (A) (A) (A) (A) (A) (A) (A) (A)
                 (A) (A) (A) (A) (A) (A) (A) (A) (A) (A) (A) (A)
                 (A) (A) (A) (A) (A) (A) (A) (A) (A) (A) (A) (A)
                 (A) (A) (A) (A) (A) (A) (A) (A) (A) (A) (A) (A)
                 (A) (A) (A) (A) (A) (A) (A) (A) (A) (A) (A) (A)
                 (A) (A) (A) (A) (A) (A) (A) (A) (A) (A) (A) (A)
                 (A) (A) (A) (A) (A) (A) (A) (A) (A) (A) (A) (A)
                 (A) (A) (A) (A) (A) (A) (A) (A) (A) (A) (A) (A)
                 (A) (A) (A) (A) (A) (A) (A) (A) (A) (A) (A) (A)
                 (A) (A) (A) (A) (A) (A) (A) (A) (A) (A) (A) (A)
                 (A) (A) (A) (A) (A) (A) (A) (A) (A) (A) (A) (A)
                 (A) (A) (A) (A) (A) (A) (A) (A) (A) (A) (A) (A)
                 (A) (A) (A) (A) (A) (A) (A) (A) (A) (A) (A) (A)
                 (A) (A) (A) (A) (A) (A) (A) (A) (A) (A) (A) (A)
                 (A) (A) (A) (A) (A) (A) (A) (A) (A) (A) (A) (A)
                 (A) (A) (A) (A) (A) (A) (A) (A) (A) (A) (A) (A)
                 (A) (A) (A) (A) (A) (A) (A) (A) (A) (A) (A) (A)
                 (A) (A) (A) (A) (A) (A) (A) (A) (A) (A) (A) (A)
                 (A) (A) (A) (A) (A) (A) (A) (A) (A) (A) (A) (A)
                 (A) (A) (A) (A) (A) (A) (A) (A) (A) (A) (A) (A)
                 (A) (A) (A) (A) (A) (A) (A) (A) (A) (A) (A) (A)
                 (A) (A) (A) (A) (A) (A) (A) (A) (A) (A) (A) (A)
                 (A) (A) (A) (A) (A) (A) (A) (A) (A) (A) (A) (A)
                 (A) (A) (A) (A) (A) (A) (A) (A) (A) (A) (A) (A)
                 (A) (A) (A) (A) (A) (A) (A) (A) (A) (A) (A) (A)
                 (A) (A) (A) (A) (A) (A) (A) (A) (A) (A) (A) (A)
                 (A) (A) (A) (A) (A) (A) (A) (A) (A) (A) (A) (A)
                 (A) (A) (A) (A) (A) (A) (A) (A) (A) (A) (A) (A)
                 (A) (A) (A) (A) (A) (A) (A) (A) (A) (A) (A) (A)
                 (A) (A) (A) (A) (A) (A) (A) (A) (A) (A) (A) (A)
                 (A) (A) (A) (A) (A) (A) (A) (A) (A) (A) (A) (A)
                 (A) (A) (A) (A) (A) (A) (A) (A) (A) (A) (A) (A)
                 (A) (A) (A) (A) (A) (A) (A) (A) (A) (A) (A) (A)
                 (A) (A) (A) (A) (A) (A) (A) (A) (A) (A) (A) (A)
                 (A) (A) (A) (A) (A) (A) (A) (A) (A) (A) (A) (A)
                 (A) (A) (A) (A) (A) (A) (A) (A) (A) (A) (A) (A)
                 (A) (A) (A) (A) (A) (A) (A) (A) (A) (A) (A) (A)
                 (A) (A) (A) (A) (A) (A) (A) (A) (A) (A) (A) (A)
                 (A) (A) (A) (A) (A) (A) (A) (A) (A) (A) (A) (A)
                 (A) (A) (A) (A) (A) (A) (A) (A) (A) (A) (A) (A)
                 (A) (A) (A) (A) (A) (A) (A) (A) (A) (A) (A) (A)
                 (A) (A) (A) (A) (A) (A) (A) (A) (A) (A) (A) (A)
                 (A) (A) (A) (A) (A) (A) (A) (A) (A) (A) (A) (A)
                 (A) (A) (A) (A) (A) (A) (A) (A) (A) (A) (A) (A)
                 (A) (A) (A) (A) (A) (A) (A) (A) (A) (A) (A) (A)
                 (A) (A) (A) (A) (A) (A) (A) (A) (A) (A) (A) (A)
                 (A) (A) (A) (A) (A) (A) (A) (A) (A) (A) (A) (A)
                 (A) (A) (A) (A) (A) (A) (A) (A) (A) (A) (A) (A)
                 (A) (A) (A) (A) (A) (A) (A) (A) (A) (A) (A) (A)
                 (A) (A) (A) (A) (A) (A) (A) (A) (A) (A) (A) (A)
                 (A) (A) (A) (A) (A) (A) (A) (A) (A) (A) (A) (A)
                 (A) (A) (A) (A) (A) (A) (A) (A) (A) (A) (A) (A)
                 (A) (A) (A) (A) (A) (A) (A) (A) (A) (A) (A) (A)
                 (A) (A) (A) (A) (A) (A) (A) (A) (A) (A) (A) (A)
                 (A) (A) (A) (A) (A) (A) (A) (A) (A) (A) (A) (A)
                 (A) (A) (A) (A) (A) (A) (A) (A) (A) (A) (A) (A)
                 (A) (A) (A) (A) (A) (A) (A) (A) (A) (A) (A) (A)
                 (A) (A) (A) (A) (A) (A) (A) (A) (A) (A) (A) (A)
                 (A) (A) (A) (A) (A) (A) (A) (A) (A) (A) (A) (A)
                 (A) (A) (A) (A) (A) (A) (A) (A) (A) (A) (A) (A)
                 (A) (A) (A) (A) (A) (A) (A) (A) (A) (A) (A) (A)
                 (A) (A) (A) (A) (A) (A) (A) (A) (A) (A) (A) (A)
                 (A) (A) (A) (A) (A) (A) (A) (A) (A) (A) (A) (A)
                 (A) (A) (A) (A) (A) (A) (A) (A) (A) (A) (A) (A)
                 (A) (A) (A) (A) (A) (A) (A) (A) (A) (A) (A) (A)
                 (A) (A) (A) (A) (A) (A) (A) (A) (A) (A) (A) (A)
                 (A) (A) (A) (A) (A) (A) (A) (A) (A) (A) (A) (A)
                 (A) (A) (A) (A) (A) (A) (A) (A) (A) (A) (A) (A)
                 (A) (A) (A) (A) (A) (A) (A) (A) (A) (A) (A) (A)
                 (A) (A) (A) (A) (A) (A) (A) (A) (A) (A) (A) (A)
                 (A) (A) (A) (A) (A) (A) (A) (A) (A) (A) (A) (A)
                 (A) (A) (A) (A) (A) (A) (A) (A) (A) (A) (A) (A)
                 (A) (A) (A) (A) (A) (A) (A) (A) (A) (A) (A) (A)
                 (A) (A) (A) (A) (A) (A) (A) (A) (A) (A) (A) (A)
                 (A) (A) (A) (A) (A) (A) (A) (A) (A) (A) (A) (A)
                 (A) (A) (A) (A) (A) (A) (A) (A) (A) (A) (A) (A)
                 (A) (A) (A) (A) (A) (A) (A) (A) (A) (A) (A) (A)
                 (A) (A) (A) (A) (A) (A) (A) (A) (A) (A) (A) (A)
                 (A) (A) (A) (A) (A) (A) (A) (A) (A) (A) (A) (A)
                 (A) (A) (A) (A) (A) (A) (A) (A) (A) (A) (A) (A)
                 (A) (A) (A) (A) (A) (A) (A) (A) (A) (A) (A) (A)
                 (A) (A) (A) (A) (A) (A) (A) (A) (A) (A) (A) (A)
                 (A) (A) (A) (A) (A) (A) (A) (A) (A) (A) (A) (A)
                 (A) (A) (A) (A) (A) (A) (A) (A) (A) (A) (A) (A)
                 (A) (A) (A) (A) (A) (A) (A) (A) (A) (A) (A) (A)
                 (A) (A) (A) (A) (A) (A) (A) (A) (A) (A) (A) (A)
                 (A) (A) (A) (A) (A) (A) (A) (A) (A) (A) (A) (A)
                 (A) (A) (A) (A) (A) (A) (A) (A) (A) (A) (A) (A)
                 (A) (A) (A) (A) (A) (A) (A) (A) (A) (A) (A) (A)
                 (A) (A) (A) (A) (A) (A) (A) (A) (A) (A) (A) (A)
                 (A) (A) (A) (A) (A) (A) (A) (A) (A) (A) (A) (A)
                 (A) (A) (A) (A) (A) (A) (A) (A) (A) (A) (A) (A)
                 (A) (A) (A) (A) (A) (A)
 The electronic state is 1-A.
 Alpha  occ. eigenvalues -- -256.17522 -30.02480 -25.86647 -25.86250 -25.86223
 Alpha  occ. eigenvalues --  -19.17015 -14.41588 -14.36324 -14.33257 -14.32970
 Alpha  occ. eigenvalues --  -14.32951 -14.32834 -10.25313 -10.23567 -10.20986
 Alpha  occ. eigenvalues --  -10.20918 -10.20711 -10.20685 -10.20655 -10.20634
 Alpha  occ. eigenvalues --  -10.20616 -10.20517 -10.20514 -10.20449 -10.19507
 Alpha  occ. eigenvalues --  -10.19458 -10.18890 -10.18813 -10.18677 -10.18572
 Alpha  occ. eigenvalues --  -10.18504 -10.18452 -10.18436 -10.18431 -10.18427
 Alpha  occ. eigenvalues --  -10.18375 -10.18360 -10.18313 -10.18282 -10.18244
 Alpha  occ. eigenvalues --  -10.18241 -10.18223 -10.18208 -10.18091 -10.18073
 Alpha  occ. eigenvalues --  -10.18029  -3.40079  -2.16716  -2.15936  -2.15879
 Alpha  occ. eigenvalues --   -1.05177  -1.04828  -0.96693  -0.95832  -0.95641
 Alpha  occ. eigenvalues --   -0.94768  -0.90785  -0.82070  -0.81732  -0.81411
 Alpha  occ. eigenvalues --   -0.80503  -0.80229  -0.80091  -0.79409  -0.79324
 Alpha  occ. eigenvalues --   -0.76606  -0.75573  -0.74146  -0.73757  -0.72977
 Alpha  occ. eigenvalues --   -0.71690  -0.70849  -0.69994  -0.68060  -0.67730
 Alpha  occ. eigenvalues --   -0.67651  -0.64443  -0.63969  -0.63868  -0.61147
 Alpha  occ. eigenvalues --   -0.60588  -0.60321  -0.59862  -0.57635  -0.56396
 Alpha  occ. eigenvalues --   -0.55786  -0.54260  -0.53467  -0.53175  -0.52423
 Alpha  occ. eigenvalues --   -0.50883  -0.50871  -0.50385  -0.48574  -0.47689
 Alpha  occ. eigenvalues --   -0.47672  -0.47397  -0.47115  -0.44799  -0.44626
 Alpha  occ. eigenvalues --   -0.44553  -0.44283  -0.43948  -0.43369  -0.43297
 Alpha  occ. eigenvalues --   -0.43166  -0.43093  -0.42898  -0.42832  -0.42456
 Alpha  occ. eigenvalues --   -0.42351  -0.42256  -0.41617  -0.41562  -0.41367
 Alpha  occ. eigenvalues --   -0.41172  -0.41055  -0.40064  -0.40001  -0.39910
 Alpha  occ. eigenvalues --   -0.39429  -0.39241  -0.39104  -0.38851  -0.38503
 Alpha  occ. eigenvalues --   -0.38177  -0.37616  -0.37293  -0.37077  -0.36755
 Alpha  occ. eigenvalues --   -0.36069  -0.35812  -0.35442  -0.35225  -0.34257
 Alpha  occ. eigenvalues --   -0.34070  -0.33784  -0.33468  -0.33370  -0.31911
 Alpha  occ. eigenvalues --   -0.31500  -0.31080  -0.29847  -0.29543  -0.28794
 Alpha  occ. eigenvalues --   -0.28447  -0.26550  -0.26440  -0.24185  -0.23661
 Alpha  occ. eigenvalues --   -0.23293  -0.22537  -0.21830  -0.19080  -0.18311
 Alpha  occ. eigenvalues --   -0.17852  -0.17663  -0.17580
 Alpha virt. eigenvalues --   -0.06414  -0.06323  -0.01891   0.00544   0.01280
 Alpha virt. eigenvalues --    0.01637   0.02354   0.03065   0.03760   0.04546
 Alpha virt. eigenvalues --    0.04822   0.05347   0.05447   0.05929   0.06135
 Alpha virt. eigenvalues --    0.06237   0.06630   0.07134   0.07976   0.08255
 Alpha virt. eigenvalues --    0.08609   0.08893   0.09292   0.09566   0.10123
 Alpha virt. eigenvalues --    0.10126   0.10401   0.10598   0.11095   0.11332
 Alpha virt. eigenvalues --    0.11483   0.11661   0.12107   0.12387   0.12494
 Alpha virt. eigenvalues --    0.12621   0.12766   0.13098   0.13262   0.13497
 Alpha virt. eigenvalues --    0.13645   0.14124   0.14450   0.14582   0.14820
 Alpha virt. eigenvalues --    0.15050   0.15395   0.15483   0.15728   0.15822
 Alpha virt. eigenvalues --    0.16013   0.16186   0.16235   0.16524   0.16785
 Alpha virt. eigenvalues --    0.17045   0.17166   0.17511   0.17860   0.18011
 Alpha virt. eigenvalues --    0.18297   0.18951   0.19269   0.19675   0.19867
 Alpha virt. eigenvalues --    0.20097   0.20172   0.20535   0.20706   0.21062
 Alpha virt. eigenvalues --    0.21171   0.21508   0.21626   0.21932   0.22355
 Alpha virt. eigenvalues --    0.22665   0.22931   0.23049   0.23410   0.23793
 Alpha virt. eigenvalues --    0.24103   0.24598   0.24820   0.25335   0.25524
 Alpha virt. eigenvalues --    0.25577   0.26015   0.26487   0.26569   0.26877
 Alpha virt. eigenvalues --    0.27086   0.27524   0.27643   0.27843   0.28540
 Alpha virt. eigenvalues --    0.28766   0.28878   0.29109   0.29209   0.29465
 Alpha virt. eigenvalues --    0.29830   0.30037   0.30059   0.30296   0.30644
 Alpha virt. eigenvalues --    0.31016   0.31201   0.31382   0.32063   0.32284
 Alpha virt. eigenvalues --    0.32518   0.32649   0.32862   0.33008   0.33611
 Alpha virt. eigenvalues --    0.33975   0.34302   0.34428   0.34558   0.34933
 Alpha virt. eigenvalues --    0.35071   0.35279   0.35868   0.36037   0.36506
 Alpha virt. eigenvalues --    0.36812   0.37060   0.37276   0.37412   0.37845
 Alpha virt. eigenvalues --    0.38090   0.38535   0.38648   0.38686   0.38889
 Alpha virt. eigenvalues --    0.39088   0.39350   0.39600   0.39991   0.40179
 Alpha virt. eigenvalues --    0.40302   0.40455   0.40734   0.40904   0.41267
 Alpha virt. eigenvalues --    0.41530   0.41734   0.41838   0.42053   0.42359
 Alpha virt. eigenvalues --    0.42432   0.42906   0.43066   0.43310   0.43377
 Alpha virt. eigenvalues --    0.43707   0.43768   0.44058   0.44268   0.44352
 Alpha virt. eigenvalues --    0.44546   0.44889   0.44917   0.45259   0.45358
 Alpha virt. eigenvalues --    0.45955   0.46297   0.46587   0.46720   0.46791
 Alpha virt. eigenvalues --    0.47017   0.47140   0.47452   0.47623   0.47681
 Alpha virt. eigenvalues --    0.47835   0.47859   0.48066   0.48481   0.48646
 Alpha virt. eigenvalues --    0.49056   0.49484   0.49712   0.49888   0.50021
 Alpha virt. eigenvalues --    0.50119   0.50208   0.50418   0.50961   0.51174
 Alpha virt. eigenvalues --    0.51360   0.51536   0.51869   0.52077   0.52228
 Alpha virt. eigenvalues --    0.52399   0.52650   0.52878   0.52992   0.53478
 Alpha virt. eigenvalues --    0.53602   0.53945   0.54054   0.54346   0.54785
 Alpha virt. eigenvalues --    0.54880   0.55121   0.55313   0.55573   0.56053
 Alpha virt. eigenvalues --    0.56192   0.56400   0.56833   0.57003   0.57311
 Alpha virt. eigenvalues --    0.57543   0.58029   0.58445   0.58685   0.58855
 Alpha virt. eigenvalues --    0.59159   0.59392   0.59558   0.59680   0.60242
 Alpha virt. eigenvalues --    0.60856   0.61136   0.61225   0.61521   0.61860
 Alpha virt. eigenvalues --    0.62129   0.62431   0.62783   0.63062   0.63358
 Alpha virt. eigenvalues --    0.63530   0.64105   0.64311   0.64469   0.64668
 Alpha virt. eigenvalues --    0.65104   0.65377   0.65701   0.66085   0.66152
 Alpha virt. eigenvalues --    0.66425   0.66501   0.67014   0.67176   0.67334
 Alpha virt. eigenvalues --    0.68132   0.68556   0.68595   0.68888   0.69649
 Alpha virt. eigenvalues --    0.69675   0.70339   0.70519   0.70844   0.71736
 Alpha virt. eigenvalues --    0.71871   0.71920   0.72418   0.72802   0.72839
 Alpha virt. eigenvalues --    0.73339   0.73408   0.73938   0.74248   0.74396
 Alpha virt. eigenvalues --    0.74609   0.74700   0.75392   0.75598   0.75950
 Alpha virt. eigenvalues --    0.76266   0.76817   0.76922   0.77392   0.77467
 Alpha virt. eigenvalues --    0.77957   0.78369   0.78638   0.79066   0.79405
 Alpha virt. eigenvalues --    0.79534   0.79792   0.80153   0.80453   0.80859
 Alpha virt. eigenvalues --    0.80944   0.81127   0.81645   0.81789   0.82478
 Alpha virt. eigenvalues --    0.82658   0.83632   0.84136   0.84440   0.84599
 Alpha virt. eigenvalues --    0.85353   0.85667   0.85913   0.86364   0.86833
 Alpha virt. eigenvalues --    0.87112   0.87430   0.87968   0.88620   0.88973
 Alpha virt. eigenvalues --    0.89282   0.89503   0.89953   0.90346   0.90579
 Alpha virt. eigenvalues --    0.91276   0.91390   0.91689   0.91844   0.91987
 Alpha virt. eigenvalues --    0.92990   0.93197   0.93643   0.93925   0.94095
 Alpha virt. eigenvalues --    0.94353   0.94952   0.95085   0.95281   0.95786
 Alpha virt. eigenvalues --    0.95940   0.96682   0.97072   0.97332   0.97462
 Alpha virt. eigenvalues --    0.98181   0.98431   0.98972   0.99641   0.99819
 Alpha virt. eigenvalues --    1.00052   1.00339   1.00576   1.00817   1.01243
 Alpha virt. eigenvalues --    1.01599   1.01967   1.02499   1.02562   1.02890
 Alpha virt. eigenvalues --    1.03089   1.03501   1.03894   1.03975   1.04356
 Alpha virt. eigenvalues --    1.04640   1.04901   1.05101   1.05171   1.05277
 Alpha virt. eigenvalues --    1.05802   1.06482   1.07381   1.07703   1.08138
 Alpha virt. eigenvalues --    1.08442   1.08551   1.08941   1.09140   1.09723
 Alpha virt. eigenvalues --    1.10193   1.10936   1.11246   1.11616   1.12175
 Alpha virt. eigenvalues --    1.12540   1.13028   1.13271   1.13727   1.14310
 Alpha virt. eigenvalues --    1.14433   1.15446   1.15891   1.16155   1.16445
 Alpha virt. eigenvalues --    1.16959   1.17179   1.18158   1.18233   1.18430
 Alpha virt. eigenvalues --    1.19006   1.19446   1.19950   1.20315   1.20454
 Alpha virt. eigenvalues --    1.20873   1.20986   1.21626   1.21696   1.22145
 Alpha virt. eigenvalues --    1.22589   1.23063   1.23272   1.24097   1.24588
 Alpha virt. eigenvalues --    1.25118   1.26033   1.26303   1.26894   1.26990
 Alpha virt. eigenvalues --    1.27493   1.27677   1.27953   1.28279   1.28892
 Alpha virt. eigenvalues --    1.29104   1.29308   1.29572   1.30146   1.30308
 Alpha virt. eigenvalues --    1.30802   1.31341   1.31586   1.31958   1.32183
 Alpha virt. eigenvalues --    1.33139   1.33469   1.33666   1.34406   1.34777
 Alpha virt. eigenvalues --    1.35216   1.36459   1.36686   1.37325   1.38157
 Alpha virt. eigenvalues --    1.38739   1.39203   1.39614   1.39780   1.40396
 Alpha virt. eigenvalues --    1.41043   1.41641   1.41885   1.42561   1.42675
 Alpha virt. eigenvalues --    1.43293   1.44364   1.44760   1.45275   1.45509
 Alpha virt. eigenvalues --    1.46218   1.46728   1.46865   1.47546   1.47583
 Alpha virt. eigenvalues --    1.47893   1.48252   1.48492   1.48828   1.49344
 Alpha virt. eigenvalues --    1.49724   1.50040   1.50378   1.50686   1.51079
 Alpha virt. eigenvalues --    1.51135   1.51421   1.51758   1.52075   1.52380
 Alpha virt. eigenvalues --    1.52401   1.52637   1.53092   1.53438   1.53579
 Alpha virt. eigenvalues --    1.54051   1.54260   1.54401   1.54512   1.54939
 Alpha virt. eigenvalues --    1.55110   1.55513   1.55560   1.55951   1.56069
 Alpha virt. eigenvalues --    1.56233   1.56534   1.56868   1.57125   1.57553
 Alpha virt. eigenvalues --    1.57684   1.57888   1.58267   1.58574   1.58716
 Alpha virt. eigenvalues --    1.59088   1.59342   1.59572   1.60035   1.60332
 Alpha virt. eigenvalues --    1.61062   1.61121   1.61429   1.61618   1.62257
 Alpha virt. eigenvalues --    1.62469   1.62907   1.63204   1.63472   1.63597
 Alpha virt. eigenvalues --    1.63977   1.64260   1.64356   1.64933   1.65131
 Alpha virt. eigenvalues --    1.65323   1.65625   1.65969   1.66135   1.66706
 Alpha virt. eigenvalues --    1.67267   1.67803   1.67999   1.68043   1.68352
 Alpha virt. eigenvalues --    1.68475   1.69216   1.69729   1.70224   1.70458
 Alpha virt. eigenvalues --    1.70822   1.71146   1.71320   1.71789   1.72146
 Alpha virt. eigenvalues --    1.72486   1.72680   1.73292   1.73555   1.74164
 Alpha virt. eigenvalues --    1.74456   1.74886   1.75994   1.76431   1.76641
 Alpha virt. eigenvalues --    1.76858   1.77541   1.78199   1.78706   1.79842
 Alpha virt. eigenvalues --    1.80032   1.80401   1.81029   1.81323   1.82273
 Alpha virt. eigenvalues --    1.82929   1.83525   1.83620   1.84292   1.84858
 Alpha virt. eigenvalues --    1.85143   1.85303   1.85629   1.85973   1.86247
 Alpha virt. eigenvalues --    1.86953   1.87198   1.87347   1.88034   1.88655
 Alpha virt. eigenvalues --    1.88811   1.88928   1.89417   1.89576   1.90044
 Alpha virt. eigenvalues --    1.90982   1.91645   1.92145   1.92986   1.93195
 Alpha virt. eigenvalues --    1.93619   1.94504   1.95063   1.95196   1.95477
 Alpha virt. eigenvalues --    1.95856   1.96218   1.97524   1.97852   1.98229
 Alpha virt. eigenvalues --    1.98424   1.98998   1.99036   1.99721   1.99883
 Alpha virt. eigenvalues --    2.00346   2.00806   2.01449   2.01717   2.01797
 Alpha virt. eigenvalues --    2.02047   2.02881   2.03134   2.03840   2.04393
 Alpha virt. eigenvalues --    2.05135   2.05670   2.06187   2.06625   2.07425
 Alpha virt. eigenvalues --    2.08033   2.08095   2.08606   2.09188   2.09316
 Alpha virt. eigenvalues --    2.09853   2.10082   2.10346   2.10532   2.11722
 Alpha virt. eigenvalues --    2.12075   2.12518   2.13097   2.13428   2.13792
 Alpha virt. eigenvalues --    2.14491   2.14848   2.14944   2.15258   2.16067
 Alpha virt. eigenvalues --    2.16475   2.16745   2.16863   2.18044   2.18379
 Alpha virt. eigenvalues --    2.19046   2.19377   2.19674   2.20251   2.20530
 Alpha virt. eigenvalues --    2.21135   2.21371   2.21634   2.22266   2.22645
 Alpha virt. eigenvalues --    2.23049   2.24346   2.24401   2.25275   2.25627
 Alpha virt. eigenvalues --    2.26116   2.26340   2.27079   2.27259   2.27422
 Alpha virt. eigenvalues --    2.27946   2.28549   2.28761   2.28891   2.29550
 Alpha virt. eigenvalues --    2.30227   2.30544   2.30659   2.31230   2.31596
 Alpha virt. eigenvalues --    2.32328   2.32642   2.33358   2.33741   2.34171
 Alpha virt. eigenvalues --    2.34827   2.35403   2.35579   2.35922   2.36110
 Alpha virt. eigenvalues --    2.36505   2.37150   2.37437   2.37486   2.37833
 Alpha virt. eigenvalues --    2.38299   2.38829   2.39405   2.39565   2.40100
 Alpha virt. eigenvalues --    2.40770   2.40877   2.41396   2.41987   2.42611
 Alpha virt. eigenvalues --    2.43212   2.43259   2.43909   2.44483   2.44861
 Alpha virt. eigenvalues --    2.45145   2.45593   2.46094   2.46443   2.47104
 Alpha virt. eigenvalues --    2.47215   2.47795   2.48184   2.48434   2.48603
 Alpha virt. eigenvalues --    2.49496   2.50055   2.50255   2.50772   2.51560
 Alpha virt. eigenvalues --    2.52448   2.52513   2.52948   2.53031   2.53281
 Alpha virt. eigenvalues --    2.53519   2.54007   2.54399   2.55084   2.55715
 Alpha virt. eigenvalues --    2.56261   2.56407   2.56477   2.56905   2.57200
 Alpha virt. eigenvalues --    2.57511   2.57609   2.58356   2.58748   2.59105
 Alpha virt. eigenvalues --    2.60053   2.60197   2.60422   2.60669   2.60948
 Alpha virt. eigenvalues --    2.61252   2.61754   2.62301   2.62519   2.63035
 Alpha virt. eigenvalues --    2.63256   2.63626   2.64128   2.64607   2.65148
 Alpha virt. eigenvalues --    2.65458   2.66108   2.66668   2.66796   2.67120
 Alpha virt. eigenvalues --    2.67514   2.67974   2.68119   2.68438   2.68983
 Alpha virt. eigenvalues --    2.69145   2.70116   2.70178   2.70462   2.70848
 Alpha virt. eigenvalues --    2.71510   2.71792   2.72265   2.72454   2.73148
 Alpha virt. eigenvalues --    2.73897   2.74233   2.74474   2.74625   2.75213
 Alpha virt. eigenvalues --    2.75891   2.76204   2.76642   2.77137   2.77389
 Alpha virt. eigenvalues --    2.77939   2.78341   2.78665   2.78941   2.79354
 Alpha virt. eigenvalues --    2.79972   2.80450   2.80817   2.81037   2.81815
 Alpha virt. eigenvalues --    2.82139   2.82242   2.82721   2.83332   2.83879
 Alpha virt. eigenvalues --    2.83967   2.84715   2.85399   2.85662   2.85887
 Alpha virt. eigenvalues --    2.86542   2.86878   2.87240   2.87783   2.88322
 Alpha virt. eigenvalues --    2.88570   2.88843   2.89234   2.89523   2.89863
 Alpha virt. eigenvalues --    2.90314   2.90881   2.91296   2.91369   2.91424
 Alpha virt. eigenvalues --    2.92116   2.92496   2.92795   2.93030   2.93728
 Alpha virt. eigenvalues --    2.93926   2.94345   2.94771   2.95269   2.95489
 Alpha virt. eigenvalues --    2.96082   2.96186   2.96393   2.96705   2.97129
 Alpha virt. eigenvalues --    2.97471   2.97988   2.98309   2.98742   2.99178
 Alpha virt. eigenvalues --    2.99783   3.00232   3.00351   3.00655   3.00877
 Alpha virt. eigenvalues --    3.01179   3.01347   3.01950   3.02027   3.02644
 Alpha virt. eigenvalues --    3.03355   3.03536   3.03915   3.04829   3.05162
 Alpha virt. eigenvalues --    3.05400   3.05882   3.06193   3.06714   3.06832
 Alpha virt. eigenvalues --    3.07555   3.07680   3.07949   3.08660   3.08735
 Alpha virt. eigenvalues --    3.08923   3.09239   3.09583   3.10196   3.10400
 Alpha virt. eigenvalues --    3.10875   3.10996   3.11527   3.11822   3.12069
 Alpha virt. eigenvalues --    3.12146   3.12446   3.13004   3.13518   3.13990
 Alpha virt. eigenvalues --    3.14227   3.14473   3.14849   3.15009   3.15320
 Alpha virt. eigenvalues --    3.15743   3.16485   3.16776   3.17053   3.17098
 Alpha virt. eigenvalues --    3.17253   3.17975   3.18379   3.18587   3.18738
 Alpha virt. eigenvalues --    3.19050   3.19344   3.19898   3.20219   3.20354
 Alpha virt. eigenvalues --    3.20856   3.21103   3.21633   3.21798   3.22504
 Alpha virt. eigenvalues --    3.22585   3.22667   3.23304   3.23457   3.23681
 Alpha virt. eigenvalues --    3.23870   3.24465   3.24822   3.25130   3.25446
 Alpha virt. eigenvalues --    3.25535   3.25958   3.26078   3.26348   3.26545
 Alpha virt. eigenvalues --    3.26773   3.27034   3.27253   3.27529   3.27997
 Alpha virt. eigenvalues --    3.28531   3.28587   3.28762   3.29079   3.29619
 Alpha virt. eigenvalues --    3.29942   3.30098   3.30676   3.30697   3.30932
 Alpha virt. eigenvalues --    3.30947   3.31137   3.31844   3.32037   3.32373
 Alpha virt. eigenvalues --    3.32545   3.32966   3.33218   3.33648   3.33820
 Alpha virt. eigenvalues --    3.33936   3.34526   3.34770   3.35125   3.35392
 Alpha virt. eigenvalues --    3.35800   3.35838   3.36456   3.36478   3.36696
 Alpha virt. eigenvalues --    3.36884   3.37520   3.37718   3.37949   3.38479
 Alpha virt. eigenvalues --    3.38511   3.38786   3.39032   3.39181   3.39538
 Alpha virt. eigenvalues --    3.39656   3.40206   3.40357   3.40882   3.41328
 Alpha virt. eigenvalues --    3.41564   3.41924   3.42048   3.42722   3.43337
 Alpha virt. eigenvalues --    3.43632   3.44010   3.44782   3.45069   3.45460
 Alpha virt. eigenvalues --    3.45555   3.46043   3.46186   3.46334   3.47013
 Alpha virt. eigenvalues --    3.47212   3.47792   3.48420   3.48651   3.49394
 Alpha virt. eigenvalues --    3.49527   3.50189   3.50749   3.51106   3.51466
 Alpha virt. eigenvalues --    3.51885   3.52526   3.53389   3.53706   3.54135
 Alpha virt. eigenvalues --    3.54282   3.55094   3.55351   3.55746   3.56215
 Alpha virt. eigenvalues --    3.56838   3.57185   3.57251   3.57963   3.58297
 Alpha virt. eigenvalues --    3.59030   3.59102   3.59295   3.59905   3.60557
 Alpha virt. eigenvalues --    3.61186   3.61726   3.62004   3.62275   3.62684
 Alpha virt. eigenvalues --    3.63294   3.64321   3.64640   3.65015   3.66139
 Alpha virt. eigenvalues --    3.66204   3.66644   3.66876   3.67782   3.68055
 Alpha virt. eigenvalues --    3.69079   3.69479   3.69755   3.70039   3.70277
 Alpha virt. eigenvalues --    3.70495   3.70875   3.71137   3.71360   3.71733
 Alpha virt. eigenvalues --    3.72288   3.72394   3.73125   3.73586   3.74166
 Alpha virt. eigenvalues --    3.74639   3.74961   3.75028   3.75526   3.75857
 Alpha virt. eigenvalues --    3.76083   3.76615   3.77013   3.77994   3.78689
 Alpha virt. eigenvalues --    3.79038   3.79758   3.80222   3.80656   3.81060
 Alpha virt. eigenvalues --    3.82304   3.82515   3.82652   3.83129   3.84608
 Alpha virt. eigenvalues --    3.85097   3.85449   3.86271   3.86780   3.87207
 Alpha virt. eigenvalues --    3.87484   3.88185   3.89143   3.89710   3.90342
 Alpha virt. eigenvalues --    3.90683   3.91056   3.91437   3.91893   3.92253
 Alpha virt. eigenvalues --    3.92617   3.93867   3.94201   3.94762   3.95312
 Alpha virt. eigenvalues --    3.96009   3.97190   3.98057   3.98823   3.99052
 Alpha virt. eigenvalues --    3.99494   3.99949   4.00673   4.00880   4.01323
 Alpha virt. eigenvalues --    4.01932   4.03286   4.03528   4.03625   4.04251
 Alpha virt. eigenvalues --    4.04721   4.05247   4.05752   4.06260   4.06548
 Alpha virt. eigenvalues --    4.07118   4.08838   4.09461   4.09592   4.11137
 Alpha virt. eigenvalues --    4.11217   4.12215   4.13140   4.13421   4.14710
 Alpha virt. eigenvalues --    4.15044   4.15183   4.16538   4.17154   4.17840
 Alpha virt. eigenvalues --    4.17925   4.18375   4.18651   4.19148   4.19293
 Alpha virt. eigenvalues --    4.19658   4.20192   4.20766   4.21233   4.21733
 Alpha virt. eigenvalues --    4.22515   4.23156   4.23592   4.24290   4.25003
 Alpha virt. eigenvalues --    4.26064   4.26648   4.26832   4.27737   4.27890
 Alpha virt. eigenvalues --    4.28570   4.29157   4.29742   4.30233   4.30667
 Alpha virt. eigenvalues --    4.31281   4.32065   4.33086   4.33791   4.34003
 Alpha virt. eigenvalues --    4.34357   4.34471   4.35664   4.36044   4.36375
 Alpha virt. eigenvalues --    4.37307   4.38259   4.38630   4.39615   4.40709
 Alpha virt. eigenvalues --    4.40980   4.41173   4.41582   4.42027   4.42225
 Alpha virt. eigenvalues --    4.42888   4.43493   4.44013   4.44344   4.45104
 Alpha virt. eigenvalues --    4.45333   4.45601   4.46254   4.46461   4.47382
 Alpha virt. eigenvalues --    4.48136   4.48650   4.49311   4.49605   4.50314
 Alpha virt. eigenvalues --    4.50715   4.51531   4.52389   4.53223   4.54404
 Alpha virt. eigenvalues --    4.54896   4.56181   4.56288   4.57178   4.57983
 Alpha virt. eigenvalues --    4.58626   4.58926   4.59657   4.62140   4.63561
 Alpha virt. eigenvalues --    4.64477   4.65139   4.66171   4.66856   4.68209
 Alpha virt. eigenvalues --    4.68931   4.69239   4.69814   4.70393   4.72045
 Alpha virt. eigenvalues --    4.72220   4.73097   4.73601   4.74401   4.75506
 Alpha virt. eigenvalues --    4.75787   4.75917   4.76871   4.78136   4.80184
 Alpha virt. eigenvalues --    4.80520   4.81816   4.82010   4.83221   4.83808
 Alpha virt. eigenvalues --    4.84049   4.84206   4.84939   4.85193   4.86373
 Alpha virt. eigenvalues --    4.86660   4.87132   4.88364   4.89707   4.90889
 Alpha virt. eigenvalues --    4.91248   4.91934   4.93084   4.93820   4.94881
 Alpha virt. eigenvalues --    4.95788   4.96029   4.96647   4.97301   4.98795
 Alpha virt. eigenvalues --    4.99224   5.00010   5.00886   5.01898   5.02600
 Alpha virt. eigenvalues --    5.03295   5.04271   5.05015   5.05717   5.06450
 Alpha virt. eigenvalues --    5.07107   5.08077   5.08920   5.09580   5.10325
 Alpha virt. eigenvalues --    5.10533   5.11203   5.14138   5.15015   5.16624
 Alpha virt. eigenvalues --    5.18154   5.19113   5.19509   5.20741   5.21229
 Alpha virt. eigenvalues --    5.21620   5.22817   5.23743   5.24673   5.25858
 Alpha virt. eigenvalues --    5.26839   5.28856   5.30036   5.30767   5.31102
 Alpha virt. eigenvalues --    5.33760   5.36185   5.36368   5.37081   5.38303
 Alpha virt. eigenvalues --    5.38713   5.39660   5.40221   5.41193   5.42047
 Alpha virt. eigenvalues --    5.42465   5.43156   5.43908   5.44736   5.47072
 Alpha virt. eigenvalues --    5.48900   5.50151   5.51014   5.51516   5.51916
 Alpha virt. eigenvalues --    5.53127   5.53549   5.56309   5.57177   5.60389
 Alpha virt. eigenvalues --    5.61719   5.62726   5.63081   5.63650   5.63923
 Alpha virt. eigenvalues --    5.65979   5.67208   5.68108   5.68398   5.70121
 Alpha virt. eigenvalues --    5.71858   5.74919   5.76697   5.77371   5.78880
 Alpha virt. eigenvalues --    5.80332   5.82061   5.89123   5.92892   5.93760
 Alpha virt. eigenvalues --    5.94697   5.97795   6.01934   6.02921   6.03688
 Alpha virt. eigenvalues --    6.09077   6.12065   6.13386   6.14061   6.14548
 Alpha virt. eigenvalues --    6.18114   6.19744   6.24642   6.27604   6.34606
 Alpha virt. eigenvalues --    6.35421   6.41657   6.48013   6.52266   6.54809
 Alpha virt. eigenvalues --    6.66957   6.97775   7.28837  22.35914  22.36604
 Alpha virt. eigenvalues --   22.44124  22.46236  22.46956  22.53043  22.54101
 Alpha virt. eigenvalues --   22.62322  22.62998  22.78460  22.85619  22.87588
 Alpha virt. eigenvalues --   22.91803  22.94492  22.95773  22.96673  22.97974
 Alpha virt. eigenvalues --   23.04421  23.04922  23.09398  23.16145  23.27892
 Alpha virt. eigenvalues --   23.28937  23.30908  23.32208  23.42116  23.42884
 Alpha virt. eigenvalues --   23.51308  23.51922  23.56297  23.75100  23.80287
 Alpha virt. eigenvalues --   23.81149  23.90424  32.41305  32.75536  32.90379
 Alpha virt. eigenvalues --   32.97712  33.01823  33.13958  44.06568
          Condensed to atoms (all electrons):
 Mulliken charges:
               1
     1  Fe  -0.245627
     2  N   -0.041373
     3  N   -0.030609
     4  N   -0.087682
     5  N    0.010371
     6  C    0.260315
     7  C   -0.051856
     8  C   -0.040072
     9  C    0.217519
    10  C    0.233596
    11  C   -0.054601
    12  C    0.039800
    13  C    0.236326
    14  C    0.218462
    15  C   -0.061520
    16  C    0.078061
    17  C    0.231024
    18  C    0.241351
    19  C   -0.029475
    20  C   -0.062140
    21  C    0.246706
    22  C   -0.458723
    23  H    0.136875
    24  C   -0.467571
    25  H    0.125834
    26  C   -0.445501
    27  H    0.114513
    28  C   -0.525653
    29  H    0.114216
    30  C   -0.414479
    31  H    0.119929
    32  H    0.136734
    33  H    0.130231
    34  C   -0.414963
    35  H    0.135649
    36  H    0.133685
    37  H    0.118681
    38  C   -0.449660
    39  H    0.122153
    40  H    0.142215
    41  H    0.156343
    42  C   -0.213179
    43  H    0.111834
    44  C   -0.284689
    45  H    0.138906
    46  H    0.121241
    47  C   -0.448553
    48  H    0.139891
    49  H    0.132725
    50  H    0.156413
    51  C   -0.213380
    52  H    0.109857
    53  C   -0.289983
    54  H    0.138984
    55  H    0.121616
    56  C   -0.422763
    57  H    0.134433
    58  H    0.137978
    59  H    0.118975
    60  C   -0.414423
    61  H    0.118764
    62  H    0.135640
    63  H    0.132871
    64  O   -0.576315
    65  H    0.360931
    66  H    0.323628
    67  C   -0.393935
    68  H    0.134416
    69  H    0.147330
    70  H    0.134916
    71  N   -0.233875
    72  H    0.234866
    73  C    0.176999
    74  C    0.011382
    75  H    0.177928
    76  N    0.081280
    77  C   -0.228146
    78  H    0.166352
 Sum of Mulliken charges =  -0.00000
 Mulliken charges with hydrogens summed into heavy atoms:
               1
     1  Fe  -0.245627
     2  N   -0.041373
     3  N   -0.030609
     4  N   -0.087682
     5  N    0.010371
     6  C    0.260315
     7  C   -0.051856
     8  C   -0.040072
     9  C    0.217519
    10  C    0.233596
    11  C   -0.054601
    12  C    0.039800
    13  C    0.236326
    14  C    0.218462
    15  C   -0.061520
    16  C    0.078061
    17  C    0.231024
    18  C    0.241351
    19  C   -0.029475
    20  C   -0.062140
    21  C    0.246706
    22  C   -0.321848
    24  C   -0.341737
    26  C   -0.330988
    28  C   -0.411437
    30  C   -0.027585
    34  C   -0.026948
    38  C   -0.028949
    42  C   -0.101345
    44  C   -0.024541
    47  C   -0.019524
    51  C   -0.103522
    53  C   -0.029382
    56  C   -0.031378
    60  C   -0.027148
    64  O    0.108245
    67  C    0.022728
    71  N    0.000990
    73  C    0.176999
    74  C    0.189310
    76  N    0.081280
    77  C   -0.061794
 Electronic spatial extent (au):  <R**2>=          20029.3742
 Charge=             -0.0000 electrons
 Dipole moment (field-independent basis, Debye):
    X=             -1.1251    Y=             -1.3531    Z=              3.1304  Tot=              3.5911
 Quadrupole moment (field-independent basis, Debye-Ang):
   XX=           -239.9310   YY=           -245.6729   ZZ=           -223.4556
   XY=              1.5904   XZ=             -6.6255   YZ=              1.7456
 Traceless Quadrupole moment (field-independent basis, Debye-Ang):
   XX=             -3.5779   YY=             -9.3197   ZZ=             12.8976
   XY=              1.5904   XZ=             -6.6255   YZ=              1.7456
 Octapole moment (field-independent basis, Debye-Ang**2):
  XXX=            -19.9123  YYY=            -32.8569  ZZZ=             93.3275  XYY=              6.3000
  XXY=            -30.9739  XXZ=              1.0024  XZZ=            -25.1560  YZZ=            -18.6124
  YYZ=             -7.2501  XYZ=              6.9915
 Hexadecapole moment (field-independent basis, Debye-Ang**3):
 XXXX=         -11953.6893 YYYY=         -11610.0639 ZZZZ=          -2779.4799 XXXY=            -13.4806
 XXXZ=            -24.5948 YYYX=             30.9666 YYYZ=             95.7250 ZZZX=           -121.5786
 ZZZY=              8.9205 XXYY=          -3991.9165 XXZZ=          -2619.5336 YYZZ=          -2679.4457
 XXYZ=            -13.2884 YYXZ=             29.8874 ZZXY=              5.1728
 N-N= 5.964838822994D+03 E-N=-1.894394845323D+04  KE= 2.973861523078D+03
  Exact polarizability:     715.951       1.802     703.075       8.353       3.528     310.383
 Approx polarizability:    1334.189       6.944    1296.423      22.431      16.254     491.613

 ----------------------------------------------------------------------

 Electric dipole moment (input orientation):
 (Debye = 10**-18 statcoulomb cm , SI units = C m)
                  (au)            (Debye)         (10**-30 SI)
   Tot        0.141284D+01      0.359108D+01      0.119786D+02
   x          0.181979D+00      0.462544D+00      0.154288D+01
   y         -0.108429D+01     -0.275599D+01     -0.919298D+01
   z         -0.887309D+00     -0.225531D+01     -0.752292D+01

 Dipole polarizability, Alpha (input orientation).
 (esu units = cm**3 , SI units = C**2 m**2 J**-1)
 Alpha(0;0):
               (au)            (10**-24 esu)      (10**-40 SI)
   iso        0.576470D+03      0.854240D+02      0.950470D+02
   aniso      0.399607D+03      0.592157D+02      0.658863D+02
   xx         0.659320D+03      0.977012D+02      0.108707D+03
   yx        -0.996675D+02     -0.147692D+02     -0.164329D+02
   yy         0.494067D+03      0.732132D+02      0.814607D+02
   zx        -0.876794D+02     -0.129927D+02     -0.144564D+02
   zy        -0.169647D+03     -0.251391D+02     -0.279710D+02
   zz         0.576021D+03      0.853576D+02      0.949731D+02

 First dipole hyperpolarizability, Beta (input orientation).
 ||, _|_  parallel and perpendicular components, (z) with respect to z axis,
 vector components x,y,z.  Values do not include the 1/n! factor of 1/2.
 (esu units = statvolt**-1 cm**4 , SI units = C**3 m**3 J**-2)
 Beta(0;0,0):
               (au)            (10**-30 esu)      (10**-50 SI)
   || (z)    -0.288486D+03     -0.249230D+01     -0.924991D+00
   _|_(z)    -0.961621D+02     -0.830765D+00     -0.308330D+00
   x         -0.460721D+04     -0.398027D+02     -0.147724D+02
   y          0.316252D+04      0.273217D+02      0.101402D+02
   z         -0.144243D+04     -0.124615D+02     -0.462496D+01
   ||         0.115427D+04      0.997199D+01      0.370101D+01
   xxx       -0.886595D+03     -0.765949D+01     -0.284274D+01
   xxy        0.515137D+02      0.445038D+00      0.165171D+00
   yxy       -0.129727D+03     -0.112074D+01     -0.415953D+00
   yyy        0.467985D+03      0.404303D+01      0.150053D+01
   xxz        0.628249D+03      0.542758D+01      0.201439D+01
   yxz       -0.457450D+02     -0.395201D+00     -0.146675D+00
   yyz       -0.682571D+03     -0.589688D+01     -0.218857D+01
   zxz       -0.519414D+03     -0.448733D+01     -0.166543D+01
   zyz        0.534673D+03      0.461916D+01      0.171435D+01
   zzz       -0.426488D+03     -0.368452D+01     -0.136747D+01

 ----------------------------------------------------------------------

 Dipole orientation:
    26         68.29685680          6.31780378         -8.96435595
     7         71.68869651          5.58449447         -7.45009289
     7         67.74112502          2.54550047         -9.36583975
     7         64.96374613          6.93104258        -10.69422022
     7         68.96607094         10.00188562         -8.80252916
     6         73.36037346          7.33273607         -6.58434810
     6         75.47021454          6.12288596         -5.33599037
     6         75.03436972          3.59448289         -5.47272168
     6         72.66084218          3.29927906         -6.79649282
     6         69.22836059          0.66144042         -8.44329879
     6         68.03780232         -1.76759729         -8.75354802
     6         65.77466325         -1.32006689         -9.92458025
     6         65.63430356          1.39507599        -10.27900309
     6         63.40599645          5.18081520        -11.75729933
     6         61.48412789          6.37046660        -13.26610228
     6         61.90728467          8.92199762        -13.10170937
     6         64.11640164          9.21731423        -11.50945368
     6         67.50714187         11.87226186         -9.78402839
     6         68.77632205         14.28778198         -9.60743856
     6         71.04146108         13.82601843         -8.48630191
     6         71.12884193         11.13422351         -8.00915771
     6         73.14584678          9.92019799         -6.88125597
     1         74.68969646         11.07513324         -6.21519146
     6         71.56953042          0.98873735         -7.32101837
     1         72.57593056         -0.68376533         -6.72853405
     6         63.62793877          2.59302862        -11.43851664
     1         62.15322924          1.42210036        -12.22181642
     6         65.17531736         11.53562061        -10.91490153
     1         64.21590609         13.20542926        -11.58795086
     6         76.58931007          1.45602383         -4.50035095
     1         78.29294931          2.14850402         -3.58404824
     1         77.14526690          0.20563726         -6.04038310
     1         75.52369373          0.34458566         -3.13024806
     6         77.63204858          7.49989790         -4.16841094
     1         76.96316378          8.79812380         -2.71537012
     1         78.64344815          8.59828703         -5.58864599
     1         78.95615176          6.18660739         -3.30540358
     6         69.07678137         -4.21474302         -7.82986380
     1         70.03443431         -3.96877552         -6.02432349
     1         70.43806619         -4.98998038         -9.17126627
     1         67.55683604         -5.57905712         -7.58761891
     6         63.82323028         -3.08997686        -10.65139433
     1         61.90308229         -2.38443886        -10.54196554
     6         64.21096182         -5.44416021        -11.43781345
     1         66.07830356         -6.21490695        -11.67096078
     1         62.66198338         -6.67094279        -11.92957593
     6         59.56173121          5.00968699        -14.80624153
     1         57.93506500          4.48258779        -13.65358557
     1         60.35602787          3.29010180        -15.61057466
     1         58.90510474          6.21275358        -16.33956714
     6         60.56380178         10.97466829        -14.30488545
     1         61.70161589         12.59962813        -14.81577885
     6         58.10145236         11.01461432        -14.80004071
     1         56.86229212          9.49733654        -14.25651034
     1         57.22867441         12.60324990        -15.72763409
     6         67.69904196         16.72234807        -10.52662189
     1         65.89633161         17.11134241         -9.60835724
     1         67.37633211         16.65037564        -12.56071061
     1         68.97655084         18.28223115        -10.13144300
     6         73.12238561         15.61739154         -7.85963581
     1         72.62988992         17.53410283         -8.41224447
     1         74.85613975         15.08549593         -8.83725405
     1         73.50228087         15.60365382         -5.83463983
     8         69.88409060          6.35211569        -12.95657154
     1         68.41690115          6.43111622        -14.01247595
     1         71.48215037          6.34100693        -13.47588190
     6         62.16892551          8.44031097         -0.70772792
     1         60.71119530          7.07061712         -0.21537836
     1         61.28165899         10.04245463         -1.63279144
     1         63.05577584          9.09172671          1.03401596
     7         65.43990868          5.19528567         -1.78875241
     1         65.30745532          4.23558628         -0.15145523
     6         64.06838264          7.29724057         -2.42796529
     6         66.98122781          4.64923590         -3.75383243
     1         68.27325804          3.09249550         -3.78381149
     7         66.66829222          6.27684313         -5.59543486
     6         64.86432632          7.93716993         -4.79713816
     1         64.26546805          9.46606764         -5.97759694

 Electric dipole moment (dipole orientation):
 (Debye = 10**-18 statcoulomb cm , SI units = C m)
                  (au)            (Debye)         (10**-30 SI)
   Tot        0.141284D+01      0.359108D+01      0.119786D+02
   x          0.000000D+00      0.000000D+00      0.000000D+00
   y          0.000000D+00      0.000000D+00      0.000000D+00
   z          0.141284D+01      0.359108D+01      0.119786D+02

 Dipole polarizability, Alpha (dipole orientation).
 (esu units = cm**3 , SI units = C**2 m**2 J**-1)
 Alpha(0;0):
               (au)            (10**-24 esu)      (10**-40 SI)
   iso        0.576470D+03      0.854240D+02      0.950470D+02
   aniso      0.399607D+03      0.592157D+02      0.658863D+02
   xx         0.620339D+03      0.919248D+02      0.102280D+03
   yx         0.162116D+01      0.240231D+00      0.267293D+00
   yy         0.709581D+03      0.105149D+03      0.116994D+03
   zx         0.165659D+03      0.245481D+02      0.273134D+02
   zy        -0.173341D+02     -0.256864D+01     -0.285800D+01
   zz         0.399489D+03      0.591981D+02      0.658668D+02

 First dipole hyperpolarizability, Beta (dipole orientation).
 ||, _|_  parallel and perpendicular components, (z) with respect to z axis,
 vector components x,y,z.  Values do not include the 1/n! factor of 1/2.
 (esu units = statvolt**-1 cm**4 , SI units = C**3 m**3 J**-2)
 Beta(0;0,0):
               (au)            (10**-30 esu)      (10**-50 SI)
   || (z)    -0.422923D+03     -0.365372D+01     -0.135604D+01
   _|_(z)    -0.140974D+03     -0.121791D+01     -0.452015D+00
   x         -0.455403D+04     -0.393433D+02     -0.146019D+02
   y         -0.284565D+04     -0.245842D+02     -0.912418D+01
   z         -0.211461D+04     -0.182686D+02     -0.678022D+01
   ||         0.115427D+04      0.997199D+01      0.370101D+01
   xxx       -0.642030D+03     -0.554664D+01     -0.205858D+01
   xxy        0.394041D+03      0.340420D+01      0.126344D+01
   yxy       -0.426593D+03     -0.368543D+01     -0.136781D+01
   yyy       -0.149517D+04     -0.129171D+02     -0.479405D+01
   xxz       -0.408624D+03     -0.353019D+01     -0.131020D+01
   yxz        0.250468D+03      0.216385D+01      0.803091D+00
   yyz       -0.313039D+03     -0.270442D+01     -0.100372D+01
   zxz       -0.449387D+03     -0.388235D+01     -0.144090D+01
   zyz        0.152578D+03      0.131816D+01      0.489222D+00
   zzz        0.167919D+02      0.145069D+00      0.538409D-01

 ----------------------------------------------------------------------
 Unable to Open any file for archive entry.
 1\1\GINC-BGN1028\SP\RAPFD\def2TZVP\C34H36Fe1N6O1\BECSLEIP\09-Sep-2024\
 0\\# polar def2tzvp apfd int=(grid=ultrafine)\\2w6w_II_S\\0,1\Fe,0,34.
 9588427041,3.7012757227,10.2001044195\N,0,36.8622099578,3.4429493971,9
 .6302300804\N,0,34.7615998938,5.1205016194,8.763651773\N,0,33.07539939
 2,4.089600537,10.7968718484\N,0,35.2020254414,2.4128206036,11.68811135
 35\C,0,37.7406458732,2.5546269253,10.1664431072\C,0,38.9697093246,2.52
 40420796,9.4040268286\C,0,38.8133398011,3.419492741,8.3929289738\C,0,3
 7.4893794224,3.9805385551,8.5512046148\C,0,35.6640072004,5.4299354751,
 7.7932715531\C,0,35.0973107238,6.3380467288,6.8287537017\C,0,33.817716
 3636,6.58976329,7.2454304219\C,0,33.6328017339,5.8121976025,8.45632324
 15\C,0,32.243250351,5.0623953969,10.3331998337\C,0,31.0955411061,5.211
 6133753,11.1867817336\C,0,31.2464071195,4.2967100667,12.1972143954\C,0
 ,32.5025480207,3.6213069434,11.9385500439\C,0,34.3108657167,2.13286178
 54,12.6744579135\C,0,34.910067266,1.286123638,13.6832653208\C,0,36.187
 7656131,1.0595418766,13.2775268867\C,0,36.3525452324,1.7776804898,12.0
 317198035\C,0,37.5249063785,1.79444239,11.3013125118\H,0,38.3418413888
 ,1.1834858792,11.6542218259\C,0,36.9562543561,4.9388402689,7.712787567
 \H,0,37.5775133705,5.2954169223,6.9052422952\C,0,32.464375462,5.814044
 075,9.1914341364\H,0,31.676178123,6.4802349117,8.8757043818\C,0,33.023
 2280566,2.6309028151,12.7546396821\H,0,32.4211763522,2.3094647726,13.5
 910686362\C,0,39.7627802063,3.7967841526,7.3072868213\H,0,40.695325663
 3,3.2455217035,7.4001113655\H,0,39.9891890161,4.862380323,7.3491904151
 \H,0,39.3337238534,3.5814902387,6.3279378006\C,0,40.1373828257,1.65426
 44263,9.7225736564\H,0,39.8443576495,0.6042117164,9.7213121083\H,0,40.
 5350435335,1.8925830366,10.7095887625\H,0,40.9319469661,1.7898667029,8
 .9926600369\C,0,35.7830983034,6.8227862475,5.598760717\H,0,36.39986459
 89,6.0372208624,5.1638719799\H,0,36.4295973578,7.6731171532,5.82250971
 72\H,0,35.0473217476,7.1363434453,4.8605799715\C,0,32.8029142528,7.419
 992806,6.6351770173\H,0,31.7819595238,7.0755728173,6.7544645753\C,0,33
 .028040982,8.5469160874,5.9668855609\H,0,34.0149991566,8.9619069588,5.
 858632921\H,0,32.2226085078,9.1111856997,5.5265204813\C,0,30.027366029
 5,6.234905634,11.0149639257\H,0,29.2708440806,5.8925435753,10.30695129
 43\H,0,30.4438343535,7.1678424764,10.638059711\H,0,29.5402686907,6.430
 2048624,11.9683826241\C,0,30.3947496558,4.0489208757,13.3391351661\H,0
 ,30.9036860001,3.7441601209,14.2464058274\C,0,29.0699755621,4.15740508
 04,13.3520847114\H,0,28.5067203214,4.4092872427,12.470791429\H,0,28.49
 8559502,3.9695405709,14.2460479858\C,0,34.2049291613,0.8025741493,14.9
 040430496\H,0,33.3107873397,0.2403513024,14.6339718381\H,0,33.89956793
 61,1.6425945014,15.5288280167\H,0,34.8508842218,0.156307428,15.4932818
 155\C,0,37.2628777262,0.2668961549,13.9386062505\H,0,36.9056653533,-0.
 1718400682,14.867104606\H,0,38.1214472948,0.8992705082,14.1656681202\H
 ,0,37.6003259418,-0.5386469111,13.2859324115\O,0,35.517,5.362,11.649\H
 ,0,34.674,5.717,11.932\H,0,36.319,5.628,11.926\C,0,32.2436998397,-0.56
 56309044,7.9004029816\H,0,31.5577305726,-0.3498299977,7.0811580718\H,0
 ,31.6644333005,-0.7595504873,8.7980238265\H,0,32.806005192,-1.46449557
 81,7.6465506502\N,0,33.9875725139,1.0744443605,7.1647552729\H,0,34.060
 6291125,0.7293736149,6.2218350097\C,0,33.1580826178,0.5800731333,8.137
 3520301\C,0,34.6784970744,2.1064428158,7.7011261303\H,0,35.4032182105,
 2.6858942517,7.1669324477\N,0,34.3367669202,2.2946005963,8.952837604\C
 ,0,33.3929418889,1.351687585,9.2388630757\H,0,32.9496848883,1.29549311
 52,10.2112734344\\Version=ES64L-G16RevC.02\State=1-A\HF=-2984.0233603\
 RMSD=3.657e-09\Dipole=0.1819787,-1.0842883,-0.8873092\Polar=659.320344
 2,-99.6674632,494.0674039,-87.6794203,-169.6467991,576.0213077\HyperPo
 lar=-886.5950175,51.51368,-129.7274928,467.9854381,628.2488329,-45.745
 0018,-682.5713236,-519.4137725,534.672887,-426.4878764\Quadrupole=-3.6
 549163,-1.5236365,5.1785528,2.9572124,1.7382395,8.2370569\PG=C01 [X(C3
 4H36Fe1N6O1)]\\@
 The archive entry for this job was punched.


 GOOD SENSE ABOUT TRIVIALITIES IS BETTER THAN NONSENSE
 ABOUT THINGS THAT MATTER

                                       -- MAX BEERBOHM
 Job cpu time:       2 days  7 hours 19 minutes 57.1 seconds.
 Elapsed time:       0 days  0 hours 48 minutes  5.1 seconds.
 File lengths (MBytes):  RWF=   1208 Int=      0 D2E=      0 Chk=    155 Scr=      1
 Normal termination of Gaussian 16 at Mon Sep  9 11:24:25 2024.
 Initial command:
 /sw/chem/gaussian/g16_C02/a100/g16/l1.exe "/local/becsleip_8009106/Gau-928210.inp" -scrdir="/local/becsleip_8009106/"
 Entering Link 1 = /sw/chem/gaussian/g16_C02/a100/g16/l1.exe PID=    930024.
  
 Copyright (c) 1988-2021, Gaussian, Inc.  All Rights Reserved.
  
 This is part of the Gaussian(R) 16 program.  It is based on
 the Gaussian(R) 09 system (copyright 2009, Gaussian, Inc.),
 the Gaussian(R) 03 system (copyright 2003, Gaussian, Inc.),
 the Gaussian(R) 98 system (copyright 1998, Gaussian, Inc.),
 the Gaussian(R) 94 system (copyright 1995, Gaussian, Inc.),
 the Gaussian 92(TM) system (copyright 1992, Gaussian, Inc.),
 the Gaussian 90(TM) system (copyright 1990, Gaussian, Inc.),
 the Gaussian 88(TM) system (copyright 1988, Gaussian, Inc.),
 the Gaussian 86(TM) system (copyright 1986, Carnegie Mellon
 University), and the Gaussian 82(TM) system (copyright 1983,
 Carnegie Mellon University). Gaussian is a federally registered
 trademark of Gaussian, Inc.
  
 This software contains proprietary and confidential information,
 including trade secrets, belonging to Gaussian, Inc.
  
 This software is provided under written license and may be
 used, copied, transmitted, or stored only in accord with that
 written license.
  
 The following legend is applicable only to US Government
 contracts under FAR:
  
                    RESTRICTED RIGHTS LEGEND
  
 Use, reproduction and disclosure by the US Government is
 subject to restrictions as set forth in subparagraphs (a)
 and (c) of the Commercial Computer Software - Restricted
 Rights clause in FAR 52.227-19.
  
 Gaussian, Inc.
 340 Quinnipiac St., Bldg. 40, Wallingford CT 06492
  
  
 ---------------------------------------------------------------
 Warning -- This program may not be used in any manner that
 competes with the business of Gaussian, Inc. or will provide
 assistance to any competitor of Gaussian, Inc.  The licensee
 of this program is prohibited from giving any competitor of
 Gaussian, Inc. access to this program.  By using this program,
 the user acknowledges that Gaussian, Inc. is engaged in the
 business of creating and licensing software in the field of
 computational chemistry and represents and warrants to the
 licensee that it is not a competitor of Gaussian, Inc. and that
 it will not use this program in any manner prohibited above.
 ---------------------------------------------------------------
  

 Cite this work as:
 Gaussian 16, Revision C.02,
 M. J. Frisch, G. W. Trucks, H. B. Schlegel, G. E. Scuseria, 
 M. A. Robb, J. R. Cheeseman, G. Scalmani, V. Barone, 
 G. A. Petersson, H. Nakatsuji, X. Li, M. Caricato, A. V. Marenich, 
 J. Bloino, B. G. Janesko, R. Gomperts, B. Mennucci, H. P. Hratchian, 
 J. V. Ortiz, A. F. Izmaylov, J. L. Sonnenberg, D. Williams-Young, 
[...]
                                                    152(r)
   140. CR (   1) C  67                  1.99940   -10.05874  1526(v),1332(v),1524(v)
                                                    1324(v)
   141. CR (   1) N  71                  1.99938   -14.22040  1352(v),1326(v),1320(v)
                                                    1327(v),1522(v)
   142. CR (   1) C  73                  1.99915   -10.08809  1526(g),1409(v),1532(v)
                                                    1254(v)
   143. CR (   1) C  74                  1.99935   -10.12062  1382(v),1523(v),1531(v)
                                                    151(r),150(r),154(r)
   144. CR (   1) N  76                  1.99932   -14.15171  150(r),151(r),154(r),1350(v)
                                                    1407(v),1528(v),172(r)
                                                    168(r),174(r)
   145. CR (   1) C  77                  1.99898   -10.05789  1522(v),1324(v),1526(g)
                                                    1382(v),1327(v),150(r)
                                                    151(r)
   163. LP (   1) N  71                  1.58009    -0.28328  1530(v),1527(v),1353(v)
                                                    1325(v),1319(v),1351(v)
   164. LP (   1) N  76                  1.61039    -0.36423  150(r),151(r),154(r),1525(v)
                                                    1526(v),1350(v),1528(v)
                                                    1532(v),1529(g),1407(v)
                                                    1384(g),1531(g),157(r)
                                                    170(r),1383(g),183(r),247(r)
                                                    195(r),273(r),221(r),244(r)
                                                    220(r),246(r),270(r),272(r)
                                                    194(r),1439(r),1446(r)
                                                    179(r),1443(r),1441(r)
                                                    1447(r),1444(r),1442(r)
                                                    1440(r),1438(r),174(r)
                                                    218(r),176(r),192(r)
  1252. RY*(   1) C  67                  0.00118     1.16034   
  1253. RY*(   2) C  67                  0.00078     2.00707   
  1254. RY*(   3) C  67                  0.00051     1.33325   
  1255. RY*(   4) C  67                  0.00012     1.26436   
  1256. RY*(   5) C  67                  0.00008     2.21889   
  1257. RY*(   6) C  67                  0.00007     1.29590   
  1258. RY*(   7) C  67                  0.00003     2.12946   
  1259. RY*(   8) C  67                  0.00001     1.76708   
  1260. RY*(   9) C  67                  0.00000     1.46362   
  1261. RY*(  10) C  67                  0.00001     1.52650   
  1262. RY*(  11) C  67                  0.00000     3.06044   
  1263. RY*(  12) C  67                  0.00000     3.15440   
  1264. RY*(  13) C  67                  0.00000     2.73419   
  1265. RY*(  14) C  67                  0.00000     2.80221   
  1266. RY*(  15) C  67                  0.00000     2.29496   
  1267. RY*(  16) C  67                  0.00000     2.97793   
  1268. RY*(  17) C  67                  0.00000     2.46124   
  1269. RY*(  18) C  67                  0.00000    21.56091   
  1270. RY*(  19) C  67                  0.00000     2.54672   
  1271. RY*(  20) C  67                  0.00000     3.69936   
  1272. RY*(  21) C  67                  0.00001     3.03376   
  1273. RY*(  22) C  67                  0.00000     2.89851   
  1274. RY*(  23) C  67                  0.00000     3.66178   
  1275. RY*(  24) C  67                  0.00000     3.38368   
  1276. RY*(  25) C  67                  0.00000     3.36630   
  1277. RY*(  26) C  67                  0.00000     3.20729   
  1278. RY*(   1) H  68                  0.00073     0.99705   
  1279. RY*(   2) H  68                  0.00015     1.69288   
  1280. RY*(   3) H  68                  0.00008     1.96926   
  1281. RY*(   4) H  68                  0.00006     2.01055   
  1282. RY*(   5) H  68                  0.00000     2.88136   
  1283. RY*(   1) H  69                  0.00024     1.39139   
  1284. RY*(   2) H  69                  0.00012     1.74501   
  1285. RY*(   3) H  69                  0.00008     2.05714   
  1286. RY*(   4) H  69                  0.00002     1.59216   
  1287. RY*(   5) H  69                  0.00001     2.86241   
  1288. RY*(   1) H  70                  0.00075     0.99673   
  1289. RY*(   2) H  70                  0.00015     1.69560   
  1290. RY*(   3) H  70                  0.00008     1.96053   
  1291. RY*(   4) H  70                  0.00006     2.01539   
  1292. RY*(   5) H  70                  0.00000     2.88238   
  1293. RY*(   1) N  71                  0.00283     0.66827   
  1294. RY*(   2) N  71                  0.00224     1.77787   
  1295. RY*(   3) N  71                  0.00100     2.09358   
  1296. RY*(   4) N  71                  0.00077     2.16934   
  1297. RY*(   5) N  71                  0.00053     1.15970   
  1298. RY*(   6) N  71                  0.00027     2.04761   
  1299. RY*(   7) N  71                  0.00020     1.71628   
  1300. RY*(   8) N  71                  0.00007     2.20355   
  1301. RY*(   9) N  71                  0.00006     2.59350   
  1302. RY*(  10) N  71                  0.00006     3.68293   
  1303. RY*(  11) N  71                  0.00004     2.88409   
  1304. RY*(  12) N  71                  0.00000    30.52937   
  1305. RY*(  13) N  71                  0.00001     4.21510   
  1306. RY*(  14) N  71                  0.00001     2.53078   
  1307. RY*(  15) N  71                  0.00001     3.46386   
  1308. RY*(  16) N  71                  0.00000     2.09653   
  1309. RY*(  17) N  71                  0.00000     4.37936   
  1310. RY*(  18) N  71                  0.00001     3.86399   
  1311. RY*(  19) N  71                  0.00001     4.14776   
  1312. RY*(  20) N  71                  0.00000     4.62418   
  1313. RY*(  21) N  71                  0.00000     4.80747   
  1314. RY*(  22) N  71                  0.00000     4.36865   
  1315. RY*(  23) N  71                  0.00000     4.63302   
  1316. RY*(  24) N  71                  0.00000     4.28300   
  1317. RY*(  25) N  71                  0.00000     4.53425   
  1318. RY*(  26) N  71                  0.00000     4.41063   
  1319. RY*(   1) H  72                  0.00058     2.15167   
  1320. RY*(   2) H  72                  0.00039     2.12924   
  1321. RY*(   3) H  72                  0.00030     1.03558   
  1322. RY*(   4) H  72                  0.00021     2.53267   
  1323. RY*(   5) H  72                  0.00001     3.08095   
  1324. RY*(   1) C  73                  0.00407     1.69176   
  1325. RY*(   2) C  73                  0.00260     0.98847   
  1326. RY*(   3) C  73                  0.00191     1.50227   
  1327. RY*(   4) C  73                  0.00163     2.02430   
  1328. RY*(   5) C  73                  0.00122     1.75572   
  1329. RY*(   6) C  73                  0.00110     1.72512   
  1330. RY*(   7) C  73                  0.00037     2.85299   
  1331. RY*(   8) C  73                  0.00019     2.74248   
  1332. RY*(   9) C  73                  0.00016     2.53422   
  1333. RY*(  10) C  73                  0.00007     3.64101   
  1334. RY*(  11) C  73                  0.00003     2.68670   
  1335. RY*(  12) C  73                  0.00001     2.15464   
  1336. RY*(  13) C  73                  0.00001     1.32610   
  1337. RY*(  14) C  73                  0.00001     1.63759   
  1338. RY*(  15) C  73                  0.00001     2.79506   
  1339. RY*(  16) C  73                  0.00001     1.95217   
  1340. RY*(  17) C  73                  0.00000     3.51368   
  1341. RY*(  18) C  73                  0.00000     1.13235   
  1342. RY*(  19) C  73                  0.00000    21.13675   
  1343. RY*(  20) C  73                  0.00000     4.03823   
  1344. RY*(  21) C  73                  0.00000     3.75772   
  1345. RY*(  22) C  73                  0.00000     3.53747   
  1346. RY*(  23) C  73                  0.00000     3.71467   
  1347. RY*(  24) C  73                  0.00000     3.36256   
  1348. RY*(  25) C  73                  0.00000     3.53218   
  1349. RY*(  26) C  73                  0.00000     3.48846   
  1350. RY*(   1) C  74                  0.00410     1.59838   
  1351. RY*(   2) C  74                  0.00330     0.67052   
  1352. RY*(   3) C  74                  0.00201     1.33457   
  1353. RY*(   4) C  74                  0.00129     2.55462   
  1354. RY*(   5) C  74                  0.00079     1.66123   
  1355. RY*(   6) C  74                  0.00039     1.65725   
  1356. RY*(   7) C  74                  0.00027     1.89180   
  1357. RY*(   8) C  74                  0.00009     2.75829   
  1358. RY*(   9) C  74                  0.00006     2.57034   
  1359. RY*(  10) C  74                  0.00005     1.92327   
  1360. RY*(  11) C  74                  0.00004     1.59839   
  1361. RY*(  12) C  74                  0.00004     3.56423   
  1362. RY*(  13) C  74                  0.00002     2.62507   
  1363. RY*(  14) C  74                  0.00002     3.81473   
  1364. RY*(  15) C  74                  0.00001     2.60991   
  1365. RY*(  16) C  74                  0.00001     3.67500   
  1366. RY*(  17) C  74                  0.00000     2.85042   
  1367. RY*(  18) C  74                  0.00000    21.37611   
  1368. RY*(  19) C  74                  0.00000     3.15068   
  1369. RY*(  20) C  74                  0.00001     2.63568   
  1370. RY*(  21) C  74                  0.00001     4.04655   
  1371. RY*(  22) C  74                  0.00000     3.57876   
  1372. RY*(  23) C  74                  0.00000     3.80092   
  1373. RY*(  24) C  74                  0.00000     3.46694   
  1374. RY*(  25) C  74                  0.00000     3.54395   
  1375. RY*(  26) C  74                  0.00000     3.37861   
  1376. RY*(   1) H  75                  0.00057     0.85308   
  1377. RY*(   2) H  75                  0.00031     2.40078   
  1378. RY*(   3) H  75                  0.00021     2.12222   
  1379. RY*(   4) H  75                  0.00012     2.40539   
  1380. RY*(   5) H  75                  0.00002     3.14931   
  1381. RY*(   1) N  76                  0.00777     0.85431   
  1382. RY*(   2) N  76                  0.00717     1.31375   
  1383. RY*(   3) N  76                  0.00598     1.41985   
  1384. RY*(   4) N  76                  0.00078     1.59296   
  1385. RY*(   5) N  76                  0.00074     1.66855   
  1386. RY*(   6) N  76                  0.00057     1.93609   
  1387. RY*(   7) N  76                  0.00038     3.49062   
  1388. RY*(   8) N  76                  0.00033     3.19874   
  1389. RY*(   9) N  76                  0.00011     2.82437   
  1390. RY*(  10) N  76                  0.00010     3.27669   
  1391. RY*(  11) N  76                  0.00009     2.48905   
  1392. RY*(  12) N  76                  0.00008     3.40308   
  1393. RY*(  13) N  76                  0.00006     3.02047   
  1394. RY*(  14) N  76                  0.00002     4.88621   
  1395. RY*(  15) N  76                  0.00002     4.07019   
  1396. RY*(  16) N  76                  0.00003     3.44892   
  1397. RY*(  17) N  76                  0.00002     4.92853   
  1398. RY*(  18) N  76                  0.00001     4.16536   
  1399. RY*(  19) N  76                  0.00000    31.60183   
  1400. RY*(  20) N  76                  0.00000     4.37463   
  1401. RY*(  21) N  76                  0.00000     4.83657   
  1402. RY*(  22) N  76                  0.00000     4.15784   
  1403. RY*(  23) N  76                  0.00000     4.83348   
  1404. RY*(  24) N  76                  0.00000     4.64739   
  1405. RY*(  25) N  76                  0.00000     4.79238   
  1406. RY*(  26) N  76                  0.00000     4.49556   
  1407. RY*(   1) C  77                  0.00398     1.49332   
  1408. RY*(   2) C  77                  0.00256     0.71620   
  1409. RY*(   3) C  77                  0.00169     1.84266   
  1410. RY*(   4) C  77                  0.00068     2.02380   
  1411. RY*(   5) C  77                  0.00056     1.61303   
  1412. RY*(   6) C  77                  0.00046     1.99892   
  1413. RY*(   7) C  77                  0.00042     1.99911   
  1414. RY*(   8) C  77                  0.00023     1.43011   
  1415. RY*(   9) C  77                  0.00023     1.64422   
  1416. RY*(  10) C  77                  0.00015     1.75766   
  1417. RY*(  11) C  77                  0.00010     1.41674   
  1418. RY*(  12) C  77                  0.00005     1.82882   
  1419. RY*(  13) C  77                  0.00006     2.14092   
  1420. RY*(  14) C  77                  0.00005     3.00051   
  1421. RY*(  15) C  77                  0.00002     3.34075   
  1422. RY*(  16) C  77                  0.00002     1.50133   
  1423. RY*(  17) C  77                  0.00000     3.68847   
  1424. RY*(  18) C  77                  0.00000     3.22680   
  1425. RY*(  19) C  77                  0.00000    21.53614   
  1426. RY*(  20) C  77                  0.00001     3.98840   
  1427. RY*(  21) C  77                  0.00001     4.13313   
  1428. RY*(  22) C  77                  0.00000     3.46017   
  1429. RY*(  23) C  77                  0.00000     3.79610   
  1430. RY*(  24) C  77                  0.00000     3.41899   
  1431. RY*(  25) C  77                  0.00000     3.71051   
  1432. RY*(  26) C  77                  0.00000     3.35748   
  1433. RY*(   1) H  78                  0.00051     0.90250   
  1434. RY*(   2) H  78                  0.00032     2.12801   
  1435. RY*(   3) H  78                  0.00024     2.28870   
  1436. RY*(   4) H  78                  0.00008     2.73814   
  1437. RY*(   5) H  78                  0.00001     3.13269   
  1519. BD*(   1) C  67 - H  68          0.01162     0.35970   
  1520. BD*(   1) C  67 - H  69          0.00345     0.37327   
  1521. BD*(   1) C  67 - H  70          0.01214     0.35958   
  1522. BD*(   1) C  67 - C  73          0.01372     0.38975   
  1523. BD*(   1) N  71 - H  72          0.01418     0.36753   
  1524. BD*(   1) N  71 - C  73          0.02724     0.43029   
  1525. BD*(   1) N  71 - C  74          0.02234     0.44711   
  1526. BD*(   1) C  73 - C  77          0.02110     0.56783   
  1527. BD*(   2) C  73 - C  77          0.29836     0.03595  1530(v),1521(v),1519(v)
                                                    1328(g),1448(r),1445(r)
  1528. BD*(   1) C  74 - H  75          0.01846     0.39196   
  1529. BD*(   1) C  74 - N  76          0.01642     0.53766   
  1530. BD*(   2) C  74 - N  76          0.42000    -0.00519  1527(v),1351(g),1381(g)
                                                    1408(v),153(r),1445(r)
                                                    1440(r),1448(r),180(r)
  1531. BD*(   1) N  76 - C  77          0.01646     0.48094   
  1532. BD*(   1) C  77 - H  78          0.01444     0.43455   
       -------------------------------
              Total Lewis   42.69023  ( 97.7364%)
        Valence non-Lewis    0.90993  (  2.0832%)
        Rydberg non-Lewis    0.07880  (  0.1804%)
       -------------------------------
            Total unit  4   43.67896  (100.0000%)
           Charge unit  4    0.32104
 Unable to Open any file for archive entry.
 1\1\GINC-BGN1028\SP\RAPFD\def2TZVP\C34H36Fe1N6O1\BECSLEIP\09-Sep-2024\
 0\\# apfd/def2TZVP int=(grid=ultrafine) geom=check guess=read pop=nbo 
 scf=qc\\2w6w_II_S_nbo\\0,1\Fe,0,34.9588427041,3.7012757227,10.20010441
 95\N,0,36.8622099578,3.4429493971,9.6302300804\N,0,34.7615998938,5.120
 5016194,8.763651773\N,0,33.075399392,4.089600537,10.7968718484\N,0,35.
 2020254414,2.4128206036,11.6881113535\C,0,37.7406458732,2.5546269253,1
 0.1664431072\C,0,38.9697093246,2.5240420796,9.4040268286\C,0,38.813339
 8011,3.419492741,8.3929289738\C,0,37.4893794224,3.9805385551,8.5512046
 148\C,0,35.6640072004,5.4299354751,7.7932715531\C,0,35.0973107238,6.33
 80467288,6.8287537017\C,0,33.8177163636,6.58976329,7.2454304219\C,0,33
 .6328017339,5.8121976025,8.4563232415\C,0,32.243250351,5.0623953969,10
 .3331998337\C,0,31.0955411061,5.2116133753,11.1867817336\C,0,31.246407
 1195,4.2967100667,12.1972143954\C,0,32.5025480207,3.6213069434,11.9385
 500439\C,0,34.3108657167,2.1328617854,12.6744579135\C,0,34.910067266,1
 .286123638,13.6832653208\C,0,36.1877656131,1.0595418766,13.2775268867\
 C,0,36.3525452324,1.7776804898,12.0317198035\C,0,37.5249063785,1.79444
 239,11.3013125118\H,0,38.3418413888,1.1834858792,11.6542218259\C,0,36.
 9562543561,4.9388402689,7.712787567\H,0,37.5775133705,5.2954169223,6.9
 052422952\C,0,32.464375462,5.814044075,9.1914341364\H,0,31.676178123,6
 .4802349117,8.8757043818\C,0,33.0232280566,2.6309028151,12.7546396821\
 H,0,32.4211763522,2.3094647726,13.5910686362\C,0,39.7627802063,3.79678
 41526,7.3072868213\H,0,40.6953256633,3.2455217035,7.4001113655\H,0,39.
 9891890161,4.862380323,7.3491904151\H,0,39.3337238534,3.5814902387,6.3
 279378006\C,0,40.1373828257,1.6542644263,9.7225736564\H,0,39.844357649
 5,0.6042117164,9.7213121083\H,0,40.5350435335,1.8925830366,10.70958876
 25\H,0,40.9319469661,1.7898667029,8.9926600369\C,0,35.7830983034,6.822
 7862475,5.598760717\H,0,36.3998645989,6.0372208624,5.1638719799\H,0,36
 .4295973578,7.6731171532,5.8225097172\H,0,35.0473217476,7.1363434453,4
 .8605799715\C,0,32.8029142528,7.419992806,6.6351770173\H,0,31.78195952
 38,7.0755728173,6.7544645753\C,0,33.028040982,8.5469160874,5.966885560
 9\H,0,34.0149991566,8.9619069588,5.858632921\H,0,32.2226085078,9.11118
 56997,5.5265204813\C,0,30.0273660295,6.234905634,11.0149639257\H,0,29.
 2708440806,5.8925435753,10.3069512943\H,0,30.4438343535,7.1678424764,1
 0.638059711\H,0,29.5402686907,6.4302048624,11.9683826241\C,0,30.394749
 6558,4.0489208757,13.3391351661\H,0,30.9036860001,3.7441601209,14.2464
 058274\C,0,29.0699755621,4.1574050804,13.3520847114\H,0,28.5067203214,
 4.4092872427,12.470791429\H,0,28.498559502,3.9695405709,14.2460479858\
 C,0,34.2049291613,0.8025741493,14.9040430496\H,0,33.3107873397,0.24035
 13024,14.6339718381\H,0,33.8995679361,1.6425945014,15.5288280167\H,0,3
 4.8508842218,0.156307428,15.4932818155\C,0,37.2628777262,0.2668961549,
 13.9386062505\H,0,36.9056653533,-0.1718400682,14.867104606\H,0,38.1214
 472948,0.8992705082,14.1656681202\H,0,37.6003259418,-0.5386469111,13.2
 859324115\O,0,35.517,5.362,11.649\H,0,34.674,5.717,11.932\H,0,36.319,5
 .628,11.926\C,0,32.2436998397,-0.5656309044,7.9004029816\H,0,31.557730
 5726,-0.3498299977,7.0811580718\H,0,31.6644333005,-0.7595504873,8.7980
 238265\H,0,32.806005192,-1.4644955781,7.6465506502\N,0,33.9875725139,1
 .0744443605,7.1647552729\H,0,34.0606291125,0.7293736149,6.2218350097\C
 ,0,33.1580826178,0.5800731333,8.1373520301\C,0,34.6784970744,2.1064428
 158,7.7011261303\H,0,35.4032182105,2.6858942517,7.1669324477\N,0,34.33
 67669202,2.2946005963,8.952837604\C,0,33.3929418889,1.351687585,9.2388
 630757\H,0,32.9496848883,1.2954931152,10.2112734344\\Version=ES64L-G16
 RevC.02\State=1-A\HF=-2984.0233603\RMSD=2.435e-09\Dipole=0.1819787,-1.
 0842883,-0.8873092\Quadrupole=-3.6549163,-1.5236365,5.1785528,2.957212
 4,1.7382395,8.2370569\PG=C01 [X(C34H36Fe1N6O1)]\\@
 The archive entry for this job was punched.


 K N O W I N G  IS A BARRIER WHICH PREVENTS LEARNING

                     -- TEACHING OF THE BENE GESSERIT
 Job cpu time:       0 days  0 hours 48 minutes 53.0 seconds.
 Elapsed time:       0 days  0 hours  1 minutes  0.6 seconds.
 File lengths (MBytes):  RWF=    792 Int=      0 D2E=      0 Chk=    155 Scr=      1
 Normal termination of Gaussian 16 at Mon Sep  9 11:25:28 2024.
