 Entering Gaussian System, Link 0=g16
 Input=2w6x12re.com
 Output=2w6x12re.log
 Initial command:
 /sw/chem/gaussian/g16_C02/a100/g16/l1.exe "/local/becsleip_8009298/Gau-1700903.inp" -scrdir="/local/becsleip_8009298/"
 Entering Link 1 = /sw/chem/gaussian/g16_C02/a100/g16/l1.exe PID=   1700904.
  
 Copyright (c) 1988-2021, Gaussian, Inc.  All Rights Reserved.
  
 This is part of the Gaussian(R) 16 program.  It is based on
 the Gaussian(R) 09 system (copyright 2009, Gaussian, Inc.),
 the Gaussian(R) 03 system (copyright 2003, Gaussian, Inc.),
 the Gaussian(R) 98 system (copyright 1998, Gaussian, Inc.),
 the Gaussian(R) 94 system (copyright 1995, Gaussian, Inc.),
 the Gaussian 92(TM) system (copyright 1992, Gaussian, Inc.),
 the Gaussian 90(TM) system (copyright 1990, Gaussian, Inc.),
 the Gaussian 88(TM) system (copyright 1988, Gaussian, Inc.),
 the Gaussian 86(TM) system (copyright 1986, Carnegie Mellon
 University), and the Gaussian 82(TM) system (copyright 1983,
 Carnegie Mellon University). Gaussian is a federally registered
 trademark of Gaussian, Inc.
  
 This software contains proprietary and confidential information,
 including trade secrets, belonging to Gaussian, Inc.
  
 This software is provided under written license and may be
 used, copied, transmitted, or stored only in accord with that
 written license.
  
 The following legend is applicable only to US Government
 contracts under FAR:
  
                    RESTRICTED RIGHTS LEGEND
  
 Use, reproduction and disclosure by the US Government is
 subject to restrictions as set forth in subparagraphs (a)
 and (c) of the Commercial Computer Software - Restricted
 Rights clause in FAR 52.227-19.
  
 Gaussian, Inc.
 340 Quinnipiac St., Bldg. 40, Wallingford CT 06492
  
  
 ---------------------------------------------------------------
 Warning -- This program may not be used in any manner that
 competes with the business of Gaussian, Inc. or will provide
 assistance to any competitor of Gaussian, Inc.  The licensee
 of this program is prohibited from giving any competitor of
 Gaussian, Inc. access to this program.  By using this program,
 the user acknowledges that Gaussian, Inc. is engaged in the
 business of creating and licensing software in the field of
 computational chemistry and represents and warrants to the
 licensee that it is not a competitor of Gaussian, Inc. and that
 it will not use this program in any manner prohibited above.
 ---------------------------------------------------------------
  

 Cite this work as:
 Gaussian 16, Revision C.02,
 M. J. Frisch, G. W. Trucks, H. B. Schlegel, G. E. Scuseria, 
 M. A. Robb, J. R. Cheeseman, G. Scalmani, V. Barone, 
 G. A. Petersson, H. Nakatsuji, X. Li, M. Caricato, A. V. Marenich, 
 J. Bloino, B. G. Janesko, R. Gomperts, B. Mennucci, H. P. Hratchian, 
 J. V. Ortiz, A. F. Izmaylov, J. L. Sonnenberg, D. Williams-Young, 
 F. Ding, F. Lipparini, F. Egidi, J. Goings, B. Peng, A. Petrone, 
 T. Henderson, D. Ranasinghe, V. G. Zakrzewski, J. Gao, N. Rega, 
 G. Zheng, W. Liang, M. Hada, M. Ehara, K. Toyota, R. Fukuda, 
 J. Hasegawa, M. Ishida, T. Nakajima, Y. Honda, O. Kitao, H. Nakai, 
 T. Vreven, K. Throssell, J. A. Montgomery, Jr., J. E. Peralta, 
 F. Ogliaro, M. J. Bearpark, J. J. Heyd, E. N. Brothers, K. N. Kudin, 
 V. N. Staroverov, T. A. Keith, R. Kobayashi, J. Normand, 
 K. Raghavachari, A. P. Rendell, J. C. Burant, S. S. Iyengar, 
 J. Tomasi, M. Cossi, J. M. Millam, M. Klene, C. Adamo, R. Cammi, 
 J. W. Ochterski, R. L. Martin, K. Morokuma, O. Farkas, 
 J. B. Foresman, and D. J. Fox, Gaussian, Inc., Wallingford CT, 2019.
 
 ******************************************
 Gaussian 16:  ES64L-G16RevC.02  7-Dec-2021
                 9-Sep-2024 
 ******************************************
 %mem=16GB
 %CPU=0-71
 SetSPE:  set environment variable "OMP_PROC_BIND" = "true"
 SetSPE:  set environment variable "OMP_PLACES" = "{0},{1},{2},{3},{4},{5},{6},{7},{8},{9},{10},{11},{12},{13},{14},{15},{16},{17},{18},{19},{20},{21},{22},{23},{24},{25},{26},{27},{28},{29},{30},{31},{32},{33},{34},{35},{36},{37},{38},{39},{40},{41},{42},{43},{44},{45},{46},{47},{48},{49},{50},{51},{52},{53},{54},{55},{56},{57},{58},{59},{60},{61},{62},{63},{64},{65},{66},{67},{68},{69},{70},{71}"
 Will use up to   72 processors via shared memory.
 %gpucpu=0,1,2,3=0,1,2,3
 Will use    4 GPUs:
 Thread  CPU   GPU
      0    0     0
      1    1     1
      2    2     2
      3    3     3
      4    4    -1
      5    5    -1
      6    6    -1
      7    7    -1
      8    8    -1
      9    9    -1
     10   10    -1
     11   11    -1
     12   12    -1
     13   13    -1
     14   14    -1
     15   15    -1
     16   16    -1
     17   17    -1
     18   18    -1
     19   19    -1
     20   20    -1
     21   21    -1
     22   22    -1
     23   23    -1
     24   24    -1
     25   25    -1
     26   26    -1
     27   27    -1
     28   28    -1
     29   29    -1
     30   30    -1
     31   31    -1
     32   32    -1
     33   33    -1
     34   34    -1
     35   35    -1
     36   36    -1
     37   37    -1
     38   38    -1
     39   39    -1
     40   40    -1
     41   41    -1
     42   42    -1
     43   43    -1
     44   44    -1
     45   45    -1
     46   46    -1
     47   47    -1
     48   48    -1
     49   49    -1
     50   50    -1
     51   51    -1
     52   52    -1
     53   53    -1
     54   54    -1
     55   55    -1
     56   56    -1
     57   57    -1
     58   58    -1
     59   59    -1
     60   60    -1
     61   61    -1
     62   62    -1
     63   63    -1
     64   64    -1
     65   65    -1
     66   66    -1
     67   67    -1
     68   68    -1
     69   69    -1
     70   70    -1
     71   71    -1
 SetGPE:  set environment variable "OMP_PROC_BIND" = "true"
 SetGPE:  set environment variable "OMP_PLACES" = "{0},{1},{2},{3},{4},{5},{6},{7},{8},{9},{10},{11},{12},{13},{14},{15},{16},{17},{18},{19},{20},{21},{22},{23},{24},{25},{26},{27},{28},{29},{30},{31},{32},{33},{34},{35},{36},{37},{38},{39},{40},{41},{42},{43},{44},{45},{46},{47},{48},{49},{50},{51},{52},{53},{54},{55},{56},{57},{58},{59},{60},{61},{62},{63},{64},{65},{66},{67},{68},{69},{70},{71}"
 %oldchk=2w6x_II_S.chk
 %chk=2w6x_II_Sre.chk
 Properties for Device   0
 Minimum vector length:                              32
 Maximum vector length:                            1024
 Number of SMPs:                                    108
 Maximum number of threads per SMP:                2048
 Number of ASync Engines:                             5
 Memory:                                           9207742464
 Properties for Device   1
 Minimum vector length:                              32
 Maximum vector length:                            1024
 Number of SMPs:                                    108
 Maximum number of threads per SMP:                2048
 Number of ASync Engines:                             5
 Memory:                                           9207742464
 Properties for Device   2
 Minimum vector length:                              32
 Maximum vector length:                            1024
 Number of SMPs:                                    108
 Maximum number of threads per SMP:                2048
 Number of ASync Engines:                             5
 Memory:                                           9207742464
 Properties for Device   3
 Minimum vector length:                              32
 Maximum vector length:                            1024
 Number of SMPs:                                    108
 Maximum number of threads per SMP:                2048
 Number of ASync Engines:                             5
 Memory:                                           9207742464
   8286968217 words of memory will be used on each GPU.
 Copying data from "2w6x_II_S.chk" to current chk file "2w6x_II_Sre.chk"
 IOpt=  2 FromEx=T IUOpen= 4 IOptOp= 5 NList=   0 IFRang= 0 IUIn= 4 IUOut= 2.
 --------------------------------------
 # apfd/gen scf=maxcycle=999 geom=check
 --------------------------------------
 1/29=2,38=1,172=1/1;
 2/12=2,40=1/2;
 3/5=7,11=2,14=-4,25=1,30=1,74=-44/1,2,3;
 4//1;
 5/5=2,7=999,38=5/2;
 6/7=2,8=2,9=2,10=2,28=1/1;
 99/5=1,9=1/99;
 ----------
 2w6x_III_D
 ----------
 Structure from the checkpoint file:  "2w6x_II_Sre.chk"
 Charge =  1 Multiplicity = 2
 Z-Matrix found in chk file.
 Fe,0,35.1514419883,3.8100302611,10.2429473114
 N,0,37.0736074869,3.5396249156,9.7256020168
 N,0,34.9463614551,5.0841542684,8.6935363186
 N,0,33.2640395468,4.1984494174,10.8011999694
 N,0,35.4102840586,2.6349569003,11.8287218596
 C,0,37.9647827448,2.7154111777,10.3368490901
 C,0,39.2184524574,2.6876562459,9.6155736573
 C,0,39.0615375015,3.5134057538,8.5470175956
 C,0,37.7129934851,4.0304483875,8.6306029727
 C,0,35.8652630557,5.3666547656,7.7312848218
 C,0,35.310529499,6.2374675392,6.7263263106
 C,0,34.0244250805,6.5009288545,7.1147385223
 C,0,33.8218577294,5.7649146557,8.348745352
 C,0,32.4106733141,5.1025757625,10.245432594
 C,0,31.236721471,5.2719136802,11.0591457438
 C,0,31.4005003196,4.4510797022,12.1455565283
 C,0,32.6796876632,3.7954676401,11.9610367977
 C,0,34.5030190243,2.3874236132,12.8101270458
 C,0,35.0822783513,1.5631352945,13.8491011943
 C,0,36.3700078942,1.3351949387,13.4783669675
 C,0,36.5564215278,2.0177501008,12.2158413027
 C,0,37.7415257871,2.0139552408,11.507172734
 H,0,38.5611486036,1.4364475485,11.9066935168
 C,0,37.1683269994,4.8997229472,7.7068890652
 H,0,37.8002398644,5.2225001372,6.8934056106
 C,0,32.6397184222,5.7837826056,9.0618096073
 H,0,31.8529173813,6.4289820369,8.7017382294
 C,0,33.2121278083,2.8800064859,12.8530052781
 H,0,32.6121163891,2.6136926831,13.7099540523
 C,0,40.0316863671,3.8613554318,7.4699238073
 H,0,40.9815115291,3.3562104648,7.6273032811
 H,0,40.214196746,4.9359626151,7.4507847308
 H,0,39.6453298209,3.5674671742,6.4932919537
 C,0,40.40598171,1.8839128123,10.0220770205
 H,0,40.1518602208,0.8250575201,10.0742528227
 H,0,40.7612268163,2.1945814771,11.0049646802
 H,0,41.2190490087,2.0067187181,9.3106120836
 C,0,36.0153083208,6.6829582665,5.4922716031
 H,0,36.6377811304,5.883620612,5.0922190685
 H,0,36.6590679394,7.5395517064,5.6988018598
 H,0,35.2911399921,6.973489675,4.7336916923
 C,0,33.0186663094,7.307116924,6.4586043729
 H,0,31.9970006537,6.9609481335,6.5660039523
 C,0,33.2526544153,8.4137738901,5.7605614478
 H,0,34.2397906777,8.8302028803,5.6612294541
 H,0,32.4545864459,8.959660232,5.2849092229
 C,0,30.0724912759,6.1347760801,10.717577148
 H,0,29.8668746,6.098117508,9.6488086275
 H,0,30.2639254937,7.1750229157,10.9872189212
 H,0,29.1878735039,5.7978649726,11.2541153559
 C,0,30.517069438,4.236346139,13.2700523161
 H,0,30.5227008487,3.235259214,13.6858159012
 C,0,29.7290123563,5.154552778,13.8202273124
 H,0,29.7158943188,6.1761520008,13.4826787553
 H,0,29.0840645978,4.9185819557,14.6503965015
 C,0,34.3528651403,1.1050466786,15.065459944
 H,0,33.4731595972,0.5233029432,14.7890989048
 H,0,34.0210677064,1.957974553,15.6583475163
 H,0,34.9917802216,0.483737289,15.6882909162
 C,0,37.4328315518,0.5603193415,14.1792279731
 H,0,37.05963905,0.1484344231,15.113729484
 H,0,38.2883019037,1.1980914141,14.4026623322
 H,0,37.7799626095,-0.2637773504,13.5553209812
 C,0,32.5189417247,-0.6579307411,8.2334841126
 H,0,31.8578149016,-0.5122063201,7.3792597578
 H,0,31.9130481772,-0.7806452259,9.1257213575
 H,0,33.0897333591,-1.5721993352,8.0705328931
 N,0,34.277703459,0.9275303701,7.417968663
 H,0,34.380181633,0.5065783887,6.5092021769
 C,0,33.4232761589,0.5073957818,8.4037031753
 C,0,34.9479349312,2.0044870606,7.8880039958
 H,0,35.6848884614,2.5443563712,7.3295257773
 N,0,34.5695476102,2.2908656072,9.1101868036
 C,0,33.6229127027,1.3672915911,9.4452200495
 H,0,33.1530350062,1.3858670889,10.4065242309
 O,0,35.669,5.601,11.549
 H,0,34.818,5.951,11.813
 H,0,36.4640000001,5.876,11.838
 Recover connectivity data from disk.
 Stoichiometry    C34H36FeN6O(1+,2)
 Framework group  C1[X(C34H36FeN6O)]
 Deg. of freedom   228
 Full point group                 C1      NOp   1
 Largest Abelian subgroup         C1      NOp   1
 Largest concise Abelian subgroup C1      NOp   1
                         Standard orientation:                         
 ---------------------------------------------------------------------
 Center     Atomic      Atomic             Coordinates (Angstroms)
 Number     Number       Type             X           Y           Z
 ---------------------------------------------------------------------
      1         26           0       -0.014862   -0.191468   -0.296452
      2          7           0       -1.261145   -1.750056   -0.526819
      3          7           0       -1.602965    1.048955   -0.369963
      4          7           0        1.208631    1.394935   -0.190648
      5          7           0        1.544045   -1.428637   -0.337661
      6          6           0       -0.913257   -3.063626   -0.552362
      7          6           0       -2.087880   -3.905869   -0.612235
      8          6           0       -3.158027   -3.067382   -0.616824
      9          6           0       -2.620287   -1.725707   -0.556564
     10          6           0       -2.917723    0.703230   -0.414700
     11          6           0       -3.761632    1.868673   -0.340227
     12          6           0       -2.921007    2.947080   -0.271457
     13          6           0       -1.575033    2.405298   -0.290107
     14          6           0        0.861094    2.709302   -0.269474
     15          6           0        2.025508    3.544208   -0.396115
     16          6           0        3.105256    2.698689   -0.407289
     17          6           0        2.564869    1.359793   -0.282657
     18          6           0        2.857131   -1.077423   -0.334059
     19          6           0        3.701441   -2.244818   -0.471134
     20          6           0        2.862531   -3.309090   -0.576974
     21          6           0        1.518954   -2.777190   -0.496448
     22          6           0        0.379245   -3.554509   -0.555916
     23          1           0        0.506581   -4.623666   -0.630762
     24          6           0       -3.402430   -0.588618   -0.527758
     25          1           0       -4.472931   -0.718836   -0.575983
     26          6           0       -0.438206    3.187545   -0.245562
     27          1           0       -0.571757    4.258552   -0.255414
     28          6           0        3.342482    0.214491   -0.254873
     29          1           0        4.414225    0.340113   -0.284573
     30          6           0       -4.612469   -3.390208   -0.669486
     31          1           0       -4.768252   -4.465089   -0.719185
     32          1           0       -5.074493   -2.936163   -1.546317
     33          1           0       -5.123987   -3.010721    0.215833
     34          6           0       -2.054541   -5.395361   -0.654374
     35          1           0       -1.536796   -5.791496    0.219407
     36          1           0       -1.528722   -5.742246   -1.544299
     37          1           0       -3.061552   -5.805222   -0.671264
     38          6           0       -5.249826    1.849105   -0.285802
     39          1           0       -5.604350    1.006005    0.305763
     40          1           0       -5.675300    1.760510   -1.286779
     41          1           0       -5.618564    2.769311    0.163114
     42          6           0       -3.244744    4.352807   -0.165957
     43          1           0       -2.554680    4.950141    0.418998
     44          6           0       -4.293956    4.946282   -0.725996
     45          1           0       -4.984507    4.413452   -1.356036
     46          1           0       -4.482880    5.998990   -0.594610
     47          6           0        2.014078    5.032288   -0.442137
     48          1           0        1.255462    5.432153    0.229054
     49          1           0        1.794066    5.390970   -1.449316
     50          1           0        2.984603    5.422591   -0.142677
     51          6           0        4.512338    3.014758   -0.513451
     52          1           0        5.182542    2.356310    0.027234
     53          6           0        5.028066    4.019740   -1.214070
     54          1           0        4.418156    4.676768   -1.809133
     55          1           0        6.089306    4.204417   -1.236073
     56          6           0        5.191204   -2.208338   -0.497448
     57          1           0        5.580423   -1.762660    0.418283
     58          1           0        5.546029   -1.613594   -1.339749
     59          1           0        5.600867   -3.211167   -0.590544
     60          6           0        3.184956   -4.753708   -0.751199
     61          1           0        4.260338   -4.908160   -0.794958
     62          1           0        2.745518   -5.136350   -1.672603
     63          1           0        2.787961   -5.337281    0.079904
     64          6           0        1.100826   -0.084331    5.150973
     65          1           0        0.672726    0.728348    5.737748
     66          1           0        2.156026    0.117033    4.995217
     67          1           0        1.002138   -1.006688    5.723477
     68          7           0       -0.930801   -0.413552    3.724053
     69          1           0       -1.577632   -0.510519    4.489407
     70          6           0        0.418359   -0.201080    3.837432
     71          6           0       -1.228385   -0.464407    2.405404
     72          1           0       -2.214260   -0.619315    2.017445
     73          7           0       -0.150233   -0.297049    1.678424
     74          6           0        0.882282   -0.133821    2.555136
     75          1           0        1.881539    0.020750    2.204664
     76          8           0        0.201131    0.074378   -2.546760
     77          1           0        0.704282    0.883539   -2.638928
     78          1           0       -0.034828   -0.476622   -3.203946
 ---------------------------------------------------------------------
 Rotational constants (GHZ):           0.0925991           0.0909653           0.0594035
 General basis read from cards:  (5D, 7F)
 There are   723 symmetry adapted cartesian basis functions of A   symmetry.
 There are   679 symmetry adapted basis functions of A   symmetry.
   679 basis functions,  1378 primitive gaussians,   723 cartesian basis functions
   158 alpha electrons      157 beta electrons
       nuclear repulsion energy      5963.5961229090 Hartrees.
 NAtoms=   78 NActive=   78 NUniq=   78 SFac= 1.00D+00 NAtFMM=   60 NAOKFM=T Big=T
 Integral buffers will be    131072 words long.
 Raffenetti 2 integral format.
 Two-electron integral symmetry is turned on.
 R6APFD:  NTU= -4 IXU= 1 FactS= 1.050
 Nuclear repulsion after empirical dispersion term =     5963.4434700823 Hartrees.
 One-electron integrals computed using PRISM.
 NBasis=   679 RedAO= T EigKep=  2.56D-04  NBF=   679
 NBsUse=   679 1.00D-06 EigRej= -1.00D+00 NBFU=   679
 ExpMin= 4.20D-02 ExpMax= 3.01D+05 ExpMxC= 2.91D+03 IAcc=3 IRadAn=         5 AccDes= 0.00D+00
 Harris functional with IExCor= 3731 and IRadAn=       5 diagonalized for initial guess.
 HarFok:  IExCor= 3731 AccDes= 0.00D+00 IRadAn=         5 IDoV= 1 UseB2=F ITyADJ=14
 ICtDFT=  3500011 ScaDFX=  1.000000  1.000000  1.000000  1.000000
 FoFCou: FMM=F IPFlag=           0 FMFlag=      100000 FMFlg1=        2001
         NFxFlg=           0 DoJE=T BraDBF=F KetDBF=T FulRan=T
         wScrn=  0.000000 ICntrl=       500 IOpCl=  0 I1Cent=   200000004 NGrid=           0
         NMat0=    1 NMatS0=      1 NMatT0=    0 NMatD0=    1 NMtDS0=    0 NMtDT0=    0
 Petite list used in FoFCou.
 Initial guess <Sx>= 0.0000 <Sy>= 0.0000 <Sz>= 0.5000 <S**2>= 0.7500 S= 0.5000
 Requested convergence on RMS density matrix=1.00D-08 within 999 cycles.
 Requested convergence on MAX density matrix=1.00D-06.
 Requested convergence on             energy=1.00D-06.
 No special actions if energy rises.
 EnCoef did   100 forward-backward iterations
 EnCoef did   100 forward-backward iterations
 EnCoef did   100 forward-backward iterations
 EnCoef did   100 forward-backward iterations
 EnCoef did     4 forward-backward iterations
 EnCoef did     2 forward-backward iterations
 EnCoef did     2 forward-backward iterations
 EnCoef did     4 forward-backward iterations
 Restarting incremental Fock formation.
 Rare condition: small coef for last iteration:  0.000D+00
 Rare condition: small coef for last iteration:  0.000D+00
 Rare condition: small coef for last iteration:  0.000D+00
 Rare condition: small coef for last iteration:  0.000D+00
 Rare condition: small coef for last iteration:  0.000D+00
 Rare condition: small coef for last iteration:  0.000D+00
 Restarting incremental Fock formation.
 Restarting incremental Fock formation.
 Restarting incremental Fock formation.
 SCF Done:  E(UAPFD) =  -2983.20836981     A.U. after   83 cycles
            NFock= 83  Conv=0.37D-08     -V/T= 2.0038
 <Sx>= 0.0000 <Sy>= 0.0000 <Sz>= 0.5000 <S**2>= 0.8099 S= 0.5295
 <L.S>=  0.00000000000    
 Annihilation of the first spin contaminant:
 S**2 before annihilation     0.8099,   after     0.7510

 **********************************************************************

            Population analysis using the SCF Density.

 **********************************************************************

 Orbital symmetries:
 Alpha Orbitals:
       Occupied  (A) (A) (A) (A) (A) (A) (A) (A) (A) (A) (A) (A)
                 (A) (A) (A) (A) (A) (A) (A) (A) (A) (A) (A) (A)
                 (A) (A) (A) (A) (A) (A) (A) (A) (A) (A) (A) (A)
                 (A) (A) (A) (A) (A) (A) (A) (A) (A) (A) (A) (A)
                 (A) (A) (A) (A) (A) (A) (A) (A) (A) (A) (A) (A)
                 (A) (A) (A) (A) (A) (A) (A) (A) (A) (A) (A) (A)
                 (A) (A) (A) (A) (A) (A) (A) (A) (A) (A) (A) (A)
                 (A) (A) (A) (A) (A) (A) (A) (A) (A) (A) (A) (A)
                 (A) (A) (A) (A) (A) (A) (A) (A) (A) (A) (A) (A)
                 (A) (A) (A) (A) (A) (A) (A) (A) (A) (A) (A) (A)
                 (A) (A) (A) (A) (A) (A) (A) (A) (A) (A) (A) (A)
                 (A) (A) (A) (A) (A) (A) (A) (A) (A) (A) (A) (A)
                 (A) (A) (A) (A) (A) (A) (A) (A) (A) (A) (A) (A)
                 (A) (A)
       Virtual   (A) (A) (A) (A) (A) (A) (A) (A) (A) (A) (A) (A)
                 (A) (A) (A) (A) (A) (A) (A) (A) (A) (A) (A) (A)
                 (A) (A) (A) (A) (A) (A) (A) (A) (A) (A) (A) (A)
                 (A) (A) (A) (A) (A) (A) (A) (A) (A) (A) (A) (A)
                 (A) (A) (A) (A) (A) (A) (A) (A) (A) (A) (A) (A)
                 (A) (A) (A) (A) (A) (A) (A) (A) (A) (A) (A) (A)
                 (A) (A) (A) (A) (A) (A) (A) (A) (A) (A) (A) (A)
                 (A) (A) (A) (A) (A) (A) (A) (A) (A) (A) (A) (A)
                 (A) (A) (A) (A) (A) (A) (A) (A) (A) (A) (A) (A)
                 (A) (A) (A) (A) (A) (A) (A) (A) (A) (A) (A) (A)
                 (A) (A) (A) (A) (A) (A) (A) (A) (A) (A) (A) (A)
                 (A) (A) (A) (A) (A) (A) (A) (A) (A) (A) (A) (A)
                 (A) (A) (A) (A) (A) (A) (A) (A) (A) (A) (A) (A)
                 (A) (A) (A) (A) (A) (A) (A) (A) (A) (A) (A) (A)
                 (A) (A) (A) (A) (A) (A) (A) (A) (A) (A) (A) (A)
                 (A) (A) (A) (A) (A) (A) (A) (A) (A) (A) (A) (A)
                 (A) (A) (A) (A) (A) (A) (A) (A) (A) (A) (A) (A)
                 (A) (A) (A) (A) (A) (A) (A) (A) (A) (A) (A) (A)
                 (A) (A) (A) (A) (A) (A) (A) (A) (A) (A) (A) (A)
                 (A) (A) (A) (A) (A) (A) (A) (A) (A) (A) (A) (A)
                 (A) (A) (A) (A) (A) (A) (A) (A) (A) (A) (A) (A)
                 (A) (A) (A) (A) (A) (A) (A) (A) (A) (A) (A) (A)
                 (A) (A) (A) (A) (A) (A) (A) (A) (A) (A) (A) (A)
                 (A) (A) (A) (A) (A) (A) (A) (A) (A) (A) (A) (A)
                 (A) (A) (A) (A) (A) (A) (A) (A) (A) (A) (A) (A)
                 (A) (A) (A) (A) (A) (A) (A) (A) (A) (A) (A) (A)
                 (A) (A) (A) (A) (A) (A) (A) (A) (A) (A) (A) (A)
                 (A) (A) (A) (A) (A) (A) (A) (A) (A) (A) (A) (A)
                 (A) (A) (A) (A) (A) (A) (A) (A) (A) (A) (A) (A)
                 (A) (A) (A) (A) (A) (A) (A) (A) (A) (A) (A) (A)
                 (A) (A) (A) (A) (A) (A) (A) (A) (A) (A) (A) (A)
                 (A) (A) (A) (A) (A) (A) (A) (A) (A) (A) (A) (A)
                 (A) (A) (A) (A) (A) (A) (A) (A) (A) (A) (A) (A)
                 (A) (A) (A) (A) (A) (A) (A) (A) (A) (A) (A) (A)
                 (A) (A) (A) (A) (A) (A) (A) (A) (A) (A) (A) (A)
                 (A) (A) (A) (A) (A) (A) (A) (A) (A) (A) (A) (A)
                 (A) (A) (A) (A) (A) (A) (A) (A) (A) (A) (A) (A)
                 (A) (A) (A) (A) (A) (A) (A) (A) (A) (A) (A) (A)
                 (A) (A) (A) (A) (A) (A) (A) (A) (A) (A) (A) (A)
                 (A) (A) (A) (A) (A) (A) (A) (A) (A) (A) (A) (A)
                 (A) (A) (A) (A) (A) (A) (A) (A) (A) (A) (A) (A)
                 (A) (A) (A) (A) (A) (A) (A) (A) (A) (A) (A) (A)
                 (A) (A) (A) (A) (A) (A) (A) (A) (A) (A) (A) (A)
                 (A) (A) (A) (A) (A)
 Beta  Orbitals:
       Occupied  (A) (A) (A) (A) (A) (A) (A) (A) (A) (A) (A) (A)
                 (A) (A) (A) (A) (A) (A) (A) (A) (A) (A) (A) (A)
                 (A) (A) (A) (A) (A) (A) (A) (A) (A) (A) (A) (A)
                 (A) (A) (A) (A) (A) (A) (A) (A) (A) (A) (A) (A)
                 (A) (A) (A) (A) (A) (A) (A) (A) (A) (A) (A) (A)
                 (A) (A) (A) (A) (A) (A) (A) (A) (A) (A) (A) (A)
                 (A) (A) (A) (A) (A) (A) (A) (A) (A) (A) (A) (A)
                 (A) (A) (A) (A) (A) (A) (A) (A) (A) (A) (A) (A)
                 (A) (A) (A) (A) (A) (A) (A) (A) (A) (A) (A) (A)
                 (A) (A) (A) (A) (A) (A) (A) (A) (A) (A) (A) (A)
                 (A) (A) (A) (A) (A) (A) (A) (A) (A) (A) (A) (A)
                 (A) (A) (A) (A) (A) (A) (A) (A) (A) (A) (A) (A)
                 (A) (A) (A) (A) (A) (A) (A) (A) (A) (A) (A) (A)
                 (A)
       Virtual   (A) (A) (A) (A) (A) (A) (A) (A) (A) (A) (A) (A)
                 (A) (A) (A) (A) (A) (A) (A) (A) (A) (A) (A) (A)
                 (A) (A) (A) (A) (A) (A) (A) (A) (A) (A) (A) (A)
                 (A) (A) (A) (A) (A) (A) (A) (A) (A) (A) (A) (A)
                 (A) (A) (A) (A) (A) (A) (A) (A) (A) (A) (A) (A)
                 (A) (A) (A) (A) (A) (A) (A) (A) (A) (A) (A) (A)
                 (A) (A) (A) (A) (A) (A) (A) (A) (A) (A) (A) (A)
                 (A) (A) (A) (A) (A) (A) (A) (A) (A) (A) (A) (A)
                 (A) (A) (A) (A) (A) (A) (A) (A) (A) (A) (A) (A)
                 (A) (A) (A) (A) (A) (A) (A) (A) (A) (A) (A) (A)
                 (A) (A) (A) (A) (A) (A) (A) (A) (A) (A) (A) (A)
                 (A) (A) (A) (A) (A) (A) (A) (A) (A) (A) (A) (A)
                 (A) (A) (A) (A) (A) (A) (A) (A) (A) (A) (A) (A)
                 (A) (A) (A) (A) (A) (A) (A) (A) (A) (A) (A) (A)
                 (A) (A) (A) (A) (A) (A) (A) (A) (A) (A) (A) (A)
                 (A) (A) (A) (A) (A) (A) (A) (A) (A) (A) (A) (A)
                 (A) (A) (A) (A) (A) (A) (A) (A) (A) (A) (A) (A)
                 (A) (A) (A) (A) (A) (A) (A) (A) (A) (A) (A) (A)
                 (A) (A) (A) (A) (A) (A) (A) (A) (A) (A) (A) (A)
                 (A) (A) (A) (A) (A) (A) (A) (A) (A) (A) (A) (A)
                 (A) (A) (A) (A) (A) (A) (A) (A) (A) (A) (A) (A)
                 (A) (A) (A) (A) (A) (A) (A) (A) (A) (A) (A) (A)
                 (A) (A) (A) (A) (A) (A) (A) (A) (A) (A) (A) (A)
                 (A) (A) (A) (A) (A) (A) (A) (A) (A) (A) (A) (A)
                 (A) (A) (A) (A) (A) (A) (A) (A) (A) (A) (A) (A)
                 (A) (A) (A) (A) (A) (A) (A) (A) (A) (A) (A) (A)
                 (A) (A) (A) (A) (A) (A) (A) (A) (A) (A) (A) (A)
                 (A) (A) (A) (A) (A) (A) (A) (A) (A) (A) (A) (A)
                 (A) (A) (A) (A) (A) (A) (A) (A) (A) (A) (A) (A)
                 (A) (A) (A) (A) (A) (A) (A) (A) (A) (A) (A) (A)
                 (A) (A) (A) (A) (A) (A) (A) (A) (A) (A) (A) (A)
                 (A) (A) (A) (A) (A) (A) (A) (A) (A) (A) (A) (A)
                 (A) (A) (A) (A) (A) (A) (A) (A) (A) (A) (A) (A)
                 (A) (A) (A) (A) (A) (A) (A) (A) (A) (A) (A) (A)
                 (A) (A) (A) (A) (A) (A) (A) (A) (A) (A) (A) (A)
                 (A) (A) (A) (A) (A) (A) (A) (A) (A) (A) (A) (A)
                 (A) (A) (A) (A) (A) (A) (A) (A) (A) (A) (A) (A)
                 (A) (A) (A) (A) (A) (A) (A) (A) (A) (A) (A) (A)
                 (A) (A) (A) (A) (A) (A) (A) (A) (A) (A) (A) (A)
                 (A) (A) (A) (A) (A) (A) (A) (A) (A) (A) (A) (A)
                 (A) (A) (A) (A) (A) (A) (A) (A) (A) (A) (A) (A)
                 (A) (A) (A) (A) (A) (A) (A) (A) (A) (A) (A) (A)
                 (A) (A) (A) (A) (A) (A) (A) (A) (A) (A) (A) (A)
                 (A) (A) (A) (A) (A) (A)
 The electronic state is 2-A.
 Alpha  occ. eigenvalues -- -256.38177 -30.25099 -26.09794 -26.09565 -26.06790
 Alpha  occ. eigenvalues --  -19.30364 -14.54274 -14.51208 -14.47196 -14.47182
 Alpha  occ. eigenvalues --  -14.46979 -14.46654 -10.38419 -10.35506 -10.33214
 Alpha  occ. eigenvalues --  -10.33182 -10.33136 -10.33109 -10.33025 -10.32988
 Alpha  occ. eigenvalues --  -10.32940 -10.32873 -10.32810 -10.30584 -10.30283
 Alpha  occ. eigenvalues --  -10.30100 -10.30075 -10.30040 -10.30022 -10.30014
 Alpha  occ. eigenvalues --  -10.29995 -10.29962 -10.29796 -10.29720 -10.29688
 Alpha  occ. eigenvalues --  -10.29638 -10.29234 -10.29108 -10.28135 -10.28081
 Alpha  occ. eigenvalues --  -10.28072 -10.28023 -10.27949 -10.27948 -10.27740
 Alpha  occ. eigenvalues --  -10.27718  -3.63770  -2.42101  -2.41563  -2.35697
 Alpha  occ. eigenvalues --   -1.17124  -1.16524  -1.08634  -1.07764  -1.07496
 Alpha  occ. eigenvalues --   -1.06642  -1.02943  -0.93161  -0.91918  -0.91571
 Alpha  occ. eigenvalues --   -0.91084  -0.90833  -0.90628  -0.90396  -0.90301
 Alpha  occ. eigenvalues --   -0.86439  -0.85206  -0.84897  -0.84005  -0.82647
 Alpha  occ. eigenvalues --   -0.82325  -0.80917  -0.79940  -0.78281  -0.78071
 Alpha  occ. eigenvalues --   -0.77782  -0.76140  -0.74802  -0.74751  -0.72498
 Alpha  occ. eigenvalues --   -0.72231  -0.70381  -0.69751  -0.68372  -0.67862
 Alpha  occ. eigenvalues --   -0.67029  -0.64777  -0.64051  -0.63297  -0.62947
 Alpha  occ. eigenvalues --   -0.61513  -0.61409  -0.61074  -0.59140  -0.58842
 Alpha  occ. eigenvalues --   -0.58280  -0.57885  -0.57705  -0.55658  -0.55047
 Alpha  occ. eigenvalues --   -0.54641  -0.54429  -0.54003  -0.53810  -0.53675
 Alpha  occ. eigenvalues --   -0.53598  -0.53066  -0.52987  -0.52738  -0.52426
 Alpha  occ. eigenvalues --   -0.52229  -0.52166  -0.51881  -0.51660  -0.51332
 Alpha  occ. eigenvalues --   -0.50419  -0.50392  -0.50214  -0.50042  -0.49880
 Alpha  occ. eigenvalues --   -0.49802  -0.49523  -0.49391  -0.49033  -0.48786
 Alpha  occ. eigenvalues --   -0.48277  -0.47946  -0.47826  -0.47711  -0.47424
 Alpha  occ. eigenvalues --   -0.47167  -0.46915  -0.46448  -0.46101  -0.45886
 Alpha  occ. eigenvalues --   -0.45403  -0.44515  -0.44403  -0.43923  -0.43348
 Alpha  occ. eigenvalues --   -0.42996  -0.42499  -0.42128  -0.41168  -0.41019
 Alpha  occ. eigenvalues --   -0.39995  -0.39425  -0.38834  -0.38704  -0.36929
 Alpha  occ. eigenvalues --   -0.36687  -0.34686  -0.33355  -0.32759  -0.31911
 Alpha  occ. eigenvalues --   -0.31515  -0.29143  -0.28293
 Alpha virt. eigenvalues --   -0.19039  -0.16983  -0.16917  -0.14300  -0.11257
 Alpha virt. eigenvalues --   -0.09024  -0.07692  -0.06462  -0.04942  -0.04112
 Alpha virt. eigenvalues --   -0.03311  -0.01679  -0.01333  -0.00575   0.01059
 Alpha virt. eigenvalues --    0.01339   0.02046   0.02740   0.03293   0.03547
 Alpha virt. eigenvalues --    0.04093   0.04484   0.04607   0.04947   0.05057
 Alpha virt. eigenvalues --    0.05309   0.05878   0.05949   0.06347   0.06616
 Alpha virt. eigenvalues --    0.06709   0.07338   0.07714   0.08069   0.08224
 Alpha virt. eigenvalues --    0.08350   0.08722   0.08791   0.09185   0.09409
 Alpha virt. eigenvalues --    0.09446   0.09702   0.10049   0.10299   0.10419
 Alpha virt. eigenvalues --    0.10764   0.11362   0.11962   0.12104   0.12483
 Alpha virt. eigenvalues --    0.12694   0.12899   0.13158   0.13469   0.13880
 Alpha virt. eigenvalues --    0.14389   0.15245   0.15302   0.15946   0.16273
 Alpha virt. eigenvalues --    0.16663   0.16932   0.17266   0.17320   0.18211
 Alpha virt. eigenvalues --    0.18318   0.19815   0.20063   0.20575   0.21185
 Alpha virt. eigenvalues --    0.21676   0.22222   0.23433   0.23654   0.23875
 Alpha virt. eigenvalues --    0.25290   0.25917   0.26272   0.26492   0.27282
 Alpha virt. eigenvalues --    0.27495   0.28875   0.29469   0.30669   0.31239
 Alpha virt. eigenvalues --    0.31934   0.32795   0.33530   0.34158   0.34454
 Alpha virt. eigenvalues --    0.35031   0.36312   0.38032   0.38483   0.38558
 Alpha virt. eigenvalues --    0.39048   0.39597   0.39992   0.40334   0.40938
 Alpha virt. eigenvalues --    0.41092   0.41565   0.42138   0.42389   0.43034
 Alpha virt. eigenvalues --    0.43147   0.43624   0.43657   0.44177   0.44237
 Alpha virt. eigenvalues --    0.44959   0.45353   0.45500   0.46355   0.46539
 Alpha virt. eigenvalues --    0.46921   0.47332   0.47763   0.48231   0.48674
 Alpha virt. eigenvalues --    0.48951   0.49554   0.50207   0.50469   0.50780
 Alpha virt. eigenvalues --    0.50979   0.51312   0.51924   0.52611   0.53020
 Alpha virt. eigenvalues --    0.53164   0.53855   0.54315   0.54597   0.55103
 Alpha virt. eigenvalues --    0.55300   0.55724   0.55856   0.56234   0.56595
 Alpha virt. eigenvalues --    0.57112   0.57126   0.57554   0.57752   0.57964
 Alpha virt. eigenvalues --    0.58254   0.58692   0.59991   0.60100   0.60519
 Alpha virt. eigenvalues --    0.61194   0.61633   0.62072   0.62870   0.63130
 Alpha virt. eigenvalues --    0.63373   0.63692   0.64524   0.65305   0.65415
 Alpha virt. eigenvalues --    0.66328   0.66589   0.66920   0.67417   0.67982
 Alpha virt. eigenvalues --    0.68226   0.68345   0.68724   0.68954   0.69254
 Alpha virt. eigenvalues --    0.69697   0.70097   0.70187   0.70754   0.70899
 Alpha virt. eigenvalues --    0.71753   0.72136   0.72868   0.73568   0.73884
 Alpha virt. eigenvalues --    0.74240   0.74687   0.76256   0.76627   0.76819
 Alpha virt. eigenvalues --    0.77283   0.77806   0.78224   0.78456   0.78565
 Alpha virt. eigenvalues --    0.79117   0.79322   0.79613   0.80205   0.80752
 Alpha virt. eigenvalues --    0.81354   0.81586   0.81833   0.81993   0.82973
 Alpha virt. eigenvalues --    0.83105   0.83389   0.83549   0.83703   0.84327
 Alpha virt. eigenvalues --    0.84523   0.84942   0.85259   0.85647   0.86063
 Alpha virt. eigenvalues --    0.86669   0.87016   0.87217   0.87779   0.88088
 Alpha virt. eigenvalues --    0.88575   0.88968   0.89112   0.89945   0.90066
 Alpha virt. eigenvalues --    0.90730   0.90940   0.91415   0.91641   0.92107
 Alpha virt. eigenvalues --    0.92272   0.92491   0.93211   0.93854   0.94399
 Alpha virt. eigenvalues --    0.94641   0.94879   0.95111   0.96329   0.97274
 Alpha virt. eigenvalues --    0.97736   0.97912   0.98615   0.99283   0.99515
 Alpha virt. eigenvalues --    1.00808   1.01495   1.02532   1.03511   1.04359
 Alpha virt. eigenvalues --    1.05015   1.05719   1.05982   1.07264   1.07504
 Alpha virt. eigenvalues --    1.07782   1.08413   1.09243   1.09386   1.10044
 Alpha virt. eigenvalues --    1.10582   1.10742   1.11224   1.11794   1.12151
 Alpha virt. eigenvalues --    1.12490   1.13639   1.14383   1.14674   1.15203
 Alpha virt. eigenvalues --    1.15489   1.17288   1.17837   1.18424   1.19898
 Alpha virt. eigenvalues --    1.20061   1.20865   1.21173   1.21935   1.22566
 Alpha virt. eigenvalues --    1.22659   1.23816   1.24207   1.24683   1.26266
 Alpha virt. eigenvalues --    1.26817   1.26852   1.27615   1.27782   1.28377
 Alpha virt. eigenvalues --    1.28569   1.28720   1.29287   1.29991   1.30080
 Alpha virt. eigenvalues --    1.31855   1.32938   1.33219   1.33805   1.34350
 Alpha virt. eigenvalues --    1.34921   1.35896   1.36762   1.37375   1.38176
 Alpha virt. eigenvalues --    1.38420   1.39115   1.40500   1.40850   1.41938
 Alpha virt. eigenvalues --    1.42424   1.43656   1.44416   1.44528   1.44881
 Alpha virt. eigenvalues --    1.45311   1.46476   1.47197   1.48931   1.49566
 Alpha virt. eigenvalues --    1.50491   1.51664   1.52793   1.53054   1.54164
 Alpha virt. eigenvalues --    1.55091   1.55598   1.57081   1.57336   1.58553
 Alpha virt. eigenvalues --    1.59485   1.60221   1.60808   1.61790   1.62372
 Alpha virt. eigenvalues --    1.63666   1.64522   1.65594   1.69260   1.69699
 Alpha virt. eigenvalues --    1.70212   1.70559   1.71045   1.71322   1.71968
 Alpha virt. eigenvalues --    1.72047   1.72914   1.73186   1.73758   1.74360
 Alpha virt. eigenvalues --    1.74718   1.75452   1.76034   1.76226   1.77149
 Alpha virt. eigenvalues --    1.77237   1.77688   1.78610   1.79291   1.80182
 Alpha virt. eigenvalues --    1.80527   1.81540   1.81761   1.82766   1.83634
 Alpha virt. eigenvalues --    1.84068   1.84894   1.85432   1.85625   1.86138
 Alpha virt. eigenvalues --    1.86768   1.87562   1.88232   1.88966   1.89475
 Alpha virt. eigenvalues --    1.90607   1.90905   1.91240   1.92393   1.92601
 Alpha virt. eigenvalues --    1.93918   1.95012   1.95371   1.95516   1.96279
 Alpha virt. eigenvalues --    1.96513   1.96979   1.97813   1.98058   1.98420
 Alpha virt. eigenvalues --    1.99685   2.00568   2.01063   2.02049   2.02857
 Alpha virt. eigenvalues --    2.03611   2.04273   2.05087   2.05903   2.06636
 Alpha virt. eigenvalues --    2.07183   2.07572   2.08599   2.09387   2.09728
 Alpha virt. eigenvalues --    2.11467   2.11674   2.11849   2.13395   2.13887
 Alpha virt. eigenvalues --    2.14240   2.14836   2.15255   2.16347   2.16866
 Alpha virt. eigenvalues --    2.17027   2.17526   2.17902   2.18612   2.18783
 Alpha virt. eigenvalues --    2.19101   2.19833   2.20487   2.20978   2.21148
 Alpha virt. eigenvalues --    2.21781   2.22297   2.22457   2.24014   2.24484
 Alpha virt. eigenvalues --    2.25391   2.25819   2.25892   2.26908   2.27367
 Alpha virt. eigenvalues --    2.27759   2.28134   2.28198   2.28870   2.29382
 Alpha virt. eigenvalues --    2.29958   2.30955   2.31584   2.32508   2.32790
 Alpha virt. eigenvalues --    2.33223   2.34172   2.34389   2.34923   2.35196
 Alpha virt. eigenvalues --    2.35697   2.36670   2.38145   2.38494   2.40535
 Alpha virt. eigenvalues --    2.41461   2.42724   2.43457   2.43699   2.44057
 Alpha virt. eigenvalues --    2.44484   2.45060   2.46168   2.46711   2.47012
 Alpha virt. eigenvalues --    2.47278   2.47419   2.49086   2.50302   2.50772
 Alpha virt. eigenvalues --    2.51217   2.53210   2.54424   2.55928   2.57057
 Alpha virt. eigenvalues --    2.58550   2.58981   2.59485   2.60104   2.61198
 Alpha virt. eigenvalues --    2.62881   2.64860   2.65211   2.66514   2.68644
 Alpha virt. eigenvalues --    2.69475   2.70441   2.71174   2.72065   2.77211
 Alpha virt. eigenvalues --    2.77892   2.78491   2.79401   2.81677   2.82668
 Alpha virt. eigenvalues --    2.83326   2.86049   2.87075   2.87644   2.88958
 Alpha virt. eigenvalues --    2.89925   2.90644   2.90912   2.92792   2.95231
 Alpha virt. eigenvalues --    2.95885   2.97562   3.02797   3.04372   3.04939
 Alpha virt. eigenvalues --    3.11001   3.13678   3.15355   3.20646   3.20680
 Alpha virt. eigenvalues --    3.28930   3.29691   3.30693   3.36717   3.36924
 Alpha virt. eigenvalues --    3.47928   3.54500   3.73547   3.77726   4.04811
 Alpha virt. eigenvalues --    4.14757
  Beta  occ. eigenvalues -- -256.38141 -30.22914 -26.07387 -26.07150 -26.06142
  Beta  occ. eigenvalues --  -19.30362 -14.54271 -14.51282 -14.47233 -14.47213
  Beta  occ. eigenvalues --  -14.47040 -14.46719 -10.38401 -10.35509 -10.33210
  Beta  occ. eigenvalues --  -10.33177 -10.33128 -10.33102 -10.33017 -10.32990
  Beta  occ. eigenvalues --  -10.32939 -10.32869 -10.32802 -10.30584 -10.30264
  Beta  occ. eigenvalues --  -10.30082 -10.30078 -10.30049 -10.30018 -10.30003
  Beta  occ. eigenvalues --  -10.29999 -10.29943 -10.29808 -10.29720 -10.29690
  Beta  occ. eigenvalues --  -10.29641 -10.29240 -10.29107 -10.28136 -10.28083
  Beta  occ. eigenvalues --  -10.28072 -10.28024 -10.27949 -10.27937 -10.27740
  Beta  occ. eigenvalues --  -10.27719  -3.58471  -2.34764  -2.34189  -2.33533
  Beta  occ. eigenvalues --   -1.17136  -1.16519  -1.08650  -1.07746  -1.07552
  Beta  occ. eigenvalues --   -1.06665  -1.02986  -0.93163  -0.91899  -0.91580
  Beta  occ. eigenvalues --   -0.91054  -0.90834  -0.90632  -0.90406  -0.90309
  Beta  occ. eigenvalues --   -0.86434  -0.85204  -0.84914  -0.84001  -0.82646
  Beta  occ. eigenvalues --   -0.82326  -0.80918  -0.79944  -0.78284  -0.78076
  Beta  occ. eigenvalues --   -0.77799  -0.76163  -0.74801  -0.74746  -0.72499
  Beta  occ. eigenvalues --   -0.72233  -0.70379  -0.69757  -0.68365  -0.67861
  Beta  occ. eigenvalues --   -0.67031  -0.64777  -0.64060  -0.63300  -0.62944
  Beta  occ. eigenvalues --   -0.61524  -0.61430  -0.61089  -0.59118  -0.58813
  Beta  occ. eigenvalues --   -0.58219  -0.57894  -0.57690  -0.55659  -0.55013
  Beta  occ. eigenvalues --   -0.54570  -0.54367  -0.53903  -0.53806  -0.53602
  Beta  occ. eigenvalues --   -0.53515  -0.53061  -0.52990  -0.52740  -0.52353
  Beta  occ. eigenvalues --   -0.52158  -0.52115  -0.51867  -0.51651  -0.51349
  Beta  occ. eigenvalues --   -0.50398  -0.50249  -0.50021  -0.49965  -0.49866
  Beta  occ. eigenvalues --   -0.49585  -0.49384  -0.49357  -0.49034  -0.48749
  Beta  occ. eigenvalues --   -0.48246  -0.47921  -0.47669  -0.47639  -0.47357
  Beta  occ. eigenvalues --   -0.47000  -0.46818  -0.46270  -0.45855  -0.45385
  Beta  occ. eigenvalues --   -0.44649  -0.44491  -0.43862  -0.43561  -0.43243
  Beta  occ. eigenvalues --   -0.42512  -0.42031  -0.41187  -0.40936  -0.39472
  Beta  occ. eigenvalues --   -0.38754  -0.38191  -0.37177  -0.37015  -0.36413
  Beta  occ. eigenvalues --   -0.34637  -0.33597  -0.32837  -0.31924  -0.31375
  Beta  occ. eigenvalues --   -0.29176  -0.28213
  Beta virt. eigenvalues --   -0.20343  -0.16994  -0.16735  -0.16041  -0.11335
  Beta virt. eigenvalues --   -0.11214  -0.08816  -0.07612  -0.06439  -0.04855
  Beta virt. eigenvalues --   -0.04088  -0.03252  -0.01640  -0.01178  -0.00455
  Beta virt. eigenvalues --    0.01098   0.01375   0.02047   0.02740   0.03295
  Beta virt. eigenvalues --    0.03556   0.04096   0.04519   0.04639   0.04963
  Beta virt. eigenvalues --    0.05096   0.05369   0.05897   0.05953   0.06392
  Beta virt. eigenvalues --    0.06621   0.06724   0.07343   0.07720   0.08074
  Beta virt. eigenvalues --    0.08226   0.08349   0.08740   0.08804   0.09205
  Beta virt. eigenvalues --    0.09416   0.09447   0.09711   0.10077   0.10317
  Beta virt. eigenvalues --    0.10422   0.10783   0.11379   0.11976   0.12114
  Beta virt. eigenvalues --    0.12492   0.12704   0.12915   0.13185   0.13490
  Beta virt. eigenvalues --    0.13913   0.14434   0.15265   0.15329   0.15953
  Beta virt. eigenvalues --    0.16334   0.16685   0.16934   0.17302   0.17328
  Beta virt. eigenvalues --    0.18230   0.18330   0.19941   0.20385   0.20766
  Beta virt. eigenvalues --    0.21214   0.21820   0.22272   0.23516   0.23703
  Beta virt. eigenvalues --    0.23947   0.25324   0.25956   0.26294   0.26518
  Beta virt. eigenvalues --    0.27296   0.27502   0.28902   0.29682   0.30708
  Beta virt. eigenvalues --    0.31319   0.31993   0.32963   0.33532   0.34172
  Beta virt. eigenvalues --    0.34464   0.35072   0.36474   0.38085   0.38552
  Beta virt. eigenvalues --    0.38587   0.39100   0.39686   0.40067   0.40387
  Beta virt. eigenvalues --    0.40961   0.41123   0.41719   0.42166   0.42407
  Beta virt. eigenvalues --    0.43056   0.43138   0.43660   0.43673   0.44193
  Beta virt. eigenvalues --    0.44253   0.44976   0.45444   0.45538   0.46433
  Beta virt. eigenvalues --    0.46603   0.47072   0.47348   0.47795   0.48245
  Beta virt. eigenvalues --    0.48693   0.48955   0.49583   0.50272   0.50506
  Beta virt. eigenvalues --    0.50798   0.51003   0.51348   0.51982   0.52644
  Beta virt. eigenvalues --    0.53021   0.53168   0.53887   0.54377   0.54643
  Beta virt. eigenvalues --    0.55273   0.55326   0.55760   0.56112   0.56251
  Beta virt. eigenvalues --    0.56597   0.57129   0.57161   0.57619   0.57762
  Beta virt. eigenvalues --    0.58026   0.58263   0.58707   0.60019   0.60177
  Beta virt. eigenvalues --    0.60586   0.61241   0.61747   0.62135   0.62921
  Beta virt. eigenvalues --    0.63154   0.63454   0.63825   0.64538   0.65335
  Beta virt. eigenvalues --    0.65474   0.66340   0.66629   0.66944   0.67480
  Beta virt. eigenvalues --    0.68011   0.68266   0.68383   0.68744   0.69089
  Beta virt. eigenvalues --    0.69287   0.69744   0.70185   0.70426   0.70775
  Beta virt. eigenvalues --    0.70984   0.71774   0.72240   0.72905   0.73589
  Beta virt. eigenvalues --    0.73922   0.74250   0.74722   0.76279   0.76634
  Beta virt. eigenvalues --    0.76853   0.77290   0.77823   0.78228   0.78476
  Beta virt. eigenvalues --    0.78590   0.79145   0.79363   0.79627   0.80230
  Beta virt. eigenvalues --    0.80782   0.81370   0.81598   0.81859   0.82067
  Beta virt. eigenvalues --    0.82995   0.83113   0.83400   0.83569   0.83731
  Beta virt. eigenvalues --    0.84339   0.84700   0.84974   0.85302   0.85732
  Beta virt. eigenvalues --    0.86350   0.86800   0.87059   0.87251   0.87865
  Beta virt. eigenvalues --    0.88104   0.88601   0.88993   0.89206   0.90000
  Beta virt. eigenvalues --    0.90089   0.90798   0.90955   0.91467   0.91654
  Beta virt. eigenvalues --    0.92134   0.92287   0.92509   0.93225   0.93881
  Beta virt. eigenvalues --    0.94423   0.94655   0.94982   0.95189   0.96343
  Beta virt. eigenvalues --    0.97320   0.97757   0.97952   0.98646   0.99347
  Beta virt. eigenvalues --    0.99595   1.00867   1.01531   1.02547   1.03676
  Beta virt. eigenvalues --    1.04422   1.05058   1.05764   1.06004   1.07312
  Beta virt. eigenvalues --    1.07577   1.07969   1.08470   1.09290   1.09420
  Beta virt. eigenvalues --    1.10056   1.10607   1.10799   1.11262   1.11822
  Beta virt. eigenvalues --    1.12203   1.12514   1.13652   1.14423   1.14896
  Beta virt. eigenvalues --    1.15303   1.15578   1.17325   1.17855   1.18457
  Beta virt. eigenvalues --    1.19907   1.20099   1.20890   1.21215   1.21953
  Beta virt. eigenvalues --    1.22592   1.22710   1.23842   1.24235   1.24733
  Beta virt. eigenvalues --    1.26304   1.26848   1.26880   1.27636   1.27802
  Beta virt. eigenvalues --    1.28399   1.28576   1.28745   1.29337   1.29998
  Beta virt. eigenvalues --    1.30197   1.31868   1.32993   1.33268   1.33801
  Beta virt. eigenvalues --    1.34368   1.34947   1.35898   1.36794   1.37372
  Beta virt. eigenvalues --    1.38192   1.38452   1.39124   1.40580   1.40906
  Beta virt. eigenvalues --    1.41969   1.42416   1.43651   1.44431   1.44558
  Beta virt. eigenvalues --    1.44905   1.45325   1.46490   1.47248   1.48958
  Beta virt. eigenvalues --    1.49634   1.50527   1.51790   1.52796   1.53117
  Beta virt. eigenvalues --    1.54254   1.55120   1.55643   1.57108   1.57367
  Beta virt. eigenvalues --    1.58620   1.59496   1.60311   1.60812   1.61845
  Beta virt. eigenvalues --    1.62417   1.63841   1.64588   1.65614   1.69278
  Beta virt. eigenvalues --    1.69710   1.70219   1.70568   1.71052   1.71353
  Beta virt. eigenvalues --    1.71980   1.72078   1.72916   1.73209   1.73769
  Beta virt. eigenvalues --    1.74386   1.74734   1.75486   1.76036   1.76229
  Beta virt. eigenvalues --    1.77143   1.77240   1.77681   1.78621   1.79295
  Beta virt. eigenvalues --    1.80201   1.80564   1.81561   1.81789   1.82841
  Beta virt. eigenvalues --    1.83679   1.84160   1.84936   1.85472   1.85695
  Beta virt. eigenvalues --    1.86279   1.86838   1.87690   1.88556   1.89037
  Beta virt. eigenvalues --    1.89671   1.90646   1.90937   1.91335   1.92438
  Beta virt. eigenvalues --    1.92655   1.93968   1.95058   1.95403   1.95584
  Beta virt. eigenvalues --    1.96295   1.96594   1.97064   1.97872   1.98119
  Beta virt. eigenvalues --    1.98438   1.99867   2.00691   2.01105   2.02073
  Beta virt. eigenvalues --    2.02948   2.03636   2.04382   2.05144   2.05964
  Beta virt. eigenvalues --    2.06654   2.07208   2.07588   2.08763   2.09469
  Beta virt. eigenvalues --    2.09883   2.11496   2.11749   2.11914   2.13409
  Beta virt. eigenvalues --    2.13927   2.14273   2.14927   2.15363   2.16361
  Beta virt. eigenvalues --    2.16874   2.17041   2.17560   2.17937   2.18634
  Beta virt. eigenvalues --    2.18816   2.19159   2.19886   2.20508   2.21121
  Beta virt. eigenvalues --    2.21285   2.21888   2.22346   2.22765   2.24049
  Beta virt. eigenvalues --    2.24854   2.25420   2.25847   2.25967   2.26979
  Beta virt. eigenvalues --    2.27423   2.27782   2.28142   2.28343   2.28899
  Beta virt. eigenvalues --    2.29492   2.30051   2.30974   2.31606   2.32530
  Beta virt. eigenvalues --    2.32809   2.33247   2.34222   2.34464   2.35069
  Beta virt. eigenvalues --    2.35235   2.35755   2.36933   2.38188   2.38515
  Beta virt. eigenvalues --    2.40773   2.41627   2.42738   2.43483   2.43776
  Beta virt. eigenvalues --    2.44115   2.44629   2.45225   2.46190   2.46803
  Beta virt. eigenvalues --    2.47045   2.47315   2.47445   2.49091   2.50395
  Beta virt. eigenvalues --    2.50824   2.51249   2.53236   2.54432   2.55938
  Beta virt. eigenvalues --    2.57065   2.58561   2.59065   2.59487   2.60124
  Beta virt. eigenvalues --    2.61201   2.62868   2.64864   2.65267   2.66534
  Beta virt. eigenvalues --    2.68641   2.69511   2.70447   2.71182   2.72062
  Beta virt. eigenvalues --    2.77199   2.77907   2.78490   2.79406   2.81691
  Beta virt. eigenvalues --    2.82673   2.83357   2.86058   2.87071   2.87633
  Beta virt. eigenvalues --    2.88947   2.89917   2.90669   2.90937   2.92831
  Beta virt. eigenvalues --    2.95215   2.95886   2.97646   3.02792   3.04396
  Beta virt. eigenvalues --    3.04940   3.10991   3.13704   3.15442   3.20647
  Beta virt. eigenvalues --    3.20692   3.28914   3.29692   3.30770   3.36720
  Beta virt. eigenvalues --    3.36914   3.53395   3.58490   3.75719   3.79474
  Beta virt. eigenvalues --    4.06098   4.16529
          Condensed to atoms (all electrons):
          Atomic-Atomic Spin Densities.
 Mulliken charges and spin densities:
               1          2
     1  Fe   0.900475   1.062949
     2  N   -0.657580  -0.029786
     3  N   -0.668736  -0.024241
     4  N   -0.661773  -0.026404
     5  N   -0.676935  -0.022134
     6  C    0.317863   0.006892
     7  C    0.037646  -0.002230
     8  C    0.038828   0.001209
     9  C    0.297069   0.004166
    10  C    0.303073   0.004933
    11  C    0.042602   0.012361
    12  C    0.006851   0.012224
    13  C    0.323913   0.003783
    14  C    0.289280   0.002766
    15  C    0.042435  -0.001762
    16  C    0.006361  -0.001162
    17  C    0.291456   0.004108
    18  C    0.316873   0.004237
    19  C    0.042454   0.015633
    20  C    0.041103   0.011467
    21  C    0.326771   0.006661
    22  C   -0.301874  -0.009076
    23  H    0.190281   0.000434
    24  C   -0.312205  -0.006403
    25  H    0.190395   0.000300
    26  C   -0.293487  -0.002865
    27  H    0.191267   0.000160
    28  C   -0.308761  -0.005505
    29  H    0.189744   0.000253
    30  C   -0.610330  -0.000254
    31  H    0.203789  -0.000120
    32  H    0.205363   0.000127
    33  H    0.195579   0.000123
    34  C   -0.611331  -0.000046
    35  H    0.201126  -0.000004
    36  H    0.203659   0.000001
    37  H    0.202417  -0.000130
    38  C   -0.612979  -0.001266
    39  H    0.189411   0.000523
    40  H    0.209104   0.000911
    41  H    0.211363   0.000070
    42  C   -0.155157  -0.005089
    43  H    0.179047   0.000466
    44  C   -0.389224   0.007843
    45  H    0.189344  -0.000391
    46  H    0.193703  -0.000348
    47  C   -0.613188  -0.000070
    48  H    0.194958  -0.000002
    49  H    0.204899   0.000020
    50  H    0.211804  -0.000160
    51  C   -0.153194   0.000292
    52  H    0.177084  -0.000006
    53  C   -0.391664  -0.000433
    54  H    0.187172   0.000024
    55  H    0.192402   0.000016
    56  C   -0.612200  -0.001519
    57  H    0.201793   0.000922
    58  H    0.207077   0.000952
    59  H    0.204369  -0.000061
    60  C   -0.611654  -0.001365
    61  H    0.203710  -0.000113
    62  H    0.205184   0.000806
    63  H    0.203915   0.000823
    64  C   -0.602661  -0.000215
    65  H    0.214608   0.000067
    66  H    0.222723  -0.000028
    67  H    0.215665  -0.000133
    68  N   -0.631075   0.001454
    69  H    0.389149  -0.000133
    70  C    0.282095  -0.001187
    71  C    0.264394   0.010496
    72  H    0.236608  -0.000623
    73  N   -0.437414  -0.033707
    74  C   -0.035240   0.000590
    75  H    0.215727  -0.000166
    76  O   -0.807010  -0.001982
    77  H    0.481679   0.000487
    78  H    0.468014  -0.000433
 Sum of Mulliken charges =   1.00000   1.00000
 Mulliken charges and spin densities with hydrogens summed into heavy atoms:
               1          2
     1  Fe   0.900475   1.062949
     2  N   -0.657580  -0.029786
     3  N   -0.668736  -0.024241
     4  N   -0.661773  -0.026404
     5  N   -0.676935  -0.022134
     6  C    0.317863   0.006892
     7  C    0.037646  -0.002230
     8  C    0.038828   0.001209
     9  C    0.297069   0.004166
    10  C    0.303073   0.004933
    11  C    0.042602   0.012361
    12  C    0.006851   0.012224
    13  C    0.323913   0.003783
    14  C    0.289280   0.002766
    15  C    0.042435  -0.001762
    16  C    0.006361  -0.001162
    17  C    0.291456   0.004108
    18  C    0.316873   0.004237
    19  C    0.042454   0.015633
    20  C    0.041103   0.011467
    21  C    0.326771   0.006661
    22  C   -0.111593  -0.008642
    24  C   -0.121810  -0.006104
    26  C   -0.102220  -0.002704
    28  C   -0.119018  -0.005252
    30  C   -0.005599  -0.000123
    34  C   -0.004130  -0.000180
    38  C   -0.003101   0.000238
    42  C    0.023889  -0.004623
    44  C   -0.006177   0.007104
    47  C   -0.001527  -0.000213
    51  C    0.023889   0.000286
    53  C   -0.012090  -0.000393
    56  C    0.001039   0.000294
    60  C    0.001155   0.000152
    64  C    0.050336  -0.000309
    68  N   -0.241926   0.001322
    70  C    0.282095  -0.001187
    71  C    0.501002   0.009874
    73  N   -0.437414  -0.033707
    74  C    0.180487   0.000424
    76  O    0.142683  -0.001928
 Electronic spatial extent (au):  <R**2>=          19940.2695
 Charge=              1.0000 electrons
 Dipole moment (field-independent basis, Debye):
    X=             -0.8658    Y=             -1.2120    Z=              3.1989  Tot=              3.5287
 Quadrupole moment (field-independent basis, Debye-Ang):
   XX=           -183.1878   YY=           -190.6551   ZZ=           -198.7717
   XY=              0.3141   XZ=             -6.0354   YZ=             -2.7393
 Traceless Quadrupole moment (field-independent basis, Debye-Ang):
   XX=              7.6838   YY=              0.2164   ZZ=             -7.9001
   XY=              0.3141   XZ=             -6.0354   YZ=             -2.7393
 Octapole moment (field-independent basis, Debye-Ang**2):
  XXX=              2.6854  YYY=            -12.8285  ZZZ=            144.7164  XYY=             -8.0279
  XXY=              2.9657  XXZ=            -19.1675  XZZ=            -17.6434  YZZ=            -20.6415
  YYZ=            -52.7511  XYZ=             -0.9925
 Hexadecapole moment (field-independent basis, Debye-Ang**3):
 XXXX=         -10305.9702 YYYY=         -10087.5526 ZZZZ=          -2343.1402 XXXY=            -26.6720
 XXXZ=             19.6319 YYYX=            -76.2516 YYYZ=              9.9986 ZZZX=            -97.4209
 ZZZY=            -61.0051 XXYY=          -3218.2978 XXZZ=          -2473.2666 YYZZ=          -2518.1242
 XXYZ=            -81.1704 YYXZ=            -56.0989 ZZXY=             45.0904
 N-N= 5.963443470082D+03 E-N=-1.890145496197D+04  KE= 2.971968114480D+03
                          Isotropic Fermi Contact Couplings
        Atom                 a.u.       MegaHertz       Gauss      10(-4) cm-1
     1  Fe(57)             0.11905      17.26635       6.16106       5.75944
     2  N(14)             -0.02550      -8.24006      -2.94026      -2.74859
     3  N(14)             -0.01969      -6.36115      -2.26982      -2.12185
     4  N(14)             -0.02138      -6.90934      -2.46543      -2.30471
     5  N(14)             -0.02049      -6.61980      -2.36211      -2.20813
     6  C(13)              0.00005       0.05317       0.01897       0.01773
     7  C(13)             -0.00109      -1.22969      -0.43878      -0.41018
     8  C(13)             -0.00050      -0.56110      -0.20021      -0.18716
     9  C(13)             -0.00025      -0.28551      -0.10188      -0.09524
    10  C(13)              0.00027       0.30771       0.10980       0.10264
    11  C(13)              0.00110       1.23597       0.44102       0.41227
    12  C(13)              0.00089       1.00316       0.35795       0.33462
    13  C(13)             -0.00070      -0.79134      -0.28237      -0.26396
    14  C(13)             -0.00055      -0.62132      -0.22170      -0.20725
    15  C(13)             -0.00085      -0.95824      -0.34193      -0.31964
    16  C(13)             -0.00074      -0.83135      -0.29665      -0.27731
    17  C(13)             -0.00009      -0.09810      -0.03500      -0.03272
    18  C(13)              0.00034       0.38561       0.13760       0.12863
    19  C(13)              0.00158       1.77075       0.63185       0.59066
    20  C(13)              0.00067       0.74928       0.26736       0.24993
    21  C(13)             -0.00056      -0.63461      -0.22645      -0.21168
    22  C(13)             -0.00146      -1.63864      -0.58471      -0.54659
    23  H(1)               0.00016       0.69979       0.24970       0.23342
    24  C(13)             -0.00111      -1.24623      -0.44468      -0.41570
    25  H(1)               0.00011       0.50060       0.17863       0.16698
    26  C(13)             -0.00056      -0.63195      -0.22550      -0.21080
    27  H(1)               0.00007       0.29062       0.10370       0.09694
    28  C(13)             -0.00103      -1.16302      -0.41500      -0.38794
    29  H(1)               0.00009       0.41459       0.14793       0.13829
    30  C(13)             -0.00012      -0.13163      -0.04697      -0.04391
    31  H(1)              -0.00005      -0.22795      -0.08134      -0.07604
    32  H(1)               0.00008       0.35569       0.12692       0.11864
    33  H(1)               0.00007       0.31841       0.11362       0.10621
    34  C(13)             -0.00006      -0.06538      -0.02333      -0.02181
    35  H(1)               0.00001       0.04463       0.01593       0.01489
    36  H(1)               0.00002       0.07053       0.02517       0.02353
    37  H(1)              -0.00006      -0.24778      -0.08841      -0.08265
    38  C(13)             -0.00048      -0.53578      -0.19118      -0.17872
    39  H(1)               0.00022       0.98651       0.35201       0.32906
    40  H(1)               0.00046       2.06115       0.73547       0.68753
    41  H(1)               0.00002       0.09676       0.03453       0.03228
    42  C(13)             -0.00106      -1.19215      -0.42539      -0.39766
    43  H(1)               0.00016       0.73604       0.26264       0.24552
    44  C(13)              0.00121       1.35821       0.48464       0.45305
    45  H(1)              -0.00012      -0.52380      -0.18690      -0.17472
    46  H(1)              -0.00011      -0.50302      -0.17949      -0.16779
    47  C(13)             -0.00006      -0.06662      -0.02377      -0.02222
    48  H(1)              -0.00000      -0.01525      -0.00544      -0.00509
    49  H(1)               0.00000       0.01012       0.00361       0.00338
    50  H(1)              -0.00006      -0.26974      -0.09625      -0.08997
    51  C(13)              0.00000       0.00312       0.00111       0.00104
    52  H(1)               0.00000       0.00204       0.00073       0.00068
    53  C(13)             -0.00006      -0.06376      -0.02275      -0.02127
    54  H(1)               0.00001       0.03508       0.01252       0.01170
    55  H(1)               0.00000       0.00843       0.00301       0.00281
    56  C(13)             -0.00059      -0.66070      -0.23575      -0.22038
    57  H(1)               0.00043       1.92852       0.68814       0.64328
    58  H(1)               0.00046       2.04060       0.72814       0.68067
    59  H(1)              -0.00003      -0.13085      -0.04669      -0.04365
    60  C(13)             -0.00058      -0.65456      -0.23356      -0.21834
    61  H(1)              -0.00005      -0.23472      -0.08375      -0.07829
    62  H(1)               0.00038       1.68758       0.60217       0.56292
    63  H(1)               0.00039       1.73841       0.62031       0.57987
    64  C(13)             -0.00014      -0.15575      -0.05558      -0.05195
    65  H(1)               0.00005       0.21962       0.07837       0.07326
    66  H(1)              -0.00002      -0.08842      -0.03155      -0.02949
    67  H(1)              -0.00005      -0.23903      -0.08529      -0.07973
    68  N(14)             -0.00080      -0.25784      -0.09200      -0.08601
    69  H(1)              -0.00006      -0.26555      -0.09476      -0.08858
    70  C(13)             -0.00125      -1.40107      -0.49993      -0.46735
    71  C(13)              0.00208       2.34105       0.83535       0.78089
    72  H(1)              -0.00028      -1.25722      -0.44861      -0.41936
    73  N(14)             -0.03226     -10.42412      -3.71959      -3.47711
    74  C(13)             -0.00094      -1.06212      -0.37899      -0.35428
    75  H(1)              -0.00013      -0.57232      -0.20422      -0.19091
    76  O(17)             -0.00100       0.60902       0.21731       0.20315
    77  H(1)               0.00009       0.40372       0.14406       0.13467
    78  H(1)              -0.00041      -1.82362      -0.65071      -0.60830
 --------------------------------------------------------
       Center         ----  Spin Dipole Couplings  ----
                      3XX-RR        3YY-RR        3ZZ-RR
 --------------------------------------------------------
     1   Atom       -0.603346     -0.728228      1.331574
     2   Atom        0.002973     -0.004139      0.001166
     3   Atom       -0.003747     -0.010433      0.014179
     4   Atom        0.006574      0.003286     -0.009860
     5   Atom       -0.008145     -0.012458      0.020602
     6   Atom       -0.005734      0.001968      0.003766
     7   Atom       -0.001155      0.002251     -0.001095
     8   Atom        0.000137     -0.001893      0.001756
     9   Atom        0.001591     -0.001904      0.000313
    10   Atom        0.004754     -0.006567      0.001812
    11   Atom       -0.005571     -0.008881      0.014452
    12   Atom       -0.008654     -0.005935      0.014588
    13   Atom       -0.003324      0.001024      0.002300
    14   Atom       -0.003587      0.004003     -0.000416
    15   Atom       -0.001018      0.002192     -0.001175
    16   Atom        0.001177     -0.000475     -0.000702
    17   Atom        0.001798     -0.001569     -0.000228
    18   Atom        0.005579     -0.006905      0.001326
    19   Atom       -0.007143     -0.010506      0.017649
    20   Atom       -0.008856     -0.005610      0.014466
    21   Atom       -0.004817     -0.000254      0.005071
    22   Atom        0.000329      0.010929     -0.011258
    23   Atom       -0.000952      0.002572     -0.001620
    24   Atom        0.009398     -0.000673     -0.008725
    25   Atom        0.002534     -0.000960     -0.001575
    26   Atom       -0.002637      0.008043     -0.005406
    27   Atom       -0.001315      0.002890     -0.001574
    28   Atom        0.009180     -0.001124     -0.008057
    29   Atom        0.002688     -0.001043     -0.001645
    30   Atom        0.000582     -0.000031     -0.000551
    31   Atom        0.000329      0.000181     -0.000510
    32   Atom        0.000825     -0.000221     -0.000604
    33   Atom        0.000858     -0.000185     -0.000674
    34   Atom       -0.000361      0.000939     -0.000578
    35   Atom       -0.000525      0.001206     -0.000681
    36   Atom       -0.000517      0.001122     -0.000605
    37   Atom       -0.000182      0.000688     -0.000506
    38   Atom        0.001356     -0.000749     -0.000607
    39   Atom        0.001526     -0.000681     -0.000845
    40   Atom        0.001260     -0.000617     -0.000642
    41   Atom        0.001055     -0.000321     -0.000734
    42   Atom        0.000169      0.002508     -0.002677
    43   Atom       -0.000394      0.001250     -0.000856
    44   Atom        0.000758     -0.003063      0.002306
    45   Atom        0.000426      0.000081     -0.000507
    46   Atom       -0.000342      0.000896     -0.000554
    47   Atom       -0.000301      0.000920     -0.000619
    48   Atom       -0.000570      0.001257     -0.000688
    49   Atom       -0.000415      0.001000     -0.000584
    50   Atom       -0.000177      0.000685     -0.000508
    51   Atom        0.000436      0.000078     -0.000514
    52   Atom        0.000937     -0.000232     -0.000706
    53   Atom        0.000463      0.000404     -0.000867
    54   Atom        0.000131      0.000278     -0.000409
    55   Atom        0.000263      0.000046     -0.000309
    56   Atom        0.001441     -0.000869     -0.000573
    57   Atom        0.001485     -0.000709     -0.000776
    58   Atom        0.001464     -0.000701     -0.000762
    59   Atom        0.001138     -0.000403     -0.000735
    60   Atom       -0.000390      0.000907     -0.000517
    61   Atom        0.000042      0.000659     -0.000701
    62   Atom       -0.000432      0.001105     -0.000673
    63   Atom       -0.000415      0.001221     -0.000806
    64   Atom       -0.000531     -0.000502      0.001033
    65   Atom       -0.000540     -0.000589      0.001129
    66   Atom       -0.000455     -0.000712      0.001167
    67   Atom       -0.000514     -0.000634      0.001148
    68   Atom       -0.003885      0.004437     -0.000552
    69   Atom       -0.000847     -0.001113      0.001960
    70   Atom       -0.001014     -0.001169      0.002183
    71   Atom       -0.007964      0.005084      0.002880
    72   Atom        0.002044     -0.003842      0.001798
    73   Atom        0.009893      0.001016     -0.010909
    74   Atom       -0.005468     -0.002409      0.007877
    75   Atom        0.000026     -0.004329      0.004303
    76   Atom        0.006292     -0.007078      0.000787
    77   Atom       -0.005179     -0.003227      0.008406
    78   Atom       -0.005712     -0.006337      0.012049
 --------------------------------------------------------
                        XY            XZ            YZ
 --------------------------------------------------------
     1   Atom       -2.145158      0.464035      0.682162
     2   Atom       -0.009301     -0.001015     -0.003112
     3   Atom       -0.000136     -0.009385      0.011885
     4   Atom       -0.004516      0.009743      0.013656
     5   Atom       -0.001735      0.013005     -0.008144
     6   Atom        0.005110      0.000090      0.000536
     7   Atom        0.000995     -0.000464     -0.000385
     8   Atom        0.001784     -0.000483     -0.001051
     9   Atom        0.005971      0.000035      0.000252
    10   Atom       -0.003998      0.000143     -0.001160
    11   Atom       -0.001277      0.001103     -0.001627
    12   Atom       -0.001736      0.001871     -0.002612
    13   Atom       -0.005892     -0.000004     -0.003301
    14   Atom        0.004802      0.000296      0.000517
    15   Atom        0.000983     -0.000632     -0.000816
    16   Atom        0.001712     -0.000533     -0.000740
    17   Atom        0.006241      0.000198      0.000627
    18   Atom       -0.003975     -0.000638     -0.000776
    19   Atom       -0.001267     -0.000195     -0.002053
    20   Atom       -0.001781      0.001840     -0.003101
    21   Atom       -0.006158      0.000415     -0.003409
    22   Atom       -0.000823      0.000156      0.001084
    23   Atom       -0.000232     -0.000010      0.000225
    24   Atom        0.001595      0.000498      0.000707
    25   Atom        0.000641      0.000211      0.000071
    26   Atom       -0.000910      0.000220      0.000600
    27   Atom       -0.000352     -0.000005      0.000082
    28   Atom        0.001737      0.000678      0.000422
    29   Atom        0.000614      0.000061      0.000036
    30   Atom        0.000956      0.000051      0.000047
    31   Atom        0.000808      0.000070      0.000070
    32   Atom        0.000817      0.000357      0.000198
    33   Atom        0.000868     -0.000148     -0.000075
    34   Atom        0.000712      0.000043      0.000084
    35   Atom        0.000548     -0.000056     -0.000155
    36   Atom        0.000515      0.000119      0.000373
    37   Atom        0.000663      0.000042      0.000075
    38   Atom       -0.000554      0.000039     -0.000071
    39   Atom       -0.000226     -0.000299     -0.000011
    40   Atom       -0.000448      0.000455     -0.000049
    41   Atom       -0.000765     -0.000215      0.000026
    42   Atom       -0.001649      0.002376      0.000469
    43   Atom       -0.000919     -0.000071      0.000215
    44   Atom       -0.000123     -0.005499     -0.000742
    45   Atom       -0.000396      0.000343     -0.000030
    46   Atom       -0.000574     -0.000204      0.000004
    47   Atom        0.000702     -0.000006     -0.000133
    48   Atom        0.000507      0.000066      0.000164
    49   Atom        0.000576     -0.000128     -0.000292
    50   Atom        0.000663      0.000009      0.000031
    51   Atom        0.001012     -0.000102      0.000169
    52   Atom        0.000846      0.000104      0.000066
    53   Atom        0.000786      0.000073     -0.000291
    54   Atom        0.000646     -0.000191     -0.000201
    55   Atom        0.000442     -0.000099     -0.000080
    56   Atom       -0.000527     -0.000201     -0.000020
    57   Atom       -0.000321      0.000428      0.000024
    58   Atom       -0.000269     -0.000488     -0.000027
    59   Atom       -0.000843     -0.000088      0.000024
    60   Atom       -0.000887     -0.000026      0.000021
    61   Atom       -0.001071     -0.000120      0.000148
    62   Atom       -0.000759     -0.000169      0.000610
    63   Atom       -0.000763      0.000015     -0.000217
    64   Atom        0.000011      0.000349      0.000214
    65   Atom        0.000038      0.000237      0.000268
    66   Atom        0.000028      0.000738      0.000141
    67   Atom       -0.000069      0.000308     -0.000220
    68   Atom       -0.001736     -0.001304      0.000531
    69   Atom        0.000018     -0.001209     -0.000221
    70   Atom       -0.001052      0.001120      0.001949
    71   Atom       -0.000660     -0.006085     -0.003579
    72   Atom        0.001203     -0.005625     -0.001546
    73   Atom       -0.002200     -0.003287     -0.010321
    74   Atom        0.001805      0.001998      0.003747
    75   Atom        0.000664      0.006621      0.001168
    76   Atom       -0.013107     -0.001533     -0.001463
    77   Atom        0.002556     -0.005592     -0.008214
    78   Atom       -0.000580      0.000311      0.001902
 --------------------------------------------------------


 ---------------------------------------------------------------------------------
              Anisotropic Spin Dipole Couplings in Principal Axis System
 ---------------------------------------------------------------------------------

       Atom             a.u.   MegaHertz   Gauss  10(-4) cm-1        Axes

              Baa    -2.9657   -51.345   -18.321   -17.127  0.6803  0.7089 -0.1860
     1 Fe(57) Bbb     1.3429    23.249     8.296     7.755  0.6053 -0.4004  0.6880
              Bcc     1.6228    28.096    10.025     9.372 -0.4133  0.5806  0.7015
 
              Baa    -0.0113    -0.437    -0.156    -0.146  0.5407  0.8049  0.2443
     2 N(14)  Bbb     0.0018     0.071     0.025     0.024 -0.2361 -0.1336  0.9625
              Bcc     0.0095     0.366     0.131     0.122  0.8074 -0.5781  0.1178
 
              Baa    -0.0163    -0.630    -0.225    -0.210 -0.3084  0.8505 -0.4261
     3 N(14)  Bbb    -0.0057    -0.218    -0.078    -0.073  0.8939  0.4123  0.1759
              Bcc     0.0220     0.848     0.303     0.283 -0.3253  0.3266  0.8874
 
              Baa    -0.0224    -0.863    -0.308    -0.288 -0.3459 -0.4876  0.8016
     4 N(14)  Bbb     0.0097     0.375     0.134     0.125  0.8034 -0.5952 -0.0154
              Bcc     0.0126     0.487     0.174     0.163  0.4846  0.6387  0.5976
 
              Baa    -0.0150    -0.580    -0.207    -0.193 -0.4673  0.8095  0.3555
     5 N(14)  Bbb    -0.0123    -0.474    -0.169    -0.158  0.8136  0.5511 -0.1853
              Bcc     0.0273     1.053     0.376     0.351  0.3459 -0.2027  0.9161
 
              Baa    -0.0083    -1.112    -0.397    -0.371  0.8946 -0.4466  0.0132
     6 C(13)  Bbb     0.0035     0.470     0.168     0.157 -0.2141 -0.4027  0.8900
              Bcc     0.0048     0.642     0.229     0.214  0.3922  0.7990  0.4559
 
              Baa    -0.0017    -0.223    -0.080    -0.074  0.8125 -0.1513  0.5629
     7 C(13)  Bbb    -0.0009    -0.124    -0.044    -0.041 -0.5165  0.2607  0.8156
              Bcc     0.0026     0.347     0.124     0.116  0.2702  0.9535 -0.1337
 
              Baa    -0.0030    -0.406    -0.145    -0.136 -0.4692  0.8713  0.1440
     8 C(13)  Bbb     0.0005     0.070     0.025     0.023  0.7611  0.3163  0.5663
              Bcc     0.0025     0.337     0.120     0.112 -0.4478 -0.3753  0.8115
 
              Baa    -0.0064    -0.857    -0.306    -0.286 -0.5991  0.8002 -0.0270
     9 C(13)  Bbb     0.0003     0.042     0.015     0.014 -0.0411  0.0029  0.9991
              Bcc     0.0061     0.815     0.291     0.272  0.7996  0.5997  0.0312
 
              Baa    -0.0080    -1.067    -0.381    -0.356  0.2973  0.9486  0.1083
    10 C(13)  Bbb     0.0019     0.251     0.090     0.084 -0.1431 -0.0679  0.9874
              Bcc     0.0061     0.816     0.291     0.272  0.9440 -0.3090  0.1156
 
              Baa    -0.0094    -1.258    -0.449    -0.420  0.3045  0.9512  0.0508
    11 C(13)  Bbb    -0.0053    -0.706    -0.252    -0.235  0.9507 -0.3002 -0.0780
              Bcc     0.0146     1.964     0.701     0.655  0.0589 -0.0721  0.9957
 
              Baa    -0.0095    -1.276    -0.455    -0.426  0.9064  0.4218 -0.0246
    12 C(13)  Bbb    -0.0056    -0.749    -0.267    -0.250 -0.4134  0.8973  0.1545
              Bcc     0.0151     2.026     0.723     0.676  0.0873 -0.1299  0.9877
 
              Baa    -0.0078    -1.047    -0.374    -0.349  0.7809  0.5937  0.1943
    13 C(13)  Bbb     0.0010     0.130     0.046     0.043 -0.4583  0.3332  0.8239
              Bcc     0.0068     0.918     0.327     0.306 -0.4245  0.7324 -0.5323
 
              Baa    -0.0059    -0.793    -0.283    -0.265  0.9001 -0.4355 -0.0075
    14 C(13)  Bbb    -0.0005    -0.063    -0.022    -0.021 -0.0312 -0.0816  0.9962
              Bcc     0.0064     0.856     0.306     0.286  0.4345  0.8965  0.0871
 
              Baa    -0.0017    -0.233    -0.083    -0.078  0.6730 -0.0147  0.7395
    15 C(13)  Bbb    -0.0010    -0.131    -0.047    -0.044  0.6823 -0.3738 -0.6283
              Bcc     0.0027     0.363     0.130     0.121  0.2857  0.9274 -0.2415
 
              Baa    -0.0017    -0.227    -0.081    -0.076 -0.4178  0.8216  0.3878
    16 C(13)  Bbb    -0.0008    -0.105    -0.038    -0.035  0.4192 -0.2044  0.8846
              Bcc     0.0025     0.333     0.119     0.111  0.8060  0.5322 -0.2590
 
              Baa    -0.0064    -0.855    -0.305    -0.285 -0.6049  0.7939 -0.0615
    17 C(13)  Bbb    -0.0002    -0.033    -0.012    -0.011 -0.0997  0.0012  0.9950
              Bcc     0.0066     0.888     0.317     0.296  0.7900  0.6080  0.0784
 
              Baa    -0.0082    -1.094    -0.390    -0.365  0.2809  0.9548  0.0971
    18 C(13)  Bbb     0.0014     0.186     0.066     0.062  0.0433 -0.1137  0.9926
              Bcc     0.0068     0.908     0.324     0.303  0.9588 -0.2746 -0.0733
 
              Baa    -0.0111    -1.486    -0.530    -0.496  0.3094  0.9484  0.0699
    19 C(13)  Bbb    -0.0067    -0.903    -0.322    -0.301  0.9509 -0.3089 -0.0184
              Bcc     0.0178     2.388     0.852     0.797 -0.0041 -0.0722  0.9974
 
              Baa    -0.0097    -1.295    -0.462    -0.432  0.9205  0.3903 -0.0200
    20 C(13)  Bbb    -0.0055    -0.733    -0.262    -0.245 -0.3810  0.9076  0.1764
              Bcc     0.0151     2.028     0.724     0.677  0.0870 -0.1547  0.9841
 
              Baa    -0.0093    -1.247    -0.445    -0.416  0.7997  0.5889  0.1167
    21 C(13)  Bbb     0.0016     0.211     0.075     0.070 -0.5192  0.5808  0.6270
              Bcc     0.0077     1.036     0.370     0.346  0.3015 -0.5620  0.7702
 
              Baa    -0.0113    -1.518    -0.542    -0.506 -0.0169 -0.0493  0.9986
    22 C(13)  Bbb     0.0003     0.036     0.013     0.012  0.9970  0.0749  0.0206
              Bcc     0.0110     1.482     0.529     0.494 -0.0758  0.9960  0.0479
 
              Baa    -0.0016    -0.871    -0.311    -0.290 -0.0036 -0.0536  0.9986
    23 H(1)   Bbb    -0.0010    -0.516    -0.184    -0.172  0.9979  0.0650  0.0071
              Bcc     0.0026     1.387     0.495     0.463 -0.0653  0.9964  0.0533
 
              Baa    -0.0088    -1.180    -0.421    -0.394 -0.0200 -0.0829  0.9964
    24 C(13)  Bbb    -0.0009    -0.117    -0.042    -0.039 -0.1568  0.9845  0.0787
              Bcc     0.0097     1.297     0.463     0.433  0.9874  0.1546  0.0327
 
              Baa    -0.0016    -0.847    -0.302    -0.283 -0.0401 -0.0710  0.9967
    25 H(1)   Bbb    -0.0011    -0.572    -0.204    -0.191 -0.1783  0.9820  0.0628
              Bcc     0.0027     1.419     0.506     0.473  0.9832  0.1752  0.0520
 
              Baa    -0.0055    -0.732    -0.261    -0.244 -0.0938 -0.0505  0.9943
    26 C(13)  Bbb    -0.0027    -0.361    -0.129    -0.120  0.9921  0.0787  0.0976
              Bcc     0.0081     1.093     0.390     0.365 -0.0831  0.9956  0.0428
 
              Baa    -0.0016    -0.841    -0.300    -0.280 -0.0044 -0.0186  0.9998
    27 H(1)   Bbb    -0.0013    -0.717    -0.256    -0.239  0.9966  0.0827  0.0059
              Bcc     0.0029     1.558     0.556     0.520 -0.0828  0.9964  0.0182
 
              Baa    -0.0081    -1.087    -0.388    -0.363 -0.0339 -0.0520  0.9981
    28 C(13)  Bbb    -0.0014    -0.187    -0.067    -0.062 -0.1648  0.9853  0.0457
              Bcc     0.0095     1.274     0.455     0.425  0.9857  0.1629  0.0420
 
              Baa    -0.0016    -0.879    -0.314    -0.293 -0.0066 -0.0534  0.9986
    29 H(1)   Bbb    -0.0011    -0.608    -0.217    -0.203 -0.1589  0.9859  0.0517
              Bcc     0.0028     1.487     0.531     0.496  0.9873  0.1584  0.0150
 
              Baa    -0.0007    -0.098    -0.035    -0.033 -0.5876  0.8079 -0.0454
    30 C(13)  Bbb    -0.0006    -0.074    -0.026    -0.025 -0.0570  0.0146  0.9983
              Bcc     0.0013     0.172     0.061     0.057  0.8071  0.5892  0.0374
 
              Baa    -0.0006    -0.297    -0.106    -0.099 -0.6646  0.7384 -0.1143
    31 H(1)   Bbb    -0.0005    -0.275    -0.098    -0.092 -0.1230  0.0428  0.9915
              Bcc     0.0011     0.572     0.204     0.191  0.7370  0.6730  0.0624
 
              Baa    -0.0007    -0.368    -0.131    -0.123 -0.1338 -0.1780  0.9749
    32 H(1)   Bbb    -0.0007    -0.356    -0.127    -0.119 -0.4947  0.8644  0.0899
              Bcc     0.0014     0.724     0.258     0.242  0.8587  0.4703  0.2037
 
              Baa    -0.0007    -0.368    -0.131    -0.123  0.2767 -0.3411  0.8984
    33 H(1)   Bbb    -0.0007    -0.359    -0.128    -0.120 -0.4130  0.8019  0.4317
              Bcc     0.0014     0.727     0.259     0.243  0.8677  0.4905 -0.0810
 
              Baa    -0.0007    -0.091    -0.032    -0.030  0.9147 -0.4007 -0.0533
    34 C(13)  Bbb    -0.0006    -0.078    -0.028    -0.026  0.0282 -0.0685  0.9973
              Bcc     0.0013     0.169     0.060     0.056  0.4032  0.9137  0.0513
 
              Baa    -0.0007    -0.374    -0.133    -0.125  0.5333 -0.0846  0.8417
    35 H(1)   Bbb    -0.0007    -0.361    -0.129    -0.120  0.7990 -0.2764 -0.5340
              Bcc     0.0014     0.735     0.262     0.245  0.2778  0.9573 -0.0798
 
              Baa    -0.0007    -0.367    -0.131    -0.123 -0.4593 -0.0520  0.8868
    36 H(1)   Bbb    -0.0007    -0.352    -0.126    -0.117  0.8454 -0.3319  0.4184
              Bcc     0.0013     0.720     0.257     0.240  0.2726  0.9419  0.1964
 
              Baa    -0.0005    -0.288    -0.103    -0.096  0.8801 -0.4723 -0.0490
    37 H(1)   Bbb    -0.0005    -0.272    -0.097    -0.091  0.0171 -0.0716  0.9973
              Bcc     0.0011     0.561     0.200     0.187  0.4745  0.8785  0.0549
 
              Baa    -0.0009    -0.121    -0.043    -0.040  0.2303  0.9520  0.2016
    38 C(13)  Bbb    -0.0006    -0.080    -0.029    -0.027 -0.0732 -0.1896  0.9791
              Bcc     0.0015     0.201     0.072     0.067  0.9704 -0.2402  0.0261
 
              Baa    -0.0009    -0.475    -0.169    -0.158  0.1386  0.2005  0.9698
    39 H(1)   Bbb    -0.0007    -0.371    -0.132    -0.124  0.0708  0.9748 -0.2116
              Bcc     0.0016     0.846     0.302     0.282  0.9878 -0.0980 -0.1209
 
              Baa    -0.0008    -0.418    -0.149    -0.139 -0.2963 -0.5779  0.7604
    40 H(1)   Bbb    -0.0007    -0.361    -0.129    -0.120  0.0381  0.7884  0.6140
              Bcc     0.0015     0.779     0.278     0.260  0.9543 -0.2109  0.2116
 
              Baa    -0.0008    -0.420    -0.150    -0.140  0.2618  0.3811  0.8867
    41 H(1)   Bbb    -0.0006    -0.336    -0.120    -0.112  0.3201  0.8324 -0.4523
              Bcc     0.0014     0.755     0.270     0.252  0.9105 -0.4023 -0.0959
 
              Baa    -0.0043    -0.571    -0.204    -0.190 -0.5177 -0.1843  0.8355
    42 C(13)  Bbb     0.0008     0.107     0.038     0.036  0.6777  0.5078  0.5319
              Bcc     0.0035     0.464     0.165     0.155 -0.5223  0.8415 -0.1380
 
              Baa    -0.0009    -0.471    -0.168    -0.157 -0.2229 -0.1924  0.9557
    43 H(1)   Bbb    -0.0008    -0.426    -0.152    -0.142  0.8863  0.3682  0.2809
              Bcc     0.0017     0.897     0.320     0.299 -0.4059  0.9096  0.0885
 
              Baa    -0.0043    -0.577    -0.206    -0.192  0.6691  0.4307  0.6056
    44 C(13)  Bbb    -0.0028    -0.377    -0.135    -0.126 -0.3540  0.9012 -0.2499
              Bcc     0.0071     0.954     0.340     0.318 -0.6534 -0.0472  0.7556
 
              Baa    -0.0006    -0.338    -0.121    -0.113 -0.3566 -0.1582  0.9208
    45 H(1)   Bbb    -0.0001    -0.067    -0.024    -0.022  0.4203  0.8530  0.3093
              Bcc     0.0008     0.405     0.145     0.135  0.8344 -0.4973  0.2377
 
              Baa    -0.0008    -0.401    -0.143    -0.134  0.6765  0.2340  0.6983
    46 H(1)   Bbb    -0.0004    -0.199    -0.071    -0.067 -0.6370 -0.2900  0.7142
              Bcc     0.0011     0.600     0.214     0.200 -0.3696  0.9280  0.0471
 
              Baa    -0.0007    -0.090    -0.032    -0.030 -0.6041  0.3268  0.7268
    47 C(13)  Bbb    -0.0006    -0.077    -0.027    -0.026  0.6822 -0.2593  0.6836
              Bcc     0.0012     0.167     0.060     0.056  0.4119  0.9088 -0.0663
 
              Baa    -0.0007    -0.386    -0.138    -0.129 -0.6875  0.1165  0.7168
    48 H(1)   Bbb    -0.0007    -0.362    -0.129    -0.121  0.6815 -0.2373  0.6922
              Bcc     0.0014     0.749     0.267     0.250  0.2508  0.9644  0.0837
 
              Baa    -0.0007    -0.349    -0.125    -0.116  0.5698 -0.0537  0.8201
    49 H(1)   Bbb    -0.0006    -0.323    -0.115    -0.108  0.7517 -0.3693 -0.5464
              Bcc     0.0013     0.672     0.240     0.224  0.3322  0.9278 -0.1700
 
              Baa    -0.0005    -0.287    -0.103    -0.096  0.8526 -0.4679  0.2326
    50 H(1)   Bbb    -0.0005    -0.271    -0.097    -0.090 -0.2140  0.0935  0.9723
              Bcc     0.0010     0.558     0.199     0.186  0.4768  0.8788  0.0204
 
              Baa    -0.0009    -0.118    -0.042    -0.039 -0.5603  0.6785 -0.4751
    51 C(13)  Bbb    -0.0004    -0.055    -0.020    -0.018 -0.3172  0.3540  0.8798
              Bcc     0.0013     0.172     0.062     0.058  0.7651  0.6437  0.0169
 
              Baa    -0.0007    -0.382    -0.136    -0.127  0.0656 -0.2470  0.9668
    52 H(1)   Bbb    -0.0007    -0.359    -0.128    -0.120 -0.4629  0.8508  0.2487
              Bcc     0.0014     0.741     0.264     0.247  0.8840  0.4639  0.0586
 
              Baa    -0.0010    -0.132    -0.047    -0.044 -0.2187  0.3171  0.9228
    53 C(13)  Bbb    -0.0002    -0.033    -0.012    -0.011  0.6694 -0.6394  0.3784
              Bcc     0.0012     0.165     0.059     0.055  0.7100  0.7005 -0.0724
 
              Baa    -0.0005    -0.251    -0.089    -0.084  0.3815 -0.0824  0.9207
    54 H(1)   Bbb    -0.0004    -0.236    -0.084    -0.079 -0.6544  0.6794  0.3320
              Bcc     0.0009     0.487     0.174     0.162  0.6529  0.7291 -0.2052
 
              Baa    -0.0003    -0.174    -0.062    -0.058  0.0586  0.1433  0.9880
    55 H(1)   Bbb    -0.0003    -0.160    -0.057    -0.053 -0.6237  0.7780 -0.0758
              Bcc     0.0006     0.334     0.119     0.112  0.7795  0.6117 -0.1349
 
              Baa    -0.0010    -0.133    -0.048    -0.044  0.2211  0.9634  0.1515
    56 C(13)  Bbb    -0.0006    -0.078    -0.028    -0.026  0.0541 -0.1672  0.9844
              Bcc     0.0016     0.211     0.075     0.070  0.9738 -0.2095 -0.0891
 
              Baa    -0.0009    -0.479    -0.171    -0.160 -0.2171 -0.4760  0.8522
    57 H(1)   Bbb    -0.0007    -0.377    -0.135    -0.126  0.0308  0.8693  0.4934
              Bcc     0.0016     0.856     0.306     0.286  0.9757 -0.1333  0.1741
 
              Baa    -0.0009    -0.482    -0.172    -0.161  0.2288  0.4243  0.8762
    58 H(1)   Bbb    -0.0007    -0.369    -0.132    -0.123  0.0129  0.8986 -0.4385
              Bcc     0.0016     0.851     0.304     0.284  0.9734 -0.1116 -0.2001
 
              Baa    -0.0008    -0.416    -0.148    -0.139  0.3932  0.8608  0.3231
    59 H(1)   Bbb    -0.0007    -0.392    -0.140    -0.131 -0.0957 -0.3112  0.9455
              Bcc     0.0015     0.807     0.288     0.269  0.9144 -0.4027 -0.0399
 
              Baa    -0.0008    -0.113    -0.040    -0.038  0.8910  0.4518  0.0434
    60 C(13)  Bbb    -0.0005    -0.069    -0.025    -0.023 -0.0313 -0.0340  0.9989
              Bcc     0.0014     0.182     0.065     0.061 -0.4528  0.8915  0.0162
 
              Baa    -0.0008    -0.408    -0.146    -0.136  0.7983  0.5858  0.1397
    61 H(1)   Bbb    -0.0007    -0.382    -0.136    -0.128 -0.0602 -0.1531  0.9864
              Bcc     0.0015     0.790     0.282     0.264 -0.5992  0.7959  0.0869
 
              Baa    -0.0009    -0.472    -0.168    -0.157 -0.3351 -0.3904  0.8575
    62 H(1)   Bbb    -0.0007    -0.377    -0.134    -0.126  0.8716  0.2171  0.4395
              Bcc     0.0016     0.849     0.303     0.283 -0.3578  0.8947  0.2675
 
              Baa    -0.0009    -0.456    -0.163    -0.152  0.3650  0.2282  0.9026
    63 H(1)   Bbb    -0.0007    -0.365    -0.130    -0.122  0.8575  0.2952 -0.4214
              Bcc     0.0015     0.822     0.293     0.274 -0.3626  0.9278 -0.0879
 
              Baa    -0.0006    -0.083    -0.030    -0.028  0.9042  0.3553 -0.2371
    64 C(13)  Bbb    -0.0005    -0.069    -0.025    -0.023 -0.3753  0.9259 -0.0437
              Bcc     0.0011     0.152     0.054     0.051  0.2040  0.1285  0.9705
 
              Baa    -0.0006    -0.336    -0.120    -0.112 -0.0331  0.9887 -0.1460
    65 H(1)   Bbb    -0.0006    -0.306    -0.109    -0.102  0.9901  0.0124 -0.1400
              Bcc     0.0012     0.642     0.229     0.214  0.1366  0.1492  0.9793
 
              Baa    -0.0008    -0.404    -0.144    -0.135  0.7570  0.5630 -0.3317
    66 H(1)   Bbb    -0.0007    -0.376    -0.134    -0.125 -0.5457  0.8239  0.1531
              Bcc     0.0015     0.780     0.278     0.260  0.3594  0.0651  0.9309
 
              Baa    -0.0007    -0.358    -0.128    -0.119  0.2956  0.9531  0.0650
    67 H(1)   Bbb    -0.0006    -0.299    -0.107    -0.100  0.9387 -0.2772 -0.2048
              Bcc     0.0012     0.657     0.234     0.219  0.1772 -0.1216  0.9766
 
              Baa    -0.0046    -0.177    -0.063    -0.059  0.9445  0.1652  0.2839
    68 N(14)  Bbb    -0.0003    -0.012    -0.004    -0.004 -0.2504 -0.1972  0.9478
              Bcc     0.0049     0.189     0.067     0.063 -0.2125  0.9664  0.1449
 
              Baa    -0.0013    -0.701    -0.250    -0.234  0.8878  0.3011  0.3480
    69 H(1)   Bbb    -0.0011    -0.591    -0.211    -0.197 -0.3029  0.9517 -0.0507
              Bcc     0.0024     1.292     0.461     0.431 -0.3465 -0.0604  0.9361
 
              Baa    -0.0031    -0.412    -0.147    -0.138  0.5779  0.7173 -0.3892
    70 C(13)  Bbb    -0.0001    -0.012    -0.004    -0.004  0.8020 -0.5874  0.1082
              Bcc     0.0032     0.425     0.152     0.142  0.1510  0.3747  0.9148
 
              Baa    -0.0110    -1.472    -0.525    -0.491  0.8945  0.1320  0.4272
    71 C(13)  Bbb     0.0025     0.337     0.120     0.112 -0.3846  0.7143  0.5846
              Bcc     0.0085     1.135     0.405     0.379 -0.2280 -0.6872  0.6897
 
              Baa    -0.0043    -2.284    -0.815    -0.762  0.1821  0.8995  0.3972
    72 H(1)   Bbb    -0.0036    -1.914    -0.683    -0.639  0.6880 -0.4052  0.6021
              Bcc     0.0079     4.199     1.498     1.401  0.7025  0.1636 -0.6926
 
              Baa    -0.0174    -0.672    -0.240    -0.224  0.1429  0.4961  0.8564
    73 N(14)  Bbb     0.0070     0.268     0.096     0.089  0.0727  0.8577 -0.5090
              Bcc     0.0105     0.404     0.144     0.135  0.9871 -0.1350 -0.0865
 
              Baa    -0.0063    -0.847    -0.302    -0.282  0.9155 -0.4017 -0.0228
    74 C(13)  Bbb    -0.0032    -0.429    -0.153    -0.143  0.3679  0.8586 -0.3570
              Bcc     0.0095     1.275     0.455     0.425  0.1630  0.3184  0.9338
 
              Baa    -0.0049    -2.588    -0.923    -0.863  0.7350  0.3561 -0.5771
    75 H(1)   Bbb    -0.0044    -2.349    -0.838    -0.784 -0.3432  0.9293  0.1363
              Bcc     0.0093     4.937     1.762     1.647  0.5848  0.0979  0.8053
 
              Baa    -0.0154     1.112     0.397     0.371  0.5201  0.8448  0.1259
    76 O(17)  Bbb     0.0010    -0.074    -0.026    -0.025 -0.0312 -0.1285  0.9912
              Bcc     0.0143    -1.038    -0.370    -0.346  0.8535 -0.5195 -0.0404
 
              Baa    -0.0076    -4.069    -1.452    -1.357  0.4479  0.7226  0.5264
    77 H(1)   Bbb    -0.0069    -3.702    -1.321    -1.235  0.8433 -0.5371  0.0198
              Bcc     0.0146     7.771     2.773     2.592 -0.2971 -0.4351  0.8500
 
              Baa    -0.0069    -3.658    -1.305    -1.220  0.4707  0.8770 -0.0960
    78 H(1)   Bbb    -0.0054    -2.876    -1.026    -0.959  0.8822 -0.4696  0.0355
              Bcc     0.0122     6.534     2.332     2.180  0.0139  0.1014  0.9948
 

 ---------------------------------------------------------------------------------

 Unable to Open any file for archive entry.
 1\1\GINC-BGN1035\SP\UAPFD\Gen\C34H36Fe1N6O1(1+,2)\BECSLEIP\09-Sep-2024
 \0\\# apfd/gen scf=maxcycle=999 geom=check\\2w6x_III_D\\1,2\Fe,0,35.15
 14419883,3.8100302611,10.2429473114\N,0,37.0736074869,3.5396249156,9.7
 256020168\N,0,34.9463614551,5.0841542684,8.6935363186\N,0,33.264039546
 8,4.1984494174,10.8011999694\N,0,35.4102840586,2.6349569003,11.8287218
 596\C,0,37.9647827448,2.7154111777,10.3368490901\C,0,39.2184524574,2.6
 876562459,9.6155736573\C,0,39.0615375015,3.5134057538,8.5470175956\C,0
 ,37.7129934851,4.0304483875,8.6306029727\C,0,35.8652630557,5.366654765
 6,7.7312848218\C,0,35.310529499,6.2374675392,6.7263263106\C,0,34.02442
 50805,6.5009288545,7.1147385223\C,0,33.8218577294,5.7649146557,8.34874
 5352\C,0,32.4106733141,5.1025757625,10.245432594\C,0,31.236721471,5.27
 19136802,11.0591457438\C,0,31.4005003196,4.4510797022,12.1455565283\C,
 0,32.6796876632,3.7954676401,11.9610367977\C,0,34.5030190243,2.3874236
 132,12.8101270458\C,0,35.0822783513,1.5631352945,13.8491011943\C,0,36.
 3700078942,1.3351949387,13.4783669675\C,0,36.5564215278,2.0177501008,1
 2.2158413027\C,0,37.7415257871,2.0139552408,11.507172734\H,0,38.561148
 6036,1.4364475485,11.9066935168\C,0,37.1683269994,4.8997229472,7.70688
 90652\H,0,37.8002398644,5.2225001372,6.8934056106\C,0,32.6397184222,5.
 7837826056,9.0618096073\H,0,31.8529173813,6.4289820369,8.7017382294\C,
 0,33.2121278083,2.8800064859,12.8530052781\H,0,32.6121163891,2.6136926
 831,13.7099540523\C,0,40.0316863671,3.8613554318,7.4699238073\H,0,40.9
 815115291,3.3562104648,7.6273032811\H,0,40.214196746,4.9359626151,7.45
 07847308\H,0,39.6453298209,3.5674671742,6.4932919537\C,0,40.40598171,1
 .8839128123,10.0220770205\H,0,40.1518602208,0.8250575201,10.0742528227
 \H,0,40.7612268163,2.1945814771,11.0049646802\H,0,41.2190490087,2.0067
 187181,9.3106120836\C,0,36.0153083208,6.6829582665,5.4922716031\H,0,36
 .6377811304,5.883620612,5.0922190685\H,0,36.6590679394,7.5395517064,5.
 6988018598\H,0,35.2911399921,6.973489675,4.7336916923\C,0,33.018666309
 4,7.307116924,6.4586043729\H,0,31.9970006537,6.9609481335,6.5660039523
 \C,0,33.2526544153,8.4137738901,5.7605614478\H,0,34.2397906777,8.83020
 28803,5.6612294541\H,0,32.4545864459,8.959660232,5.2849092229\C,0,30.0
 724912759,6.1347760801,10.717577148\H,0,29.8668746,6.098117508,9.64880
 86275\H,0,30.2639254937,7.1750229157,10.9872189212\H,0,29.1878735039,5
 .7978649726,11.2541153559\C,0,30.517069438,4.236346139,13.2700523161\H
 ,0,30.5227008487,3.235259214,13.6858159012\C,0,29.7290123563,5.1545527
 78,13.8202273124\H,0,29.7158943188,6.1761520008,13.4826787553\H,0,29.0
 840645978,4.9185819557,14.6503965015\C,0,34.3528651403,1.1050466786,15
 .065459944\H,0,33.4731595972,0.5233029432,14.7890989048\H,0,34.0210677
 064,1.957974553,15.6583475163\H,0,34.9917802216,0.483737289,15.6882909
 162\C,0,37.4328315518,0.5603193415,14.1792279731\H,0,37.05963905,0.148
 4344231,15.113729484\H,0,38.2883019037,1.1980914141,14.4026623322\H,0,
 37.7799626095,-0.2637773504,13.5553209812\C,0,32.5189417247,-0.6579307
 411,8.2334841126\H,0,31.8578149016,-0.5122063201,7.3792597578\H,0,31.9
 130481772,-0.7806452259,9.1257213575\H,0,33.0897333591,-1.5721993352,8
 .0705328931\N,0,34.277703459,0.9275303701,7.417968663\H,0,34.380181633
 ,0.5065783887,6.5092021769\C,0,33.4232761589,0.5073957818,8.4037031753
 \C,0,34.9479349312,2.0044870606,7.8880039958\H,0,35.6848884614,2.54435
 63712,7.3295257773\N,0,34.5695476102,2.2908656072,9.1101868036\C,0,33.
 6229127027,1.3672915911,9.4452200495\H,0,33.1530350062,1.3858670889,10
 .4065242309\O,0,35.669,5.601,11.549\H,0,34.818,5.951,11.813\H,0,36.464
 0000001,5.876,11.838\\Version=ES64L-G16RevC.02\State=2-A\HF=-2983.2083
 698\S2=0.809867\S2-1=0.\S2A=0.751013\RMSD=3.678e-09\Dipole=0.0769974,-
 1.1098139,-0.8305097\Quadrupole=-2.0104447,-3.3830113,5.393456,-3.8241
 391,-4.2885126,-1.6165907\PG=C01 [X(C34H36Fe1N6O1)]\\@
 The archive entry for this job was punched.


 ONE BIG VICE IN A MAN IS APT TO KEEP OUT MANY SMALLER ONES.

                           -- BRET HARTE
 Job cpu time:       0 days  4 hours 48 minutes 19.1 seconds.
 Elapsed time:       0 days  0 hours  4 minutes 52.8 seconds.
 File lengths (MBytes):  RWF=    430 Int=      0 D2E=      0 Chk=    155 Scr=      1
 Normal termination of Gaussian 16 at Mon Sep  9 12:16:24 2024.
