 Entering Gaussian System, Link 0=g16
 Input=2w6y05re.com
 Output=2w6y05re.log
 Initial command:
 /sw/chem/gaussian/g16_C02/a100/g16/l1.exe "/local/becsleip_8009292/Gau-3989409.inp" -scrdir="/local/becsleip_8009292/"
 Entering Link 1 = /sw/chem/gaussian/g16_C02/a100/g16/l1.exe PID=   3989410.
  
 Copyright (c) 1988-2021, Gaussian, Inc.  All Rights Reserved.
  
 This is part of the Gaussian(R) 16 program.  It is based on
 the Gaussian(R) 09 system (copyright 2009, Gaussian, Inc.),
 the Gaussian(R) 03 system (copyright 2003, Gaussian, Inc.),
 the Gaussian(R) 98 system (copyright 1998, Gaussian, Inc.),
 the Gaussian(R) 94 system (copyright 1995, Gaussian, Inc.),
 the Gaussian 92(TM) system (copyright 1992, Gaussian, Inc.),
 the Gaussian 90(TM) system (copyright 1990, Gaussian, Inc.),
 the Gaussian 88(TM) system (copyright 1988, Gaussian, Inc.),
 the Gaussian 86(TM) system (copyright 1986, Carnegie Mellon
 University), and the Gaussian 82(TM) system (copyright 1983,
 Carnegie Mellon University). Gaussian is a federally registered
 trademark of Gaussian, Inc.
  
 This software contains proprietary and confidential information,
 including trade secrets, belonging to Gaussian, Inc.
  
 This software is provided under written license and may be
 used, copied, transmitted, or stored only in accord with that
 written license.
  
 The following legend is applicable only to US Government
 contracts under FAR:
  
                    RESTRICTED RIGHTS LEGEND
  
 Use, reproduction and disclosure by the US Government is
 subject to restrictions as set forth in subparagraphs (a)
 and (c) of the Commercial Computer Software - Restricted
 Rights clause in FAR 52.227-19.
  
 Gaussian, Inc.
 340 Quinnipiac St., Bldg. 40, Wallingford CT 06492
  
  
 ---------------------------------------------------------------
 Warning -- This program may not be used in any manner that
 competes with the business of Gaussian, Inc. or will provide
 assistance to any competitor of Gaussian, Inc.  The licensee
 of this program is prohibited from giving any competitor of
 Gaussian, Inc. access to this program.  By using this program,
 the user acknowledges that Gaussian, Inc. is engaged in the
 business of creating and licensing software in the field of
 computational chemistry and represents and warrants to the
 licensee that it is not a competitor of Gaussian, Inc. and that
 it will not use this program in any manner prohibited above.
 ---------------------------------------------------------------
  

 Cite this work as:
 Gaussian 16, Revision C.02,
 M. J. Frisch, G. W. Trucks, H. B. Schlegel, G. E. Scuseria, 
 M. A. Robb, J. R. Cheeseman, G. Scalmani, V. Barone, 
 G. A. Petersson, H. Nakatsuji, X. Li, M. Caricato, A. V. Marenich, 
 J. Bloino, B. G. Janesko, R. Gomperts, B. Mennucci, H. P. Hratchian, 
 J. V. Ortiz, A. F. Izmaylov, J. L. Sonnenberg, D. Williams-Young, 
 F. Ding, F. Lipparini, F. Egidi, J. Goings, B. Peng, A. Petrone, 
 T. Henderson, D. Ranasinghe, V. G. Zakrzewski, J. Gao, N. Rega, 
 G. Zheng, W. Liang, M. Hada, M. Ehara, K. Toyota, R. Fukuda, 
 J. Hasegawa, M. Ishida, T. Nakajima, Y. Honda, O. Kitao, H. Nakai, 
 T. Vreven, K. Throssell, J. A. Montgomery, Jr., J. E. Peralta, 
 F. Ogliaro, M. J. Bearpark, J. J. Heyd, E. N. Brothers, K. N. Kudin, 
 V. N. Staroverov, T. A. Keith, R. Kobayashi, J. Normand, 
 K. Raghavachari, A. P. Rendell, J. C. Burant, S. S. Iyengar, 
 J. Tomasi, M. Cossi, J. M. Millam, M. Klene, C. Adamo, R. Cammi, 
 J. W. Ochterski, R. L. Martin, K. Morokuma, O. Farkas, 
 J. B. Foresman, and D. J. Fox, Gaussian, Inc., Wallingford CT, 2019.
 
 ******************************************
 Gaussian 16:  ES64L-G16RevC.02  7-Dec-2021
                 9-Sep-2024 
 ******************************************
 %mem=16GB
 %CPU=0-71
 SetSPE:  set environment variable "OMP_PROC_BIND" = "true"
 SetSPE:  set environment variable "OMP_PLACES" = "{0},{1},{2},{3},{4},{5},{6},{7},{8},{9},{10},{11},{12},{13},{14},{15},{16},{17},{18},{19},{20},{21},{22},{23},{24},{25},{26},{27},{28},{29},{30},{31},{32},{33},{34},{35},{36},{37},{38},{39},{40},{41},{42},{43},{44},{45},{46},{47},{48},{49},{50},{51},{52},{53},{54},{55},{56},{57},{58},{59},{60},{61},{62},{63},{64},{65},{66},{67},{68},{69},{70},{71}"
 Will use up to   72 processors via shared memory.
 %gpucpu=0,1,2,3=0,1,2,3
 Will use    4 GPUs:
 Thread  CPU   GPU
      0    0     0
      1    1     1
      2    2     2
      3    3     3
      4    4    -1
      5    5    -1
      6    6    -1
      7    7    -1
      8    8    -1
      9    9    -1
     10   10    -1
     11   11    -1
     12   12    -1
     13   13    -1
     14   14    -1
     15   15    -1
     16   16    -1
     17   17    -1
     18   18    -1
     19   19    -1
     20   20    -1
     21   21    -1
     22   22    -1
     23   23    -1
     24   24    -1
     25   25    -1
     26   26    -1
     27   27    -1
     28   28    -1
     29   29    -1
     30   30    -1
     31   31    -1
     32   32    -1
     33   33    -1
     34   34    -1
     35   35    -1
     36   36    -1
     37   37    -1
     38   38    -1
     39   39    -1
     40   40    -1
     41   41    -1
     42   42    -1
     43   43    -1
     44   44    -1
     45   45    -1
     46   46    -1
     47   47    -1
     48   48    -1
     49   49    -1
     50   50    -1
     51   51    -1
     52   52    -1
     53   53    -1
     54   54    -1
     55   55    -1
     56   56    -1
     57   57    -1
     58   58    -1
     59   59    -1
     60   60    -1
     61   61    -1
     62   62    -1
     63   63    -1
     64   64    -1
     65   65    -1
     66   66    -1
     67   67    -1
     68   68    -1
     69   69    -1
     70   70    -1
     71   71    -1
 SetGPE:  set environment variable "OMP_PROC_BIND" = "true"
 SetGPE:  set environment variable "OMP_PLACES" = "{0},{1},{2},{3},{4},{5},{6},{7},{8},{9},{10},{11},{12},{13},{14},{15},{16},{17},{18},{19},{20},{21},{22},{23},{24},{25},{26},{27},{28},{29},{30},{31},{32},{33},{34},{35},{36},{37},{38},{39},{40},{41},{42},{43},{44},{45},{46},{47},{48},{49},{50},{51},{52},{53},{54},{55},{56},{57},{58},{59},{60},{61},{62},{63},{64},{65},{66},{67},{68},{69},{70},{71}"
 %oldchk=2w6y_II_S.chk
 %chk=2w6y_II_Sre.chk
 Properties for Device   0
 Minimum vector length:                              32
 Maximum vector length:                            1024
 Number of SMPs:                                    108
 Maximum number of threads per SMP:                2048
 Number of ASync Engines:                             5
 Memory:                                           9207742464
 Properties for Device   1
 Minimum vector length:                              32
 Maximum vector length:                            1024
 Number of SMPs:                                    108
 Maximum number of threads per SMP:                2048
 Number of ASync Engines:                             5
 Memory:                                           9207742464
 Properties for Device   2
 Minimum vector length:                              32
 Maximum vector length:                            1024
 Number of SMPs:                                    108
 Maximum number of threads per SMP:                2048
 Number of ASync Engines:                             5
 Memory:                                           9207742464
 Properties for Device   3
 Minimum vector length:                              32
 Maximum vector length:                            1024
 Number of SMPs:                                    108
 Maximum number of threads per SMP:                2048
 Number of ASync Engines:                             5
 Memory:                                           9207742464
   8286968217 words of memory will be used on each GPU.
 Copying data from "2w6y_II_S.chk" to current chk file "2w6y_II_Sre.chk"
 IOpt=  2 FromEx=T IUOpen= 4 IOptOp= 5 NList=   0 IFRang= 0 IUIn= 4 IUOut= 2.
 --------------------------------------
 # apfd/gen scf=maxcycle=999 geom=check
 --------------------------------------
 1/29=2,38=1,172=1/1;
 2/12=2,40=1/2;
 3/5=7,11=2,14=-4,25=1,30=1,74=-44/1,2,3;
 4//1;
 5/5=2,7=999,38=5/2;
 6/7=2,8=2,9=2,10=2,28=1/1;
 99/5=1,9=1/99;
 ---------
 2w6y_II_Q
 ---------
 Structure from the checkpoint file:  "2w6y_II_Sre.chk"
 Charge =  0 Multiplicity = 5
 Z-Matrix found in chk file.
 Fe,0,34.9442248903,3.8483288826,10.2381214098
 N,0,36.8493282899,3.584029856,9.6794731704
 N,0,34.7038506305,5.1754569614,8.7459089311
 N,0,33.0615839424,4.209742948,10.8525949746
 N,0,35.2192029927,2.6048786866,11.7786729059
 C,0,37.7557116899,2.7497044565,10.2523093809
 C,0,38.9938524687,2.7445401833,9.504329541
 C,0,38.8139652285,3.6007012448,8.4634995274
 C,0,37.467211959,4.1138483256,8.5900562128
 C,0,35.6002559666,5.4769740315,7.7678563989
 C,0,35.0343075065,6.3982021939,6.8155296461
 C,0,33.7597626732,6.6581106601,7.2436488415
 C,0,33.5784871793,5.8777546965,8.4535950634
 C,0,32.2084798214,5.1487219568,10.3561868667
 C,0,31.0566917796,5.3005653669,11.2048000539
 C,0,31.2362929644,4.4363101519,12.2540061796
 C,0,32.5010582008,3.7718665245,12.010882178
 C,0,34.340947797,2.3448383892,12.7825158144
 C,0,34.9547687236,1.5269561788,13.8061447133
 C,0,36.2361714485,1.3165196141,13.4045307382
 C,0,36.3834147575,2.0039883332,12.1395165104
 C,0,37.5557203105,2.0202711606,11.4093853978
 H,0,38.3866069961,1.4430108532,11.7853837167
 C,0,36.9011595134,5.006659028,7.7018631822
 H,0,37.5165575544,5.3516702831,6.884771102
 C,0,32.4142053678,5.8754115957,9.1953303149
 H,0,31.6179634351,6.5295916209,8.8745855162
 C,0,33.0481824191,2.8277188412,12.8626827882
 H,0,32.4602653119,2.5272130616,13.7166736415
 C,0,39.7622713443,3.9812438025,7.3779993808
 H,0,40.7183181445,3.4798591063,7.5069277576
 H,0,39.9366099316,5.057355112,7.3808161864
 H,0,39.3610302607,3.7072025694,6.401588453
 C,0,40.1893599527,1.9296767263,9.8620194991
 H,0,39.9367326583,0.8694250791,9.8839745988
 H,0,40.5626523672,2.2078491931,10.8478840814
 H,0,40.9888721495,2.0767676822,9.1400274456
 C,0,35.7158821529,6.8867709575,5.5847566318
 H,0,36.3330273285,6.1034490345,5.1469294374
 H,0,36.361176376,7.7377969895,5.8088661813
 H,0,34.9779534809,7.2010085689,4.8492109566
 C,0,32.7482824045,7.5021622009,6.6474066911
 H,0,31.7251122893,7.1688505242,6.7777121974
 C,0,32.9767516179,8.6274031409,5.9775460805
 H,0,33.9662473973,9.0321965229,5.8566061988
 H,0,32.1718334512,9.1995579209,5.5465111991
 C,0,29.9619491817,6.2888237293,10.9985439522
 H,0,29.2108153683,5.8982858553,10.3099979954
 H,0,30.3510850572,7.2164646308,10.5816248837
 H,0,29.4751106003,6.5098263922,11.9464576182
 C,0,30.3956201386,4.2144062567,13.4093796699
 H,0,30.9164439716,3.9633292774,14.3262709827
 C,0,29.0684272754,4.2871931754,13.424068539
 H,0,28.4951916812,4.4848977952,12.5354037928
 H,0,28.5056558443,4.122738518,14.328028087
 C,0,34.2621744457,1.0615869256,15.0411099263
 H,0,33.367001613,0.4930519633,14.7886168438
 H,0,33.9608678443,1.9107050615,15.6555644668
 H,0,34.9153701501,0.4262762609,15.6343510996
 C,0,37.3270999227,0.5613973291,14.083501298
 H,0,37.6836678135,-0.2505961379,13.4494395567
 H,0,36.9778271626,0.1355465831,15.0210426678
 H,0,38.1708697598,1.2174518947,14.2984779327
 O,0,35.508,5.576,11.602
 H,0,34.688,5.968,11.902
 H,0,36.328,5.823,11.841
 C,0,32.2856789871,-0.5537581903,8.1225217233
 H,0,31.5979121318,-0.3799048658,7.2949346013
 H,0,31.7079271997,-0.717896695,9.0269173557
 H,0,32.859036574,-1.4553692505,7.9057744078
 N,0,34.0103119894,1.075820093,7.3216436528
 H,0,34.0897650864,0.6911051279,6.3946417747
 C,0,33.1855879054,0.6118795377,8.3130499001
 C,0,34.6862440865,2.1386287171,7.8147858836
 H,0,35.4040626264,2.7050341271,7.2574488207
 N,0,34.3394866754,2.3749597857,9.0568518246
 C,0,33.4079315025,1.4325443914,9.3812018235
 H,0,32.963917609,1.4113918938,10.3543435244
 Recover connectivity data from disk.
 Stoichiometry    C34H36FeN6O(5)
 Framework group  C1[X(C34H36FeN6O)]
 Deg. of freedom   228
 Full point group                 C1      NOp   1
 Largest Abelian subgroup         C1      NOp   1
 Largest concise Abelian subgroup C1      NOp   1
                         Standard orientation:                         
 ---------------------------------------------------------------------
 Center     Atomic      Atomic             Coordinates (Angstroms)
 Number     Number       Type             X           Y           Z
 ---------------------------------------------------------------------
      1         26           0       -0.048757   -0.195812   -0.298767
      2          7           0       -1.452425   -1.613852   -0.472660
      3          7           0       -1.481154    1.214098   -0.377109
      4          7           0        1.355589    1.245196   -0.236786
      5          7           0        1.375976   -1.597474   -0.322452
      6          6           0       -1.252082   -2.957467   -0.490876
      7          6           0       -2.513670   -3.664804   -0.514602
      8          6           0       -3.484484   -2.712851   -0.512751
      9          6           0       -2.800860   -1.438106   -0.485099
     10          6           0       -2.826738    1.013012   -0.380212
     11          6           0       -3.535779    2.266553   -0.338002
     12          6           0       -2.580381    3.247345   -0.314204
     13          6           0       -1.302533    2.560070   -0.337526
     14          6           0        1.152483    2.586758   -0.358643
     15          6           0        2.398726    3.284401   -0.531817
     16          6           0        3.378685    2.325386   -0.532159
     17          6           0        2.697098    1.059187   -0.352149
     18          6           0        2.718625   -1.393606   -0.371296
     19          6           0        3.424333   -2.644343   -0.547809
     20          6           0        2.470320   -3.609398   -0.625898
     21          6           0        1.197469   -2.934147   -0.490107
     22          6           0       -0.020554   -3.584835   -0.516243
     23          1           0       -0.010346   -4.661565   -0.590568
     24          6           0       -3.451433   -0.220571   -0.457236
     25          1           0       -4.530605   -0.233694   -0.481782
     26          6           0       -0.084290    3.209355   -0.331172
     27          1           0       -0.094743    4.288252   -0.357670
     28          6           0        3.345890   -0.163096   -0.314495
     29          1           0        4.424621   -0.155807   -0.353692
     30          6           0       -4.966356   -2.874145   -0.533907
     31          1           0       -5.239967   -3.925659   -0.572492
     32          1           0       -5.393918   -2.376682   -1.404620
     33          1           0       -5.414850   -2.436333    0.358643
     34          6           0       -2.645641   -5.149218   -0.531325
     35          1           0       -2.160541   -5.586034    0.341776
     36          1           0       -2.175660   -5.566460   -1.422215
     37          1           0       -3.691751   -5.445457   -0.526421
     38          6           0       -5.015991    2.413160   -0.263693
     39          1           0       -5.453254    1.623634    0.345899
     40          1           0       -5.463076    2.357568   -1.257625
     41          1           0       -5.274233    3.375229    0.174538
     42          6           0       -2.743728    4.682803   -0.252584
     43          1           0       -1.973928    5.217899    0.291505
     44          6           0       -3.736752    5.372419   -0.805226
     45          1           0       -4.502830    4.901621   -1.396038
     46          1           0       -3.802307    6.443331   -0.705758
     47          6           0        2.538401    4.748492   -0.765452
     48          1           0        2.542129    5.293986    0.179662
     49          1           0        1.713395    5.124918   -1.368307
     50          1           0        3.472345    4.956296   -1.284065
     51          6           0        4.805947    2.477310   -0.707378
     52          1           0        5.304942    1.660455   -1.216043
     53          6           0        5.528634    3.513709   -0.294396
     54          1           0        5.096986    4.330202    0.257357
     55          1           0        6.589968    3.566501   -0.472394
     56          6           0        4.906695   -2.770364   -0.637890
     57          1           0        5.382491   -2.352968    0.249645
     58          1           0        5.285554   -2.233517   -1.508294
     59          1           0        5.201175   -3.813320   -0.725890
     60          6           0        2.626180   -5.077703   -0.828690
     61          1           0        2.190098   -5.628451    0.004988
     62          1           0        3.676405   -5.348590   -0.905958
     63          1           0        2.122678   -5.393857   -1.742529
     64          8           0        0.159286   -0.023188   -2.554820
     65          1           0        0.723327    0.731850   -2.721674
     66          1           0       -0.185779   -0.568021   -3.166879
     67          6           0        1.148488   -0.129031    5.131163
     68          1           0        0.834802    0.741124    5.707862
     69          1           0        2.218345   -0.064919    4.958054
     70          1           0        0.943083   -1.021901    5.722105
     71          7           0       -0.929406   -0.230031    3.737088
     72          1           0       -1.571199   -0.233516    4.512807
     73          6           0        0.437184   -0.181921    3.828820
     74          6           0       -1.250939   -0.266432    2.423723
     75          1           0       -2.254406   -0.305919    2.051972
     76          7           0       -0.171676   -0.244292    1.679733
     77          6           0        0.886236   -0.193274    2.539596
     78          1           0        1.891025   -0.166982    2.173115
 ---------------------------------------------------------------------
 Rotational constants (GHZ):           0.0927021           0.0909248           0.0592951
 General basis read from cards:  (5D, 7F)
 There are   723 symmetry adapted cartesian basis functions of A   symmetry.
 There are   679 symmetry adapted basis functions of A   symmetry.
   679 basis functions,  1378 primitive gaussians,   723 cartesian basis functions
   160 alpha electrons      156 beta electrons
       nuclear repulsion energy      5962.7282015957 Hartrees.
 NAtoms=   78 NActive=   78 NUniq=   78 SFac= 1.00D+00 NAtFMM=   60 NAOKFM=T Big=T
 Integral buffers will be    131072 words long.
 Raffenetti 2 integral format.
 Two-electron integral symmetry is turned on.
 R6APFD:  NTU= -4 IXU= 1 FactS= 1.050
 Nuclear repulsion after empirical dispersion term =     5962.5756153989 Hartrees.
 One-electron integrals computed using PRISM.
 NBasis=   679 RedAO= T EigKep=  2.58D-04  NBF=   679
 NBsUse=   679 1.00D-06 EigRej= -1.00D+00 NBFU=   679
 ExpMin= 4.20D-02 ExpMax= 3.01D+05 ExpMxC= 2.91D+03 IAcc=3 IRadAn=         5 AccDes= 0.00D+00
 Harris functional with IExCor= 3731 and IRadAn=       5 diagonalized for initial guess.
 HarFok:  IExCor= 3731 AccDes= 0.00D+00 IRadAn=         5 IDoV= 1 UseB2=F ITyADJ=14
 ICtDFT=  3500011 ScaDFX=  1.000000  1.000000  1.000000  1.000000
 FoFCou: FMM=F IPFlag=           0 FMFlag=      100000 FMFlg1=        2001
         NFxFlg=           0 DoJE=T BraDBF=F KetDBF=T FulRan=T
         wScrn=  0.000000 ICntrl=       500 IOpCl=  0 I1Cent=   200000004 NGrid=           0
         NMat0=    1 NMatS0=      1 NMatT0=    0 NMatD0=    1 NMtDS0=    0 NMtDT0=    0
 Petite list used in FoFCou.
 Initial guess <Sx>= 0.0000 <Sy>= 0.0000 <Sz>= 2.0000 <S**2>= 6.0000 S= 2.0000
 Requested convergence on RMS density matrix=1.00D-08 within 999 cycles.
 Requested convergence on MAX density matrix=1.00D-06.
 Requested convergence on             energy=1.00D-06.
 No special actions if energy rises.
 EnCoef did   100 forward-backward iterations
 EnCoef did   100 forward-backward iterations
 EnCoef did   100 forward-backward iterations
 EnCoef did     9 forward-backward iterations
 EnCoef did     9 forward-backward iterations
 Rare condition: small coef for last iteration:  0.000D+00
 Rare condition: small coef for last iteration:  0.000D+00
 Rare condition: small coef for last iteration:  0.000D+00
 Restarting incremental Fock formation.
 Rare condition: small coef for last iteration:  0.000D+00
 Rare condition: small coef for last iteration:  0.000D+00
 Rare condition: small coef for last iteration:  0.000D+00
 EnCoef did   100 forward-backward iterations
 Rare condition: small coef for last iteration:  0.000D+00
 Rare condition: small coef for last iteration:  0.000D+00
 Rare condition: small coef for last iteration:  0.000D+00
 Restarting incremental Fock formation.
 Rare condition: small coef for last iteration:  0.000D+00
 EnCoef did   100 forward-backward iterations
 Rare condition: small coef for last iteration:  0.000D+00
 Rare condition: small coef for last iteration:  0.000D+00
 Restarting incremental Fock formation.
 EnCoef did   100 forward-backward iterations
 Rare condition: small coef for last iteration:  0.000D+00
 Rare condition: small coef for last iteration:  0.000D+00
 Rare condition: small coef for last iteration:  0.000D+00
 Rare condition: small coef for last iteration:  0.000D+00
 Rare condition: small coef for last iteration:  0.000D+00
 Rare condition: small coef for last iteration:  0.000D+00
 Rare condition: small coef for last iteration:  0.000D+00
 Restarting incremental Fock formation.
 Rare condition: small coef for last iteration:  0.000D+00
 Rare condition: small coef for last iteration:  0.000D+00
 Rare condition: small coef for last iteration:  0.000D+00
 Rare condition: small coef for last iteration:  0.000D+00
 Rare condition: small coef for last iteration:  0.000D+00
 Rare condition: small coef for last iteration:  0.000D+00
 Rare condition: small coef for last iteration:  0.000D+00
 Rare condition: small coef for last iteration:  0.000D+00
 Rare condition: small coef for last iteration:  0.000D+00
 Rare condition: small coef for last iteration:  0.000D+00
 Rare condition: small coef for last iteration:  0.000D+00
 Restarting incremental Fock formation.
 Rare condition: small coef for last iteration:  0.000D+00
 Rare condition: small coef for last iteration:  0.000D+00
 Rare condition: small coef for last iteration:  0.000D+00
 Rare condition: small coef for last iteration:  0.000D+00
 Rare condition: small coef for last iteration:  0.000D+00
 Rare condition: small coef for last iteration:  0.000D+00
 Rare condition: small coef for last iteration:  0.000D+00
 Rare condition: small coef for last iteration:  0.000D+00
 Rare condition: small coef for last iteration:  0.000D+00
 Rare condition: small coef for last iteration:  0.000D+00
 Rare condition: small coef for last iteration:  0.000D+00
 Rare condition: small coef for last iteration:  0.000D+00
 Restarting incremental Fock formation.
 Rare condition: small coef for last iteration:  0.000D+00
 Rare condition: small coef for last iteration:  0.000D+00
 Rare condition: small coef for last iteration:  0.000D+00
 Rare condition: small coef for last iteration:  0.000D+00
 Rare condition: small coef for last iteration:  0.000D+00
 Rare condition: small coef for last iteration:  0.000D+00
 Rare condition: small coef for last iteration:  0.000D+00
 Rare condition: small coef for last iteration:  0.000D+00
 Rare condition: small coef for last iteration:  0.000D+00
 Rare condition: small coef for last iteration:  0.000D+00
 Rare condition: small coef for last iteration:  0.000D+00
 Rare condition: small coef for last iteration:  0.000D+00
 Rare condition: small coef for last iteration:  0.000D+00
 Rare condition: small coef for last iteration:  0.000D+00
 Restarting incremental Fock formation.
 Rare condition: small coef for last iteration:  0.000D+00
 Rare condition: small coef for last iteration:  0.000D+00
 Rare condition: small coef for last iteration:  0.000D+00
 Rare condition: small coef for last iteration:  0.000D+00
 Rare condition: small coef for last iteration:  0.000D+00
 Rare condition: small coef for last iteration:  0.000D+00
 Restarting incremental Fock formation.
 Restarting incremental Fock formation.
 SCF Done:  E(UAPFD) =  -2983.37143981     A.U. after  183 cycles
            NFock=183  Conv=0.34D-08     -V/T= 2.0033
 <Sx>= 0.0000 <Sy>= 0.0000 <Sz>= 2.0000 <S**2>= 6.0164 S= 2.0033
 <L.S>=  0.00000000000    
 Annihilation of the first spin contaminant:
 S**2 before annihilation     6.0164,   after     6.0001

 **********************************************************************

            Population analysis using the SCF Density.

 **********************************************************************

 Orbital symmetries:
 Alpha Orbitals:
       Occupied  (A) (A) (A) (A) (A) (A) (A) (A) (A) (A) (A) (A)
                 (A) (A) (A) (A) (A) (A) (A) (A) (A) (A) (A) (A)
                 (A) (A) (A) (A) (A) (A) (A) (A) (A) (A) (A) (A)
                 (A) (A) (A) (A) (A) (A) (A) (A) (A) (A) (A) (A)
                 (A) (A) (A) (A) (A) (A) (A) (A) (A) (A) (A) (A)
                 (A) (A) (A) (A) (A) (A) (A) (A) (A) (A) (A) (A)
                 (A) (A) (A) (A) (A) (A) (A) (A) (A) (A) (A) (A)
                 (A) (A) (A) (A) (A) (A) (A) (A) (A) (A) (A) (A)
                 (A) (A) (A) (A) (A) (A) (A) (A) (A) (A) (A) (A)
                 (A) (A) (A) (A) (A) (A) (A) (A) (A) (A) (A) (A)
                 (A) (A) (A) (A) (A) (A) (A) (A) (A) (A) (A) (A)
                 (A) (A) (A) (A) (A) (A) (A) (A) (A) (A) (A) (A)
                 (A) (A) (A) (A) (A) (A) (A) (A) (A) (A) (A) (A)
                 (A) (A) (A) (A)
       Virtual   (A) (A) (A) (A) (A) (A) (A) (A) (A) (A) (A) (A)
                 (A) (A) (A) (A) (A) (A) (A) (A) (A) (A) (A) (A)
                 (A) (A) (A) (A) (A) (A) (A) (A) (A) (A) (A) (A)
                 (A) (A) (A) (A) (A) (A) (A) (A) (A) (A) (A) (A)
                 (A) (A) (A) (A) (A) (A) (A) (A) (A) (A) (A) (A)
                 (A) (A) (A) (A) (A) (A) (A) (A) (A) (A) (A) (A)
                 (A) (A) (A) (A) (A) (A) (A) (A) (A) (A) (A) (A)
                 (A) (A) (A) (A) (A) (A) (A) (A) (A) (A) (A) (A)
                 (A) (A) (A) (A) (A) (A) (A) (A) (A) (A) (A) (A)
                 (A) (A) (A) (A) (A) (A) (A) (A) (A) (A) (A) (A)
                 (A) (A) (A) (A) (A) (A) (A) (A) (A) (A) (A) (A)
                 (A) (A) (A) (A) (A) (A) (A) (A) (A) (A) (A) (A)
                 (A) (A) (A) (A) (A) (A) (A) (A) (A) (A) (A) (A)
                 (A) (A) (A) (A) (A) (A) (A) (A) (A) (A) (A) (A)
                 (A) (A) (A) (A) (A) (A) (A) (A) (A) (A) (A) (A)
                 (A) (A) (A) (A) (A) (A) (A) (A) (A) (A) (A) (A)
                 (A) (A) (A) (A) (A) (A) (A) (A) (A) (A) (A) (A)
                 (A) (A) (A) (A) (A) (A) (A) (A) (A) (A) (A) (A)
                 (A) (A) (A) (A) (A) (A) (A) (A) (A) (A) (A) (A)
                 (A) (A) (A) (A) (A) (A) (A) (A) (A) (A) (A) (A)
                 (A) (A) (A) (A) (A) (A) (A) (A) (A) (A) (A) (A)
                 (A) (A) (A) (A) (A) (A) (A) (A) (A) (A) (A) (A)
                 (A) (A) (A) (A) (A) (A) (A) (A) (A) (A) (A) (A)
                 (A) (A) (A) (A) (A) (A) (A) (A) (A) (A) (A) (A)
                 (A) (A) (A) (A) (A) (A) (A) (A) (A) (A) (A) (A)
                 (A) (A) (A) (A) (A) (A) (A) (A) (A) (A) (A) (A)
                 (A) (A) (A) (A) (A) (A) (A) (A) (A) (A) (A) (A)
                 (A) (A) (A) (A) (A) (A) (A) (A) (A) (A) (A) (A)
                 (A) (A) (A) (A) (A) (A) (A) (A) (A) (A) (A) (A)
                 (A) (A) (A) (A) (A) (A) (A) (A) (A) (A) (A) (A)
                 (A) (A) (A) (A) (A) (A) (A) (A) (A) (A) (A) (A)
                 (A) (A) (A) (A) (A) (A) (A) (A) (A) (A) (A) (A)
                 (A) (A) (A) (A) (A) (A) (A) (A) (A) (A) (A) (A)
                 (A) (A) (A) (A) (A) (A) (A) (A) (A) (A) (A) (A)
                 (A) (A) (A) (A) (A) (A) (A) (A) (A) (A) (A) (A)
                 (A) (A) (A) (A) (A) (A) (A) (A) (A) (A) (A) (A)
                 (A) (A) (A) (A) (A) (A) (A) (A) (A) (A) (A) (A)
                 (A) (A) (A) (A) (A) (A) (A) (A) (A) (A) (A) (A)
                 (A) (A) (A) (A) (A) (A) (A) (A) (A) (A) (A) (A)
                 (A) (A) (A) (A) (A) (A) (A) (A) (A) (A) (A) (A)
                 (A) (A) (A) (A) (A) (A) (A) (A) (A) (A) (A) (A)
                 (A) (A) (A) (A) (A) (A) (A) (A) (A) (A) (A) (A)
                 (A) (A) (A) (A) (A) (A) (A) (A) (A) (A) (A) (A)
                 (A) (A) (A)
 Beta  Orbitals:
       Occupied  (A) (A) (A) (A) (A) (A) (A) (A) (A) (A) (A) (A)
                 (A) (A) (A) (A) (A) (A) (A) (A) (A) (A) (A) (A)
                 (A) (A) (A) (A) (A) (A) (A) (A) (A) (A) (A) (A)
                 (A) (A) (A) (A) (A) (A) (A) (A) (A) (A) (A) (A)
                 (A) (A) (A) (A) (A) (A) (A) (A) (A) (A) (A) (A)
                 (A) (A) (A) (A) (A) (A) (A) (A) (A) (A) (A) (A)
                 (A) (A) (A) (A) (A) (A) (A) (A) (A) (A) (A) (A)
                 (A) (A) (A) (A) (A) (A) (A) (A) (A) (A) (A) (A)
                 (A) (A) (A) (A) (A) (A) (A) (A) (A) (A) (A) (A)
                 (A) (A) (A) (A) (A) (A) (A) (A) (A) (A) (A) (A)
                 (A) (A) (A) (A) (A) (A) (A) (A) (A) (A) (A) (A)
                 (A) (A) (A) (A) (A) (A) (A) (A) (A) (A) (A) (A)
                 (A) (A) (A) (A) (A) (A) (A) (A) (A) (A) (A) (A)
       Virtual   (A) (A) (A) (A) (A) (A) (A) (A) (A) (A) (A) (A)
                 (A) (A) (A) (A) (A) (A) (A) (A) (A) (A) (A) (A)
                 (A) (A) (A) (A) (A) (A) (A) (A) (A) (A) (A) (A)
                 (A) (A) (A) (A) (A) (A) (A) (A) (A) (A) (A) (A)
                 (A) (A) (A) (A) (A) (A) (A) (A) (A) (A) (A) (A)
                 (A) (A) (A) (A) (A) (A) (A) (A) (A) (A) (A) (A)
                 (A) (A) (A) (A) (A) (A) (A) (A) (A) (A) (A) (A)
                 (A) (A) (A) (A) (A) (A) (A) (A) (A) (A) (A) (A)
                 (A) (A) (A) (A) (A) (A) (A) (A) (A) (A) (A) (A)
                 (A) (A) (A) (A) (A) (A) (A) (A) (A) (A) (A) (A)
                 (A) (A) (A) (A) (A) (A) (A) (A) (A) (A) (A) (A)
                 (A) (A) (A) (A) (A) (A) (A) (A) (A) (A) (A) (A)
                 (A) (A) (A) (A) (A) (A) (A) (A) (A) (A) (A) (A)
                 (A) (A) (A) (A) (A) (A) (A) (A) (A) (A) (A) (A)
                 (A) (A) (A) (A) (A) (A) (A) (A) (A) (A) (A) (A)
                 (A) (A) (A) (A) (A) (A) (A) (A) (A) (A) (A) (A)
                 (A) (A) (A) (A) (A) (A) (A) (A) (A) (A) (A) (A)
                 (A) (A) (A) (A) (A) (A) (A) (A) (A) (A) (A) (A)
                 (A) (A) (A) (A) (A) (A) (A) (A) (A) (A) (A) (A)
                 (A) (A) (A) (A) (A) (A) (A) (A) (A) (A) (A) (A)
                 (A) (A) (A) (A) (A) (A) (A) (A) (A) (A) (A) (A)
                 (A) (A) (A) (A) (A) (A) (A) (A) (A) (A) (A) (A)
                 (A) (A) (A) (A) (A) (A) (A) (A) (A) (A) (A) (A)
                 (A) (A) (A) (A) (A) (A) (A) (A) (A) (A) (A) (A)
                 (A) (A) (A) (A) (A) (A) (A) (A) (A) (A) (A) (A)
                 (A) (A) (A) (A) (A) (A) (A) (A) (A) (A) (A) (A)
                 (A) (A) (A) (A) (A) (A) (A) (A) (A) (A) (A) (A)
                 (A) (A) (A) (A) (A) (A) (A) (A) (A) (A) (A) (A)
                 (A) (A) (A) (A) (A) (A) (A) (A) (A) (A) (A) (A)
                 (A) (A) (A) (A) (A) (A) (A) (A) (A) (A) (A) (A)
                 (A) (A) (A) (A) (A) (A) (A) (A) (A) (A) (A) (A)
                 (A) (A) (A) (A) (A) (A) (A) (A) (A) (A) (A) (A)
                 (A) (A) (A) (A) (A) (A) (A) (A) (A) (A) (A) (A)
                 (A) (A) (A) (A) (A) (A) (A) (A) (A) (A) (A) (A)
                 (A) (A) (A) (A) (A) (A) (A) (A) (A) (A) (A) (A)
                 (A) (A) (A) (A) (A) (A) (A) (A) (A) (A) (A) (A)
                 (A) (A) (A) (A) (A) (A) (A) (A) (A) (A) (A) (A)
                 (A) (A) (A) (A) (A) (A) (A) (A) (A) (A) (A) (A)
                 (A) (A) (A) (A) (A) (A) (A) (A) (A) (A) (A) (A)
                 (A) (A) (A) (A) (A) (A) (A) (A) (A) (A) (A) (A)
                 (A) (A) (A) (A) (A) (A) (A) (A) (A) (A) (A) (A)
                 (A) (A) (A) (A) (A) (A) (A) (A) (A) (A) (A) (A)
                 (A) (A) (A) (A) (A) (A) (A) (A) (A) (A) (A) (A)
                 (A) (A) (A) (A) (A) (A) (A)
 The electronic state is 5-A.
 Alpha  occ. eigenvalues -- -256.13066 -30.01927 -25.87235 -25.84107 -25.84037
 Alpha  occ. eigenvalues --  -19.16993 -14.42513 -14.35708 -14.32512 -14.32222
 Alpha  occ. eigenvalues --  -14.32206 -14.32008 -10.25799 -10.23807 -10.21075
 Alpha  occ. eigenvalues --  -10.20973 -10.20822 -10.20735 -10.20723 -10.20698
 Alpha  occ. eigenvalues --  -10.20686 -10.20627 -10.20576 -10.20530 -10.19703
 Alpha  occ. eigenvalues --  -10.19606 -10.18997 -10.18879 -10.18781 -10.18706
 Alpha  occ. eigenvalues --  -10.18667 -10.18624 -10.18560 -10.18538 -10.18530
 Alpha  occ. eigenvalues --  -10.18525 -10.18463 -10.18406 -10.18396 -10.18362
 Alpha  occ. eigenvalues --  -10.18350 -10.18278 -10.18276 -10.18262 -10.18258
 Alpha  occ. eigenvalues --  -10.18051  -3.47924  -2.29032  -2.22660  -2.22534
 Alpha  occ. eigenvalues --   -1.04757  -1.03826  -0.95775  -0.94918  -0.94716
 Alpha  occ. eigenvalues --   -0.93854  -0.90308  -0.81362  -0.81060  -0.80737
 Alpha  occ. eigenvalues --   -0.79933  -0.79719  -0.79585  -0.78733  -0.78644
 Alpha  occ. eigenvalues --   -0.76044  -0.74957  -0.73627  -0.73049  -0.72546
 Alpha  occ. eigenvalues --   -0.71274  -0.70270  -0.69437  -0.67566  -0.67225
 Alpha  occ. eigenvalues --   -0.67040  -0.64130  -0.63289  -0.63175  -0.60633
 Alpha  occ. eigenvalues --   -0.59948  -0.59579  -0.59272  -0.56881  -0.55614
 Alpha  occ. eigenvalues --   -0.55288  -0.53607  -0.52713  -0.52488  -0.51760
 Alpha  occ. eigenvalues --   -0.50123  -0.50098  -0.49548  -0.47961  -0.47249
 Alpha  occ. eigenvalues --   -0.46997  -0.46688  -0.46493  -0.44232  -0.43968
 Alpha  occ. eigenvalues --   -0.43902  -0.43685  -0.43337  -0.42888  -0.42760
 Alpha  occ. eigenvalues --   -0.42671  -0.42555  -0.42243  -0.42222  -0.41960
 Alpha  occ. eigenvalues --   -0.41821  -0.41657  -0.41357  -0.40995  -0.40801
 Alpha  occ. eigenvalues --   -0.40754  -0.40507  -0.39579  -0.39561  -0.39500
 Alpha  occ. eigenvalues --   -0.38870  -0.38652  -0.38397  -0.38185  -0.37742
 Alpha  occ. eigenvalues --   -0.37478  -0.37012  -0.36869  -0.36500  -0.36059
 Alpha  occ. eigenvalues --   -0.35743  -0.35669  -0.35440  -0.34840  -0.34643
 Alpha  occ. eigenvalues --   -0.33606  -0.33426  -0.32881  -0.32123  -0.31967
 Alpha  occ. eigenvalues --   -0.31467  -0.30691  -0.29460  -0.28821  -0.28013
 Alpha  occ. eigenvalues --   -0.27741  -0.27502  -0.26354  -0.25287  -0.25257
 Alpha  occ. eigenvalues --   -0.22971  -0.21942  -0.21218  -0.20874  -0.20340
 Alpha  occ. eigenvalues --   -0.19967  -0.18169  -0.16715  -0.16376  -0.11537
 Alpha virt. eigenvalues --   -0.05352  -0.05215  -0.00662   0.02309   0.03001
 Alpha virt. eigenvalues --    0.04078   0.07047   0.07761   0.08006   0.08346
 Alpha virt. eigenvalues --    0.09630   0.10385   0.10524   0.11239   0.11613
 Alpha virt. eigenvalues --    0.12500   0.12527   0.12734   0.13307   0.14366
 Alpha virt. eigenvalues --    0.14762   0.15187   0.15545   0.15665   0.15930
 Alpha virt. eigenvalues --    0.16320   0.16469   0.16778   0.16921   0.17093
 Alpha virt. eigenvalues --    0.17716   0.17980   0.18201   0.18257   0.18460
 Alpha virt. eigenvalues --    0.18496   0.18760   0.19297   0.19404   0.19608
 Alpha virt. eigenvalues --    0.19772   0.19971   0.20524   0.20555   0.20875
 Alpha virt. eigenvalues --    0.21494   0.21865   0.22111   0.22387   0.22831
 Alpha virt. eigenvalues --    0.23407   0.23464   0.24369   0.24425   0.25096
 Alpha virt. eigenvalues --    0.25786   0.26288   0.26687   0.27353   0.27606
 Alpha virt. eigenvalues --    0.27784   0.28126   0.28668   0.28800   0.30668
 Alpha virt. eigenvalues --    0.31520   0.31784   0.32397   0.32964   0.33359
 Alpha virt. eigenvalues --    0.34616   0.34700   0.35142   0.35954   0.36850
 Alpha virt. eigenvalues --    0.37090   0.37591   0.38063   0.38530   0.39523
 Alpha virt. eigenvalues --    0.41110   0.41666   0.42711   0.43422   0.44535
 Alpha virt. eigenvalues --    0.44810   0.45154   0.45468   0.46000   0.48215
 Alpha virt. eigenvalues --    0.48892   0.49126   0.49547   0.50056   0.50448
 Alpha virt. eigenvalues --    0.51462   0.51809   0.52016   0.52242   0.52773
 Alpha virt. eigenvalues --    0.53217   0.53435   0.53553   0.53972   0.54141
 Alpha virt. eigenvalues --    0.54432   0.54562   0.54731   0.55559   0.55927
 Alpha virt. eigenvalues --    0.56705   0.57140   0.57539   0.58046   0.58243
 Alpha virt. eigenvalues --    0.58970   0.59225   0.59915   0.59961   0.60212
 Alpha virt. eigenvalues --    0.60757   0.61388   0.61687   0.61963   0.62199
 Alpha virt. eigenvalues --    0.62819   0.63169   0.64042   0.64386   0.64630
 Alpha virt. eigenvalues --    0.65003   0.65799   0.66141   0.66305   0.66587
 Alpha virt. eigenvalues --    0.67108   0.67218   0.67446   0.67973   0.68053
 Alpha virt. eigenvalues --    0.68250   0.68264   0.68974   0.69085   0.69595
 Alpha virt. eigenvalues --    0.70174   0.71267   0.71525   0.71652   0.71974
 Alpha virt. eigenvalues --    0.72323   0.72693   0.73983   0.74917   0.75064
 Alpha virt. eigenvalues --    0.75636   0.75677   0.76303   0.76474   0.77002
 Alpha virt. eigenvalues --    0.77575   0.78384   0.78691   0.78907   0.78976
 Alpha virt. eigenvalues --    0.79567   0.79742   0.79982   0.80336   0.80540
 Alpha virt. eigenvalues --    0.81086   0.81780   0.82045   0.82541   0.83192
 Alpha virt. eigenvalues --    0.83880   0.84551   0.84872   0.85867   0.86331
 Alpha virt. eigenvalues --    0.86917   0.87372   0.87559   0.87647   0.88038
 Alpha virt. eigenvalues --    0.88312   0.88694   0.88783   0.89054   0.89865
 Alpha virt. eigenvalues --    0.90043   0.90292   0.90873   0.91235   0.91863
 Alpha virt. eigenvalues --    0.91925   0.92046   0.92771   0.93260   0.93400
 Alpha virt. eigenvalues --    0.93657   0.94154   0.94450   0.94642   0.95093
 Alpha virt. eigenvalues --    0.95633   0.96422   0.96694   0.97051   0.97709
 Alpha virt. eigenvalues --    0.98153   0.98522   0.98824   0.99270   1.00060
 Alpha virt. eigenvalues --    1.00184   1.00450   1.00726   1.00920   1.01426
 Alpha virt. eigenvalues --    1.01741   1.01926   1.02310   1.02436   1.03283
 Alpha virt. eigenvalues --    1.03975   1.04340   1.05102   1.05614   1.06190
 Alpha virt. eigenvalues --    1.06558   1.07203   1.07915   1.08102   1.08988
 Alpha virt. eigenvalues --    1.09603   1.10289   1.10778   1.11791   1.12713
 Alpha virt. eigenvalues --    1.13044   1.15343   1.15675   1.16220   1.16689
 Alpha virt. eigenvalues --    1.17410   1.17936   1.18869   1.18893   1.19590
 Alpha virt. eigenvalues --    1.19843   1.20435   1.20899   1.21004   1.21472
 Alpha virt. eigenvalues --    1.21853   1.22804   1.23334   1.23763   1.24625
 Alpha virt. eigenvalues --    1.24825   1.26006   1.26817   1.27906   1.28397
 Alpha virt. eigenvalues --    1.29186   1.29924   1.30502   1.32021   1.32364
 Alpha virt. eigenvalues --    1.32851   1.33449   1.33867   1.34598   1.34863
 Alpha virt. eigenvalues --    1.35773   1.36572   1.37572   1.38290   1.38578
 Alpha virt. eigenvalues --    1.38787   1.39627   1.39824   1.39972   1.40349
 Alpha virt. eigenvalues --    1.41231   1.41439   1.42038   1.43050   1.44755
 Alpha virt. eigenvalues --    1.45783   1.46011   1.46446   1.46941   1.47331
 Alpha virt. eigenvalues --    1.48190   1.48446   1.49148   1.50164   1.50961
 Alpha virt. eigenvalues --    1.52049   1.52664   1.54126   1.54596   1.55332
 Alpha virt. eigenvalues --    1.55577   1.55744   1.56102   1.56856   1.57554
 Alpha virt. eigenvalues --    1.58210   1.60321   1.61032   1.61228   1.63002
 Alpha virt. eigenvalues --    1.63446   1.64424   1.65304   1.66453   1.66913
 Alpha virt. eigenvalues --    1.68102   1.69233   1.70128   1.70557   1.71089
 Alpha virt. eigenvalues --    1.71602   1.73284   1.73701   1.75733   1.76150
 Alpha virt. eigenvalues --    1.76791   1.80277   1.80617   1.81286   1.81572
 Alpha virt. eigenvalues --    1.82560   1.83037   1.83282   1.83490   1.83967
 Alpha virt. eigenvalues --    1.84413   1.84734   1.85077   1.86159   1.86689
 Alpha virt. eigenvalues --    1.87222   1.87973   1.88564   1.88868   1.89242
 Alpha virt. eigenvalues --    1.89777   1.90018   1.91727   1.91868   1.92939
 Alpha virt. eigenvalues --    1.93029   1.94274   1.94403   1.95509   1.96297
 Alpha virt. eigenvalues --    1.96872   1.97241   1.97625   1.98364   1.99132
 Alpha virt. eigenvalues --    2.00086   2.00724   2.00772   2.01449   2.01955
 Alpha virt. eigenvalues --    2.02873   2.03231   2.04138   2.04736   2.05562
 Alpha virt. eigenvalues --    2.06110   2.07543   2.07708   2.07970   2.08626
 Alpha virt. eigenvalues --    2.09163   2.09650   2.10206   2.10731   2.12354
 Alpha virt. eigenvalues --    2.12933   2.13673   2.14315   2.15017   2.15644
 Alpha virt. eigenvalues --    2.16416   2.16470   2.17643   2.18027   2.18209
 Alpha virt. eigenvalues --    2.19859   2.20468   2.21149   2.22017   2.23295
 Alpha virt. eigenvalues --    2.23573   2.24517   2.24743   2.25311   2.25759
 Alpha virt. eigenvalues --    2.26083   2.27440   2.27872   2.28153   2.28403
 Alpha virt. eigenvalues --    2.28787   2.29142   2.30458   2.30753   2.30847
 Alpha virt. eigenvalues --    2.31647   2.31872   2.32699   2.32897   2.33717
 Alpha virt. eigenvalues --    2.34746   2.35619   2.36390   2.36728   2.36930
 Alpha virt. eigenvalues --    2.37071   2.37936   2.38901   2.39045   2.39300
 Alpha virt. eigenvalues --    2.39657   2.40317   2.40816   2.41327   2.42480
 Alpha virt. eigenvalues --    2.43168   2.43631   2.43742   2.44350   2.44889
 Alpha virt. eigenvalues --    2.45330   2.45700   2.46665   2.47214   2.47985
 Alpha virt. eigenvalues --    2.48285   2.49691   2.52602   2.53129   2.54391
 Alpha virt. eigenvalues --    2.54595   2.54946   2.55054   2.56853   2.57307
 Alpha virt. eigenvalues --    2.57766   2.57901   2.58747   2.59222   2.59645
 Alpha virt. eigenvalues --    2.61738   2.61990   2.62683   2.62927   2.64168
 Alpha virt. eigenvalues --    2.66349   2.67512   2.68766   2.70448   2.71411
 Alpha virt. eigenvalues --    2.71845   2.72528   2.72764   2.74724   2.76912
 Alpha virt. eigenvalues --    2.77309   2.78622   2.78737   2.80636   2.81548
 Alpha virt. eigenvalues --    2.82369   2.83074   2.89547   2.89901   2.90608
 Alpha virt. eigenvalues --    2.91339   2.93464   2.94581   2.95017   2.98124
 Alpha virt. eigenvalues --    2.98616   2.99342   3.00688   3.01403   3.02153
 Alpha virt. eigenvalues --    3.03354   3.05600   3.07273   3.07641   3.10037
 Alpha virt. eigenvalues --    3.15011   3.16299   3.16743   3.22607   3.24873
 Alpha virt. eigenvalues --    3.27889   3.31742   3.31951   3.41071   3.41386
 Alpha virt. eigenvalues --    3.43230   3.48915   3.49243   3.64970   3.70099
 Alpha virt. eigenvalues --    3.87243   3.95301   4.19845   4.29404
  Beta  occ. eigenvalues -- -256.12938 -29.94048 -25.79571 -25.78062 -25.78011
  Beta  occ. eigenvalues --  -19.16873 -14.42496 -14.35549 -14.32391 -14.32102
  Beta  occ. eigenvalues --  -14.32089 -14.31892 -10.25763 -10.23805 -10.21073
  Beta  occ. eigenvalues --  -10.20943 -10.20806 -10.20721 -10.20711 -10.20676
  Beta  occ. eigenvalues --  -10.20663 -10.20606 -10.20545 -10.20510 -10.19703
  Beta  occ. eigenvalues --  -10.19612 -10.18978 -10.18872 -10.18781 -10.18691
  Beta  occ. eigenvalues --  -10.18667 -10.18609 -10.18558 -10.18531 -10.18522
  Beta  occ. eigenvalues --  -10.18521 -10.18445 -10.18396 -10.18385 -10.18362
  Beta  occ. eigenvalues --  -10.18359 -10.18277 -10.18267 -10.18263 -10.18260
  Beta  occ. eigenvalues --  -10.18058  -3.28970  -2.05401  -2.04148  -2.04072
  Beta  occ. eigenvalues --   -1.04643  -1.03637  -0.95645  -0.94790  -0.94589
  Beta  occ. eigenvalues --   -0.93715  -0.90112  -0.81329  -0.81009  -0.80685
  Beta  occ. eigenvalues --   -0.79865  -0.79680  -0.79522  -0.78695  -0.78604
  Beta  occ. eigenvalues --   -0.76014  -0.74926  -0.73602  -0.73032  -0.72534
  Beta  occ. eigenvalues --   -0.71206  -0.70221  -0.69381  -0.67492  -0.67146
  Beta  occ. eigenvalues --   -0.66983  -0.63947  -0.63236  -0.63130  -0.60560
  Beta  occ. eigenvalues --   -0.59889  -0.59466  -0.59212  -0.56817  -0.55536
  Beta  occ. eigenvalues --   -0.55199  -0.53567  -0.52665  -0.52446  -0.51598
  Beta  occ. eigenvalues --   -0.50035  -0.50019  -0.49479  -0.47795  -0.47084
  Beta  occ. eigenvalues --   -0.46942  -0.46581  -0.46289  -0.44020  -0.43901
  Beta  occ. eigenvalues --   -0.43779  -0.43562  -0.43258  -0.42726  -0.42665
  Beta  occ. eigenvalues --   -0.42485  -0.42463  -0.42195  -0.42177  -0.41832
  Beta  occ. eigenvalues --   -0.41730  -0.41626  -0.41107  -0.40982  -0.40789
  Beta  occ. eigenvalues --   -0.40715  -0.39914  -0.39490  -0.39419  -0.39193
  Beta  occ. eigenvalues --   -0.38792  -0.38289  -0.38111  -0.37774  -0.37693
  Beta  occ. eigenvalues --   -0.37310  -0.36889  -0.36547  -0.36137  -0.35799
  Beta  occ. eigenvalues --   -0.35310  -0.34841  -0.34441  -0.34239  -0.33439
  Beta  occ. eigenvalues --   -0.33229  -0.32852  -0.31871  -0.31639  -0.30708
  Beta  occ. eigenvalues --   -0.30432  -0.29595  -0.28558  -0.27801  -0.27437
  Beta  occ. eigenvalues --   -0.27006  -0.25384  -0.25297  -0.23019  -0.21925
  Beta  occ. eigenvalues --   -0.21535  -0.21058  -0.20564  -0.16912  -0.16508
  Beta  occ. eigenvalues --   -0.12216
  Beta virt. eigenvalues --   -0.05811  -0.05755  -0.00697   0.01744   0.02112
  Beta virt. eigenvalues --    0.03870   0.04794   0.04967   0.06628   0.08010
  Beta virt. eigenvalues --    0.08416   0.08784   0.10335   0.10427   0.10823
  Beta virt. eigenvalues --    0.11042   0.11401   0.11774   0.12499   0.12582
  Beta virt. eigenvalues --    0.12827   0.13333   0.14405   0.14813   0.15219
  Beta virt. eigenvalues --    0.15519   0.15694   0.15824   0.16003   0.16578
  Beta virt. eigenvalues --    0.16695   0.16893   0.17096   0.17169   0.17835
  Beta virt. eigenvalues --    0.18150   0.18272   0.18317   0.18469   0.18605
  Beta virt. eigenvalues --    0.18846   0.19351   0.19460   0.19706   0.19966
  Beta virt. eigenvalues --    0.20147   0.20623   0.20631   0.20945   0.21524
  Beta virt. eigenvalues --    0.21902   0.22143   0.22430   0.22909   0.23462
  Beta virt. eigenvalues --    0.23535   0.24539   0.24668   0.25240   0.25919
  Beta virt. eigenvalues --    0.26411   0.26742   0.27407   0.27665   0.27847
  Beta virt. eigenvalues --    0.28182   0.28791   0.28921   0.30758   0.31722
  Beta virt. eigenvalues --    0.31866   0.33196   0.33330   0.33830   0.34793
  Beta virt. eigenvalues --    0.35378   0.36173   0.36340   0.37072   0.37316
  Beta virt. eigenvalues --    0.37769   0.38163   0.38737   0.39664   0.41289
  Beta virt. eigenvalues --    0.42470   0.43001   0.43688   0.44758   0.44948
  Beta virt. eigenvalues --    0.45437   0.45824   0.46181   0.48964   0.49247
  Beta virt. eigenvalues --    0.49638   0.49772   0.50383   0.50770   0.51785
  Beta virt. eigenvalues --    0.52042   0.52214   0.52424   0.52951   0.53336
  Beta virt. eigenvalues --    0.53570   0.53783   0.54117   0.54298   0.54529
  Beta virt. eigenvalues --    0.54744   0.54807   0.55643   0.55979   0.56807
  Beta virt. eigenvalues --    0.57277   0.57798   0.58347   0.58493   0.59038
  Beta virt. eigenvalues --    0.59300   0.60019   0.60057   0.60320   0.60905
  Beta virt. eigenvalues --    0.61465   0.61736   0.62152   0.62311   0.62910
  Beta virt. eigenvalues --    0.63337   0.64088   0.64431   0.64703   0.65129
  Beta virt. eigenvalues --    0.65964   0.66278   0.66580   0.66636   0.67203
  Beta virt. eigenvalues --    0.67465   0.67831   0.68132   0.68265   0.68343
  Beta virt. eigenvalues --    0.68577   0.69147   0.69311   0.69744   0.70236
  Beta virt. eigenvalues --    0.71461   0.71570   0.71714   0.72088   0.72578
  Beta virt. eigenvalues --    0.72821   0.74283   0.75193   0.75337   0.75844
  Beta virt. eigenvalues --    0.76132   0.76410   0.76595   0.77205   0.77741
  Beta virt. eigenvalues --    0.78515   0.78811   0.79053   0.79099   0.79671
  Beta virt. eigenvalues --    0.79935   0.80054   0.80428   0.81131   0.81446
  Beta virt. eigenvalues --    0.82103   0.82588   0.82690   0.83555   0.83979
  Beta virt. eigenvalues --    0.84607   0.84999   0.85966   0.86453   0.87044
  Beta virt. eigenvalues --    0.87441   0.87618   0.87709   0.88111   0.88337
  Beta virt. eigenvalues --    0.88755   0.88858   0.89116   0.89963   0.90130
  Beta virt. eigenvalues --    0.90381   0.90962   0.91339   0.91949   0.92052
  Beta virt. eigenvalues --    0.92158   0.92891   0.93313   0.93527   0.93781
  Beta virt. eigenvalues --    0.94262   0.94568   0.94702   0.95166   0.95738
  Beta virt. eigenvalues --    0.96525   0.96812   0.97374   0.97801   0.98380
  Beta virt. eigenvalues --    0.98601   0.99345   0.99640   1.00267   1.00438
  Beta virt. eigenvalues --    1.00517   1.00837   1.01140   1.01608   1.01958
  Beta virt. eigenvalues --    1.02214   1.02431   1.02794   1.03372   1.04170
  Beta virt. eigenvalues --    1.04627   1.05227   1.05686   1.06326   1.07211
  Beta virt. eigenvalues --    1.07411   1.08041   1.08297   1.09291   1.09776
  Beta virt. eigenvalues --    1.10439   1.11037   1.11883   1.12802   1.13471
  Beta virt. eigenvalues --    1.15623   1.15960   1.16470   1.17073   1.17650
  Beta virt. eigenvalues --    1.18220   1.19056   1.19069   1.19890   1.20020
  Beta virt. eigenvalues --    1.20680   1.21128   1.21506   1.21908   1.22107
  Beta virt. eigenvalues --    1.23317   1.23909   1.24403   1.24863   1.25098
  Beta virt. eigenvalues --    1.26109   1.27170   1.28508   1.29301   1.29565
  Beta virt. eigenvalues --    1.30372   1.31386   1.32200   1.32567   1.33173
  Beta virt. eigenvalues --    1.33547   1.33997   1.34666   1.35287   1.36046
  Beta virt. eigenvalues --    1.36978   1.37865   1.38581   1.38792   1.38855
  Beta virt. eigenvalues --    1.39728   1.39889   1.40092   1.40460   1.41524
  Beta virt. eigenvalues --    1.41573   1.42514   1.43282   1.44992   1.46049
  Beta virt. eigenvalues --    1.46186   1.46612   1.47033   1.47620   1.48244
  Beta virt. eigenvalues --    1.48518   1.49322   1.50489   1.51022   1.52319
  Beta virt. eigenvalues --    1.53039   1.54377   1.54758   1.55394   1.55704
  Beta virt. eigenvalues --    1.55817   1.56228   1.57038   1.57659   1.58511
  Beta virt. eigenvalues --    1.60484   1.61159   1.61579   1.63313   1.63776
  Beta virt. eigenvalues --    1.64576   1.65467   1.66624   1.67270   1.68411
  Beta virt. eigenvalues --    1.69549   1.70197   1.70631   1.71316   1.71707
  Beta virt. eigenvalues --    1.73488   1.73845   1.76030   1.76529   1.76950
  Beta virt. eigenvalues --    1.80346   1.80708   1.81333   1.81628   1.82668
  Beta virt. eigenvalues --    1.83136   1.83361   1.83666   1.84003   1.84511
  Beta virt. eigenvalues --    1.84787   1.85148   1.86338   1.86849   1.87339
  Beta virt. eigenvalues --    1.88093   1.88624   1.88935   1.89334   1.89859
  Beta virt. eigenvalues --    1.90052   1.91780   1.92006   1.93051   1.93133
  Beta virt. eigenvalues --    1.94501   1.94622   1.95797   1.96401   1.97028
  Beta virt. eigenvalues --    1.97473   1.97811   1.98614   1.99472   2.00212
  Beta virt. eigenvalues --    2.00876   2.01090   2.01909   2.02849   2.03520
  Beta virt. eigenvalues --    2.03783   2.04590   2.04836   2.05791   2.06225
  Beta virt. eigenvalues --    2.07687   2.08111   2.08539   2.09072   2.09374
  Beta virt. eigenvalues --    2.09998   2.10380   2.10959   2.12873   2.13179
  Beta virt. eigenvalues --    2.13839   2.14513   2.15249   2.15805   2.16513
  Beta virt. eigenvalues --    2.16826   2.17733   2.18203   2.18302   2.19952
  Beta virt. eigenvalues --    2.20743   2.22050   2.22670   2.23402   2.23707
  Beta virt. eigenvalues --    2.24713   2.25370   2.25501   2.26047   2.26412
  Beta virt. eigenvalues --    2.27587   2.27931   2.28325   2.28524   2.28977
  Beta virt. eigenvalues --    2.29352   2.30561   2.30868   2.30991   2.31782
  Beta virt. eigenvalues --    2.32027   2.32826   2.33049   2.34060   2.35279
  Beta virt. eigenvalues --    2.36381   2.36786   2.36975   2.37268   2.37430
  Beta virt. eigenvalues --    2.38319   2.39110   2.39232   2.39689   2.39821
  Beta virt. eigenvalues --    2.40744   2.41189   2.41960   2.42635   2.43320
  Beta virt. eigenvalues --    2.43847   2.43880   2.44451   2.45028   2.45536
  Beta virt. eigenvalues --    2.45853   2.46771   2.48293   2.48623   2.49068
  Beta virt. eigenvalues --    2.49783   2.53070   2.53646   2.54485   2.54723
  Beta virt. eigenvalues --    2.55451   2.56389   2.57501   2.57584   2.58462
  Beta virt. eigenvalues --    2.58814   2.59142   2.59843   2.60546   2.61960
  Beta virt. eigenvalues --    2.62116   2.62995   2.63671   2.64262   2.66499
  Beta virt. eigenvalues --    2.67677   2.68846   2.70782   2.71634   2.72047
  Beta virt. eigenvalues --    2.72835   2.72871   2.74869   2.77062   2.77535
  Beta virt. eigenvalues --    2.78759   2.79020   2.80751   2.81580   2.82727
  Beta virt. eigenvalues --    2.83199   2.89732   2.90126   2.90719   2.91468
  Beta virt. eigenvalues --    2.93600   2.94733   2.95165   2.98253   2.98708
  Beta virt. eigenvalues --    2.99434   3.00746   3.01456   3.02215   3.03654
  Beta virt. eigenvalues --    3.06050   3.07382   3.07745   3.10579   3.15162
  Beta virt. eigenvalues --    3.16449   3.16808   3.22671   3.24958   3.28577
  Beta virt. eigenvalues --    3.31784   3.31994   3.41120   3.41448   3.43548
  Beta virt. eigenvalues --    3.49051   3.49388   3.77381   3.82156   3.97004
  Beta virt. eigenvalues --    4.00792   4.28509   4.40620
          Condensed to atoms (all electrons):
          Atomic-Atomic Spin Densities.
 Mulliken charges and spin densities:
               1          2
     1  Fe   0.971983   3.713579
     2  N   -0.679099   0.014278
     3  N   -0.664895   0.015847
     4  N   -0.675685   0.015600
     5  N   -0.670410   0.014526
     6  C    0.315962   0.011928
     7  C    0.026435   0.007858
     8  C    0.028038   0.007609
     9  C    0.297010   0.013594
    10  C    0.295034   0.013566
    11  C    0.029800   0.001768
    12  C   -0.011097   0.011895
    13  C    0.316419   0.006730
    14  C    0.287735   0.005293
    15  C    0.030996   0.011095
    16  C   -0.009173   0.002217
    17  C    0.292139   0.018592
    18  C    0.309106   0.018523
    19  C    0.029641   0.004329
    20  C    0.028169   0.011574
    21  C    0.318422   0.010976
    22  C   -0.321952  -0.005509
    23  H    0.157534   0.000060
    24  C   -0.330665  -0.009313
    25  H    0.158431   0.000249
    26  C   -0.313268   0.000796
    27  H    0.160868  -0.000204
    28  C   -0.328465  -0.008516
    29  H    0.159790   0.000280
    30  C   -0.607455  -0.000339
    31  H    0.181756   0.000335
    32  H    0.189278   0.000356
    33  H    0.182082   0.000422
    34  C   -0.608120  -0.000414
    35  H    0.187778   0.000359
    36  H    0.187209   0.000494
    37  H    0.180418   0.000343
    38  C   -0.610208   0.000135
    39  H    0.176323   0.000210
    40  H    0.187589   0.000200
    41  H    0.192500   0.000131
    42  C   -0.146834  -0.005076
    43  H    0.163765   0.000291
    44  C   -0.405391   0.009743
    45  H    0.172368  -0.000488
    46  H    0.162923  -0.000457
    47  C   -0.612078  -0.000540
    48  H    0.186422   0.000518
    49  H    0.184245   0.000250
    50  H    0.192623   0.000487
    51  C   -0.146576  -0.000299
    52  H    0.162471   0.000109
    53  C   -0.404861   0.001635
    54  H    0.172909  -0.000087
    55  H    0.163466   0.000020
    56  C   -0.608749  -0.000079
    57  H    0.187253   0.000203
    58  H    0.186980   0.000325
    59  H    0.181339   0.000338
    60  C   -0.608136  -0.000712
    61  H    0.186681   0.000665
    62  H    0.180793   0.000339
    63  H    0.187129   0.000492
    64  O   -0.825752   0.010387
    65  H    0.461077   0.003602
    66  H    0.447102   0.004616
    67  C   -0.601526   0.001036
    68  H    0.191763  -0.000021
    69  H    0.210317   0.000039
    70  H    0.192120  -0.000039
    71  N   -0.637144   0.004460
    72  H    0.360931   0.002305
    73  C    0.270705  -0.000245
    74  C    0.245842   0.017265
    75  H    0.215991   0.000179
    76  N   -0.483012   0.030532
    77  C   -0.033465   0.005646
    78  H    0.198359   0.001109
 Sum of Mulliken charges =  -0.00000   4.00000
 Mulliken charges and spin densities with hydrogens summed into heavy atoms:
               1          2
     1  Fe   0.971983   3.713579
     2  N   -0.679099   0.014278
     3  N   -0.664895   0.015847
     4  N   -0.675685   0.015600
     5  N   -0.670410   0.014526
     6  C    0.315962   0.011928
     7  C    0.026435   0.007858
     8  C    0.028038   0.007609
     9  C    0.297010   0.013594
    10  C    0.295034   0.013566
    11  C    0.029800   0.001768
    12  C   -0.011097   0.011895
    13  C    0.316419   0.006730
    14  C    0.287735   0.005293
    15  C    0.030996   0.011095
    16  C   -0.009173   0.002217
    17  C    0.292139   0.018592
    18  C    0.309106   0.018523
    19  C    0.029641   0.004329
    20  C    0.028169   0.011574
    21  C    0.318422   0.010976
    22  C   -0.164418  -0.005450
    24  C   -0.172234  -0.009064
    26  C   -0.152401   0.000591
    28  C   -0.168675  -0.008236
    30  C   -0.054339   0.000774
    34  C   -0.052715   0.000782
    38  C   -0.053797   0.000677
    42  C    0.016932  -0.004785
    44  C   -0.070101   0.008797
    47  C   -0.048789   0.000715
    51  C    0.015895  -0.000189
    53  C   -0.068486   0.001568
    56  C   -0.053178   0.000786
    60  C   -0.053534   0.000785
    64  O    0.082426   0.018605
    67  C   -0.007327   0.001015
    71  N   -0.276213   0.006764
    73  C    0.270705  -0.000245
    74  C    0.461833   0.017445
    76  N   -0.483012   0.030532
    77  C    0.164893   0.006755
 Electronic spatial extent (au):  <R**2>=          20042.6468
 Charge=             -0.0000 electrons
 Dipole moment (field-independent basis, Debye):
    X=             -1.0130    Y=             -1.2449    Z=              2.9881  Tot=              3.3918
 Quadrupole moment (field-independent basis, Debye-Ang):
   XX=           -234.8865   YY=           -240.8560   ZZ=           -218.5793
   XY=              1.9266   XZ=             -6.6532   YZ=              1.2158
 Traceless Quadrupole moment (field-independent basis, Debye-Ang):
   XX=             -3.4460   YY=             -9.4154   ZZ=             12.8613
   XY=              1.9266   XZ=             -6.6532   YZ=              1.2158
 Octapole moment (field-independent basis, Debye-Ang**2):
  XXX=            -11.8119  YYY=            -23.9396  ZZZ=             93.8535  XYY=              4.8084
  XXY=            -24.9502  XXZ=              0.1330  XZZ=            -24.2736  YZZ=            -17.6954
  YYZ=            -10.2461  XYZ=              6.7798
 Hexadecapole moment (field-independent basis, Debye-Ang**3):
 XXXX=         -11664.7155 YYYY=         -11338.7735 ZZZZ=          -2710.1353 XXXY=             10.3527
 XXXZ=            -28.9812 YYYX=             15.0286 YYYZ=             86.3603 ZZZX=           -116.6530
 ZZZY=             -4.0097 XXYY=          -3898.5084 XXZZ=          -2565.9078 YYZZ=          -2628.4190
 XXYZ=            -15.6445 YYXZ=             31.5727 ZZXY=              9.3087
 N-N= 5.962575615399D+03 E-N=-1.893967349200D+04  KE= 2.973456320813D+03
                          Isotropic Fermi Contact Couplings
        Atom                 a.u.       MegaHertz       Gauss      10(-4) cm-1
     1  Fe(57)             0.40451      14.66734       5.23367       4.89250
     2  N(14)              0.08779       7.09094       2.53022       2.36528
     3  N(14)              0.08845       7.14427       2.54925       2.38307
     4  N(14)              0.08906       7.19378       2.56692       2.39959
     5  N(14)              0.08834       7.13593       2.54628       2.38029
     6  C(13)              0.00335       0.94103       0.33578       0.31389
     7  C(13)              0.00409       1.14919       0.41006       0.38333
     8  C(13)              0.00406       1.14192       0.40747       0.38090
     9  C(13)              0.00403       1.13239       0.40406       0.37772
    10  C(13)              0.00368       1.03368       0.36884       0.34480
    11  C(13)              0.00333       0.93487       0.33358       0.31184
    12  C(13)              0.00470       1.32063       0.47124       0.44052
    13  C(13)              0.00318       0.89472       0.31926       0.29845
    14  C(13)              0.00269       0.75630       0.26987       0.25227
    15  C(13)              0.00475       1.33555       0.47656       0.44549
    16  C(13)              0.00287       0.80711       0.28800       0.26922
    17  C(13)              0.00409       1.15084       0.41065       0.38388
    18  C(13)              0.00447       1.25767       0.44877       0.41951
    19  C(13)              0.00344       0.96811       0.34544       0.32293
    20  C(13)              0.00457       1.28444       0.45832       0.42844
    21  C(13)              0.00324       0.91075       0.32498       0.30379
    22  C(13)             -0.00091      -0.25598      -0.09134      -0.08539
    23  H(1)               0.00001       0.00900       0.00321       0.00300
    24  C(13)             -0.00128      -0.36091      -0.12878      -0.12039
    25  H(1)               0.00008       0.08497       0.03032       0.02834
    26  C(13)              0.00008       0.02112       0.00754       0.00704
    27  H(1)              -0.00007      -0.08359      -0.02983      -0.02788
    28  C(13)             -0.00123      -0.34437      -0.12288      -0.11487
    29  H(1)               0.00006       0.07141       0.02548       0.02382
    30  C(13)              0.00032       0.08892       0.03173       0.02966
    31  H(1)               0.00007       0.08238       0.02939       0.02748
    32  H(1)               0.00015       0.16632       0.05935       0.05548
    33  H(1)               0.00017       0.19345       0.06903       0.06453
    34  C(13)              0.00027       0.07506       0.02678       0.02504
    35  H(1)               0.00012       0.13060       0.04660       0.04356
    36  H(1)               0.00021       0.23724       0.08465       0.07914
    37  H(1)               0.00008       0.08856       0.03160       0.02954
    38  C(13)              0.00058       0.16169       0.05770       0.05393
    39  H(1)               0.00009       0.10141       0.03618       0.03383
    40  H(1)               0.00008       0.08436       0.03010       0.02814
    41  H(1)              -0.00002      -0.02621      -0.00935      -0.00874
    42  C(13)             -0.00041      -0.11648      -0.04156      -0.03885
    43  H(1)               0.00009       0.09990       0.03565       0.03332
    44  C(13)              0.00132       0.37139       0.13252       0.12388
    45  H(1)              -0.00015      -0.16507      -0.05890      -0.05506
    46  H(1)              -0.00014      -0.15398      -0.05494      -0.05136
    47  C(13)              0.00038       0.10728       0.03828       0.03578
    48  H(1)               0.00026       0.29177       0.10411       0.09732
    49  H(1)               0.00008       0.08433       0.03009       0.02813
    50  H(1)               0.00016       0.17365       0.06196       0.05792
    51  C(13)              0.00044       0.12267       0.04377       0.04092
    52  H(1)               0.00003       0.03575       0.01276       0.01193
    53  C(13)              0.00045       0.12605       0.04498       0.04204
    54  H(1)              -0.00002      -0.02601      -0.00928      -0.00868
    55  H(1)               0.00000       0.00411       0.00147       0.00137
    56  C(13)              0.00039       0.10861       0.03875       0.03623
    57  H(1)               0.00007       0.07691       0.02744       0.02565
    58  H(1)               0.00014       0.15389       0.05491       0.05133
    59  H(1)               0.00007       0.08224       0.02935       0.02743
    60  C(13)              0.00018       0.05058       0.01805       0.01687
    61  H(1)               0.00030       0.33381       0.11911       0.11135
    62  H(1)               0.00008       0.08557       0.03053       0.02854
    63  H(1)               0.00019       0.20693       0.07384       0.06902
    64  O(17)              0.09584     -14.52425      -5.18261      -4.84477
    65  H(1)               0.00045       0.50104       0.17878       0.16713
    66  H(1)               0.00114       1.27383       0.45454       0.42490
    67  C(13)              0.00076       0.21471       0.07662       0.07162
    68  H(1)               0.00001       0.00602       0.00215       0.00201
    69  H(1)               0.00004       0.03934       0.01404       0.01312
    70  H(1)              -0.00001      -0.00865      -0.00309      -0.00288
    71  N(14)              0.00935       0.75528       0.26950       0.25193
    72  H(1)               0.00062       0.69246       0.24709       0.23098
    73  C(13)              0.00262       0.73670       0.26287       0.24574
    74  C(13)              0.00798       2.24339       0.80050       0.74831
    75  H(1)              -0.00004      -0.04264      -0.01521      -0.01422
    76  N(14)              0.10792       8.71700       3.11044       2.90768
    77  C(13)              0.00331       0.93130       0.33231       0.31065
    78  H(1)               0.00025       0.27922       0.09963       0.09314
 --------------------------------------------------------
       Center         ----  Spin Dipole Couplings  ----
                      3XX-RR        3YY-RR        3ZZ-RR
 --------------------------------------------------------
     1   Atom       -1.133709     -1.181451      2.315160
     2   Atom        0.054177      0.057250     -0.111427
     3   Atom        0.057829      0.049556     -0.107385
     4   Atom        0.043193      0.045720     -0.088913
     5   Atom        0.055819      0.043869     -0.099688
     6   Atom       -0.017742      0.024173     -0.006432
     7   Atom       -0.002817      0.003188     -0.000372
     8   Atom        0.003001     -0.002280     -0.000721
     9   Atom        0.023665     -0.017728     -0.005937
    10   Atom        0.023700     -0.017898     -0.005802
    11   Atom        0.006633     -0.000080     -0.006553
    12   Atom       -0.003899      0.001392      0.002506
    13   Atom       -0.014590      0.025379     -0.010789
    14   Atom       -0.014387      0.026753     -0.012365
    15   Atom       -0.005540      0.001886      0.003655
    16   Atom        0.005575      0.000364     -0.005939
    17   Atom        0.019524     -0.020086      0.000562
    18   Atom        0.021205     -0.020702     -0.000502
    19   Atom        0.004908     -0.000347     -0.004561
    20   Atom       -0.004948      0.000710      0.004239
    21   Atom       -0.016662      0.023464     -0.006801
    22   Atom       -0.009528      0.029275     -0.019747
    23   Atom       -0.005714      0.012305     -0.006591
    24   Atom        0.030889     -0.008023     -0.022866
    25   Atom        0.012092     -0.005542     -0.006550
    26   Atom       -0.012415      0.026679     -0.014264
    27   Atom       -0.006063      0.012652     -0.006588
    28   Atom        0.030337     -0.008686     -0.021651
    29   Atom        0.012395     -0.005682     -0.006714
    30   Atom        0.005185     -0.001569     -0.003616
    31   Atom        0.002432     -0.000042     -0.002390
    32   Atom        0.004439     -0.001803     -0.002636
    33   Atom        0.004663     -0.001773     -0.002889
    34   Atom       -0.001641      0.005303     -0.003661
    35   Atom       -0.001889      0.004824     -0.002935
    36   Atom       -0.001858      0.004498     -0.002639
    37   Atom       -0.000146      0.002545     -0.002399
    38   Atom        0.005225     -0.001529     -0.003695
    39   Atom        0.005260     -0.002204     -0.003055
    40   Atom        0.003758     -0.001309     -0.002449
    41   Atom        0.002544     -0.000153     -0.002391
    42   Atom       -0.001251      0.007281     -0.006031
    43   Atom       -0.002075      0.005192     -0.003117
    44   Atom       -0.001153     -0.002101      0.003254
    45   Atom        0.000654      0.000932     -0.001586
    46   Atom       -0.000842      0.002318     -0.001476
    47   Atom       -0.001669      0.005254     -0.003585
    48   Atom       -0.001346      0.003990     -0.002644
    49   Atom       -0.002283      0.005178     -0.002895
    50   Atom       -0.000231      0.002507     -0.002276
    51   Atom        0.005550     -0.001439     -0.004111
    52   Atom        0.005142     -0.002159     -0.002984
    53   Atom        0.001493     -0.000552     -0.000941
    54   Atom        0.001267      0.000589     -0.001856
    55   Atom        0.001847     -0.000475     -0.001372
    56   Atom        0.005397     -0.001693     -0.003704
    57   Atom        0.004721     -0.001820     -0.002901
    58   Atom        0.004629     -0.001979     -0.002650
    59   Atom        0.002557     -0.000169     -0.002388
    60   Atom       -0.001576      0.005129     -0.003553
    61   Atom       -0.001782      0.004772     -0.002990
    62   Atom       -0.000031      0.002388     -0.002357
    63   Atom       -0.001850      0.004315     -0.002465
    64   Atom       -0.067475     -0.077418      0.144893
    65   Atom       -0.021680     -0.016361      0.038041
    66   Atom       -0.025124     -0.022127      0.047251
    67   Atom       -0.003095     -0.004115      0.007210
    68   Atom       -0.002397     -0.002367      0.004764
    69   Atom       -0.001451     -0.003248      0.004699
    70   Atom       -0.002345     -0.002398      0.004743
    71   Atom       -0.012618     -0.000251      0.012869
    72   Atom       -0.003310     -0.004955      0.008265
    73   Atom       -0.006461     -0.011350      0.017811
    74   Atom       -0.010443     -0.009495      0.019938
    75   Atom        0.008818     -0.017149      0.008331
    76   Atom       -0.106487     -0.117656      0.224144
    77   Atom       -0.011860     -0.021263      0.033123
    78   Atom        0.004073     -0.018363      0.014290
 --------------------------------------------------------
                        XY            XZ            YZ
 --------------------------------------------------------
     1   Atom        0.037770     -0.657418     -0.246499
     2   Atom        0.145720     -0.007723     -0.007694
     3   Atom       -0.143685     -0.012246      0.013556
     4   Atom        0.134734     -0.044548     -0.044292
     5   Atom       -0.139927     -0.041310      0.041690
     6   Atom        0.018964      0.001290     -0.003631
     7   Atom        0.011393     -0.003152     -0.001108
     8   Atom        0.011361      0.001020      0.002311
     9   Atom        0.019393     -0.005083      0.000583
    10   Atom       -0.018321     -0.003945     -0.001668
    11   Atom       -0.011389      0.001805     -0.005188
    12   Atom       -0.011388     -0.005579      0.001780
    13   Atom       -0.019109      0.000291      0.003328
    14   Atom        0.017988      0.000707     -0.005380
    15   Atom        0.010624     -0.002745     -0.001245
    16   Atom        0.011649     -0.000092      0.001434
    17   Atom        0.019028     -0.006753      0.002861
    18   Atom       -0.018266     -0.006249     -0.002410
    19   Atom       -0.011686      0.000384     -0.003594
    20   Atom       -0.010664     -0.005865      0.001558
    21   Atom       -0.019552     -0.000400      0.004157
    22   Atom       -0.000691      0.005347      0.003470
    23   Atom       -0.000148      0.000109      0.001303
    24   Atom        0.000252      0.002285      0.002015
    25   Atom        0.000112      0.000859      0.000083
    26   Atom       -0.000482      0.005617     -0.000892
    27   Atom       -0.000207      0.000112     -0.000254
    28   Atom        0.000372     -0.001443      0.000710
    29   Atom        0.000123     -0.000247      0.000034
    30   Atom        0.004052      0.000580      0.000262
    31   Atom        0.003297      0.000259      0.000167
    32   Atom        0.002786      0.001606      0.000545
    33   Atom        0.002941     -0.001031     -0.000322
    34   Atom        0.003980      0.000165      0.000469
    35   Atom        0.002850     -0.000306     -0.001021
    36   Atom        0.002718      0.000551      0.001642
    37   Atom        0.003264      0.000140      0.000208
    38   Atom       -0.003898      0.000082     -0.000083
    39   Atom       -0.002607     -0.001030      0.000272
    40   Atom       -0.002876      0.001206     -0.000494
    41   Atom       -0.003207     -0.000501      0.000262
    42   Atom       -0.004207      0.002796     -0.000613
    43   Atom       -0.002878     -0.000270      0.000822
    44   Atom       -0.001832     -0.005771     -0.001688
    45   Atom       -0.002262      0.000783     -0.000480
    46   Atom       -0.001702     -0.000163     -0.000090
    47   Atom        0.004093     -0.000408     -0.000837
    48   Atom        0.002959      0.000259      0.000672
    49   Atom        0.002538     -0.000487     -0.001795
    50   Atom        0.003262     -0.000661     -0.001018
    51   Atom        0.004200     -0.000270      0.000024
    52   Atom        0.002670     -0.001458     -0.000451
    53   Atom        0.002804      0.000220     -0.000648
    54   Atom        0.002663      0.000368      0.000340
    55   Atom        0.001703     -0.000091     -0.000070
    56   Atom       -0.003997     -0.000334      0.000179
    57   Atom       -0.002869      0.000848     -0.000246
    58   Atom       -0.002680     -0.001843      0.000595
    59   Atom       -0.003238     -0.000391      0.000288
    60   Atom       -0.004110     -0.000492      0.000929
    61   Atom       -0.002902      0.000137     -0.000510
    62   Atom       -0.003331     -0.000398      0.000589
    63   Atom       -0.002846     -0.000752      0.002172
    64   Atom       -0.012596     -0.026470     -0.028117
    65   Atom        0.012240     -0.023009     -0.027936
    66   Atom        0.002682      0.005317      0.012121
    67   Atom        0.000071      0.002921      0.000204
    68   Atom        0.000171      0.001183      0.001251
    69   Atom        0.000109      0.003510      0.000208
    70   Atom       -0.000171      0.001314     -0.001089
    71   Atom       -0.000286     -0.003562      0.000238
    72   Atom        0.000038     -0.004603     -0.000076
    73   Atom        0.000136      0.001817      0.000226
    74   Atom       -0.001062     -0.027535     -0.001524
    75   Atom        0.001192     -0.024216     -0.001203
    76   Atom        0.000207     -0.017890      0.001192
    77   Atom        0.000710      0.025347      0.000448
    78   Atom        0.000417      0.025892      0.000337
 --------------------------------------------------------


 ---------------------------------------------------------------------------------
              Anisotropic Spin Dipole Couplings in Principal Axis System
 ---------------------------------------------------------------------------------

       Atom             a.u.   MegaHertz   Gauss  10(-4) cm-1        Axes

              Baa    -1.2558   -21.741    -7.758    -7.252  0.9736  0.1294  0.1882
     1 Fe(57) Bbb    -1.1976   -20.733    -7.398    -6.916 -0.1398  0.9892  0.0433
              Bcc     2.4533    42.474    15.156    14.168 -0.1805 -0.0684  0.9812
 
              Baa    -0.1118    -4.312    -1.539    -1.438  0.0270  0.0222  0.9994
     2 N(14)  Bbb    -0.0900    -3.472    -1.239    -1.158  0.7107 -0.7035 -0.0036
              Bcc     0.2018     7.784     2.777     2.596  0.7029  0.7104 -0.0348
 
              Baa    -0.1085    -4.186    -1.494    -1.396 -0.0020 -0.0873  0.9962
     3 N(14)  Bbb    -0.0900    -3.470    -1.238    -1.158  0.6983  0.7129  0.0639
              Bcc     0.1985     7.657     2.732     2.554  0.7158 -0.6958 -0.0595
 
              Baa    -0.1029    -3.969    -1.416    -1.324  0.1790  0.1285  0.9754
     4 N(14)  Bbb    -0.0903    -3.481    -1.242    -1.161 -0.7041  0.7092  0.0358
              Bcc     0.1932     7.451     2.659     2.485  0.6872  0.6932 -0.2174
 
              Baa    -0.1112    -4.290    -1.531    -1.431  0.0887 -0.1831  0.9791
     5 N(14)  Bbb    -0.0901    -3.475    -1.240    -1.159  0.7006  0.7102  0.0693
              Bcc     0.2013     7.765     2.771     2.590  0.7080 -0.6798 -0.1913
 
              Baa    -0.0254    -3.406    -1.215    -1.136  0.9225 -0.3627 -0.1323
     6 C(13)  Bbb    -0.0063    -0.848    -0.303    -0.283  0.1510  0.0237  0.9882
              Bcc     0.0317     4.254     1.518     1.419  0.3553  0.9316 -0.0767
 
              Baa    -0.0119    -1.596    -0.569    -0.532  0.7932 -0.5874  0.1605
     7 C(13)  Bbb    -0.0007    -0.092    -0.033    -0.031  0.0028  0.2671  0.9637
              Bcc     0.0126     1.688     0.602     0.563  0.6090  0.7639 -0.2135
 
              Baa    -0.0114    -1.534    -0.548    -0.512 -0.6098  0.7847 -0.1112
     8 C(13)  Bbb    -0.0010    -0.130    -0.047    -0.044 -0.2012 -0.0175  0.9794
              Bcc     0.0124     1.665     0.594     0.555  0.7666  0.6196  0.1686
 
              Baa    -0.0257    -3.448    -1.230    -1.150 -0.3739  0.9192 -0.1233
     9 C(13)  Bbb    -0.0062    -0.829    -0.296    -0.277  0.0648  0.1585  0.9852
              Bcc     0.0319     4.277     1.526     1.427  0.9252  0.3604 -0.1188
 
              Baa    -0.0253    -3.391    -1.210    -1.131  0.3571  0.9217  0.1513
    10 C(13)  Bbb    -0.0056    -0.753    -0.269    -0.251  0.0253 -0.1715  0.9849
              Bcc     0.0309     4.144     1.479     1.382  0.9337 -0.3478 -0.0846
 
              Baa    -0.0111    -1.491    -0.532    -0.497  0.3738  0.6819  0.6287
    11 C(13)  Bbb    -0.0050    -0.667    -0.238    -0.223 -0.5180 -0.4089  0.7514
              Bcc     0.0161     2.158     0.770     0.720  0.7694 -0.6065  0.2004
 
              Baa    -0.0136    -1.831    -0.653    -0.611  0.7912  0.5743  0.2100
    12 C(13)  Bbb     0.0008     0.110     0.039     0.037  0.1126 -0.4744  0.8731
              Bcc     0.0128     1.721     0.614     0.574 -0.6011  0.6672  0.4400
 
              Baa    -0.0225    -3.013    -1.075    -1.005  0.9176  0.3756 -0.1301
    13 C(13)  Bbb    -0.0108    -1.448    -0.517    -0.483  0.1459 -0.0139  0.9892
              Bcc     0.0332     4.461     1.592     1.488 -0.3698  0.9267  0.0676
 
              Baa    -0.0219    -2.934    -1.047    -0.979  0.8927 -0.3603 -0.2706
    14 C(13)  Bbb    -0.0121    -1.629    -0.581    -0.544  0.2896 -0.0015  0.9572
              Bcc     0.0340     4.563     1.628     1.522  0.3452  0.9328 -0.1030
 
              Baa    -0.0132    -1.774    -0.633    -0.592  0.8181 -0.5678  0.0912
    15 C(13)  Bbb     0.0028     0.373     0.133     0.124  0.1379  0.3477  0.9274
              Bcc     0.0104     1.401     0.500     0.467  0.5583  0.7461 -0.3627
 
              Baa    -0.0094    -1.258    -0.449    -0.420 -0.5822  0.7446 -0.3265
    16 C(13)  Bbb    -0.0056    -0.747    -0.266    -0.249 -0.2339  0.2312  0.9444
              Bcc     0.0149     2.005     0.715     0.669  0.7786  0.6262  0.0396
 
              Baa    -0.0287    -3.848    -1.373    -1.284 -0.3828  0.9067 -0.1771
    17 C(13)  Bbb     0.0005     0.067     0.024     0.022  0.1084  0.2345  0.9661
              Bcc     0.0282     3.781     1.349     1.261  0.9175  0.3506 -0.1880
 
              Baa    -0.0283    -3.794    -1.354    -1.265  0.3596  0.9191  0.1607
    18 C(13)  Bbb    -0.0006    -0.086    -0.031    -0.029  0.1025 -0.2101  0.9723
              Bcc     0.0289     3.880     1.384     1.294  0.9274 -0.3332 -0.1698
 
              Baa    -0.0108    -1.449    -0.517    -0.483  0.5424  0.7420  0.3941
    19 C(13)  Bbb    -0.0038    -0.510    -0.182    -0.170 -0.3474 -0.2290  0.9093
              Bcc     0.0146     1.959     0.699     0.654  0.7649 -0.6301  0.1335
 
              Baa    -0.0139    -1.872    -0.668    -0.624  0.8011  0.5604  0.2103
    20 C(13)  Bbb     0.0019     0.250     0.089     0.084  0.1789 -0.5594  0.8093
              Bcc     0.0121     1.621     0.579     0.541 -0.5712  0.6107  0.5484
 
              Baa    -0.0247    -3.314    -1.182    -1.105  0.9224  0.3803 -0.0677
    21 C(13)  Bbb    -0.0071    -0.957    -0.342    -0.319  0.1017 -0.0699  0.9924
              Bcc     0.0318     4.271     1.524     1.425 -0.3727  0.9222  0.1031
 
              Baa    -0.0223    -2.988    -1.066    -0.997 -0.3893 -0.0671  0.9187
    22 C(13)  Bbb    -0.0073    -0.974    -0.347    -0.325  0.9211 -0.0195  0.3889
              Bcc     0.0295     3.962     1.414     1.321 -0.0082  0.9976  0.0694
 
              Baa    -0.0067    -3.572    -1.275    -1.191 -0.1209 -0.0689  0.9903
    23 H(1)   Bbb    -0.0057    -3.042    -1.085    -1.015  0.9926 -0.0006  0.1211
              Bcc     0.0124     6.614     2.360     2.206 -0.0077  0.9976  0.0684
 
              Baa    -0.0232    -3.117    -1.112    -1.040 -0.0412 -0.1306  0.9906
    24 C(13)  Bbb    -0.0078    -1.042    -0.372    -0.347 -0.0142  0.9914  0.1301
              Bcc     0.0310     4.158     1.484     1.387  0.9991  0.0087  0.0427
 
              Baa    -0.0066    -3.519    -1.256    -1.174 -0.0453 -0.0738  0.9962
    25 H(1)   Bbb    -0.0055    -2.954    -1.054    -0.985 -0.0099  0.9973  0.0734
              Bcc     0.0121     6.473     2.310     2.159  0.9989  0.0066  0.0460
 
              Baa    -0.0190    -2.554    -0.911    -0.852 -0.6466  0.0081  0.7628
    26 C(13)  Bbb    -0.0077    -1.030    -0.367    -0.343  0.7627  0.0275  0.6462
              Bcc     0.0267     3.584     1.279     1.195 -0.0157  0.9996 -0.0239
 
              Baa    -0.0066    -3.529    -1.259    -1.177 -0.1960  0.0108  0.9805
    27 H(1)   Bbb    -0.0060    -3.225    -1.151    -1.076  0.9805  0.0135  0.1959
              Bcc     0.0127     6.753     2.410     2.253 -0.0111  0.9999 -0.0133
 
              Baa    -0.0217    -2.916    -1.041    -0.973  0.0281 -0.0551  0.9981
    28 C(13)  Bbb    -0.0086    -1.161    -0.414    -0.387 -0.0075  0.9984  0.0554
              Bcc     0.0304     4.077     1.455     1.360  0.9996  0.0090 -0.0276
 
              Baa    -0.0067    -3.584    -1.279    -1.196  0.0132 -0.0343  0.9993
    29 H(1)   Bbb    -0.0057    -3.031    -1.082    -1.011 -0.0063  0.9994  0.0344
              Bcc     0.0124     6.616     2.361     2.207  0.9999  0.0068 -0.0129
 
              Baa    -0.0037    -0.490    -0.175    -0.164 -0.0730  0.0164  0.9972
    30 C(13)  Bbb    -0.0035    -0.465    -0.166    -0.155 -0.4212  0.9058 -0.0457
              Bcc     0.0071     0.956     0.341     0.319  0.9040  0.4234  0.0592
 
              Baa    -0.0024    -1.283    -0.458    -0.428 -0.1083  0.0812  0.9908
    31 H(1)   Bbb    -0.0023    -1.240    -0.443    -0.414 -0.5602  0.8184 -0.1283
              Bcc     0.0047     2.523     0.900     0.842  0.8212  0.5689  0.0432
 
              Baa    -0.0030    -1.602    -0.572    -0.534 -0.3134  0.3220  0.8934
    32 H(1)   Bbb    -0.0028    -1.514    -0.540    -0.505 -0.2478  0.8804 -0.4043
              Bcc     0.0058     3.116     1.112     1.039  0.9167  0.3481  0.1961
 
              Baa    -0.0031    -1.631    -0.582    -0.544  0.2639 -0.3824  0.8855
    33 H(1)   Bbb    -0.0029    -1.536    -0.548    -0.512 -0.2709  0.8517  0.4485
              Bcc     0.0059     3.167     1.130     1.056  0.9257  0.3583 -0.1212
 
              Baa    -0.0037    -0.495    -0.177    -0.165  0.1426 -0.1143  0.9831
    34 C(13)  Bbb    -0.0034    -0.462    -0.165    -0.154  0.8994 -0.3998 -0.1770
              Bcc     0.0071     0.957     0.342     0.319  0.4133  0.9095  0.0458
 
              Baa    -0.0031    -1.648    -0.588    -0.550 -0.3252  0.2353  0.9159
    35 H(1)   Bbb    -0.0029    -1.552    -0.554    -0.518  0.8818 -0.2743  0.3836
              Bcc     0.0060     3.200     1.142     1.067  0.3415  0.9324 -0.1183
 
              Baa    -0.0030    -1.606    -0.573    -0.536  0.2411 -0.2899  0.9262
    36 H(1)   Bbb    -0.0028    -1.518    -0.541    -0.506  0.9096 -0.2652 -0.3198
              Bcc     0.0059     3.124     1.115     1.042  0.3383  0.9196  0.1998
 
              Baa    -0.0024    -1.285    -0.458    -0.428 -0.0275 -0.0239  0.9993
    37 H(1)   Bbb    -0.0023    -1.244    -0.444    -0.415  0.8307 -0.5566  0.0096
              Bcc     0.0047     2.528     0.902     0.843  0.5560  0.8305  0.0351
 
              Baa    -0.0037    -0.497    -0.177    -0.166  0.0345  0.0997  0.9944
    38 C(13)  Bbb    -0.0033    -0.444    -0.158    -0.148  0.4141  0.9041 -0.1051
              Bcc     0.0070     0.940     0.335     0.314  0.9096 -0.4154  0.0101
 
              Baa    -0.0032    -1.703    -0.608    -0.568  0.1890  0.2362  0.9532
    39 H(1)   Bbb    -0.0030    -1.606    -0.573    -0.536  0.2568  0.9250 -0.2801
              Bcc     0.0062     3.310     1.181     1.104  0.9478 -0.2977 -0.1142
 
              Baa    -0.0027    -1.437    -0.513    -0.479 -0.3277 -0.3709  0.8689
    40 H(1)   Bbb    -0.0026    -1.378    -0.492    -0.460  0.2903  0.8357  0.4662
              Bcc     0.0053     2.815     1.005     0.939  0.8991 -0.4051  0.1662
 
              Baa    -0.0025    -1.310    -0.467    -0.437  0.2410  0.2283  0.9433
    41 H(1)   Bbb    -0.0023    -1.208    -0.431    -0.403  0.5018  0.8026 -0.3225
              Bcc     0.0047     2.518     0.898     0.840  0.8307 -0.5511 -0.0789
 
              Baa    -0.0074    -0.998    -0.356    -0.333 -0.4635 -0.0958  0.8809
    42 C(13)  Bbb    -0.0018    -0.235    -0.084    -0.078  0.7923  0.4003  0.4604
              Bcc     0.0092     1.233     0.440     0.411 -0.3967  0.9114 -0.1096
 
              Baa    -0.0032    -1.707    -0.609    -0.569 -0.0841 -0.1257  0.9885
    43 H(1)   Bbb    -0.0031    -1.640    -0.585    -0.547  0.9412  0.3157  0.1203
              Bcc     0.0063     3.347     1.194     1.116 -0.3272  0.9405  0.0918
 
              Baa    -0.0065    -0.873    -0.312    -0.291  0.7113  0.4890  0.5050
    44 C(13)  Bbb    -0.0007    -0.098    -0.035    -0.033 -0.4246  0.8714 -0.2457
              Bcc     0.0072     0.972     0.347     0.324 -0.5602 -0.0396  0.8274
 
              Baa    -0.0019    -1.006    -0.359    -0.336 -0.4685 -0.2309  0.8527
    45 H(1)   Bbb    -0.0013    -0.713    -0.255    -0.238  0.5634  0.6653  0.4898
              Bcc     0.0032     1.719     0.614     0.574 -0.6805  0.7099 -0.1816
 
              Baa    -0.0017    -0.919    -0.328    -0.307  0.7322  0.3218  0.6003
    46 H(1)   Bbb    -0.0013    -0.713    -0.255    -0.238 -0.5515 -0.2370  0.7998
              Bcc     0.0031     1.633     0.583     0.545 -0.3996  0.9167 -0.0039
 
              Baa    -0.0037    -0.492    -0.176    -0.164  0.1943  0.0028  0.9809
    47 C(13)  Bbb    -0.0036    -0.478    -0.171    -0.160  0.8867 -0.4281 -0.1745
              Bcc     0.0072     0.971     0.346     0.324  0.4194  0.9037 -0.0857
 
              Baa    -0.0027    -1.456    -0.519    -0.486  0.4084 -0.2671  0.8728
    48 H(1)   Bbb    -0.0026    -1.410    -0.503    -0.470  0.8183 -0.3165 -0.4797
              Bcc     0.0054     2.865     1.022     0.956  0.4044  0.9102  0.0894
 
              Baa    -0.0033    -1.754    -0.626    -0.585 -0.1978  0.2598  0.9452
    49 H(1)   Bbb    -0.0030    -1.626    -0.580    -0.542  0.9372 -0.2324  0.2600
              Bcc     0.0063     3.379     1.206     1.127  0.2872  0.9373 -0.1975
 
              Baa    -0.0025    -1.325    -0.473    -0.442 -0.0333  0.2207  0.9748
    50 H(1)   Bbb    -0.0024    -1.279    -0.456    -0.427  0.8374 -0.5262  0.1478
              Bcc     0.0049     2.604     0.929     0.869  0.5455  0.8212 -0.1673
 
              Baa    -0.0041    -0.556    -0.198    -0.185  0.0954 -0.1570  0.9830
    51 C(13)  Bbb    -0.0034    -0.454    -0.162    -0.151 -0.4138  0.8919  0.1826
              Bcc     0.0075     1.010     0.360     0.337  0.9054  0.4242 -0.0202
 
              Baa    -0.0032    -1.728    -0.616    -0.576  0.1888 -0.0574  0.9803
    52 H(1)   Bbb    -0.0030    -1.616    -0.577    -0.539 -0.2906  0.9503  0.1116
              Bcc     0.0063     3.343     1.193     1.115  0.9380  0.3060 -0.1627
 
              Baa    -0.0028    -0.369    -0.132    -0.123 -0.5302  0.7759  0.3418
    53 C(13)  Bbb    -0.0007    -0.095    -0.034    -0.032  0.2313 -0.2554  0.9387
              Bcc     0.0035     0.465     0.166     0.155  0.8157  0.5768 -0.0441
 
              Baa    -0.0019    -1.015    -0.362    -0.339 -0.0119 -0.1228  0.9924
    54 H(1)   Bbb    -0.0018    -0.937    -0.334    -0.312 -0.6645  0.7426  0.0840
              Bcc     0.0037     1.952     0.696     0.651  0.7472  0.6584  0.0905
 
              Baa    -0.0014    -0.744    -0.266    -0.248 -0.3126  0.6329  0.7083
    55 H(1)   Bbb    -0.0014    -0.723    -0.258    -0.241  0.3482 -0.6174  0.7054
              Bcc     0.0028     1.467     0.524     0.489  0.8837  0.4672 -0.0274
 
              Baa    -0.0037    -0.499    -0.178    -0.167 -0.0163 -0.1200  0.9926
    56 C(13)  Bbb    -0.0035    -0.468    -0.167    -0.156  0.4111  0.9042  0.1160
              Bcc     0.0072     0.967     0.345     0.323  0.9114 -0.4100 -0.0346
 
              Baa    -0.0030    -1.614    -0.576    -0.538 -0.2491 -0.4140  0.8755
    57 H(1)   Bbb    -0.0029    -1.528    -0.545    -0.510  0.2650  0.8404  0.4728
              Bcc     0.0059     3.142     1.121     1.048  0.9315 -0.3498  0.0997
 
              Baa    -0.0031    -1.654    -0.590    -0.552  0.2965  0.2149  0.9305
    58 H(1)   Bbb    -0.0029    -1.554    -0.554    -0.518  0.2555  0.9210 -0.2941
              Bcc     0.0060     3.208     1.145     1.070  0.9202 -0.3249 -0.2181
 
              Baa    -0.0024    -1.294    -0.462    -0.432 -0.0630 -0.2146  0.9747
    59 H(1)   Bbb    -0.0023    -1.235    -0.441    -0.412  0.5527  0.8057  0.2131
              Bcc     0.0047     2.529     0.902     0.844  0.8310 -0.5521 -0.0678
 
              Baa    -0.0037    -0.493    -0.176    -0.164  0.3157  0.0474  0.9477
    60 C(13)  Bbb    -0.0035    -0.471    -0.168    -0.157  0.8472  0.4356 -0.3040
              Bcc     0.0072     0.964     0.344     0.322 -0.4273  0.8989  0.0974
 
              Baa    -0.0030    -1.621    -0.579    -0.541  0.2779  0.1651  0.9463
    61 H(1)   Bbb    -0.0029    -1.528    -0.545    -0.510  0.8932  0.3182 -0.3178
              Bcc     0.0059     3.150     1.124     1.051 -0.3536  0.9335 -0.0590
 
              Baa    -0.0024    -1.297    -0.463    -0.432 -0.0904 -0.1821  0.9791
    62 H(1)   Bbb    -0.0024    -1.261    -0.450    -0.421  0.8160  0.5501  0.1776
              Bcc     0.0048     2.557     0.912     0.853 -0.5709  0.8150  0.0989
 
              Baa    -0.0031    -1.670    -0.596    -0.557 -0.3483 -0.3828  0.8557
    63 H(1)   Bbb    -0.0029    -1.556    -0.555    -0.519  0.8699  0.2080  0.4472
              Bcc     0.0060     3.227     1.151     1.076 -0.3492  0.9001  0.2605
 
              Baa    -0.0922     6.668     2.379     2.224  0.5792  0.7995  0.1595
    64 O(17)  Bbb    -0.0590     4.273     1.525     1.425  0.8074 -0.5896  0.0235
              Bcc     0.1512   -10.941    -3.904    -3.649 -0.1128 -0.1152  0.9869
 
              Baa    -0.0316   -16.836    -6.007    -5.616  0.7980 -0.6023  0.0221
    65 H(1)   Bbb    -0.0267   -14.252    -5.086    -4.754  0.5174  0.7034  0.4873
              Bcc     0.0583    31.088    11.093    10.370 -0.3090 -0.3775  0.8729
 
              Baa    -0.0268   -14.273    -5.093    -4.761  0.8239 -0.5657  0.0335
    66 H(1)   Bbb    -0.0230   -12.267    -4.377    -4.092  0.5616  0.8072 -0.1818
              Bcc     0.0497    26.539     9.470     8.853  0.0758  0.1686  0.9828
 
              Baa    -0.0041    -0.553    -0.197    -0.184 -0.0680  0.9977 -0.0004
    67 C(13)  Bbb    -0.0039    -0.519    -0.185    -0.173  0.9645  0.0657 -0.2556
              Bcc     0.0080     1.071     0.382     0.357  0.2550  0.0178  0.9668
 
              Baa    -0.0026    -1.394    -0.497    -0.465  0.7310  0.6438 -0.2264
    68 H(1)   Bbb    -0.0026    -1.362    -0.486    -0.454 -0.6643  0.7472 -0.0203
              Bcc     0.0052     2.756     0.984     0.919  0.1561  0.1652  0.9738
 
              Baa    -0.0033    -1.737    -0.620    -0.579 -0.0685  0.9976  0.0042
    69 H(1)   Bbb    -0.0030    -1.623    -0.579    -0.541  0.9082  0.0641 -0.4136
              Bcc     0.0063     3.359     1.199     1.121  0.4128  0.0245  0.9105
 
              Baa    -0.0026    -1.385    -0.494    -0.462  0.8167 -0.5313 -0.2251
    70 H(1)   Bbb    -0.0025    -1.358    -0.484    -0.453  0.5501  0.8347  0.0255
              Bcc     0.0051     2.743     0.979     0.915  0.1743 -0.1446  0.9740
 
              Baa    -0.0131    -0.506    -0.180    -0.169  0.9906  0.0195  0.1356
    71 N(14)  Bbb    -0.0003    -0.010    -0.003    -0.003 -0.0166  0.9996 -0.0226
              Bcc     0.0134     0.515     0.184     0.172 -0.1360  0.0202  0.9905
 
              Baa    -0.0050    -2.646    -0.944    -0.883 -0.2416  0.9672 -0.0786
    72 H(1)   Bbb    -0.0049    -2.622    -0.936    -0.875  0.9127  0.2540  0.3202
              Bcc     0.0099     5.268     1.880     1.757 -0.3297 -0.0057  0.9441
 
              Baa    -0.0114    -1.524    -0.544    -0.508 -0.0256  0.9997 -0.0062
    73 C(13)  Bbb    -0.0066    -0.885    -0.316    -0.295  0.9969  0.0251 -0.0745
              Bcc     0.0179     2.408     0.859     0.803  0.0743  0.0080  0.9972
 
              Baa    -0.0269    -3.605    -1.286    -1.202  0.8565  0.0968  0.5070
    74 C(13)  Bbb    -0.0093    -1.254    -0.447    -0.418 -0.0920  0.9952 -0.0347
              Bcc     0.0362     4.859     1.734     1.621 -0.5079 -0.0169  0.8612
 
              Baa    -0.0172    -9.180    -3.276    -3.062 -0.0166  0.9994  0.0314
    75 H(1)   Bbb    -0.0156    -8.346    -2.978    -2.784  0.7038 -0.0107  0.7103
              Bcc     0.0328    17.527     6.254     5.846  0.7102  0.0338 -0.7032
 
              Baa    -0.1177    -4.538    -1.619    -1.514 -0.0263  0.9996 -0.0049
    76 N(14)  Bbb    -0.1074    -4.144    -1.479    -1.382  0.9982  0.0265  0.0538
              Bcc     0.2251     8.682     3.098     2.896 -0.0539  0.0034  0.9985
 
              Baa    -0.0234    -3.134    -1.118    -1.046  0.8913 -0.2170 -0.3982
    77 C(13)  Bbb    -0.0212    -2.840    -1.014    -0.947  0.1936  0.9761 -0.0985
              Bcc     0.0445     5.975     2.132     1.993  0.4101  0.0106  0.9120
 
              Baa    -0.0184    -9.806    -3.499    -3.271 -0.0772  0.9957  0.0509
    78 H(1)   Bbb    -0.0172    -9.177    -3.274    -3.061  0.7687  0.0920 -0.6330
              Bcc     0.0356    18.982     6.773     6.332  0.6350  0.0097  0.7725
 

 ---------------------------------------------------------------------------------

 Unable to Open any file for archive entry.
 1\1\GINC-BGN1036\SP\UAPFD\Gen\C34H36Fe1N6O1(5)\BECSLEIP\09-Sep-2024\0\
 \# apfd/gen scf=maxcycle=999 geom=check\\2w6y_II_Q\\0,5\Fe,0,34.944224
 8903,3.8483288826,10.2381214098\N,0,36.8493282899,3.584029856,9.679473
 1704\N,0,34.7038506305,5.1754569614,8.7459089311\N,0,33.0615839424,4.2
 09742948,10.8525949746\N,0,35.2192029927,2.6048786866,11.7786729059\C,
 0,37.7557116899,2.7497044565,10.2523093809\C,0,38.9938524687,2.7445401
 833,9.504329541\C,0,38.8139652285,3.6007012448,8.4634995274\C,0,37.467
 211959,4.1138483256,8.5900562128\C,0,35.6002559666,5.4769740315,7.7678
 563989\C,0,35.0343075065,6.3982021939,6.8155296461\C,0,33.7597626732,6
 .6581106601,7.2436488415\C,0,33.5784871793,5.8777546965,8.4535950634\C
 ,0,32.2084798214,5.1487219568,10.3561868667\C,0,31.0566917796,5.300565
 3669,11.2048000539\C,0,31.2362929644,4.4363101519,12.2540061796\C,0,32
 .5010582008,3.7718665245,12.010882178\C,0,34.340947797,2.3448383892,12
 .7825158144\C,0,34.9547687236,1.5269561788,13.8061447133\C,0,36.236171
 4485,1.3165196141,13.4045307382\C,0,36.3834147575,2.0039883332,12.1395
 165104\C,0,37.5557203105,2.0202711606,11.4093853978\H,0,38.3866069961,
 1.4430108532,11.7853837167\C,0,36.9011595134,5.006659028,7.7018631822\
 H,0,37.5165575544,5.3516702831,6.884771102\C,0,32.4142053678,5.8754115
 957,9.1953303149\H,0,31.6179634351,6.5295916209,8.8745855162\C,0,33.04
 81824191,2.8277188412,12.8626827882\H,0,32.4602653119,2.5272130616,13.
 7166736415\C,0,39.7622713443,3.9812438025,7.3779993808\H,0,40.71831814
 45,3.4798591063,7.5069277576\H,0,39.9366099316,5.057355112,7.380816186
 4\H,0,39.3610302607,3.7072025694,6.401588453\C,0,40.1893599527,1.92967
 67263,9.8620194991\H,0,39.9367326583,0.8694250791,9.8839745988\H,0,40.
 5626523672,2.2078491931,10.8478840814\H,0,40.9888721495,2.0767676822,9
 .1400274456\C,0,35.7158821529,6.8867709575,5.5847566318\H,0,36.3330273
 285,6.1034490345,5.1469294374\H,0,36.361176376,7.7377969895,5.80886618
 13\H,0,34.9779534809,7.2010085689,4.8492109566\C,0,32.7482824045,7.502
 1622009,6.6474066911\H,0,31.7251122893,7.1688505242,6.7777121974\C,0,3
 2.9767516179,8.6274031409,5.9775460805\H,0,33.9662473973,9.0321965229,
 5.8566061988\H,0,32.1718334512,9.1995579209,5.5465111991\C,0,29.961949
 1817,6.2888237293,10.9985439522\H,0,29.2108153683,5.8982858553,10.3099
 979954\H,0,30.3510850572,7.2164646308,10.5816248837\H,0,29.4751106003,
 6.5098263922,11.9464576182\C,0,30.3956201386,4.2144062567,13.409379669
 9\H,0,30.9164439716,3.9633292774,14.3262709827\C,0,29.0684272754,4.287
 1931754,13.424068539\H,0,28.4951916812,4.4848977952,12.5354037928\H,0,
 28.5056558443,4.122738518,14.328028087\C,0,34.2621744457,1.0615869256,
 15.0411099263\H,0,33.367001613,0.4930519633,14.7886168438\H,0,33.96086
 78443,1.9107050615,15.6555644668\H,0,34.9153701501,0.4262762609,15.634
 3510996\C,0,37.3270999227,0.5613973291,14.083501298\H,0,37.6836678135,
 -0.2505961379,13.4494395567\H,0,36.9778271626,0.1355465831,15.02104266
 78\H,0,38.1708697598,1.2174518947,14.2984779327\O,0,35.508,5.576,11.60
 2\H,0,34.688,5.968,11.902\H,0,36.328,5.823,11.841\C,0,32.2856789871,-0
 .5537581903,8.1225217233\H,0,31.5979121318,-0.3799048658,7.2949346013\
 H,0,31.7079271997,-0.717896695,9.0269173557\H,0,32.859036574,-1.455369
 2505,7.9057744078\N,0,34.0103119894,1.075820093,7.3216436528\H,0,34.08
 97650864,0.6911051279,6.3946417747\C,0,33.1855879054,0.6118795377,8.31
 30499001\C,0,34.6862440865,2.1386287171,7.8147858836\H,0,35.4040626264
 ,2.7050341271,7.2574488207\N,0,34.3394866754,2.3749597857,9.0568518246
 \C,0,33.4079315025,1.4325443914,9.3812018235\H,0,32.963917609,1.411391
 8938,10.3543435244\\Version=ES64L-G16RevC.02\State=5-A\HF=-2983.371439
 8\S2=6.016366\S2-1=0.\S2A=6.000073\RMSD=3.402e-09\Dipole=0.1673837,-1.
 0442803,-0.8137767\Quadrupole=-3.7971072,-0.8767767,4.6738839,2.801300
 8,1.1381756,8.5543714\PG=C01 [X(C34H36Fe1N6O1)]\\@
 The archive entry for this job was punched.


 ASKING DUMB QUESTIONS IS EASIER THAN CORECTING DUMB MISTAKES.
 Job cpu time:       0 days 11 hours 17 minutes 29.9 seconds.
 Elapsed time:       0 days  0 hours 10 minutes 58.0 seconds.
 File lengths (MBytes):  RWF=    430 Int=      0 D2E=      0 Chk=    155 Scr=      1
 Normal termination of Gaussian 16 at Mon Sep  9 12:21:31 2024.
