 Entering Gaussian System, Link 0=g16
 Input=2wgy16.com
 Output=2wgy16.log
 Initial command:
 /sw/chem/gaussian/g16_C02/a100/g16/l1.exe "/local/becsleip_8010019/Gau-3998422.inp" -scrdir="/local/becsleip_8010019/"
 Entering Link 1 = /sw/chem/gaussian/g16_C02/a100/g16/l1.exe PID=   3998423.
  
 Copyright (c) 1988-2021, Gaussian, Inc.  All Rights Reserved.
  
 This is part of the Gaussian(R) 16 program.  It is based on
 the Gaussian(R) 09 system (copyright 2009, Gaussian, Inc.),
 the Gaussian(R) 03 system (copyright 2003, Gaussian, Inc.),
 the Gaussian(R) 98 system (copyright 1998, Gaussian, Inc.),
 the Gaussian(R) 94 system (copyright 1995, Gaussian, Inc.),
 the Gaussian 92(TM) system (copyright 1992, Gaussian, Inc.),
 the Gaussian 90(TM) system (copyright 1990, Gaussian, Inc.),
 the Gaussian 88(TM) system (copyright 1988, Gaussian, Inc.),
 the Gaussian 86(TM) system (copyright 1986, Carnegie Mellon
 University), and the Gaussian 82(TM) system (copyright 1983,
 Carnegie Mellon University). Gaussian is a federally registered
 trademark of Gaussian, Inc.
  
 This software contains proprietary and confidential information,
 including trade secrets, belonging to Gaussian, Inc.
  
 This software is provided under written license and may be
 used, copied, transmitted, or stored only in accord with that
 written license.
  
 The following legend is applicable only to US Government
 contracts under FAR:
  
                    RESTRICTED RIGHTS LEGEND
  
 Use, reproduction and disclosure by the US Government is
 subject to restrictions as set forth in subparagraphs (a)
 and (c) of the Commercial Computer Software - Restricted
 Rights clause in FAR 52.227-19.
  
 Gaussian, Inc.
 340 Quinnipiac St., Bldg. 40, Wallingford CT 06492
  
  
 ---------------------------------------------------------------
 Warning -- This program may not be used in any manner that
 competes with the business of Gaussian, Inc. or will provide
 assistance to any competitor of Gaussian, Inc.  The licensee
 of this program is prohibited from giving any competitor of
 Gaussian, Inc. access to this program.  By using this program,
 the user acknowledges that Gaussian, Inc. is engaged in the
 business of creating and licensing software in the field of
 computational chemistry and represents and warrants to the
 licensee that it is not a competitor of Gaussian, Inc. and that
 it will not use this program in any manner prohibited above.
 ---------------------------------------------------------------
  

 Cite this work as:
 Gaussian 16, Revision C.02,
 M. J. Frisch, G. W. Trucks, H. B. Schlegel, G. E. Scuseria, 
 M. A. Robb, J. R. Cheeseman, G. Scalmani, V. Barone, 
 G. A. Petersson, H. Nakatsuji, X. Li, M. Caricato, A. V. Marenich, 
 J. Bloino, B. G. Janesko, R. Gomperts, B. Mennucci, H. P. Hratchian, 
 J. V. Ortiz, A. F. Izmaylov, J. L. Sonnenberg, D. Williams-Young, 
 F. Ding, F. Lipparini, F. Egidi, J. Goings, B. Peng, A. Petrone, 
 T. Henderson, D. Ranasinghe, V. G. Zakrzewski, J. Gao, N. Rega, 
 G. Zheng, W. Liang, M. Hada, M. Ehara, K. Toyota, R. Fukuda, 
 J. Hasegawa, M. Ishida, T. Nakajima, Y. Honda, O. Kitao, H. Nakai, 
 T. Vreven, K. Throssell, J. A. Montgomery, Jr., J. E. Peralta, 
 F. Ogliaro, M. J. Bearpark, J. J. Heyd, E. N. Brothers, K. N. Kudin, 
 V. N. Staroverov, T. A. Keith, R. Kobayashi, J. Normand, 
 K. Raghavachari, A. P. Rendell, J. C. Burant, S. S. Iyengar, 
 J. Tomasi, M. Cossi, J. M. Millam, M. Klene, C. Adamo, R. Cammi, 
 J. W. Ochterski, R. L. Martin, K. Morokuma, O. Farkas, 
 J. B. Foresman, and D. J. Fox, Gaussian, Inc., Wallingford CT, 2019.
 
 ******************************************
 Gaussian 16:  ES64L-G16RevC.02  7-Dec-2021
                 9-Sep-2024 
 ******************************************
 %mem=16GB
 %CPU=0-71
 SetSPE:  set environment variable "OMP_PROC_BIND" = "true"
 SetSPE:  set environment variable "OMP_PLACES" = "{0},{1},{2},{3},{4},{5},{6},{7},{8},{9},{10},{11},{12},{13},{14},{15},{16},{17},{18},{19},{20},{21},{22},{23},{24},{25},{26},{27},{28},{29},{30},{31},{32},{33},{34},{35},{36},{37},{38},{39},{40},{41},{42},{43},{44},{45},{46},{47},{48},{49},{50},{51},{52},{53},{54},{55},{56},{57},{58},{59},{60},{61},{62},{63},{64},{65},{66},{67},{68},{69},{70},{71}"
 Will use up to   72 processors via shared memory.
 %gpucpu=0,1,2,3=0,1,2,3
 Will use    4 GPUs:
 Thread  CPU   GPU
      0    0     0
      1    1     1
      2    2     2
      3    3     3
      4    4    -1
      5    5    -1
      6    6    -1
      7    7    -1
      8    8    -1
      9    9    -1
     10   10    -1
     11   11    -1
     12   12    -1
     13   13    -1
     14   14    -1
     15   15    -1
     16   16    -1
     17   17    -1
     18   18    -1
     19   19    -1
     20   20    -1
     21   21    -1
     22   22    -1
     23   23    -1
     24   24    -1
     25   25    -1
     26   26    -1
     27   27    -1
     28   28    -1
     29   29    -1
     30   30    -1
     31   31    -1
     32   32    -1
     33   33    -1
     34   34    -1
     35   35    -1
     36   36    -1
     37   37    -1
     38   38    -1
     39   39    -1
     40   40    -1
     41   41    -1
     42   42    -1
     43   43    -1
     44   44    -1
     45   45    -1
     46   46    -1
     47   47    -1
     48   48    -1
     49   49    -1
     50   50    -1
     51   51    -1
     52   52    -1
     53   53    -1
     54   54    -1
     55   55    -1
     56   56    -1
     57   57    -1
     58   58    -1
     59   59    -1
     60   60    -1
     61   61    -1
     62   62    -1
     63   63    -1
     64   64    -1
     65   65    -1
     66   66    -1
     67   67    -1
     68   68    -1
     69   69    -1
     70   70    -1
     71   71    -1
 SetGPE:  set environment variable "OMP_PROC_BIND" = "true"
 SetGPE:  set environment variable "OMP_PLACES" = "{0},{1},{2},{3},{4},{5},{6},{7},{8},{9},{10},{11},{12},{13},{14},{15},{16},{17},{18},{19},{20},{21},{22},{23},{24},{25},{26},{27},{28},{29},{30},{31},{32},{33},{34},{35},{36},{37},{38},{39},{40},{41},{42},{43},{44},{45},{46},{47},{48},{49},{50},{51},{52},{53},{54},{55},{56},{57},{58},{59},{60},{61},{62},{63},{64},{65},{66},{67},{68},{69},{70},{71}"
 %oldchk=2wgy_III_Dre.chk
 %chk=2wgy_III_Hn.chk
 Properties for Device   0
 Minimum vector length:                              32
 Maximum vector length:                            1024
 Number of SMPs:                                    108
 Maximum number of threads per SMP:                2048
 Number of ASync Engines:                             5
 Memory:                                           9207742464
 Properties for Device   1
 Minimum vector length:                              32
 Maximum vector length:                            1024
 Number of SMPs:                                    108
 Maximum number of threads per SMP:                2048
 Number of ASync Engines:                             5
 Memory:                                           9207742464
 Properties for Device   2
 Minimum vector length:                              32
 Maximum vector length:                            1024
 Number of SMPs:                                    108
 Maximum number of threads per SMP:                2048
 Number of ASync Engines:                             5
 Memory:                                           9207742464
 Properties for Device   3
 Minimum vector length:                              32
 Maximum vector length:                            1024
 Number of SMPs:                                    108
 Maximum number of threads per SMP:                2048
 Number of ASync Engines:                             5
 Memory:                                           9207742464
   8286968217 words of memory will be used on each GPU.
 Copying data from "2wgy_III_Dre.chk" to current chk file "2wgy_III_Hn.chk"
 IOpt=  2 FromEx=T IUOpen= 4 IOptOp= 5 NList=   0 IFRang= 0 IUIn= 4 IUOut= 2.
 --------------------------------------------------------------
 # apfd/def2TZVP guess=read scf=maxcycle=999 geom=check pop=nbo
 --------------------------------------------------------------
 1/29=2,38=1,172=1/1;
 2/12=2,40=1/2;
 3/5=44,7=101,11=2,14=-4,25=1,30=1,74=-44,116=-2/1,2,3;
 4/5=1/1;
 5/5=2,7=999,38=6/2;
 6/7=2,8=2,9=2,10=2,28=1,40=1/1,7;
 99/5=1,9=1/99;
 ----------
 2wgy_III_H
 ----------
 Structure from the checkpoint file:  "2wgy_III_Hn.chk"
 Charge =  1 Multiplicity = 6
 Z-Matrix found in chk file.
 Fe,0,60.0976000277,20.1466087475,8.4458726561
 N,0,60.3834440174,18.733815404,9.8306632056
 N,0,58.8872986726,18.9241556555,7.4257329738
 N,0,59.9565946954,21.5039457349,6.9635332509
 N,0,61.4677049658,21.3007921805,9.3367238489
 C,0,61.1272128422,18.8383941112,10.9634760946
 C,0,61.0118499327,17.6393298485,11.7605518318
 C,0,60.1859865697,16.8012321641,11.0757696612
 C,0,59.79696894,17.5053815638,9.8754514034
 C,0,58.5323829359,17.6557899386,7.7743183721
 C,0,57.5827296279,17.1131389015,6.8374371819
 C,0,57.3527268379,18.0952993632,5.910986384
 C,0,58.1945479314,19.2113590352,6.2942335899
 C,0,59.0678608645,21.4748213094,5.932613195
 C,0,59.0685464195,22.7249747373,5.2159649115
 C,0,60.0065938629,23.5139518014,5.8253344922
 C,0,60.5371907956,22.7280090513,6.9219786596
 C,0,61.951854715,22.4920839617,8.9039522221
 C,0,62.9736513708,22.9878991773,9.8015774174
 C,0,63.0731542806,22.0775409739,10.8050420461
 C,0,62.1274127481,21.0267343073,10.4933430426
 C,0,61.9377651791,19.9112269463,11.2859523806
 H,0,62.4989135944,19.8512106121,12.2056359687
 C,0,58.9616532704,16.9841878629,8.9066051422
 H,0,58.5819153978,15.9869266036,9.0666877444
 C,0,58.253527565,20.4065094181,5.6058888419
 H,0,57.6049848088,20.5206287795,4.751387923
 C,0,61.520635871,23.1734468437,7.7841086832
 H,0,61.9491848984,24.1459650434,7.5988757359
 C,0,59.7295662802,15.4278267964,11.4300061462
 H,0,60.1601976408,15.109896353,12.3761523929
 H,0,60.026902707,14.7141835609,10.6612777187
 H,0,58.6432832668,15.3944391102,11.518934517
 C,0,61.7010501026,17.4290379034,13.0643879326
 H,0,61.4132178123,18.200951363,13.7785606637
 H,0,62.7832574897,17.473435567,12.937849561
 H,0,61.4456158299,16.4599040604,13.485703564
 C,0,57.0389527204,15.727895665,6.8720983098
 H,0,56.2040594931,15.6528137463,7.5709401557
 H,0,57.805518738,15.0206172016,7.1854627139
 H,0,56.6849913417,15.4427405286,5.8835098528
 C,0,56.4940128639,18.0728625498,4.7475609045
 H,0,56.8485926806,18.6372702105,3.8931159047
 C,0,55.3316064851,17.4347791592,4.660541144
 H,0,54.9076483034,16.898355516,5.4914795927
 H,0,54.7475141888,17.4507478603,3.7554873183
 C,0,58.2577884445,23.018898564,4.0029756114
 H,0,57.2381155261,23.2943175069,4.2766667241
 H,0,58.2076485098,22.1481904226,3.3507601627
 H,0,58.7005415519,23.843713872,3.4487076562
 C,0,60.4273296385,24.8581021302,5.4953793564
 H,0,61.4750830808,25.0763929298,5.6670180357
 C,0,59.6394619349,25.81573747,5.0183712811
 H,0,58.5829594989,25.6698806908,4.8759912388
 H,0,60.0228660581,26.7941310667,4.7806679397
 C,0,63.7151237836,24.2646811327,9.6047290539
 H,0,63.02792833,25.1110641298,9.6180397577
 H,0,64.2318586859,24.2635298287,8.6450374728
 H,0,64.4519136931,24.4095347693,10.3909214126
 C,0,63.9598681062,22.0830266707,12.0024474237
 H,0,63.368108044,22.0566479213,12.9177197444
 H,0,64.5773257385,22.9773900326,12.020871562
 H,0,64.6161014812,21.2122518299,11.998864104
 O,0,61.793,19.137,7.389
 H,0,62.029,18.409,7.964
 H,0,62.154,19.32,6.597
 C,0,58.0543218991,20.3445746348,11.179060011
 H,0,58.889299983,20.6393390622,11.8058852176
 H,0,58.0542623083,19.2680424304,11.0505082843
 H,0,57.1195209926,20.6898633439,11.6096126816
 S,0,58.3073179332,21.1637539701,9.56312194
 H,0,57.2776295451,20.5558234107,8.9608824282
 Recover connectivity data from disk.
 Stoichiometry    C31H34FeN4OS(1+,6)
 Framework group  C1[X(C31H34FeN4OS)]
 Deg. of freedom   210
 Full point group                 C1      NOp   1
 Largest Abelian subgroup         C1      NOp   1
 Largest concise Abelian subgroup C1      NOp   1
                         Standard orientation:                         
 ---------------------------------------------------------------------
 Center     Atomic      Atomic             Coordinates (Angstroms)
 Number     Number       Type             X           Y           Z
 ---------------------------------------------------------------------
      1         26           0       -0.082327   -0.141848   -0.115636
      2          7           0       -2.002569   -0.695685   -0.151316
      3          7           0       -0.616986    1.778973   -0.272134
      4          7           0        1.853506    0.397342   -0.261922
      5          7           0        0.475462   -2.062356   -0.174493
      6          6           0       -2.490706   -1.959669   -0.044264
      7          6           0       -3.934795   -1.946796   -0.015341
      8          6           0       -4.309109   -0.641876   -0.117610
      9          6           0       -3.087670    0.126351   -0.194014
     10          6           0       -1.887869    2.265623   -0.337378
     11          6           0       -1.884904    3.705519   -0.364756
     12          6           0       -0.571639    4.088449   -0.297308
     13          6           0        0.200648    2.862450   -0.256929
     14          6           0        2.340370    1.665864   -0.176443
     15          6           0        3.776365    1.659884   -0.056649
     16          6           0        4.157527    0.345815   -0.097750
     17          6           0        2.932840   -0.421180   -0.214920
     18          6           0        1.735653   -2.553665   -0.281276
     19          6           0        1.719305   -3.999696   -0.347292
     20          6           0        0.416176   -4.370575   -0.247801
     21          6           0       -0.346883   -3.144507   -0.146436
     22          6           0       -1.723138   -3.109724   -0.031266
     23          1           0       -2.242991   -4.053398    0.028229
     24          6           0       -3.042545    1.501698   -0.314190
     25          1           0       -3.985403    2.025027   -0.352952
     26          6           0        1.578677    2.819505   -0.187117
     27          1           0        2.102903    3.760320   -0.125012
     28          6           0        2.891561   -1.800002   -0.292337
     29          1           0        3.830394   -2.330959   -0.313180
     30          6           0       -5.676808   -0.051504   -0.147686
     31          1           0       -6.434246   -0.828519   -0.082492
     32          1           0       -5.834869    0.504270   -1.072225
     33          1           0       -5.817549    0.635814    0.687071
     34          6           0       -4.782644   -3.166572    0.096488
     35          1           0       -4.545525   -3.715483    1.008195
     36          1           0       -4.612383   -3.831185   -0.751130
     37          1           0       -5.837511   -2.904406    0.118822
     38          6           0       -3.092902    4.563419   -0.508076
     39          1           0       -3.587118    4.706961    0.454323
     40          1           0       -3.809621    4.109002   -1.190631
     41          1           0       -2.811392    5.539580   -0.897655
     42          6           0       -0.004957    5.418973   -0.302871
     43          1           0        0.954610    5.516994   -0.796816
     44          6           0       -0.559000    6.494308    0.247223
     45          1           0       -1.486444    6.447672    0.790934
     46          1           0       -0.085291    7.460422    0.194649
     47          6           0        4.637196    2.872458    0.004158
     48          1           0        4.657261    3.282268    1.015172
     49          1           0        4.263704    3.646081   -0.665202
     50          1           0        5.655312    2.622616   -0.286672
     51          6           0        5.485406   -0.225190   -0.040140
     52          1           0        5.635806   -1.121695   -0.630527
     53          6           0        6.499437    0.255339    0.671317
     54          1           0        6.393014    1.112170    1.313390
     55          1           0        7.469199   -0.213844    0.657747
     56          6           0        2.937099   -4.846873   -0.481355
     57          1           0        3.596050   -4.706341    0.375857
     58          1           0        3.491476   -4.581064   -1.381375
     59          1           0        2.671727   -5.899514   -0.540215
     60          6           0       -0.181588   -5.735396   -0.251378
     61          1           0       -0.739103   -5.912059    0.668713
     62          1           0        0.591778   -6.494817   -0.333016
     63          1           0       -0.868059   -5.852242   -1.090429
     64          8           0       -0.247337   -0.233931   -2.346098
     65          1           0       -1.155802   -0.490495   -2.504755
     66          1           0        0.359928   -0.038702   -2.965928
     67          6           0       -1.532389   -0.585993    2.947785
     68          1           0       -1.579611   -1.658500    2.791316
     69          1           0       -2.361168   -0.104528    2.441066
     70          1           0       -1.534729   -0.359544    4.009467
     71         16           0        0.050350   -0.027238    2.220430
     72          1           0       -0.188927    1.276863    2.406431
 ---------------------------------------------------------------------
 Rotational constants (GHZ):           0.1083086           0.1075342           0.0596520
 Standard basis: def2TZVP (5D, 7F)
 There are  1594 symmetry adapted cartesian basis functions of A   symmetry.
 There are  1402 symmetry adapted basis functions of A   symmetry.
  1402 basis functions,  2279 primitive gaussians,  1594 cartesian basis functions
   151 alpha electrons      146 beta electrons
       nuclear repulsion energy      5410.1872845838 Hartrees.
 NAtoms=   72 NActive=   72 NUniq=   72 SFac= 1.00D+00 NAtFMM=   60 NAOKFM=T Big=T
 Integral buffers will be    131072 words long.
 Raffenetti 2 integral format.
 Two-electron integral symmetry is turned on.
 R6APFD:  NTU= -4 IXU= 1 FactS= 1.050
 Nuclear repulsion after empirical dispersion term =     5410.0361049830 Hartrees.
 One-electron integrals computed using PRISM.
   1 Symmetry operations used in ECPInt.
 ECPInt:  NShTT=  157080 NPrTT=  488567 LenC2=  124638 LenP2D=  258537.
 LDataN:  DoStor=T MaxTD1= 6 Len=  172
 Number of processors reduced to  25 by ecpmxn.
 NBasis=  1402 RedAO= T EigKep=  3.10D-06  NBF=  1402
 NBsUse=  1402 1.00D-06 EigRej= -1.00D+00 NBFU=  1402
 Initial guess from the checkpoint file:  "2wgy_III_Hn.chk"
 B after Tr=     0.000000    0.000000   -0.000000
         Rot=    1.000000    0.000000   -0.000000   -0.000000 Ang=   0.00 deg.
 Initial guess <Sx>= 0.0000 <Sy>= 0.0000 <Sz>= 2.5000 <S**2>= 8.8346 S= 2.5141
 Requested convergence on RMS density matrix=1.00D-08 within 999 cycles.
 Requested convergence on MAX density matrix=1.00D-06.
 Requested convergence on             energy=1.00D-06.
 No special actions if energy rises.
 EnCoef did   100 forward-backward iterations
 EnCoef did     5 forward-backward iterations
 EnCoef did    25 forward-backward iterations
 EnCoef did     5 forward-backward iterations
 EnCoef did     2 forward-backward iterations
 EnCoef did     6 forward-backward iterations
 Restarting incremental Fock formation.
 Rare condition: small coef for last iteration:  0.000D+00
 Rare condition: small coef for last iteration:  0.000D+00
 Rare condition: small coef for last iteration:  0.000D+00
 EnCoef did   100 forward-backward iterations
 Rare condition: small coef for last iteration:  0.000D+00
 EnCoef did   100 forward-backward iterations
 Rare condition: small coef for last iteration:  0.000D+00
 EnCoef did   100 forward-backward iterations
 Rare condition: small coef for last iteration:  0.000D+00
 Rare condition: small coef for last iteration:  0.000D+00
 Rare condition: small coef for last iteration:  0.000D+00
 Rare condition: small coef for last iteration:  0.000D+00
 Rare condition: small coef for last iteration:  0.000D+00
 Rare condition: small coef for last iteration:  0.000D+00
 Rare condition: small coef for last iteration:  0.000D+00
 Restarting incremental Fock formation.
 Rare condition: small coef for last iteration:  0.000D+00
 EnCoef did   100 forward-backward iterations
 Rare condition: small coef for last iteration:  0.000D+00
 Rare condition: small coef for last iteration:  0.000D+00
 Restarting incremental Fock formation.
 Restarting incremental Fock formation.
 SCF Done:  E(UAPFD) =  -3156.93669296     A.U. after   85 cycles
            NFock= 85  Conv=0.80D-08     -V/T= 2.0029
 <Sx>= 0.0000 <Sy>= 0.0000 <Sz>= 2.5000 <S**2>= 8.8523 S= 2.5170
 <L.S>=  0.00000000000    
 Annihilation of the first spin contaminant:
 S**2 before annihilation     8.8523,   after     8.7530

 **********************************************************************

            Population analysis using the SCF Density.

 **********************************************************************

 Orbital symmetries:
 Alpha Orbitals:
       Occupied  (A) (A) (A) (A) (A) (A) (A) (A) (A) (A) (A) (A)
                 (A) (A) (A) (A) (A) (A) (A) (A) (A) (A) (A) (A)
                 (A) (A) (A) (A) (A) (A) (A) (A) (A) (A) (A) (A)
                 (A) (A) (A) (A) (A) (A) (A) (A) (A) (A) (A) (A)
                 (A) (A) (A) (A) (A) (A) (A) (A) (A) (A) (A) (A)
                 (A) (A) (A) (A) (A) (A) (A) (A) (A) (A) (A) (A)
                 (A) (A) (A) (A) (A) (A) (A) (A) (A) (A) (A) (A)
                 (A) (A) (A) (A) (A) (A) (A) (A) (A) (A) (A) (A)
                 (A) (A) (A) (A) (A) (A) (A) (A) (A) (A) (A) (A)
                 (A) (A) (A) (A) (A) (A) (A) (A) (A) (A) (A) (A)
                 (A) (A) (A) (A) (A) (A) (A) (A) (A) (A) (A) (A)
                 (A) (A) (A) (A) (A) (A) (A) (A) (A) (A) (A) (A)
                 (A) (A) (A) (A) (A) (A) (A)
       Virtual   (A) (A) (A) (A) (A) (A) (A) (A) (A) (A) (A) (A)
                 (A) (A) (A) (A) (A) (A) (A) (A) (A) (A) (A) (A)
                 (A) (A) (A) (A) (A) (A) (A) (A) (A) (A) (A) (A)
                 (A) (A) (A) (A) (A) (A) (A) (A) (A) (A) (A) (A)
                 (A) (A) (A) (A) (A) (A) (A) (A) (A) (A) (A) (A)
                 (A) (A) (A) (A) (A) (A) (A) (A) (A) (A) (A) (A)
                 (A) (A) (A) (A) (A) (A) (A) (A) (A) (A) (A) (A)
                 (A) (A) (A) (A) (A) (A) (A) (A) (A) (A) (A) (A)
                 (A) (A) (A) (A) (A) (A) (A) (A) (A) (A) (A) (A)
                 (A) (A) (A) (A) (A) (A) (A) (A) (A) (A) (A) (A)
                 (A) (A) (A) (A) (A) (A) (A) (A) (A) (A) (A) (A)
                 (A) (A) (A) (A) (A) (A) (A) (A) (A) (A) (A) (A)
                 (A) (A) (A) (A) (A) (A) (A) (A) (A) (A) (A) (A)
                 (A) (A) (A) (A) (A) (A) (A) (A) (A) (A) (A) (A)
                 (A) (A) (A) (A) (A) (A) (A) (A) (A) (A) (A) (A)
                 (A) (A) (A) (A) (A) (A) (A) (A) (A) (A) (A) (A)
                 (A) (A) (A) (A) (A) (A) (A) (A) (A) (A) (A) (A)
                 (A) (A) (A) (A) (A) (A) (A) (A) (A) (A) (A) (A)
                 (A) (A) (A) (A) (A) (A) (A) (A) (A) (A) (A) (A)
                 (A) (A) (A) (A) (A) (A) (A) (A) (A) (A) (A) (A)
                 (A) (A) (A) (A) (A) (A) (A) (A) (A) (A) (A) (A)
                 (A) (A) (A) (A) (A) (A) (A) (A) (A) (A) (A) (A)
                 (A) (A) (A) (A) (A) (A) (A) (A) (A) (A) (A) (A)
                 (A) (A) (A) (A) (A) (A) (A) (A) (A) (A) (A) (A)
                 (A) (A) (A) (A) (A) (A) (A) (A) (A) (A) (A) (A)
                 (A) (A) (A) (A) (A) (A) (A) (A) (A) (A) (A) (A)
                 (A) (A) (A) (A) (A) (A) (A) (A) (A) (A) (A) (A)
                 (A) (A) (A) (A) (A) (A) (A) (A) (A) (A) (A) (A)
                 (A) (A) (A) (A) (A) (A) (A) (A) (A) (A) (A) (A)
                 (A) (A) (A) (A) (A) (A) (A) (A) (A) (A) (A) (A)
                 (A) (A) (A) (A) (A) (A) (A) (A) (A) (A) (A) (A)
                 (A) (A) (A) (A) (A) (A) (A) (A) (A) (A) (A) (A)
                 (A) (A) (A) (A) (A) (A) (A) (A) (A) (A) (A) (A)
                 (A) (A) (A) (A) (A) (A) (A) (A) (A) (A) (A) (A)
                 (A) (A) (A) (A) (A) (A) (A) (A) (A) (A) (A) (A)
                 (A) (A) (A) (A) (A) (A) (A) (A) (A) (A) (A) (A)
                 (A) (A) (A) (A) (A) (A) (A) (A) (A) (A) (A) (A)
                 (A) (A) (A) (A) (A) (A) (A) (A) (A) (A) (A) (A)
                 (A) (A) (A) (A) (A) (A) (A) (A) (A) (A) (A) (A)
                 (A) (A) (A) (A) (A) (A) (A) (A) (A) (A) (A) (A)
                 (A) (A) (A) (A) (A) (A) (A) (A) (A) (A) (A) (A)
                 (A) (A) (A) (A) (A) (A) (A) (A) (A) (A) (A) (A)
                 (A) (A) (A) (A) (A) (A) (A) (A) (A) (A) (A) (A)
                 (A) (A) (A) (A) (A) (A) (A) (A) (A) (A) (A) (A)
                 (A) (A) (A) (A) (A) (A) (A) (A) (A) (A) (A) (A)
                 (A) (A) (A) (A) (A) (A) (A) (A) (A) (A) (A) (A)
                 (A) (A) (A) (A) (A) (A) (A) (A) (A) (A) (A) (A)
                 (A) (A) (A) (A) (A) (A) (A) (A) (A) (A) (A) (A)
                 (A) (A) (A) (A) (A) (A) (A) (A) (A) (A) (A) (A)
                 (A) (A) (A) (A) (A) (A) (A) (A) (A) (A) (A) (A)
                 (A) (A) (A) (A) (A) (A) (A) (A) (A) (A) (A) (A)
                 (A) (A) (A) (A) (A) (A) (A) (A) (A) (A) (A) (A)
                 (A) (A) (A) (A) (A) (A) (A) (A) (A) (A) (A) (A)
                 (A) (A) (A) (A) (A) (A) (A) (A) (A) (A) (A) (A)
                 (A) (A) (A) (A) (A) (A) (A) (A) (A) (A) (A) (A)
                 (A) (A) (A) (A) (A) (A) (A) (A) (A) (A) (A) (A)
                 (A) (A) (A) (A) (A) (A) (A) (A) (A) (A) (A) (A)
                 (A) (A) (A) (A) (A) (A) (A) (A) (A) (A) (A) (A)
                 (A) (A) (A) (A) (A) (A) (A) (A) (A) (A) (A) (A)
                 (A) (A) (A) (A) (A) (A) (A) (A) (A) (A) (A) (A)
                 (A) (A) (A) (A) (A) (A) (A) (A) (A) (A) (A) (A)
                 (A) (A) (A) (A) (A) (A) (A) (A) (A) (A) (A) (A)
                 (A) (A) (A) (A) (A) (A) (A) (A) (A) (A) (A) (A)
                 (A) (A) (A) (A) (A) (A) (A) (A) (A) (A) (A) (A)
                 (A) (A) (A) (A) (A) (A) (A) (A) (A) (A) (A) (A)
                 (A) (A) (A) (A) (A) (A) (A) (A) (A) (A) (A) (A)
                 (A) (A) (A) (A) (A) (A) (A) (A) (A) (A) (A) (A)
                 (A) (A) (A) (A) (A) (A) (A) (A) (A) (A) (A) (A)
                 (A) (A) (A) (A) (A) (A) (A) (A) (A) (A) (A) (A)
                 (A) (A) (A) (A) (A) (A) (A) (A) (A) (A) (A) (A)
                 (A) (A) (A) (A) (A) (A) (A) (A) (A) (A) (A) (A)
                 (A) (A) (A) (A) (A) (A) (A) (A) (A) (A) (A) (A)
                 (A) (A) (A) (A) (A) (A) (A) (A) (A) (A) (A) (A)
                 (A) (A) (A) (A) (A) (A) (A) (A) (A) (A) (A) (A)
                 (A) (A) (A) (A) (A) (A) (A) (A) (A) (A) (A) (A)
                 (A) (A) (A) (A) (A) (A) (A) (A) (A) (A) (A) (A)
                 (A) (A) (A) (A) (A) (A) (A) (A) (A) (A) (A) (A)
                 (A) (A) (A) (A) (A) (A) (A) (A) (A) (A) (A) (A)
                 (A) (A) (A) (A) (A) (A) (A) (A) (A) (A) (A) (A)
                 (A) (A) (A) (A) (A) (A) (A) (A) (A) (A) (A) (A)
                 (A) (A) (A) (A) (A) (A) (A) (A) (A) (A) (A) (A)
                 (A) (A) (A) (A) (A) (A) (A) (A) (A) (A) (A) (A)
                 (A) (A) (A) (A) (A) (A) (A) (A) (A) (A) (A) (A)
                 (A) (A) (A) (A) (A) (A) (A) (A) (A) (A) (A) (A)
                 (A) (A) (A) (A) (A) (A) (A) (A) (A) (A) (A) (A)
                 (A) (A) (A) (A) (A) (A) (A) (A) (A) (A) (A) (A)
                 (A) (A) (A) (A) (A) (A) (A) (A) (A) (A) (A) (A)
                 (A) (A) (A) (A) (A) (A) (A) (A) (A) (A) (A) (A)
                 (A) (A) (A) (A) (A) (A) (A) (A) (A) (A) (A) (A)
                 (A) (A) (A) (A) (A) (A) (A) (A) (A) (A) (A) (A)
                 (A) (A) (A) (A) (A) (A) (A) (A) (A) (A) (A) (A)
                 (A) (A) (A) (A) (A) (A) (A) (A) (A) (A) (A) (A)
                 (A) (A) (A) (A) (A) (A) (A) (A) (A) (A) (A) (A)
                 (A) (A) (A) (A) (A) (A) (A) (A) (A) (A) (A) (A)
                 (A) (A) (A) (A) (A) (A) (A) (A) (A) (A) (A) (A)
                 (A) (A) (A) (A) (A) (A) (A) (A) (A) (A) (A) (A)
                 (A) (A) (A) (A) (A) (A) (A) (A) (A) (A) (A) (A)
                 (A) (A) (A) (A) (A) (A) (A) (A) (A) (A) (A) (A)
                 (A) (A) (A) (A) (A) (A) (A) (A) (A) (A) (A) (A)
                 (A) (A) (A) (A) (A) (A) (A) (A) (A) (A) (A) (A)
                 (A) (A) (A) (A) (A) (A) (A) (A) (A) (A) (A) (A)
                 (A) (A) (A) (A) (A) (A) (A) (A) (A) (A) (A) (A)
                 (A) (A) (A) (A) (A) (A) (A) (A) (A) (A) (A) (A)
                 (A) (A) (A) (A) (A) (A) (A) (A) (A) (A) (A) (A)
                 (A) (A) (A)
 Beta  Orbitals:
       Occupied  (A) (A) (A) (A) (A) (A) (A) (A) (A) (A) (A) (A)
                 (A) (A) (A) (A) (A) (A) (A) (A) (A) (A) (A) (A)
                 (A) (A) (A) (A) (A) (A) (A) (A) (A) (A) (A) (A)
                 (A) (A) (A) (A) (A) (A) (A) (A) (A) (A) (A) (A)
                 (A) (A) (A) (A) (A) (A) (A) (A) (A) (A) (A) (A)
                 (A) (A) (A) (A) (A) (A) (A) (A) (A) (A) (A) (A)
                 (A) (A) (A) (A) (A) (A) (A) (A) (A) (A) (A) (A)
                 (A) (A) (A) (A) (A) (A) (A) (A) (A) (A) (A) (A)
                 (A) (A) (A) (A) (A) (A) (A) (A) (A) (A) (A) (A)
                 (A) (A) (A) (A) (A) (A) (A) (A) (A) (A) (A) (A)
                 (A) (A) (A) (A) (A) (A) (A) (A) (A) (A) (A) (A)
                 (A) (A) (A) (A) (A) (A) (A) (A) (A) (A) (A) (A)
                 (A) (A)
       Virtual   (A) (A) (A) (A) (A) (A) (A) (A) (A) (A) (A) (A)
                 (A) (A) (A) (A) (A) (A) (A) (A) (A) (A) (A) (A)
                 (A) (A) (A) (A) (A) (A) (A) (A) (A) (A) (A) (A)
                 (A) (A) (A) (A) (A) (A) (A) (A) (A) (A) (A) (A)
                 (A) (A) (A) (A) (A) (A) (A) (A) (A) (A) (A) (A)
                 (A) (A) (A) (A) (A) (A) (A) (A) (A) (A) (A) (A)
                 (A) (A) (A) (A) (A) (A) (A) (A) (A) (A) (A) (A)
                 (A) (A) (A) (A) (A) (A) (A) (A) (A) (A) (A) (A)
                 (A) (A) (A) (A) (A) (A) (A) (A) (A) (A) (A) (A)
                 (A) (A) (A) (A) (A) (A) (A) (A) (A) (A) (A) (A)
                 (A) (A) (A) (A) (A) (A) (A) (A) (A) (A) (A) (A)
                 (A) (A) (A) (A) (A) (A) (A) (A) (A) (A) (A) (A)
                 (A) (A) (A) (A) (A) (A) (A) (A) (A) (A) (A) (A)
                 (A) (A) (A) (A) (A) (A) (A) (A) (A) (A) (A) (A)
                 (A) (A) (A) (A) (A) (A) (A) (A) (A) (A) (A) (A)
                 (A) (A) (A) (A) (A) (A) (A) (A) (A) (A) (A) (A)
                 (A) (A) (A) (A) (A) (A) (A) (A) (A) (A) (A) (A)
                 (A) (A) (A) (A) (A) (A) (A) (A) (A) (A) (A) (A)
                 (A) (A) (A) (A) (A) (A) (A) (A) (A) (A) (A) (A)
                 (A) (A) (A) (A) (A) (A) (A) (A) (A) (A) (A) (A)
                 (A) (A) (A) (A) (A) (A) (A) (A) (A) (A) (A) (A)
                 (A) (A) (A) (A) (A) (A) (A) (A) (A) (A) (A) (A)
                 (A) (A) (A) (A) (A) (A) (A) (A) (A) (A) (A) (A)
                 (A) (A) (A) (A) (A) (A) (A) (A) (A) (A) (A) (A)
                 (A) (A) (A) (A) (A) (A) (A) (A) (A) (A) (A) (A)
                 (A) (A) (A) (A) (A) (A) (A) (A) (A) (A) (A) (A)
                 (A) (A) (A) (A) (A) (A) (A) (A) (A) (A) (A) (A)
                 (A) (A) (A) (A) (A) (A) (A) (A) (A) (A) (A) (A)
                 (A) (A) (A) (A) (A) (A) (A) (A) (A) (A) (A) (A)
                 (A) (A) (A) (A) (A) (A) (A) (A) (A) (A) (A) (A)
                 (A) (A) (A) (A) (A) (A) (A) (A) (A) (A) (A) (A)
                 (A) (A) (A) (A) (A) (A) (A) (A) (A) (A) (A) (A)
                 (A) (A) (A) (A) (A) (A) (A) (A) (A) (A) (A) (A)
                 (A) (A) (A) (A) (A) (A) (A) (A) (A) (A) (A) (A)
                 (A) (A) (A) (A) (A) (A) (A) (A) (A) (A) (A) (A)
                 (A) (A) (A) (A) (A) (A) (A) (A) (A) (A) (A) (A)
                 (A) (A) (A) (A) (A) (A) (A) (A) (A) (A) (A) (A)
                 (A) (A) (A) (A) (A) (A) (A) (A) (A) (A) (A) (A)
                 (A) (A) (A) (A) (A) (A) (A) (A) (A) (A) (A) (A)
                 (A) (A) (A) (A) (A) (A) (A) (A) (A) (A) (A) (A)
                 (A) (A) (A) (A) (A) (A) (A) (A) (A) (A) (A) (A)
                 (A) (A) (A) (A) (A) (A) (A) (A) (A) (A) (A) (A)
                 (A) (A) (A) (A) (A) (A) (A) (A) (A) (A) (A) (A)
                 (A) (A) (A) (A) (A) (A) (A) (A) (A) (A) (A) (A)
                 (A) (A) (A) (A) (A) (A) (A) (A) (A) (A) (A) (A)
                 (A) (A) (A) (A) (A) (A) (A) (A) (A) (A) (A) (A)
                 (A) (A) (A) (A) (A) (A) (A) (A) (A) (A) (A) (A)
                 (A) (A) (A) (A) (A) (A) (A) (A) (A) (A) (A) (A)
                 (A) (A) (A) (A) (A) (A) (A) (A) (A) (A) (A) (A)
                 (A) (A) (A) (A) (A) (A) (A) (A) (A) (A) (A) (A)
                 (A) (A) (A) (A) (A) (A) (A) (A) (A) (A) (A) (A)
                 (A) (A) (A) (A) (A) (A) (A) (A) (A) (A) (A) (A)
                 (A) (A) (A) (A) (A) (A) (A) (A) (A) (A) (A) (A)
                 (A) (A) (A) (A) (A) (A) (A) (A) (A) (A) (A) (A)
                 (A) (A) (A) (A) (A) (A) (A) (A) (A) (A) (A) (A)
                 (A) (A) (A) (A) (A) (A) (A) (A) (A) (A) (A) (A)
                 (A) (A) (A) (A) (A) (A) (A) (A) (A) (A) (A) (A)
                 (A) (A) (A) (A) (A) (A) (A) (A) (A) (A) (A) (A)
                 (A) (A) (A) (A) (A) (A) (A) (A) (A) (A) (A) (A)
                 (A) (A) (A) (A) (A) (A) (A) (A) (A) (A) (A) (A)
                 (A) (A) (A) (A) (A) (A) (A) (A) (A) (A) (A) (A)
                 (A) (A) (A) (A) (A) (A) (A) (A) (A) (A) (A) (A)
                 (A) (A) (A) (A) (A) (A) (A) (A) (A) (A) (A) (A)
                 (A) (A) (A) (A) (A) (A) (A) (A) (A) (A) (A) (A)
                 (A) (A) (A) (A) (A) (A) (A) (A) (A) (A) (A) (A)
                 (A) (A) (A) (A) (A) (A) (A) (A) (A) (A) (A) (A)
                 (A) (A) (A) (A) (A) (A) (A) (A) (A) (A) (A) (A)
                 (A) (A) (A) (A) (A) (A) (A) (A) (A) (A) (A) (A)
                 (A) (A) (A) (A) (A) (A) (A) (A) (A) (A) (A) (A)
                 (A) (A) (A) (A) (A) (A) (A) (A) (A) (A) (A) (A)
                 (A) (A) (A) (A) (A) (A) (A) (A) (A) (A) (A) (A)
                 (A) (A) (A) (A) (A) (A) (A) (A) (A) (A) (A) (A)
                 (A) (A) (A) (A) (A) (A) (A) (A) (A) (A) (A) (A)
                 (A) (A) (A) (A) (A) (A) (A) (A) (A) (A) (A) (A)
                 (A) (A) (A) (A) (A) (A) (A) (A) (A) (A) (A) (A)
                 (A) (A) (A) (A) (A) (A) (A) (A) (A) (A) (A) (A)
                 (A) (A) (A) (A) (A) (A) (A) (A) (A) (A) (A) (A)
                 (A) (A) (A) (A) (A) (A) (A) (A) (A) (A) (A) (A)
                 (A) (A) (A) (A) (A) (A) (A) (A) (A) (A) (A) (A)
                 (A) (A) (A) (A) (A) (A) (A) (A) (A) (A) (A) (A)
                 (A) (A) (A) (A) (A) (A) (A) (A) (A) (A) (A) (A)
                 (A) (A) (A) (A) (A) (A) (A) (A) (A) (A) (A) (A)
                 (A) (A) (A) (A) (A) (A) (A) (A) (A) (A) (A) (A)
                 (A) (A) (A) (A) (A) (A) (A) (A) (A) (A) (A) (A)
                 (A) (A) (A) (A) (A) (A) (A) (A) (A) (A) (A) (A)
                 (A) (A) (A) (A) (A) (A) (A) (A) (A) (A) (A) (A)
                 (A) (A) (A) (A) (A) (A) (A) (A) (A) (A) (A) (A)
                 (A) (A) (A) (A) (A) (A) (A) (A) (A) (A) (A) (A)
                 (A) (A) (A) (A) (A) (A) (A) (A) (A) (A) (A) (A)
                 (A) (A) (A) (A) (A) (A) (A) (A) (A) (A) (A) (A)
                 (A) (A) (A) (A) (A) (A) (A) (A) (A) (A) (A) (A)
                 (A) (A) (A) (A) (A) (A) (A) (A) (A) (A) (A) (A)
                 (A) (A) (A) (A) (A) (A) (A) (A) (A) (A) (A) (A)
                 (A) (A) (A) (A) (A) (A) (A) (A) (A) (A) (A) (A)
                 (A) (A) (A) (A) (A) (A) (A) (A) (A) (A) (A) (A)
                 (A) (A) (A) (A) (A) (A) (A) (A) (A) (A) (A) (A)
                 (A) (A) (A) (A) (A) (A) (A) (A) (A) (A) (A) (A)
                 (A) (A) (A) (A) (A) (A) (A) (A) (A) (A) (A) (A)
                 (A) (A) (A) (A) (A) (A) (A) (A) (A) (A) (A) (A)
                 (A) (A) (A) (A) (A) (A) (A) (A) (A) (A) (A) (A)
                 (A) (A) (A) (A) (A) (A) (A) (A) (A) (A) (A) (A)
                 (A) (A) (A) (A) (A) (A) (A) (A) (A) (A) (A) (A)
                 (A) (A) (A) (A) (A) (A) (A) (A) (A) (A) (A) (A)
                 (A) (A) (A) (A) (A) (A) (A) (A) (A) (A) (A) (A)
                 (A) (A) (A) (A) (A) (A) (A) (A)
 The electronic state is 6-A.
 Alpha  occ. eigenvalues -- -256.40230 -89.07841 -30.28990 -26.13772 -26.11540
 Alpha  occ. eigenvalues --  -26.11510 -19.29199 -14.46798 -14.46732 -14.46677
 Alpha  occ. eigenvalues --  -14.46456 -10.35012 -10.34996 -10.34957 -10.34752
 Alpha  occ. eigenvalues --  -10.34401 -10.34252 -10.34164 -10.34037 -10.33386
 Alpha  occ. eigenvalues --  -10.31037 -10.30985 -10.30909 -10.30685 -10.30684
 Alpha  occ. eigenvalues --  -10.30651 -10.30566 -10.30494 -10.30462 -10.30296
 Alpha  occ. eigenvalues --  -10.29804 -10.29404 -10.28955 -10.28802 -10.28720
 Alpha  occ. eigenvalues --  -10.28660 -10.28588 -10.28445 -10.28435 -10.28362
 Alpha  occ. eigenvalues --  -10.28308 -10.28197  -8.10825  -6.05347  -6.05095
 Alpha  occ. eigenvalues --   -6.04677  -3.71209  -2.51520  -2.45631  -2.45577
 Alpha  occ. eigenvalues --   -1.17331  -1.10496  -1.09599  -1.09397  -1.08520
 Alpha  occ. eigenvalues --   -0.94887  -0.93473  -0.93107  -0.92749  -0.92287
 Alpha  occ. eigenvalues --   -0.92279  -0.92050  -0.91844  -0.87965  -0.86572
 Alpha  occ. eigenvalues --   -0.86239  -0.85457  -0.83879  -0.82354  -0.81289
 Alpha  occ. eigenvalues --   -0.79794  -0.79531  -0.79121  -0.78229  -0.76563
 Alpha  occ. eigenvalues --   -0.76400  -0.72831  -0.71837  -0.71171  -0.70187
 Alpha  occ. eigenvalues --   -0.69276  -0.66511  -0.65612  -0.64845  -0.64684
 Alpha  occ. eigenvalues --   -0.63084  -0.63048  -0.62746  -0.60655  -0.59438
 Alpha  occ. eigenvalues --   -0.59316  -0.58829  -0.58024  -0.57145  -0.57118
 Alpha  occ. eigenvalues --   -0.56433  -0.56037  -0.55556  -0.55291  -0.54788
 Alpha  occ. eigenvalues --   -0.54553  -0.54271  -0.54122  -0.54105  -0.53422
 Alpha  occ. eigenvalues --   -0.53084  -0.52548  -0.52320  -0.52033  -0.51727
 Alpha  occ. eigenvalues --   -0.51563  -0.51367  -0.51318  -0.51101  -0.50977
 Alpha  occ. eigenvalues --   -0.50665  -0.50319  -0.49860  -0.49778  -0.49600
 Alpha  occ. eigenvalues --   -0.49431  -0.49184  -0.48999  -0.48741  -0.48682
 Alpha  occ. eigenvalues --   -0.48358  -0.47783  -0.47648  -0.47170  -0.46177
 Alpha  occ. eigenvalues --   -0.46040  -0.45496  -0.44880  -0.44651  -0.44297
 Alpha  occ. eigenvalues --   -0.44033  -0.43597  -0.42853  -0.42322  -0.41357
 Alpha  occ. eigenvalues --   -0.40887  -0.39491  -0.39171  -0.36341  -0.35107
 Alpha  occ. eigenvalues --   -0.34670  -0.33719  -0.33638  -0.32045  -0.31138
 Alpha  occ. eigenvalues --   -0.23129
 Alpha virt. eigenvalues --   -0.20297  -0.19083  -0.13914  -0.10568  -0.10206
 Alpha virt. eigenvalues --   -0.09122  -0.07943  -0.07715  -0.06506  -0.04815
 Alpha virt. eigenvalues --   -0.04603  -0.04372  -0.03794  -0.03374  -0.03084
 Alpha virt. eigenvalues --   -0.01949  -0.01854  -0.01617  -0.00875  -0.00563
 Alpha virt. eigenvalues --   -0.00274  -0.00009   0.00263   0.00728   0.01015
 Alpha virt. eigenvalues --    0.01168   0.01688   0.01765   0.01983   0.02210
 Alpha virt. eigenvalues --    0.02371   0.02852   0.03025   0.03217   0.03435
 Alpha virt. eigenvalues --    0.03659   0.03916   0.04195   0.04502   0.04727
 Alpha virt. eigenvalues --    0.04951   0.05055   0.05427   0.05638   0.06086
 Alpha virt. eigenvalues --    0.06211   0.06361   0.06746   0.07031   0.07074
 Alpha virt. eigenvalues --    0.07271   0.07497   0.07656   0.07969   0.08269
 Alpha virt. eigenvalues --    0.08355   0.08714   0.08900   0.09531   0.09757
 Alpha virt. eigenvalues --    0.10177   0.10262   0.10465   0.10787   0.10935
 Alpha virt. eigenvalues --    0.11344   0.11506   0.11695   0.11905   0.12014
 Alpha virt. eigenvalues --    0.12745   0.12822   0.13175   0.13391   0.13809
 Alpha virt. eigenvalues --    0.14154   0.14449   0.14500   0.14947   0.15620
 Alpha virt. eigenvalues --    0.15836   0.16159   0.16290   0.16601   0.16780
 Alpha virt. eigenvalues --    0.16964   0.17034   0.17124   0.17311   0.17708
 Alpha virt. eigenvalues --    0.18599   0.18788   0.19049   0.19400   0.19697
 Alpha virt. eigenvalues --    0.19859   0.20032   0.20220   0.20668   0.20858
 Alpha virt. eigenvalues --    0.21130   0.21170   0.21496   0.21748   0.22187
 Alpha virt. eigenvalues --    0.22483   0.22733   0.23383   0.23562   0.23700
 Alpha virt. eigenvalues --    0.23879   0.24051   0.24155   0.24571   0.25302
 Alpha virt. eigenvalues --    0.25623   0.25696   0.25976   0.26447   0.26805
 Alpha virt. eigenvalues --    0.27360   0.27677   0.27838   0.28048   0.28362
 Alpha virt. eigenvalues --    0.28540   0.28923   0.29132   0.29486   0.29614
 Alpha virt. eigenvalues --    0.29852   0.30065   0.30117   0.30482   0.30828
 Alpha virt. eigenvalues --    0.31203   0.31364   0.31678   0.31939   0.32159
 Alpha virt. eigenvalues --    0.32283   0.32469   0.32686   0.32893   0.33511
 Alpha virt. eigenvalues --    0.33669   0.33821   0.34016   0.34406   0.34732
 Alpha virt. eigenvalues --    0.34960   0.35098   0.35529   0.35942   0.36214
 Alpha virt. eigenvalues --    0.36373   0.36643   0.36763   0.36964   0.37221
 Alpha virt. eigenvalues --    0.37356   0.37755   0.37902   0.38123   0.38251
 Alpha virt. eigenvalues --    0.38722   0.38968   0.39198   0.39352   0.39503
 Alpha virt. eigenvalues --    0.40036   0.40107   0.40418   0.40626   0.41011
 Alpha virt. eigenvalues --    0.41186   0.41402   0.41590   0.41759   0.41939
 Alpha virt. eigenvalues --    0.42081   0.42723   0.42770   0.42858   0.43117
 Alpha virt. eigenvalues --    0.43199   0.43583   0.43778   0.44059   0.44158
 Alpha virt. eigenvalues --    0.44342   0.44586   0.45045   0.45276   0.45569
 Alpha virt. eigenvalues --    0.45773   0.46082   0.46483   0.46717   0.47107
 Alpha virt. eigenvalues --    0.47340   0.47610   0.47753   0.48044   0.48861
 Alpha virt. eigenvalues --    0.49170   0.49370   0.49895   0.50106   0.50226
 Alpha virt. eigenvalues --    0.50756   0.51128   0.51614   0.51725   0.52115
 Alpha virt. eigenvalues --    0.52362   0.52914   0.53122   0.53431   0.53564
 Alpha virt. eigenvalues --    0.53838   0.54304   0.54434   0.54799   0.54910
 Alpha virt. eigenvalues --    0.55222   0.55875   0.55994   0.56051   0.56608
 Alpha virt. eigenvalues --    0.56788   0.57088   0.57338   0.57620   0.57932
 Alpha virt. eigenvalues --    0.58544   0.58928   0.59360   0.59700   0.60019
 Alpha virt. eigenvalues --    0.60292   0.60598   0.60953   0.61075   0.61551
 Alpha virt. eigenvalues --    0.61786   0.61908   0.62108   0.62426   0.62802
 Alpha virt. eigenvalues --    0.63308   0.63809   0.63967   0.64272   0.64865
 Alpha virt. eigenvalues --    0.64967   0.65133   0.65716   0.66107   0.66775
 Alpha virt. eigenvalues --    0.66957   0.67253   0.67731   0.68383   0.68544
 Alpha virt. eigenvalues --    0.68792   0.68975   0.69512   0.70449   0.70652
 Alpha virt. eigenvalues --    0.70910   0.71820   0.72071   0.72350   0.72604
 Alpha virt. eigenvalues --    0.73235   0.73336   0.73865   0.74139   0.74637
 Alpha virt. eigenvalues --    0.74852   0.75399   0.76015   0.76179   0.76489
 Alpha virt. eigenvalues --    0.77144   0.77465   0.78133   0.78186   0.78449
 Alpha virt. eigenvalues --    0.79346   0.79749   0.80446   0.80485   0.81083
 Alpha virt. eigenvalues --    0.81715   0.82084   0.82332   0.82488   0.83127
 Alpha virt. eigenvalues --    0.83471   0.83876   0.84398   0.84485   0.85154
 Alpha virt. eigenvalues --    0.85332   0.85642   0.85966   0.86505   0.86931
 Alpha virt. eigenvalues --    0.87382   0.87684   0.88153   0.88244   0.88864
 Alpha virt. eigenvalues --    0.89067   0.89567   0.89742   0.89966   0.90298
 Alpha virt. eigenvalues --    0.90593   0.90963   0.91266   0.91485   0.91837
 Alpha virt. eigenvalues --    0.92002   0.92263   0.92475   0.93353   0.93485
 Alpha virt. eigenvalues --    0.93940   0.94319   0.94492   0.94841   0.95289
 Alpha virt. eigenvalues --    0.95682   0.95924   0.96405   0.96555   0.97276
 Alpha virt. eigenvalues --    0.97730   0.98531   0.98812   0.99210   0.99938
 Alpha virt. eigenvalues --    1.00588   1.01166   1.01444   1.01777   1.02326
 Alpha virt. eigenvalues --    1.02781   1.03908   1.04410   1.05019   1.06032
 Alpha virt. eigenvalues --    1.06353   1.06920   1.07235   1.07619   1.07808
 Alpha virt. eigenvalues --    1.08012   1.08564   1.08719   1.08914   1.09553
 Alpha virt. eigenvalues --    1.09980   1.10136   1.10609   1.10866   1.11210
 Alpha virt. eigenvalues --    1.11700   1.12226   1.13330   1.14035   1.14195
 Alpha virt. eigenvalues --    1.14337   1.15188   1.15586   1.16180   1.16679
 Alpha virt. eigenvalues --    1.16763   1.16956   1.17452   1.17485   1.17877
 Alpha virt. eigenvalues --    1.18255   1.18377   1.18677   1.19370   1.19683
 Alpha virt. eigenvalues --    1.20218   1.21037   1.21373   1.22091   1.22154
 Alpha virt. eigenvalues --    1.23847   1.24228   1.24687   1.25874   1.26275
 Alpha virt. eigenvalues --    1.26518   1.27016   1.27501   1.28151   1.29317
 Alpha virt. eigenvalues --    1.29919   1.30639   1.31579   1.31709   1.32059
 Alpha virt. eigenvalues --    1.33285   1.33485   1.33612   1.34000   1.34732
 Alpha virt. eigenvalues --    1.35306   1.35447   1.36175   1.36467   1.36837
 Alpha virt. eigenvalues --    1.36954   1.37351   1.37617   1.38038   1.38551
 Alpha virt. eigenvalues --    1.39219   1.39459   1.39812   1.40084   1.40453
 Alpha virt. eigenvalues --    1.40681   1.41116   1.41430   1.41482   1.41789
 Alpha virt. eigenvalues --    1.42194   1.42707   1.43246   1.43362   1.43549
 Alpha virt. eigenvalues --    1.43867   1.44153   1.44178   1.44394   1.44970
 Alpha virt. eigenvalues --    1.45199   1.45448   1.45670   1.46071   1.46172
 Alpha virt. eigenvalues --    1.46712   1.47124   1.47477   1.47839   1.48035
 Alpha virt. eigenvalues --    1.48171   1.48483   1.48757   1.48851   1.49143
 Alpha virt. eigenvalues --    1.49661   1.49933   1.50336   1.50629   1.51223
 Alpha virt. eigenvalues --    1.51386   1.51874   1.52119   1.52529   1.52879
 Alpha virt. eigenvalues --    1.53225   1.53244   1.53464   1.54236   1.54427
 Alpha virt. eigenvalues --    1.54766   1.55252   1.55583   1.55820   1.56118
 Alpha virt. eigenvalues --    1.56500   1.56869   1.57041   1.57242   1.57797
 Alpha virt. eigenvalues --    1.57987   1.58231   1.58598   1.59022   1.59363
 Alpha virt. eigenvalues --    1.59758   1.60534   1.60617   1.61179   1.61330
 Alpha virt. eigenvalues --    1.61856   1.62336   1.62689   1.62901   1.63265
 Alpha virt. eigenvalues --    1.63579   1.64405   1.64583   1.65883   1.66177
 Alpha virt. eigenvalues --    1.66539   1.67176   1.67510   1.68156   1.68657
 Alpha virt. eigenvalues --    1.69107   1.69542   1.70324   1.71190   1.71709
 Alpha virt. eigenvalues --    1.71875   1.72267   1.72717   1.72979   1.74071
 Alpha virt. eigenvalues --    1.74240   1.74645   1.75395   1.75862   1.76168
 Alpha virt. eigenvalues --    1.76297   1.76791   1.77349   1.77436   1.78041
 Alpha virt. eigenvalues --    1.78309   1.78796   1.78958   1.79862   1.80503
 Alpha virt. eigenvalues --    1.80809   1.81442   1.81843   1.82537   1.82640
 Alpha virt. eigenvalues --    1.83430   1.83705   1.84708   1.85066   1.85335
 Alpha virt. eigenvalues --    1.85740   1.86429   1.87038   1.87563   1.87988
 Alpha virt. eigenvalues --    1.88415   1.88535   1.88854   1.89500   1.89748
 Alpha virt. eigenvalues --    1.90159   1.90722   1.91146   1.91808   1.92000
 Alpha virt. eigenvalues --    1.92170   1.92369   1.94133   1.94469   1.95104
 Alpha virt. eigenvalues --    1.95757   1.96225   1.96428   1.97019   1.97972
 Alpha virt. eigenvalues --    1.98372   1.98559   1.99143   1.99697   2.00304
 Alpha virt. eigenvalues --    2.00576   2.01162   2.01715   2.01997   2.03009
 Alpha virt. eigenvalues --    2.03229   2.03788   2.04205   2.04587   2.05186
 Alpha virt. eigenvalues --    2.05647   2.06457   2.06526   2.07219   2.07446
 Alpha virt. eigenvalues --    2.08046   2.08445   2.08801   2.09174   2.09898
 Alpha virt. eigenvalues --    2.10768   2.11226   2.12267   2.12408   2.12645
 Alpha virt. eigenvalues --    2.13141   2.14179   2.14702   2.14904   2.15628
 Alpha virt. eigenvalues --    2.15965   2.16287   2.16677   2.17054   2.17265
 Alpha virt. eigenvalues --    2.18111   2.18450   2.18945   2.19335   2.19629
 Alpha virt. eigenvalues --    2.19833   2.20607   2.20769   2.21233   2.22239
 Alpha virt. eigenvalues --    2.22356   2.23189   2.24301   2.24925   2.25120
 Alpha virt. eigenvalues --    2.25745   2.26082   2.26437   2.26883   2.27289
 Alpha virt. eigenvalues --    2.27563   2.27987   2.28538   2.28718   2.29398
 Alpha virt. eigenvalues --    2.29525   2.29794   2.30348   2.30656   2.30926
 Alpha virt. eigenvalues --    2.31224   2.31899   2.32443   2.33331   2.33859
 Alpha virt. eigenvalues --    2.34048   2.34318   2.34880   2.35153   2.35380
 Alpha virt. eigenvalues --    2.36164   2.36652   2.37166   2.37360   2.37676
 Alpha virt. eigenvalues --    2.38723   2.38874   2.39651   2.40136   2.41336
 Alpha virt. eigenvalues --    2.41576   2.42531   2.42785   2.43306   2.43459
 Alpha virt. eigenvalues --    2.43801   2.44441   2.44735   2.45456   2.45768
 Alpha virt. eigenvalues --    2.46031   2.46511   2.46796   2.46837   2.47181
 Alpha virt. eigenvalues --    2.47465   2.47612   2.47844   2.48487   2.48996
 Alpha virt. eigenvalues --    2.49171   2.49668   2.50223   2.50723   2.50888
 Alpha virt. eigenvalues --    2.51434   2.51838   2.52441   2.52452   2.53199
 Alpha virt. eigenvalues --    2.53909   2.54067   2.54651   2.55185   2.55317
 Alpha virt. eigenvalues --    2.55935   2.56049   2.56613   2.56943   2.57637
 Alpha virt. eigenvalues --    2.58160   2.58473   2.58729   2.58997   2.59544
 Alpha virt. eigenvalues --    2.59800   2.60026   2.60282   2.60920   2.61375
 Alpha virt. eigenvalues --    2.62333   2.62831   2.63609   2.63946   2.64053
 Alpha virt. eigenvalues --    2.64366   2.65193   2.65227   2.65800   2.66460
 Alpha virt. eigenvalues --    2.67065   2.67219   2.67871   2.68051   2.68534
 Alpha virt. eigenvalues --    2.68964   2.69510   2.70034   2.70251   2.70985
 Alpha virt. eigenvalues --    2.71554   2.71784   2.72496   2.72733   2.73146
 Alpha virt. eigenvalues --    2.73485   2.74036   2.74329   2.74377   2.75651
 Alpha virt. eigenvalues --    2.76009   2.76545   2.76607   2.76871   2.77190
 Alpha virt. eigenvalues --    2.78145   2.78518   2.78785   2.79028   2.79559
 Alpha virt. eigenvalues --    2.79687   2.80183   2.81149   2.81499   2.81892
 Alpha virt. eigenvalues --    2.82319   2.82874   2.83216   2.83641   2.83952
 Alpha virt. eigenvalues --    2.84125   2.84974   2.85235   2.85402   2.86265
 Alpha virt. eigenvalues --    2.86637   2.86710   2.87594   2.87924   2.88220
 Alpha virt. eigenvalues --    2.88511   2.88636   2.89174   2.89438   2.90010
 Alpha virt. eigenvalues --    2.90628   2.90848   2.91486   2.91943   2.92083
 Alpha virt. eigenvalues --    2.92661   2.93877   2.94186   2.94532   2.95139
 Alpha virt. eigenvalues --    2.95431   2.95748   2.95953   2.96295   2.96833
 Alpha virt. eigenvalues --    2.97057   2.97351   2.97907   2.97928   2.98754
 Alpha virt. eigenvalues --    2.99209   2.99339   2.99789   3.00111   3.00369
 Alpha virt. eigenvalues --    3.00891   3.01170   3.01295   3.01833   3.02239
 Alpha virt. eigenvalues --    3.02980   3.03254   3.03437   3.03716   3.04091
 Alpha virt. eigenvalues --    3.04483   3.04841   3.05756   3.06147   3.06825
 Alpha virt. eigenvalues --    3.06975   3.07730   3.07858   3.08132   3.08337
 Alpha virt. eigenvalues --    3.08627   3.09097   3.09324   3.09676   3.09796
 Alpha virt. eigenvalues --    3.10473   3.10956   3.11019   3.11629   3.11980
 Alpha virt. eigenvalues --    3.12249   3.12717   3.13155   3.13350   3.13712
 Alpha virt. eigenvalues --    3.14123   3.14351   3.14647   3.14881   3.15320
 Alpha virt. eigenvalues --    3.15689   3.15900   3.16144   3.16338   3.16684
 Alpha virt. eigenvalues --    3.17392   3.17561   3.18004   3.18421   3.18678
 Alpha virt. eigenvalues --    3.19017   3.19227   3.19463   3.20030   3.20304
 Alpha virt. eigenvalues --    3.20353   3.20562   3.20918   3.21338   3.21512
 Alpha virt. eigenvalues --    3.21878   3.22380   3.22520   3.22673   3.23255
 Alpha virt. eigenvalues --    3.23528   3.23735   3.23988   3.24242   3.24262
 Alpha virt. eigenvalues --    3.24782   3.24979   3.25316   3.25677   3.26140
 Alpha virt. eigenvalues --    3.26510   3.26733   3.27055   3.27429   3.27522
 Alpha virt. eigenvalues --    3.27744   3.28109   3.28192   3.28549   3.28747
 Alpha virt. eigenvalues --    3.29117   3.29458   3.29614   3.30726   3.31107
 Alpha virt. eigenvalues --    3.31587   3.31836   3.32314   3.32491   3.33048
 Alpha virt. eigenvalues --    3.33475   3.33683   3.34343   3.34615   3.34890
 Alpha virt. eigenvalues --    3.35368   3.36019   3.36442   3.36808   3.37141
 Alpha virt. eigenvalues --    3.37440   3.38393   3.39518   3.39878   3.40650
 Alpha virt. eigenvalues --    3.40734   3.41192   3.42087   3.42214   3.42502
 Alpha virt. eigenvalues --    3.43775   3.44331   3.44564   3.45340   3.45612
 Alpha virt. eigenvalues --    3.46180   3.46664   3.46753   3.47557   3.47669
 Alpha virt. eigenvalues --    3.48324   3.49015   3.49684   3.49997   3.50160
 Alpha virt. eigenvalues --    3.51009   3.51203   3.51458   3.52035   3.52513
 Alpha virt. eigenvalues --    3.53117   3.54635   3.54675   3.55202   3.55933
 Alpha virt. eigenvalues --    3.56089   3.56491   3.57714   3.57977   3.58839
 Alpha virt. eigenvalues --    3.58906   3.59692   3.60254   3.60935   3.61022
 Alpha virt. eigenvalues --    3.61769   3.61924   3.62379   3.62606   3.63007
 Alpha virt. eigenvalues --    3.63170   3.63630   3.63932   3.64308   3.65057
 Alpha virt. eigenvalues --    3.65607   3.66280   3.67071   3.67411   3.67542
 Alpha virt. eigenvalues --    3.68363   3.68922   3.69471   3.70676   3.70986
 Alpha virt. eigenvalues --    3.71785   3.72041   3.73285   3.73793   3.74339
 Alpha virt. eigenvalues --    3.74948   3.75454   3.75804   3.76469   3.76812
 Alpha virt. eigenvalues --    3.77485   3.77646   3.78721   3.79455   3.80353
 Alpha virt. eigenvalues --    3.80842   3.81449   3.81644   3.82277   3.84327
 Alpha virt. eigenvalues --    3.85752   3.85937   3.86219   3.87004   3.87602
 Alpha virt. eigenvalues --    3.88064   3.88650   3.88972   3.89428   3.89584
 Alpha virt. eigenvalues --    3.90122   3.91044   3.91304   3.91677   3.92452
 Alpha virt. eigenvalues --    3.92919   3.94075   3.94407   3.95819   3.96213
 Alpha virt. eigenvalues --    3.96951   3.97778   3.98187   3.98441   3.98799
 Alpha virt. eigenvalues --    3.99482   4.00428   4.01000   4.01376   4.02375
 Alpha virt. eigenvalues --    4.03407   4.03553   4.04451   4.04767   4.05641
 Alpha virt. eigenvalues --    4.06395   4.07065   4.07415   4.08187   4.08544
 Alpha virt. eigenvalues --    4.08956   4.09352   4.10264   4.10380   4.10901
 Alpha virt. eigenvalues --    4.11631   4.11893   4.12182   4.12786   4.13886
 Alpha virt. eigenvalues --    4.14803   4.15375   4.16619   4.17706   4.17789
 Alpha virt. eigenvalues --    4.18403   4.18954   4.19428   4.20340   4.20899
 Alpha virt. eigenvalues --    4.21375   4.21974   4.22562   4.23452   4.23727
 Alpha virt. eigenvalues --    4.24064   4.25523   4.25854   4.27014   4.28362
 Alpha virt. eigenvalues --    4.28797   4.29985   4.30212   4.30653   4.30846
 Alpha virt. eigenvalues --    4.31651   4.32004   4.32852   4.33064   4.33937
 Alpha virt. eigenvalues --    4.34172   4.34620   4.35051   4.36388   4.36891
 Alpha virt. eigenvalues --    4.37406   4.38867   4.39958   4.40501   4.40762
 Alpha virt. eigenvalues --    4.41207   4.41982   4.42728   4.43768   4.44689
 Alpha virt. eigenvalues --    4.45356   4.45991   4.47058   4.47726   4.50319
 Alpha virt. eigenvalues --    4.51965   4.52854   4.53953   4.54710   4.56522
 Alpha virt. eigenvalues --    4.56843   4.57320   4.57780   4.58392   4.60750
 Alpha virt. eigenvalues --    4.60782   4.62351   4.62959   4.63807   4.65095
 Alpha virt. eigenvalues --    4.66181   4.67586   4.68842   4.70257   4.71254
 Alpha virt. eigenvalues --    4.71427   4.72205   4.72461   4.72944   4.73893
 Alpha virt. eigenvalues --    4.74464   4.75178   4.76215   4.77269   4.77771
 Alpha virt. eigenvalues --    4.79478   4.80003   4.81308   4.81597   4.82423
 Alpha virt. eigenvalues --    4.83314   4.84994   4.86514   4.88440   4.88651
 Alpha virt. eigenvalues --    4.89216   4.90556   4.91934   4.92085   4.92417
 Alpha virt. eigenvalues --    4.93248   4.95534   4.96222   4.97615   4.98177
 Alpha virt. eigenvalues --    5.02104   5.02403   5.03923   5.05485   5.06285
 Alpha virt. eigenvalues --    5.08176   5.09106   5.10054   5.10797   5.11822
 Alpha virt. eigenvalues --    5.11870   5.13224   5.13594   5.14468   5.16056
 Alpha virt. eigenvalues --    5.16624   5.22733   5.24233   5.25301   5.25911
 Alpha virt. eigenvalues --    5.26343   5.26715   5.27092   5.27582   5.28250
 Alpha virt. eigenvalues --    5.30065   5.35804   5.35910   5.37696   5.38251
 Alpha virt. eigenvalues --    5.39395   5.39592   5.41138   5.43565   5.48654
 Alpha virt. eigenvalues --    5.49158   5.49933   5.50251   5.51079   5.52759
 Alpha virt. eigenvalues --    5.55253   5.55734   5.56440   5.59674   5.64095
 Alpha virt. eigenvalues --    5.64934   5.65747   5.68241   5.74552   5.74959
 Alpha virt. eigenvalues --    5.77324   5.80227   5.88450   5.89343   5.90046
 Alpha virt. eigenvalues --    5.98125   5.98558   5.98971   6.00207   6.05949
 Alpha virt. eigenvalues --    6.12070   6.14087   6.21713   6.22117   6.29209
 Alpha virt. eigenvalues --    6.33771   6.39476   6.40215   6.52667   6.84227
 Alpha virt. eigenvalues --    7.16021   8.95014   9.11805   9.29624  19.47717
 Alpha virt. eigenvalues --   22.20876  22.25906  22.26617  22.36221  22.37013
 Alpha virt. eigenvalues --   22.42825  22.43486  22.52725  22.53336  22.74436
 Alpha virt. eigenvalues --   22.76804  22.81122  22.82212  22.84151  22.84667
 Alpha virt. eigenvalues --   22.85712  22.93607  22.94557  23.05209  23.15917
 Alpha virt. eigenvalues --   23.19139  23.19652  23.28195  23.29954  23.38813
 Alpha virt. eigenvalues --   23.39405  23.44059  23.62735  23.67400  23.67463
 Alpha virt. eigenvalues --   23.76806  32.75761  32.77562  32.84011  32.91597
 Alpha virt. eigenvalues --   43.80444
  Beta  occ. eigenvalues -- -256.40126 -89.07738 -30.22785 -26.07397 -26.07330
  Beta  occ. eigenvalues --  -26.06556 -19.29040 -14.46852 -14.46825 -14.46716
  Beta  occ. eigenvalues --  -14.46514 -10.34833 -10.34784 -10.34779 -10.34544
  Beta  occ. eigenvalues --  -10.33964 -10.33803 -10.33684 -10.33561 -10.33382
  Beta  occ. eigenvalues --  -10.31082 -10.31055 -10.30914 -10.30803 -10.30720
  Beta  occ. eigenvalues --  -10.30706 -10.30472 -10.30467 -10.30274 -10.30103
  Beta  occ. eigenvalues --  -10.29818 -10.29474 -10.28952 -10.28733 -10.28657
  Beta  occ. eigenvalues --  -10.28545 -10.28544 -10.28440 -10.28373 -10.28321
  Beta  occ. eigenvalues --  -10.28180 -10.28063  -8.10718  -6.05276  -6.04977
  Beta  occ. eigenvalues --   -6.04436  -3.56387  -2.32904  -2.32766  -2.29605
  Beta  occ. eigenvalues --   -1.17064  -1.10078  -1.09174  -1.08984  -1.08098
  Beta  occ. eigenvalues --   -0.94293  -0.93283  -0.92920  -0.92492  -0.92009
  Beta  occ. eigenvalues --   -0.91893  -0.91764  -0.91187  -0.87602  -0.86474
  Beta  occ. eigenvalues --   -0.85968  -0.85124  -0.83807  -0.82044  -0.81133
  Beta  occ. eigenvalues --   -0.79518  -0.79264  -0.78991  -0.77940  -0.76127
  Beta  occ. eigenvalues --   -0.75748  -0.72664  -0.71650  -0.70965  -0.69709
  Beta  occ. eigenvalues --   -0.69004  -0.66209  -0.65431  -0.64631  -0.64421
  Beta  occ. eigenvalues --   -0.62895  -0.62831  -0.62528  -0.60308  -0.59265
  Beta  occ. eigenvalues --   -0.59029  -0.58153  -0.57089  -0.56694  -0.55809
  Beta  occ. eigenvalues --   -0.55374  -0.55066  -0.54757  -0.54465  -0.54178
  Beta  occ. eigenvalues --   -0.54134  -0.53979  -0.53497  -0.53331  -0.53185
  Beta  occ. eigenvalues --   -0.52921  -0.51886  -0.51493  -0.51334  -0.51134
  Beta  occ. eigenvalues --   -0.51082  -0.50988  -0.50621  -0.50415  -0.50232
  Beta  occ. eigenvalues --   -0.50043  -0.50008  -0.49428  -0.49023  -0.48668
  Beta  occ. eigenvalues --   -0.48609  -0.48421  -0.48043  -0.47865  -0.47600
  Beta  occ. eigenvalues --   -0.47137  -0.46841  -0.46052  -0.45859  -0.45172
  Beta  occ. eigenvalues --   -0.44588  -0.43619  -0.43225  -0.42847  -0.42745
  Beta  occ. eigenvalues --   -0.41076  -0.40268  -0.39795  -0.38297  -0.37695
  Beta  occ. eigenvalues --   -0.37190  -0.35345  -0.34781  -0.33552  -0.33180
  Beta  occ. eigenvalues --   -0.30623
  Beta virt. eigenvalues --   -0.25542  -0.20999  -0.20164  -0.16981  -0.15985
  Beta virt. eigenvalues --   -0.15745  -0.12297  -0.11702  -0.09770  -0.09346
  Beta virt. eigenvalues --   -0.08036  -0.07555  -0.06167  -0.05668  -0.04656
  Beta virt. eigenvalues --   -0.04246  -0.03414  -0.03044  -0.02790  -0.02392
  Beta virt. eigenvalues --   -0.01642  -0.01517  -0.01055  -0.00597  -0.00430
  Beta virt. eigenvalues --    0.00029   0.00219   0.00609   0.01163   0.01430
  Beta virt. eigenvalues --    0.01557   0.02045   0.02379   0.02522   0.02726
  Beta virt. eigenvalues --    0.03011   0.03243   0.03326   0.03462   0.03765
  Beta virt. eigenvalues --    0.04051   0.04250   0.04522   0.04814   0.04939
  Beta virt. eigenvalues --    0.05204   0.05397   0.05519   0.05813   0.06255
  Beta virt. eigenvalues --    0.06356   0.06577   0.07035   0.07296   0.07385
  Beta virt. eigenvalues --    0.07567   0.07757   0.07965   0.08184   0.08424
  Beta virt. eigenvalues --    0.08587   0.08845   0.09278   0.09728   0.10049
  Beta virt. eigenvalues --    0.10458   0.10514   0.10594   0.11027   0.11110
  Beta virt. eigenvalues --    0.11563   0.11722   0.12002   0.12123   0.12336
  Beta virt. eigenvalues --    0.12963   0.13123   0.13427   0.13687   0.14086
  Beta virt. eigenvalues --    0.14426   0.14879   0.15006   0.15312   0.16025
  Beta virt. eigenvalues --    0.16237   0.16362   0.16480   0.16902   0.17003
  Beta virt. eigenvalues --    0.17201   0.17295   0.17455   0.17708   0.18061
  Beta virt. eigenvalues --    0.18940   0.19029   0.19314   0.19698   0.19872
  Beta virt. eigenvalues --    0.20201   0.20294   0.20590   0.20880   0.21191
  Beta virt. eigenvalues --    0.21437   0.21588   0.21899   0.22167   0.22553
  Beta virt. eigenvalues --    0.22815   0.22977   0.23707   0.23921   0.24083
  Beta virt. eigenvalues --    0.24380   0.24455   0.24616   0.25036   0.25675
  Beta virt. eigenvalues --    0.25956   0.26162   0.26258   0.26804   0.27103
  Beta virt. eigenvalues --    0.27661   0.27995   0.28108   0.28375   0.28842
  Beta virt. eigenvalues --    0.28879   0.29324   0.29446   0.29784   0.29928
  Beta virt. eigenvalues --    0.30185   0.30457   0.30497   0.30847   0.31158
  Beta virt. eigenvalues --    0.31432   0.31697   0.31969   0.32218   0.32356
  Beta virt. eigenvalues --    0.32632   0.32733   0.32939   0.33253   0.33744
  Beta virt. eigenvalues --    0.33958   0.34072   0.34271   0.34634   0.34961
  Beta virt. eigenvalues --    0.35244   0.35295   0.35720   0.36128   0.36431
  Beta virt. eigenvalues --    0.36567   0.36869   0.36947   0.37115   0.37416
  Beta virt. eigenvalues --    0.37606   0.37990   0.38124   0.38335   0.38406
  Beta virt. eigenvalues --    0.38887   0.39203   0.39423   0.39535   0.39712
  Beta virt. eigenvalues --    0.40245   0.40273   0.40660   0.40802   0.41234
  Beta virt. eigenvalues --    0.41380   0.41566   0.41765   0.41939   0.42155
  Beta virt. eigenvalues --    0.42251   0.42897   0.42957   0.43108   0.43275
  Beta virt. eigenvalues --    0.43387   0.43799   0.43996   0.44263   0.44514
  Beta virt. eigenvalues --    0.44545   0.44800   0.45355   0.45557   0.45818
  Beta virt. eigenvalues --    0.46084   0.46342   0.46722   0.46950   0.47491
  Beta virt. eigenvalues --    0.47570   0.47895   0.48019   0.48335   0.49109
  Beta virt. eigenvalues --    0.49413   0.49738   0.50226   0.50439   0.50563
  Beta virt. eigenvalues --    0.51088   0.51379   0.51893   0.52073   0.52407
  Beta virt. eigenvalues --    0.52614   0.53063   0.53430   0.53618   0.53866
  Beta virt. eigenvalues --    0.54086   0.54562   0.54651   0.55057   0.55223
  Beta virt. eigenvalues --    0.55453   0.56076   0.56276   0.56332   0.56924
  Beta virt. eigenvalues --    0.57076   0.57262   0.57655   0.57943   0.58353
  Beta virt. eigenvalues --    0.58852   0.59237   0.59810   0.59936   0.60317
  Beta virt. eigenvalues --    0.60662   0.60995   0.61310   0.61505   0.61921
  Beta virt. eigenvalues --    0.62226   0.62270   0.62470   0.62736   0.63118
  Beta virt. eigenvalues --    0.63681   0.64102   0.64219   0.64588   0.65192
  Beta virt. eigenvalues --    0.65296   0.65631   0.66009   0.66509   0.67055
  Beta virt. eigenvalues --    0.67265   0.67585   0.68021   0.68653   0.68867
  Beta virt. eigenvalues --    0.69087   0.69284   0.69799   0.70782   0.71052
  Beta virt. eigenvalues --    0.71196   0.72218   0.72427   0.72621   0.72883
  Beta virt. eigenvalues --    0.73557   0.73632   0.74155   0.74486   0.74954
  Beta virt. eigenvalues --    0.75159   0.75680   0.76260   0.76455   0.76946
  Beta virt. eigenvalues --    0.77523   0.77762   0.78371   0.78522   0.78738
  Beta virt. eigenvalues --    0.79563   0.80055   0.80726   0.80808   0.81324
  Beta virt. eigenvalues --    0.82078   0.82335   0.82555   0.82896   0.83460
  Beta virt. eigenvalues --    0.83800   0.84088   0.84692   0.84848   0.85446
  Beta virt. eigenvalues --    0.85692   0.85943   0.86309   0.86827   0.87230
  Beta virt. eigenvalues --    0.87856   0.87930   0.88515   0.88612   0.89157
  Beta virt. eigenvalues --    0.89517   0.89854   0.90146   0.90208   0.90605
  Beta virt. eigenvalues --    0.91094   0.91208   0.91649   0.91761   0.92144
  Beta virt. eigenvalues --    0.92435   0.92648   0.93189   0.93562   0.93745
  Beta virt. eigenvalues --    0.94179   0.94679   0.94851   0.95139   0.95683
  Beta virt. eigenvalues --    0.96128   0.96183   0.96675   0.97191   0.97768
  Beta virt. eigenvalues --    0.98075   0.98910   0.99282   0.99547   1.00166
  Beta virt. eigenvalues --    1.01168   1.01526   1.01773   1.02153   1.03019
  Beta virt. eigenvalues --    1.03097   1.04232   1.04696   1.05528   1.06347
  Beta virt. eigenvalues --    1.06760   1.07125   1.07533   1.07895   1.08170
  Beta virt. eigenvalues --    1.08351   1.08793   1.09067   1.09234   1.09872
  Beta virt. eigenvalues --    1.10300   1.10510   1.10919   1.11187   1.11436
  Beta virt. eigenvalues --    1.12027   1.12735   1.13808   1.14560   1.14728
  Beta virt. eigenvalues --    1.14828   1.15606   1.15986   1.16390   1.17055
  Beta virt. eigenvalues --    1.17231   1.17605   1.17814   1.17957   1.18249
  Beta virt. eigenvalues --    1.18610   1.18784   1.19071   1.19700   1.20196
  Beta virt. eigenvalues --    1.20543   1.21576   1.21749   1.22448   1.22554
  Beta virt. eigenvalues --    1.24181   1.24625   1.25088   1.26293   1.26603
  Beta virt. eigenvalues --    1.26917   1.27382   1.27990   1.28600   1.29753
  Beta virt. eigenvalues --    1.30316   1.31051   1.32003   1.32149   1.32302
  Beta virt. eigenvalues --    1.33539   1.33872   1.34107   1.34543   1.35146
  Beta virt. eigenvalues --    1.35674   1.35919   1.36619   1.36879   1.37358
  Beta virt. eigenvalues --    1.37399   1.37630   1.37846   1.38322   1.38947
  Beta virt. eigenvalues --    1.39639   1.39816   1.40160   1.40528   1.40918
  Beta virt. eigenvalues --    1.41067   1.41492   1.41719   1.41886   1.42071
  Beta virt. eigenvalues --    1.42546   1.43094   1.43516   1.43732   1.43840
  Beta virt. eigenvalues --    1.44154   1.44459   1.44502   1.44635   1.45188
  Beta virt. eigenvalues --    1.45453   1.45675   1.45844   1.46255   1.46381
  Beta virt. eigenvalues --    1.46950   1.47383   1.47751   1.48093   1.48242
  Beta virt. eigenvalues --    1.48397   1.48782   1.49005   1.49137   1.49481
  Beta virt. eigenvalues --    1.49886   1.50265   1.50643   1.50960   1.51440
  Beta virt. eigenvalues --    1.51643   1.52134   1.52473   1.52922   1.53179
  Beta virt. eigenvalues --    1.53448   1.53528   1.53787   1.54627   1.54681
  Beta virt. eigenvalues --    1.55114   1.55526   1.55892   1.56165   1.56386
  Beta virt. eigenvalues --    1.56752   1.57120   1.57400   1.57532   1.58038
  Beta virt. eigenvalues --    1.58236   1.58478   1.58928   1.59418   1.59605
  Beta virt. eigenvalues --    1.59985   1.60734   1.60869   1.61468   1.61678
  Beta virt. eigenvalues --    1.62122   1.62568   1.62933   1.63101   1.63462
  Beta virt. eigenvalues --    1.63968   1.64588   1.64889   1.66182   1.66530
  Beta virt. eigenvalues --    1.66808   1.67564   1.67801   1.68470   1.69208
  Beta virt. eigenvalues --    1.69431   1.69827   1.70661   1.71501   1.71934
  Beta virt. eigenvalues --    1.72284   1.72501   1.73009   1.73362   1.74332
  Beta virt. eigenvalues --    1.74736   1.74916   1.75704   1.76248   1.76445
  Beta virt. eigenvalues --    1.76987   1.77204   1.77668   1.77798   1.78297
  Beta virt. eigenvalues --    1.78656   1.79151   1.79575   1.80252   1.80923
  Beta virt. eigenvalues --    1.81217   1.81815   1.82224   1.83028   1.83130
  Beta virt. eigenvalues --    1.83801   1.84168   1.85170   1.85288   1.85709
  Beta virt. eigenvalues --    1.86139   1.86988   1.87350   1.87875   1.88373
  Beta virt. eigenvalues --    1.88676   1.88997   1.89242   1.89761   1.90159
  Beta virt. eigenvalues --    1.90456   1.91009   1.91333   1.92228   1.92400
  Beta virt. eigenvalues --    1.92661   1.92722   1.94616   1.94813   1.95558
  Beta virt. eigenvalues --    1.96220   1.96556   1.96906   1.97400   1.98259
  Beta virt. eigenvalues --    1.98828   1.98917   1.99428   2.00218   2.00582
  Beta virt. eigenvalues --    2.00905   2.01516   2.02146   2.02303   2.03462
  Beta virt. eigenvalues --    2.03651   2.04109   2.04492   2.04896   2.05580
  Beta virt. eigenvalues --    2.05951   2.06814   2.06923   2.07531   2.07799
  Beta virt. eigenvalues --    2.08457   2.08823   2.09089   2.09533   2.10325
  Beta virt. eigenvalues --    2.11034   2.11470   2.12580   2.12888   2.13144
  Beta virt. eigenvalues --    2.13397   2.14513   2.14941   2.15226   2.16032
  Beta virt. eigenvalues --    2.16310   2.16672   2.16928   2.17357   2.17678
  Beta virt. eigenvalues --    2.18454   2.18810   2.19179   2.19667   2.20004
  Beta virt. eigenvalues --    2.20277   2.21049   2.21294   2.21520   2.22629
  Beta virt. eigenvalues --    2.22676   2.23526   2.24895   2.25196   2.25317
  Beta virt. eigenvalues --    2.25949   2.26291   2.26718   2.27169   2.27493
  Beta virt. eigenvalues --    2.27939   2.28280   2.28966   2.29045   2.29714
  Beta virt. eigenvalues --    2.29782   2.30099   2.30723   2.30994   2.31302
  Beta virt. eigenvalues --    2.31606   2.32391   2.32994   2.33729   2.34246
  Beta virt. eigenvalues --    2.34423   2.34785   2.35209   2.35489   2.35684
  Beta virt. eigenvalues --    2.36649   2.37258   2.37438   2.38038   2.38222
  Beta virt. eigenvalues --    2.38964   2.39208   2.39940   2.40474   2.41609
  Beta virt. eigenvalues --    2.41922   2.42794   2.43031   2.43459   2.43706
  Beta virt. eigenvalues --    2.44133   2.44702   2.45007   2.45726   2.45999
  Beta virt. eigenvalues --    2.46375   2.46718   2.47049   2.47089   2.47348
  Beta virt. eigenvalues --    2.47645   2.48004   2.48136   2.48767   2.49171
  Beta virt. eigenvalues --    2.49446   2.49996   2.50491   2.50928   2.51189
  Beta virt. eigenvalues --    2.51678   2.52093   2.52700   2.52756   2.53590
  Beta virt. eigenvalues --    2.54219   2.54495   2.54967   2.55496   2.55758
  Beta virt. eigenvalues --    2.56324   2.56418   2.56945   2.57200   2.57985
  Beta virt. eigenvalues --    2.58482   2.58825   2.59112   2.59212   2.59843
  Beta virt. eigenvalues --    2.60177   2.60305   2.60641   2.61239   2.61735
  Beta virt. eigenvalues --    2.62673   2.63160   2.63885   2.64276   2.64376
  Beta virt. eigenvalues --    2.64715   2.65539   2.65639   2.66139   2.66801
  Beta virt. eigenvalues --    2.67432   2.67541   2.68359   2.68435   2.68935
  Beta virt. eigenvalues --    2.69386   2.69809   2.70495   2.70642   2.71517
  Beta virt. eigenvalues --    2.71879   2.72037   2.72698   2.73043   2.73441
  Beta virt. eigenvalues --    2.73824   2.74365   2.74639   2.74757   2.76000
  Beta virt. eigenvalues --    2.76432   2.76874   2.76910   2.77311   2.77512
  Beta virt. eigenvalues --    2.78510   2.78987   2.79236   2.79444   2.80000
  Beta virt. eigenvalues --    2.80069   2.80660   2.81568   2.81976   2.82377
  Beta virt. eigenvalues --    2.82684   2.83313   2.83715   2.83960   2.84254
  Beta virt. eigenvalues --    2.84550   2.85287   2.85588   2.85918   2.86741
  Beta virt. eigenvalues --    2.86989   2.87250   2.87945   2.88480   2.88565
  Beta virt. eigenvalues --    2.89065   2.89111   2.89521   2.89847   2.90415
  Beta virt. eigenvalues --    2.90951   2.91293   2.91915   2.92332   2.92503
  Beta virt. eigenvalues --    2.93050   2.94335   2.94607   2.94955   2.95553
  Beta virt. eigenvalues --    2.95773   2.96138   2.96416   2.96650   2.97130
  Beta virt. eigenvalues --    2.97376   2.97749   2.98212   2.98356   2.99077
  Beta virt. eigenvalues --    2.99592   2.99757   3.00186   3.00512   3.00668
  Beta virt. eigenvalues --    3.01301   3.01567   3.01801   3.02318   3.02626
  Beta virt. eigenvalues --    3.03255   3.03644   3.03882   3.04155   3.04404
  Beta virt. eigenvalues --    3.04849   3.05280   3.06105   3.06521   3.07169
  Beta virt. eigenvalues --    3.07324   3.08060   3.08189   3.08476   3.08709
  Beta virt. eigenvalues --    3.09001   3.09515   3.09770   3.10018   3.10129
  Beta virt. eigenvalues --    3.10840   3.11282   3.11474   3.12062   3.12301
  Beta virt. eigenvalues --    3.12553   3.13062   3.13638   3.13738   3.14095
  Beta virt. eigenvalues --    3.14392   3.14691   3.15018   3.15272   3.15650
  Beta virt. eigenvalues --    3.16074   3.16296   3.16513   3.16651   3.17079
  Beta virt. eigenvalues --    3.17798   3.17873   3.18316   3.18832   3.19059
  Beta virt. eigenvalues --    3.19369   3.19600   3.19778   3.20257   3.20557
  Beta virt. eigenvalues --    3.20772   3.21099   3.21210   3.21732   3.21896
  Beta virt. eigenvalues --    3.22223   3.22802   3.22944   3.23058   3.23750
  Beta virt. eigenvalues --    3.23909   3.24097   3.24367   3.24618   3.24689
  Beta virt. eigenvalues --    3.25184   3.25382   3.25831   3.26194   3.26612
  Beta virt. eigenvalues --    3.26873   3.27029   3.27360   3.27728   3.27867
  Beta virt. eigenvalues --    3.28161   3.28502   3.28595   3.28979   3.29195
  Beta virt. eigenvalues --    3.29455   3.29851   3.30087   3.31107   3.31612
  Beta virt. eigenvalues --    3.31934   3.32229   3.32801   3.32924   3.33482
  Beta virt. eigenvalues --    3.33883   3.34037   3.34810   3.34954   3.35342
  Beta virt. eigenvalues --    3.35847   3.36445   3.36808   3.37345   3.37569
  Beta virt. eigenvalues --    3.37802   3.38840   3.39970   3.40292   3.41025
  Beta virt. eigenvalues --    3.41232   3.41592   3.42470   3.42639   3.43098
  Beta virt. eigenvalues --    3.44118   3.44675   3.45030   3.45839   3.46144
  Beta virt. eigenvalues --    3.46629   3.47089   3.47218   3.47902   3.48072
  Beta virt. eigenvalues --    3.48775   3.49515   3.50044   3.50391   3.50518
  Beta virt. eigenvalues --    3.51414   3.51670   3.52086   3.52348   3.53332
  Beta virt. eigenvalues --    3.53963   3.54953   3.55214   3.55790   3.56570
  Beta virt. eigenvalues --    3.56614   3.57035   3.57995   3.58450   3.59228
  Beta virt. eigenvalues --    3.59988   3.60119   3.60551   3.61317   3.61513
  Beta virt. eigenvalues --    3.62095   3.62354   3.63186   3.63329   3.63755
  Beta virt. eigenvalues --    3.63783   3.64040   3.64300   3.64719   3.65654
  Beta virt. eigenvalues --    3.65973   3.66887   3.67497   3.68016   3.68484
  Beta virt. eigenvalues --    3.69343   3.69739   3.70297   3.71299   3.72085
  Beta virt. eigenvalues --    3.72400   3.73534   3.73633   3.74739   3.74976
  Beta virt. eigenvalues --    3.75636   3.75897   3.76696   3.77063   3.77627
  Beta virt. eigenvalues --    3.78098   3.78989   3.79424   3.80123   3.80974
  Beta virt. eigenvalues --    3.81746   3.82183   3.82394   3.84214   3.85048
  Beta virt. eigenvalues --    3.86189   3.86488   3.87297   3.88112   3.88402
  Beta virt. eigenvalues --    3.88628   3.89342   3.89746   3.90148   3.90961
  Beta virt. eigenvalues --    3.91722   3.92507   3.92753   3.93491   3.93755
  Beta virt. eigenvalues --    3.94431   3.95504   3.95849   3.96640   3.96971
  Beta virt. eigenvalues --    3.98621   3.98975   3.99362   4.00678   4.01583
  Beta virt. eigenvalues --    4.01884   4.02688   4.03090   4.03235   4.03930
  Beta virt. eigenvalues --    4.04140   4.04906   4.05752   4.05905   4.06371
  Beta virt. eigenvalues --    4.07293   4.07902   4.08277   4.08868   4.09444
  Beta virt. eigenvalues --    4.09724   4.10163   4.11136   4.11271   4.12102
  Beta virt. eigenvalues --    4.12834   4.13614   4.14380   4.15579   4.16294
  Beta virt. eigenvalues --    4.16925   4.17156   4.17748   4.18414   4.18765
  Beta virt. eigenvalues --    4.19246   4.19836   4.20478   4.21438   4.21778
  Beta virt. eigenvalues --    4.22584   4.23282   4.23915   4.24356   4.24873
  Beta virt. eigenvalues --    4.26137   4.26241   4.26801   4.27544   4.29097
  Beta virt. eigenvalues --    4.29342   4.30254   4.30628   4.30956   4.32256
  Beta virt. eigenvalues --    4.32805   4.33571   4.33615   4.34103   4.34607
  Beta virt. eigenvalues --    4.34654   4.35306   4.35580   4.36642   4.37329
  Beta virt. eigenvalues --    4.37836   4.39121   4.40317   4.40661   4.41102
  Beta virt. eigenvalues --    4.41578   4.42480   4.43142   4.44192   4.44973
  Beta virt. eigenvalues --    4.45667   4.46285   4.47474   4.47998   4.50532
  Beta virt. eigenvalues --    4.52364   4.53352   4.54207   4.55281   4.56724
  Beta virt. eigenvalues --    4.57083   4.57555   4.57957   4.58604   4.60951
  Beta virt. eigenvalues --    4.61439   4.62574   4.63119   4.64137   4.65286
  Beta virt. eigenvalues --    4.66494   4.67982   4.69216   4.71136   4.71525
  Beta virt. eigenvalues --    4.71843   4.72420   4.72775   4.73278   4.74255
  Beta virt. eigenvalues --    4.74701   4.75425   4.76451   4.77453   4.78050
  Beta virt. eigenvalues --    4.79737   4.80245   4.81580   4.81866   4.82702
  Beta virt. eigenvalues --    4.83601   4.85268   4.86785   4.88766   4.88954
  Beta virt. eigenvalues --    4.89558   4.90892   4.92268   4.92459   4.92796
  Beta virt. eigenvalues --    4.93610   4.95850   4.96510   4.97874   4.98399
  Beta virt. eigenvalues --    5.02353   5.02635   5.04309   5.05733   5.06550
  Beta virt. eigenvalues --    5.08477   5.09386   5.10291   5.11109   5.12074
  Beta virt. eigenvalues --    5.12241   5.13658   5.13903   5.14781   5.16537
  Beta virt. eigenvalues --    5.16876   5.23088   5.24513   5.25582   5.26207
  Beta virt. eigenvalues --    5.26621   5.26958   5.27340   5.27863   5.28541
  Beta virt. eigenvalues --    5.30331   5.36029   5.36129   5.37723   5.38378
  Beta virt. eigenvalues --    5.39418   5.39645   5.41299   5.43765   5.48742
  Beta virt. eigenvalues --    5.49334   5.50125   5.50474   5.51291   5.52985
  Beta virt. eigenvalues --    5.55381   5.56042   5.56687   5.59789   5.64352
  Beta virt. eigenvalues --    5.65151   5.66029   5.68492   5.74799   5.75116
  Beta virt. eigenvalues --    5.77513   5.80423   5.88508   5.89376   5.90092
[...]
  1205. RY*(   5) H  63                  0.00001     2.93928   
  1242. RY*(   1) C  67                  0.00065     1.40373   
  1243. RY*(   2) C  67                  0.00033     1.13794   
  1244. RY*(   3) C  67                  0.00019     0.95042   
  1245. RY*(   4) C  67                  0.00020     0.73444   
  1246. RY*(   5) C  67                  0.00011     1.42729   
  1247. RY*(   6) C  67                  0.00005     1.11254   
  1248. RY*(   7) C  67                  0.00003     1.21306   
  1249. RY*(   8) C  67                  0.00002     1.49486   
  1250. RY*(   9) C  67                  0.00002     0.85061   
  1251. RY*(  10) C  67                  0.00000    20.86034   
  1252. RY*(  11) C  67                  0.00000     2.47352   
  1253. RY*(  12) C  67                  0.00000     1.67423   
  1254. RY*(  13) C  67                  0.00000     2.95215   
  1255. RY*(  14) C  67                  0.00000     1.29925   
  1256. RY*(  15) C  67                  0.00000     2.89877   
  1257. RY*(  16) C  67                  0.00000     1.68351   
  1258. RY*(  17) C  67                  0.00000     2.98605   
  1259. RY*(  18) C  67                  0.00001     1.59024   
  1260. RY*(  19) C  67                  0.00000     2.80726   
  1261. RY*(  20) C  67                  0.00000     3.50670   
  1262. RY*(  21) C  67                  0.00000     3.03222   
  1263. RY*(  22) C  67                  0.00000     3.25335   
  1264. RY*(  23) C  67                  0.00000     3.13986   
  1265. RY*(  24) C  67                  0.00000     3.26012   
  1266. RY*(  25) C  67                  0.00000     3.03573   
  1267. RY*(  26) C  67                  0.00000     3.36945   
  1268. RY*(   1) H  68                  0.00027     1.55736   
  1269. RY*(   2) H  68                  0.00009     1.66087   
  1270. RY*(   3) H  68                  0.00004     2.11214   
  1271. RY*(   4) H  68                  0.00001     2.86150   
  1272. RY*(   5) H  68                  0.00002     1.53631   
  1273. RY*(   1) H  69                  0.00043     0.86567   
  1274. RY*(   2) H  69                  0.00014     2.21582   
  1275. RY*(   3) H  69                  0.00003     2.45041   
  1276. RY*(   4) H  69                  0.00004     2.39318   
  1277. RY*(   5) H  69                  0.00001     2.23605   
  1278. RY*(   1) H  70                  0.00024     1.21226   
  1279. RY*(   2) H  70                  0.00008     1.34067   
  1280. RY*(   3) H  70                  0.00003     2.01722   
  1281. RY*(   4) H  70                  0.00004     1.89911   
  1282. RY*(   5) H  70                  0.00000     2.83602   
  1283. RY*(   1) S  71                  0.00165     0.56392   
  1284. RY*(   2) S  71                  0.00148     0.62995   
  1285. RY*(   3) S  71                  0.00080     0.64740   
  1286. RY*(   4) S  71                  0.00050     1.00381   
  1287. RY*(   5) S  71                  0.00023     1.08931   
  1288. RY*(   6) S  71                  0.00020     0.70086   
  1289. RY*(   7) S  71                  0.00016     1.44109   
  1290. RY*(   8) S  71                  0.00010     1.39382   
  1291. RY*(   9) S  71                  0.00006     1.33400   
  1292. RY*(  10) S  71                  0.00004     1.27783   
  1293. RY*(  11) S  71                  0.00004     1.69334   
  1294. RY*(  12) S  71                  0.00001     1.53590   
  1295. RY*(  13) S  71                  0.00000     1.63121   
  1296. RY*(  14) S  71                  0.00000    18.28200   
  1297. RY*(  15) S  71                  0.00000     2.25713   
  1298. RY*(  16) S  71                  0.00000     8.50229   
  1299. RY*(  17) S  71                  0.00001     1.52626   
  1300. RY*(  18) S  71                  0.00001     2.40421   
  1301. RY*(  19) S  71                  0.00001     2.55280   
  1302. RY*(  20) S  71                  0.00000     8.27132   
  1303. RY*(  21) S  71                  0.00000     8.39499   
  1304. RY*(  22) S  71                  0.00001     2.03579   
  1305. RY*(  23) S  71                  0.00000     1.98148   
  1306. RY*(  24) S  71                  0.00000     1.92024   
  1307. RY*(  25) S  71                  0.00001     1.99269   
  1308. RY*(  26) S  71                  0.00001     1.94553   
  1309. RY*(  27) S  71                  0.00000     2.01811   
  1310. RY*(  28) S  71                  0.00000     2.07319   
  1311. RY*(   1) H  72                  0.00064     0.94154   
  1312. RY*(   2) H  72                  0.00014     1.62239   
  1313. RY*(   3) H  72                  0.00011     2.01539   
  1314. RY*(   4) H  72                  0.00004     1.86558   
  1315. RY*(   5) H  72                  0.00001     2.49185   
  1316. BD*(   1)Fe   1 - N   2          0.05168     0.16761   
  1317. BD*(   1)Fe   1 - N   3          0.03137     0.24223   
  1318. BD*(   1)Fe   1 - N   5          0.03275     0.24411   
  1319. BD*(   1)Fe   1 - S  71          0.02485     0.11824   
  1320. BD*(   1) N   2 - C   6          0.01463     0.38828   
  1321. BD*(   2) N   2 - C   6          0.24345    -0.09486  1335(v),144(v),288(g)
                                                    1330(r),184(g),141(v),142(v)
                                                    289(g),702(v),140(v)
  1322. BD*(   1) N   2 - C   9          0.01494     0.38221   
  1323. BD*(   1) N   3 - C  10          0.01465     0.38312   
  1324. BD*(   2) N   3 - C  10          0.25501    -0.10189  1343(v),145(v),392(g),141(v)
                                                    210(g),140(v),142(v)
  1325. BD*(   1) N   3 - C  13          0.01406     0.39107   
  1326. BD*(   1) N   4 - C  14          0.01427     0.38378   
  1327. BD*(   2) N   4 - C  14          0.24435    -0.09362  1351(v),146(v),496(g),141(r)
                                                    236(g),140(r),1330(r),765(v)
                                                    139(r)
  1328. BD*(   1) N   4 - C  17          0.01339     0.39216   
  1329. BD*(   1) N   5 - C  18          0.01421     0.39425   
  1330. BD*(   2) N   5 - C  18          0.24698    -0.09552  1359(v),147(v),600(g)
                                                    1321(r),140(v),262(g),796(v)
                                                    1327(r),141(v),142(v)
  1331. BD*(   1) N   5 - C  21          0.01427     0.39097   
  1332. BD*(   1) C   6 - C   7          0.01751     0.37733   
  1333. BD*(   1) C   6 - C  22          0.01053     0.45868   
  1334. BD*(   1) C   7 - C   8          0.01169     0.49167   
  1335. BD*(   2) C   7 - C   8          0.07234    -0.03682   
  1336. BD*(   1) C   7 - C  34          0.00806     0.30831   
  1337. BD*(   1) C   8 - C   9          0.01731     0.37649   
  1338. BD*(   1) C   8 - C  30          0.00824     0.31081   
  1339. BD*(   1) C   9 - C  24          0.01043     0.46786   
  1340. BD*(   1) C  10 - C  11          0.01673     0.38284   
  1341. BD*(   1) C  10 - C  24          0.01040     0.46235   
  1342. BD*(   1) C  11 - C  12          0.01257     0.48086   
  1343. BD*(   2) C  11 - C  12          0.08814    -0.03813   
  1344. BD*(   1) C  11 - C  38          0.00780     0.31407   
  1345. BD*(   1) C  12 - C  13          0.01684     0.37290   
  1346. BD*(   1) C  12 - C  42          0.01328     0.38998   
  1347. BD*(   1) C  13 - C  26          0.01029     0.46146   
  1348. BD*(   1) C  14 - C  15          0.01701     0.38204   
  1349. BD*(   1) C  14 - C  26          0.01049     0.45914   
  1350. BD*(   1) C  15 - C  16          0.01260     0.48247   
  1351. BD*(   2) C  15 - C  16          0.09116    -0.03773   
  1352. BD*(   1) C  15 - C  47          0.00764     0.31289   
  1353. BD*(   1) C  16 - C  17          0.01695     0.37347   
  1354. BD*(   1) C  16 - C  51          0.01340     0.39295   
  1355. BD*(   1) C  17 - C  28          0.01034     0.46904   
  1356. BD*(   1) C  18 - C  19          0.01725     0.37622   
  1357. BD*(   1) C  18 - C  28          0.01025     0.47198   
  1358. BD*(   1) C  19 - C  20          0.01150     0.49950   
  1359. BD*(   2) C  19 - C  20          0.06856    -0.03185   
  1360. BD*(   1) C  19 - C  56          0.00815     0.31502   
  1361. BD*(   1) C  20 - C  21          0.01739     0.37594   
  1362. BD*(   1) C  20 - C  60          0.00802     0.31137   
  1363. BD*(   1) C  21 - C  22          0.01022     0.46108   
  1364. BD*(   1) C  22 - H  23          0.00634     0.31963   
  1365. BD*(   1) C  24 - H  25          0.00675     0.32591   
  1366. BD*(   1) C  26 - H  27          0.00672     0.31957   
  1367. BD*(   1) C  28 - H  29          0.00682     0.32772   
  1368. BD*(   1) C  30 - H  31          0.00292     0.29809   
  1369. BD*(   1) C  30 - H  32          0.00399     0.28658   
  1370. BD*(   1) C  30 - H  33          0.00399     0.28576   
  1371. BD*(   1) C  34 - H  35          0.00452     0.28204   
  1372. BD*(   1) C  34 - H  36          0.00469     0.28222   
  1373. BD*(   1) C  34 - H  37          0.00302     0.29597   
  1374. BD*(   1) C  38 - H  39          0.00468     0.28631   
  1375. BD*(   1) C  38 - H  40          0.00413     0.29332   
  1376. BD*(   1) C  38 - H  41          0.00359     0.30102   
  1377. BD*(   1) C  42 - H  43          0.01033     0.32468   
  1378. BD*(   1) C  42 - C  44          0.00361     0.53430   
  1379. BD*(   2) C  42 - C  44          0.02683    -0.03806   
  1380. BD*(   1) C  44 - H  45          0.00507     0.34128   
  1381. BD*(   1) C  44 - H  46          0.00380     0.34631   
  1382. BD*(   1) C  47 - H  48          0.00525     0.28524   
  1383. BD*(   1) C  47 - H  49          0.00459     0.29032   
  1384. BD*(   1) C  47 - H  50          0.00375     0.30086   
  1385. BD*(   1) C  51 - H  52          0.01001     0.32908   
  1386. BD*(   1) C  51 - C  53          0.00356     0.53812   
  1387. BD*(   2) C  51 - C  53          0.02179    -0.03167   
  1388. BD*(   1) C  53 - H  54          0.00510     0.34552   
  1389. BD*(   1) C  53 - H  55          0.00386     0.35044   
  1390. BD*(   1) C  56 - H  57          0.00408     0.29063   
  1391. BD*(   1) C  56 - H  58          0.00394     0.29101   
  1392. BD*(   1) C  56 - H  59          0.00293     0.30181   
  1393. BD*(   1) C  60 - H  61          0.00457     0.28501   
  1394. BD*(   1) C  60 - H  62          0.00302     0.29947   
  1395. BD*(   1) C  60 - H  63          0.00462     0.28560   
  1398. BD*(   1) C  67 - H  68          0.00360     0.25882   
  1399. BD*(   1) C  67 - H  69          0.00529     0.27011   
  1400. BD*(   1) C  67 - H  70          0.00434     0.26396   
  1401. BD*(   1) C  67 - S  71          0.00510     0.02657   
  1402. BD*(   1) S  71 - H  72          0.00649     0.07249   
       -------------------------------
              Total Lewis  136.72649  ( 96.8919%)
        Valence non-Lewis    4.12948  (  2.9264%)
        Rydberg non-Lewis    0.25651  (  0.1818%)
       -------------------------------
            Total unit  1  141.11247  (100.0000%)
           Charge unit  1    2.88753
 
 Molecular unit  2  (H2O)
    81. BD (   1) O  64 - H  65          0.99344    -0.93287  142(r),139(r),1238(v),156(r)
                                                    1319(r),141(r),161(r),140(r)
                                                    159(r),235(r),237(r),1287(r)
                                                    238(r),186(r),180(r),1316(r)
    82. BD (   1) O  64 - H  66          0.99685    -0.99528  142(r),156(r),141(r),1234(v)
                                                    1319(r),1396(g),140(r)
                                                    139(r),185(r),186(r),183(r)
                                                    161(r),264(r),159(r)
   131. CR (   1) O  64                  0.99991   -19.07911  142(r),1238(v),1234(v)
                                                    1319(r),139(r),159(r)
                                                    1316(r)
   152. LP (   1) O  64                  0.98454    -0.45171  140(r),1317(r),1237(v)
                                                    1318(r),1232(v),141(r)
                                                    212(r),264(r),216(r),268(r)
   153. LP (   2) O  64                  0.90625    -0.61110  142(r),1396(g),1319(r)
                                                    139(r),1238(v),1233(v)
                                                    161(r),1397(g),141(r),140(r)
                                                    263(r),185(r),209(r),183(r)
                                                    210(r),211(r),235(r),261(r)
                                                    262(r),159(r),1316(r),184(r)
                                                    236(r),1289(r),167(r)
                                                    1325(r),1322(r),1320(r)
                                                    1323(r),1329(r),237(r)
                                                    1331(r)
  1206. RY*(   1) O  64                  0.00055     1.01784   
  1207. RY*(   2) O  64                  0.00038     0.64562   
  1208. RY*(   3) O  64                  0.00022     1.10857   
  1209. RY*(   4) O  64                  0.00008     0.81354   
  1210. RY*(   5) O  64                  0.00003     2.51352   
  1211. RY*(   6) O  64                  0.00001     3.15526   
  1212. RY*(   7) O  64                  0.00001     5.26071   
  1213. RY*(   8) O  64                  0.00002     1.98165   
  1214. RY*(   9) O  64                  0.00000    41.61791   
  1215. RY*(  10) O  64                  0.00001     2.21039   
  1216. RY*(  11) O  64                  0.00000     6.08668   
  1217. RY*(  12) O  64                  0.00000     2.67280   
  1218. RY*(  13) O  64                  0.00000     6.43069   
  1219. RY*(  14) O  64                  0.00000     3.34324   
  1220. RY*(  15) O  64                  0.00000     6.31481   
  1221. RY*(  16) O  64                  0.00001     2.49245   
  1222. RY*(  17) O  64                  0.00000     6.18942   
  1223. RY*(  18) O  64                  0.00000     2.47875   
  1224. RY*(  19) O  64                  0.00000     6.29354   
  1225. RY*(  20) O  64                  0.00000     5.23503   
  1226. RY*(  21) O  64                  0.00000     5.57257   
  1227. RY*(  22) O  64                  0.00000     5.05408   
  1228. RY*(  23) O  64                  0.00000     5.37286   
  1229. RY*(  24) O  64                  0.00000     5.24489   
  1230. RY*(  25) O  64                  0.00000     5.35910   
  1231. RY*(  26) O  64                  0.00000     5.39578   
  1232. RY*(   1) H  65                  0.00040     1.88028   
  1233. RY*(   2) H  65                  0.00036     1.03039   
  1234. RY*(   3) H  65                  0.00023     1.89729   
  1235. RY*(   4) H  65                  0.00009     1.89049   
  1236. RY*(   5) H  65                  0.00001     2.77703   
  1237. RY*(   1) H  66                  0.00044     1.89403   
  1238. RY*(   2) H  66                  0.00037     2.06019   
  1239. RY*(   3) H  66                  0.00029     0.68383   
  1240. RY*(   4) H  66                  0.00014     1.94957   
  1241. RY*(   5) H  66                  0.00000     2.89903   
  1396. BD*(   1) O  64 - H  65          0.00161     0.31197   
  1397. BD*(   1) O  64 - H  66          0.00119     0.48522   
       -------------------------------
              Total Lewis    4.88099  ( 99.8678%)
        Valence non-Lewis    0.00280  (  0.0574%)
        Rydberg non-Lewis    0.00366  (  0.0748%)
       -------------------------------
            Total unit  2    4.88744  (100.0000%)
           Charge unit  2    0.11256
 Unable to Open any file for archive entry.
 1\1\GINC-BGN1038\SP\UAPFD\def2TZVP\C31H34Fe1N4O1S1(1+,6)\BECSLEIP\09-S
 ep-2024\0\\# apfd/def2TZVP guess=read scf=maxcycle=999 geom=check pop=
 nbo\\2wgy_III_H\\1,6\Fe,0,60.0976000277,20.1466087475,8.4458726561\N,0
 ,60.3834440174,18.733815404,9.8306632056\N,0,58.8872986726,18.92415565
 55,7.4257329738\N,0,59.9565946954,21.5039457349,6.9635332509\N,0,61.46
 77049658,21.3007921805,9.3367238489\C,0,61.1272128422,18.8383941112,10
 .9634760946\C,0,61.0118499327,17.6393298485,11.7605518318\C,0,60.18598
 65697,16.8012321641,11.0757696612\C,0,59.79696894,17.5053815638,9.8754
 514034\C,0,58.5323829359,17.6557899386,7.7743183721\C,0,57.5827296279,
 17.1131389015,6.8374371819\C,0,57.3527268379,18.0952993632,5.910986384
 \C,0,58.1945479314,19.2113590352,6.2942335899\C,0,59.0678608645,21.474
 8213094,5.932613195\C,0,59.0685464195,22.7249747373,5.2159649115\C,0,6
 0.0065938629,23.5139518014,5.8253344922\C,0,60.5371907956,22.728009051
 3,6.9219786596\C,0,61.951854715,22.4920839617,8.9039522221\C,0,62.9736
 513708,22.9878991773,9.8015774174\C,0,63.0731542806,22.0775409739,10.8
 050420461\C,0,62.1274127481,21.0267343073,10.4933430426\C,0,61.9377651
 791,19.9112269463,11.2859523806\H,0,62.4989135944,19.8512106121,12.205
 6359687\C,0,58.9616532704,16.9841878629,8.9066051422\H,0,58.5819153978
 ,15.9869266036,9.0666877444\C,0,58.253527565,20.4065094181,5.605888841
 9\H,0,57.6049848088,20.5206287795,4.751387923\C,0,61.520635871,23.1734
 468437,7.7841086832\H,0,61.9491848984,24.1459650434,7.5988757359\C,0,5
 9.7295662802,15.4278267964,11.4300061462\H,0,60.1601976408,15.10989635
 3,12.3761523929\H,0,60.026902707,14.7141835609,10.6612777187\H,0,58.64
 32832668,15.3944391102,11.518934517\C,0,61.7010501026,17.4290379034,13
 .0643879326\H,0,61.4132178123,18.200951363,13.7785606637\H,0,62.783257
 4897,17.473435567,12.937849561\H,0,61.4456158299,16.4599040604,13.4857
 03564\C,0,57.0389527204,15.727895665,6.8720983098\H,0,56.2040594931,15
 .6528137463,7.5709401557\H,0,57.805518738,15.0206172016,7.1854627139\H
 ,0,56.6849913417,15.4427405286,5.8835098528\C,0,56.4940128639,18.07286
 25498,4.7475609045\H,0,56.8485926806,18.6372702105,3.8931159047\C,0,55
 .3316064851,17.4347791592,4.660541144\H,0,54.9076483034,16.898355516,5
 .4914795927\H,0,54.7475141888,17.4507478603,3.7554873183\C,0,58.257788
 4445,23.018898564,4.0029756114\H,0,57.2381155261,23.2943175069,4.27666
 67241\H,0,58.2076485098,22.1481904226,3.3507601627\H,0,58.7005415519,2
 3.843713872,3.4487076562\C,0,60.4273296385,24.8581021302,5.4953793564\
 H,0,61.4750830808,25.0763929298,5.6670180357\C,0,59.6394619349,25.8157
 3747,5.0183712811\H,0,58.5829594989,25.6698806908,4.8759912388\H,0,60.
 0228660581,26.7941310667,4.7806679397\C,0,63.7151237836,24.2646811327,
 9.6047290539\H,0,63.02792833,25.1110641298,9.6180397577\H,0,64.2318586
 859,24.2635298287,8.6450374728\H,0,64.4519136931,24.4095347693,10.3909
 214126\C,0,63.9598681062,22.0830266707,12.0024474237\H,0,63.368108044,
 22.0566479213,12.9177197444\H,0,64.5773257385,22.9773900326,12.0208715
 62\H,0,64.6161014812,21.2122518299,11.998864104\O,0,61.793,19.137,7.38
 9\H,0,62.029,18.409,7.964\H,0,62.154,19.32,6.597\C,0,58.0543218991,20.
 3445746348,11.179060011\H,0,58.889299983,20.6393390622,11.8058852176\H
 ,0,58.0542623083,19.2680424304,11.0505082843\H,0,57.1195209926,20.6898
 633439,11.6096126816\S,0,58.3073179332,21.1637539701,9.56312194\H,0,57
 .2776295451,20.5558234107,8.9608824282\\Version=ES64L-G16RevC.02\State
 =6-A\HF=-3156.936693\S2=8.852289\S2-1=0.\S2A=8.75302\RMSD=8.034e-09\Di
 pole=0.051295,-0.4934112,0.560667\Quadrupole=-5.5226309,2.1001294,3.42
 25015,11.9540166,15.9688792,-10.8407777\PG=C01 [X(C31H34Fe1N4O1S1)]\\@
 The archive entry for this job was punched.


    WHAT WE HAVE LEARNED
 IS LIKE A HANDFUL OF EARTH;
  WHAT WE HAVE YET TO LEARN
   IS LIKE THE WHOLE WORLD.

         -- AVVAYIAR
 Job cpu time:       2 days  3 hours 53 minutes 24.8 seconds.
 Elapsed time:       0 days  0 hours 47 minutes 52.7 seconds.
 File lengths (MBytes):  RWF=   1815 Int=      0 D2E=      0 Chk=    164 Scr=      1
 Normal termination of Gaussian 16 at Mon Sep  9 19:11:54 2024.
