 Entering Gaussian System, Link 0=g16
 Input=2x0805re.com
 Output=2x0805re.log
 Initial command:
 /sw/chem/gaussian/g16_C02/a100/g16/l1.exe "/local/becsleip_8009314/Gau-3976223.inp" -scrdir="/local/becsleip_8009314/"
 Entering Link 1 = /sw/chem/gaussian/g16_C02/a100/g16/l1.exe PID=   3976224.
  
 Copyright (c) 1988-2021, Gaussian, Inc.  All Rights Reserved.
  
 This is part of the Gaussian(R) 16 program.  It is based on
 the Gaussian(R) 09 system (copyright 2009, Gaussian, Inc.),
 the Gaussian(R) 03 system (copyright 2003, Gaussian, Inc.),
 the Gaussian(R) 98 system (copyright 1998, Gaussian, Inc.),
 the Gaussian(R) 94 system (copyright 1995, Gaussian, Inc.),
 the Gaussian 92(TM) system (copyright 1992, Gaussian, Inc.),
 the Gaussian 90(TM) system (copyright 1990, Gaussian, Inc.),
 the Gaussian 88(TM) system (copyright 1988, Gaussian, Inc.),
 the Gaussian 86(TM) system (copyright 1986, Carnegie Mellon
 University), and the Gaussian 82(TM) system (copyright 1983,
 Carnegie Mellon University). Gaussian is a federally registered
 trademark of Gaussian, Inc.
  
 This software contains proprietary and confidential information,
 including trade secrets, belonging to Gaussian, Inc.
  
 This software is provided under written license and may be
 used, copied, transmitted, or stored only in accord with that
 written license.
  
 The following legend is applicable only to US Government
 contracts under FAR:
  
                    RESTRICTED RIGHTS LEGEND
  
 Use, reproduction and disclosure by the US Government is
 subject to restrictions as set forth in subparagraphs (a)
 and (c) of the Commercial Computer Software - Restricted
 Rights clause in FAR 52.227-19.
  
 Gaussian, Inc.
 340 Quinnipiac St., Bldg. 40, Wallingford CT 06492
  
  
 ---------------------------------------------------------------
 Warning -- This program may not be used in any manner that
 competes with the business of Gaussian, Inc. or will provide
 assistance to any competitor of Gaussian, Inc.  The licensee
 of this program is prohibited from giving any competitor of
 Gaussian, Inc. access to this program.  By using this program,
 the user acknowledges that Gaussian, Inc. is engaged in the
 business of creating and licensing software in the field of
 computational chemistry and represents and warrants to the
 licensee that it is not a competitor of Gaussian, Inc. and that
 it will not use this program in any manner prohibited above.
 ---------------------------------------------------------------
  

 Cite this work as:
 Gaussian 16, Revision C.02,
 M. J. Frisch, G. W. Trucks, H. B. Schlegel, G. E. Scuseria, 
 M. A. Robb, J. R. Cheeseman, G. Scalmani, V. Barone, 
 G. A. Petersson, H. Nakatsuji, X. Li, M. Caricato, A. V. Marenich, 
 J. Bloino, B. G. Janesko, R. Gomperts, B. Mennucci, H. P. Hratchian, 
 J. V. Ortiz, A. F. Izmaylov, J. L. Sonnenberg, D. Williams-Young, 
 F. Ding, F. Lipparini, F. Egidi, J. Goings, B. Peng, A. Petrone, 
 T. Henderson, D. Ranasinghe, V. G. Zakrzewski, J. Gao, N. Rega, 
 G. Zheng, W. Liang, M. Hada, M. Ehara, K. Toyota, R. Fukuda, 
 J. Hasegawa, M. Ishida, T. Nakajima, Y. Honda, O. Kitao, H. Nakai, 
 T. Vreven, K. Throssell, J. A. Montgomery, Jr., J. E. Peralta, 
 F. Ogliaro, M. J. Bearpark, J. J. Heyd, E. N. Brothers, K. N. Kudin, 
 V. N. Staroverov, T. A. Keith, R. Kobayashi, J. Normand, 
 K. Raghavachari, A. P. Rendell, J. C. Burant, S. S. Iyengar, 
 J. Tomasi, M. Cossi, J. M. Millam, M. Klene, C. Adamo, R. Cammi, 
 J. W. Ochterski, R. L. Martin, K. Morokuma, O. Farkas, 
 J. B. Foresman, and D. J. Fox, Gaussian, Inc., Wallingford CT, 2019.
 
 ******************************************
 Gaussian 16:  ES64L-G16RevC.02  7-Dec-2021
                 9-Sep-2024 
 ******************************************
 %mem=16GB
 %CPU=0-71
 SetSPE:  set environment variable "OMP_PROC_BIND" = "true"
 SetSPE:  set environment variable "OMP_PLACES" = "{0},{1},{2},{3},{4},{5},{6},{7},{8},{9},{10},{11},{12},{13},{14},{15},{16},{17},{18},{19},{20},{21},{22},{23},{24},{25},{26},{27},{28},{29},{30},{31},{32},{33},{34},{35},{36},{37},{38},{39},{40},{41},{42},{43},{44},{45},{46},{47},{48},{49},{50},{51},{52},{53},{54},{55},{56},{57},{58},{59},{60},{61},{62},{63},{64},{65},{66},{67},{68},{69},{70},{71}"
 Will use up to   72 processors via shared memory.
 %gpucpu=0,1,2,3=0,1,2,3
 Will use    4 GPUs:
 Thread  CPU   GPU
      0    0     0
      1    1     1
      2    2     2
      3    3     3
      4    4    -1
      5    5    -1
      6    6    -1
      7    7    -1
      8    8    -1
      9    9    -1
     10   10    -1
     11   11    -1
     12   12    -1
     13   13    -1
     14   14    -1
     15   15    -1
     16   16    -1
     17   17    -1
     18   18    -1
     19   19    -1
     20   20    -1
     21   21    -1
     22   22    -1
     23   23    -1
     24   24    -1
     25   25    -1
     26   26    -1
     27   27    -1
     28   28    -1
     29   29    -1
     30   30    -1
     31   31    -1
     32   32    -1
     33   33    -1
     34   34    -1
     35   35    -1
     36   36    -1
     37   37    -1
     38   38    -1
     39   39    -1
     40   40    -1
     41   41    -1
     42   42    -1
     43   43    -1
     44   44    -1
     45   45    -1
     46   46    -1
     47   47    -1
     48   48    -1
     49   49    -1
     50   50    -1
     51   51    -1
     52   52    -1
     53   53    -1
     54   54    -1
     55   55    -1
     56   56    -1
     57   57    -1
     58   58    -1
     59   59    -1
     60   60    -1
     61   61    -1
     62   62    -1
     63   63    -1
     64   64    -1
     65   65    -1
     66   66    -1
     67   67    -1
     68   68    -1
     69   69    -1
     70   70    -1
     71   71    -1
 SetGPE:  set environment variable "OMP_PROC_BIND" = "true"
 SetGPE:  set environment variable "OMP_PLACES" = "{0},{1},{2},{3},{4},{5},{6},{7},{8},{9},{10},{11},{12},{13},{14},{15},{16},{17},{18},{19},{20},{21},{22},{23},{24},{25},{26},{27},{28},{29},{30},{31},{32},{33},{34},{35},{36},{37},{38},{39},{40},{41},{42},{43},{44},{45},{46},{47},{48},{49},{50},{51},{52},{53},{54},{55},{56},{57},{58},{59},{60},{61},{62},{63},{64},{65},{66},{67},{68},{69},{70},{71}"
 %oldchk=2x08_II_S.chk
 %chk=2x08_II_Sre.chk
 Properties for Device   0
 Minimum vector length:                              32
 Maximum vector length:                            1024
 Number of SMPs:                                    108
 Maximum number of threads per SMP:                2048
 Number of ASync Engines:                             5
 Memory:                                           9207742464
 Properties for Device   1
 Minimum vector length:                              32
 Maximum vector length:                            1024
 Number of SMPs:                                    108
 Maximum number of threads per SMP:                2048
 Number of ASync Engines:                             5
 Memory:                                           9207742464
 Properties for Device   2
 Minimum vector length:                              32
 Maximum vector length:                            1024
 Number of SMPs:                                    108
 Maximum number of threads per SMP:                2048
 Number of ASync Engines:                             5
 Memory:                                           9207742464
 Properties for Device   3
 Minimum vector length:                              32
 Maximum vector length:                            1024
 Number of SMPs:                                    108
 Maximum number of threads per SMP:                2048
 Number of ASync Engines:                             5
 Memory:                                           9207742464
   8286968217 words of memory will be used on each GPU.
 Copying data from "2x08_II_S.chk" to current chk file "2x08_II_Sre.chk"
 IOpt=  2 FromEx=T IUOpen= 4 IOptOp= 5 NList=   0 IFRang= 0 IUIn= 4 IUOut= 2.
 --------------------------------------
 # apfd/gen scf=maxcycle=999 geom=check
 --------------------------------------
 1/29=2,38=1,172=1/1;
 2/12=2,40=1/2;
 3/5=7,11=2,14=-4,25=1,30=1,74=-44/1,2,3;
 4//1;
 5/5=2,7=999,38=5/2;
 6/7=2,8=2,9=2,10=2,28=1/1;
 99/5=1,9=1/99;
 ---------
 2x08_II_Q
 ---------
 Structure from the checkpoint file:  "2x08_II_Sre.chk"
 Charge =  0 Multiplicity = 5
 Z-Matrix found in chk file.
 Fe,0,-12.2786531619,-1.4472546879,1.3147122989
 N,0,-12.8338955556,0.3591808763,0.5940539215
 N,0,-10.571545342,-1.2860060894,0.2530545877
 N,0,-11.6691148745,-3.1724317002,2.0603062884
 N,0,-13.8812629226,-1.4398477001,2.5056967082
 C,0,-13.9773197678,1.0295233043,0.9008882319
 C,0,-13.954066987,2.3641454151,0.3464105277
 C,0,-12.7728549843,2.4817275306,-0.3184695142
 C,0,-12.0917041162,1.2165154167,-0.160637925
 C,0,-10.180308987,-0.2640055533,-0.5545340391
 C,0,-8.9933959147,-0.6118812572,-1.2916959706
 C,0,-8.6645226136,-1.8864063834,-0.9106078536
 C,0,-9.6577419055,-2.2757424778,0.0724616157
 C,0,-10.5198684921,-3.8337440136,1.7599718689
 C,0,-10.347137412,-4.9765741627,2.620080844
 C,0,-11.4230590635,-4.9860366634,3.4687885017
 C,0,-12.2361094588,-3.8438379431,3.094660749
 C,0,-14.2467322167,-2.4544608998,3.3327190948
 C,0,-15.6123236886,-2.2856106997,3.7791701537
 C,0,-16.0617503167,-1.1384898748,3.2026163017
 C,0,-14.966677111,-0.6288499289,2.4072469099
 C,0,-15.0160356645,0.5406454266,1.6742577989
 H,0,-15.9097352468,1.1416614193,1.7466425351
 C,0,-10.8492562187,0.9409446573,-0.6953273993
 H,0,-10.3949681698,1.6984488437,-1.3157263039
 C,0,-9.63562218,-3.4754305855,0.7565286075
 H,0,-8.8265870688,-4.1574268227,0.5433198778
 C,0,-13.4418961292,-3.5219755645,3.6921754492
 H,0,-13.8248778574,-4.2001940069,4.4400958363
 C,0,-12.2211056743,3.6466228825,-1.0671952037
 H,0,-12.9087660163,4.4881273608,-1.0345198541
 H,0,-12.0492998307,3.3853469087,-2.1118126318
 H,0,-11.2700443042,3.9639282486,-0.6385975012
 C,0,-15.0462572982,3.3641469726,0.5151874713
 H,0,-15.2122763322,3.576255263,1.5716358198
 H,0,-15.9795984395,2.9865289211,0.0968072284
 H,0,-14.7991056527,4.2965239544,0.0133651856
 C,0,-8.2591462666,0.2984421207,-2.2136826935
 H,0,-8.2599716198,1.317827623,-1.8299145501
 H,0,-8.7210583947,0.3109353688,-3.2026716155
 H,0,-7.2278862031,-0.0317756763,-2.3209780264
 C,0,-7.5573017456,-2.7098731253,-1.3407581504
 H,0,-7.1544676758,-3.3822843743,-0.592355801
 C,0,-7.0193862999,-2.7090174017,-2.5564829715
 H,0,-7.4058832003,-2.099650656,-3.3546734237
 H,0,-6.1836004493,-3.3428153875,-2.8026908008
 C,0,-9.1672709327,-5.8850685858,2.6094507298
 H,0,-8.2564727629,-5.3306383415,2.3894077144
 H,0,-9.2814384443,-6.661840181,1.851342703
 H,0,-9.0566376096,-6.3661167402,3.579312681
 C,0,-11.7300530954,-5.8950767799,4.5502413446
 H,0,-12.2567849727,-5.4590930281,5.3913658293
 C,0,-11.4293364761,-7.1897232702,4.5812406863
 H,0,-10.9509038679,-7.6870875272,3.7558710141
 H,0,-11.6778486106,-7.8055057694,5.4298493731
 C,0,-16.3197827345,-3.2229037979,4.6968238756
 H,0,-15.8003130306,-3.2878901824,5.6532233886
 H,0,-16.3599492121,-4.2240608212,4.2670558346
 H,0,-17.3372361723,-2.8881715395,4.8833213509
 C,0,-17.3963510436,-0.4842357826,3.3106786682
 H,0,-18.0702991022,-1.0764525387,3.9248285125
 H,0,-17.8452404082,-0.3632831309,2.3248525713
 H,0,-17.3019218869,0.5040828593,3.7618462471
 O,0,-11.235,-0.266,2.952
 H,0,-11.556,0.624,2.806
 H,0,-10.646,-0.518,3.568
 C,0,-15.5306194056,-4.7857797192,-1.728600359
 H,0,-15.0459888527,-5.4787424098,-2.4163095011
 H,0,-16.3851805699,-4.3413187415,-2.2385875263
 H,0,-15.8890580902,-5.3430508325,-0.8689138682
 N,0,-13.9932682886,-2.8546687935,-2.1487469016
 H,0,-14.1359625386,-2.8268631,-3.1449426461
 C,0,-14.5804109869,-3.7367495836,-1.2799000902
 C,0,-13.1917973581,-2.0395833418,-1.4258848739
 H,0,-12.6038739528,-1.2482621338,-1.8428955471
 N,0,-13.2362448732,-2.3521697414,-0.1532515276
 C,0,-14.0952276544,-3.4066539785,-0.046878409
 H,0,-14.3050593237,-3.852080331,0.9036941679
 Recover connectivity data from disk.
 Stoichiometry    C34H36FeN6O(5)
 Framework group  C1[X(C34H36FeN6O)]
 Deg. of freedom   228
 Full point group                 C1      NOp   1
 Largest Abelian subgroup         C1      NOp   1
 Largest concise Abelian subgroup C1      NOp   1
                         Standard orientation:                         
 ---------------------------------------------------------------------
 Center     Atomic      Atomic             Coordinates (Angstroms)
 Number     Number       Type             X           Y           Z
 ---------------------------------------------------------------------
      1         26           0        0.040084   -0.162219   -0.382131
      2          7           0        1.329858   -1.720204   -0.386080
      3          7           0        1.627013    1.081945   -0.414529
      4          7           0       -1.190361    1.381753   -0.458534
      5          7           0       -1.476952   -1.446446   -0.572444
      6          6           0        0.996344   -3.039073   -0.402806
      7          6           0        2.169916   -3.862713   -0.585963
      8          6           0        3.227271   -3.010098   -0.664702
      9          6           0        2.683908   -1.677534   -0.528066
     10          6           0        2.947314    0.755889   -0.430085
     11          6           0        3.770937    1.922626   -0.246900
     12          6           0        2.911981    2.982467   -0.117544
     13          6           0        1.576967    2.429789   -0.247081
     14          6           0       -0.852726    2.698674   -0.453509
     15          6           0       -2.010894    3.524948   -0.680670
     16          6           0       -3.069376    2.669196   -0.839749
     17          6           0       -2.525956    1.331539   -0.694804
     18          6           0       -2.792849   -1.107060   -0.586872
     19          6           0       -3.625369   -2.272715   -0.384819
     20          6           0       -2.776862   -3.327527   -0.251806
     21          6           0       -1.439683   -2.788804   -0.366972
     22          6           0       -0.287377   -3.547659   -0.305677
     23          1           0       -0.394785   -4.618660   -0.224563
     24          6           0        3.449093   -0.529020   -0.558329
     25          1           0        4.519901   -0.645750   -0.627824
     26          6           0        0.424473    3.190999   -0.244804
     27          1           0        0.531955    4.260178   -0.142740
     28          6           0       -3.285536    0.176335   -0.750318
     29          1           0       -4.355354    0.286775   -0.846931
     30          6           0        4.673356   -3.312811   -0.862691
     31          1           0        4.835350   -4.384132   -0.952710
     32          1           0        5.261161   -2.947361   -0.020112
     33          1           0        5.046666   -2.832185   -1.767420
     34          6           0        2.148665   -5.350740   -0.667779
     35          1           0        1.526261   -5.680317   -1.500021
     36          1           0        1.740708   -5.779105    0.248102
     37          1           0        3.151413   -5.745353   -0.812740
     38          6           0        5.259761    1.934942   -0.280383
     39          1           0        5.633802    1.241773   -1.032737
     40          1           0        5.676191    1.640667    0.684814
     41          1           0        5.619264    2.933932   -0.518773
     42          6           0        3.213761    4.382207    0.079229
     43          1           0        2.521776    5.079891   -0.377840
     44          6           0        4.243985    4.861696    0.769207
     45          1           0        4.937173    4.220749    1.285436
     46          1           0        4.414454    5.921426    0.862849
     47          6           0       -1.992913    5.009080   -0.801450
     48          1           0       -1.082345    5.344111   -1.295399
     49          1           0       -2.036461    5.479822    0.182238
     50          1           0       -2.848943    5.347694   -1.381822
     51          6           0       -4.455169    2.967521   -1.123859
     52          1           0       -4.976734    2.233113   -1.726880
     53          6           0       -5.117081    4.041105   -0.703394
     54          1           0       -4.665806    4.778471   -0.062968
     55          1           0       -6.148953    4.205485   -0.966648
     56          6           0       -5.115031   -2.246918   -0.348085
     57          1           0       -5.515144   -1.872890   -1.290839
     58          1           0       -5.468294   -1.593687    0.450114
     59          1           0       -5.515589   -3.243399   -0.178921
     60          6           0       -3.084846   -4.767308   -0.021458
     61          1           0       -4.156104   -4.923848    0.078581
     62          1           0       -2.598410   -5.123135    0.886701
     63          1           0       -2.727116   -5.372629   -0.855039
     64          8           0        0.212958   -0.253711   -2.646426
     65          1           0        0.692820   -1.069961   -2.787584
     66          1           0       -0.050970    0.316423   -3.275051
     67          6           0       -1.600195   -0.229345    4.936493
     68          1           0       -1.352209    0.632457    5.556015
     69          1           0       -1.413516   -1.132068    5.518000
     70          1           0       -2.656015   -0.186723    4.688463
     71          7           0        0.571669   -0.313739    3.693495
     72          1           0        1.154152   -0.377499    4.512146
     73          6           0       -0.796090   -0.230633    3.688252
     74          6           0        0.988536   -0.290445    2.407054
     75          1           0        2.014203   -0.341460    2.105153
     76          7           0       -0.031788   -0.197782    1.588742
     77          6           0       -1.148771   -0.158740    2.371000
     78          1           0       -2.123691   -0.083348    1.935260
 ---------------------------------------------------------------------
 Rotational constants (GHZ):           0.0936315           0.0915263           0.0596057
 General basis read from cards:  (5D, 7F)
 There are   723 symmetry adapted cartesian basis functions of A   symmetry.
 There are   679 symmetry adapted basis functions of A   symmetry.
   679 basis functions,  1378 primitive gaussians,   723 cartesian basis functions
   160 alpha electrons      156 beta electrons
       nuclear repulsion energy      5974.4602363630 Hartrees.
 NAtoms=   78 NActive=   78 NUniq=   78 SFac= 1.00D+00 NAtFMM=   60 NAOKFM=T Big=T
 Integral buffers will be    131072 words long.
 Raffenetti 2 integral format.
 Two-electron integral symmetry is turned on.
 R6APFD:  NTU= -4 IXU= 1 FactS= 1.050
 Nuclear repulsion after empirical dispersion term =     5974.3065515799 Hartrees.
 One-electron integrals computed using PRISM.
 NBasis=   679 RedAO= T EigKep=  2.63D-04  NBF=   679
 NBsUse=   679 1.00D-06 EigRej= -1.00D+00 NBFU=   679
 ExpMin= 4.20D-02 ExpMax= 3.01D+05 ExpMxC= 2.91D+03 IAcc=3 IRadAn=         5 AccDes= 0.00D+00
 Harris functional with IExCor= 3731 and IRadAn=       5 diagonalized for initial guess.
 HarFok:  IExCor= 3731 AccDes= 0.00D+00 IRadAn=         5 IDoV= 1 UseB2=F ITyADJ=14
 ICtDFT=  3500011 ScaDFX=  1.000000  1.000000  1.000000  1.000000
 FoFCou: FMM=F IPFlag=           0 FMFlag=      100000 FMFlg1=        2001
         NFxFlg=           0 DoJE=T BraDBF=F KetDBF=T FulRan=T
         wScrn=  0.000000 ICntrl=       500 IOpCl=  0 I1Cent=   200000004 NGrid=           0
         NMat0=    1 NMatS0=      1 NMatT0=    0 NMatD0=    1 NMtDS0=    0 NMtDT0=    0
 Petite list used in FoFCou.
 Initial guess <Sx>= 0.0000 <Sy>= 0.0000 <Sz>= 2.0000 <S**2>= 6.0000 S= 2.0000
 Requested convergence on RMS density matrix=1.00D-08 within 999 cycles.
 Requested convergence on MAX density matrix=1.00D-06.
 Requested convergence on             energy=1.00D-06.
 No special actions if energy rises.
 EnCoef did   100 forward-backward iterations
 EnCoef did   100 forward-backward iterations
 EnCoef did   100 forward-backward iterations
 EnCoef did   100 forward-backward iterations
 EnCoef did     3 forward-backward iterations
 EnCoef did     2 forward-backward iterations
 Rare condition: small coef for last iteration:  0.000D+00
 Restarting incremental Fock formation.
 Rare condition: small coef for last iteration:  0.000D+00
 Restarting incremental Fock formation.
 SCF Done:  E(UAPFD) =  -2983.37541578     A.U. after   56 cycles
            NFock= 56  Conv=0.21D-08     -V/T= 2.0033
 <Sx>= 0.0000 <Sy>= 0.0000 <Sz>= 2.0000 <S**2>= 6.1540 S= 2.0306
 <L.S>=  0.00000000000    
 Annihilation of the first spin contaminant:
 S**2 before annihilation     6.1540,   after     6.0006

 **********************************************************************

            Population analysis using the SCF Density.

 **********************************************************************

 Orbital symmetries:
 Alpha Orbitals:
       Occupied  (A) (A) (A) (A) (A) (A) (A) (A) (A) (A) (A) (A)
                 (A) (A) (A) (A) (A) (A) (A) (A) (A) (A) (A) (A)
                 (A) (A) (A) (A) (A) (A) (A) (A) (A) (A) (A) (A)
                 (A) (A) (A) (A) (A) (A) (A) (A) (A) (A) (A) (A)
                 (A) (A) (A) (A) (A) (A) (A) (A) (A) (A) (A) (A)
                 (A) (A) (A) (A) (A) (A) (A) (A) (A) (A) (A) (A)
                 (A) (A) (A) (A) (A) (A) (A) (A) (A) (A) (A) (A)
                 (A) (A) (A) (A) (A) (A) (A) (A) (A) (A) (A) (A)
                 (A) (A) (A) (A) (A) (A) (A) (A) (A) (A) (A) (A)
                 (A) (A) (A) (A) (A) (A) (A) (A) (A) (A) (A) (A)
                 (A) (A) (A) (A) (A) (A) (A) (A) (A) (A) (A) (A)
                 (A) (A) (A) (A) (A) (A) (A) (A) (A) (A) (A) (A)
                 (A) (A) (A) (A) (A) (A) (A) (A) (A) (A) (A) (A)
                 (A) (A) (A) (A)
       Virtual   (A) (A) (A) (A) (A) (A) (A) (A) (A) (A) (A) (A)
                 (A) (A) (A) (A) (A) (A) (A) (A) (A) (A) (A) (A)
                 (A) (A) (A) (A) (A) (A) (A) (A) (A) (A) (A) (A)
                 (A) (A) (A) (A) (A) (A) (A) (A) (A) (A) (A) (A)
                 (A) (A) (A) (A) (A) (A) (A) (A) (A) (A) (A) (A)
                 (A) (A) (A) (A) (A) (A) (A) (A) (A) (A) (A) (A)
                 (A) (A) (A) (A) (A) (A) (A) (A) (A) (A) (A) (A)
                 (A) (A) (A) (A) (A) (A) (A) (A) (A) (A) (A) (A)
                 (A) (A) (A) (A) (A) (A) (A) (A) (A) (A) (A) (A)
                 (A) (A) (A) (A) (A) (A) (A) (A) (A) (A) (A) (A)
                 (A) (A) (A) (A) (A) (A) (A) (A) (A) (A) (A) (A)
                 (A) (A) (A) (A) (A) (A) (A) (A) (A) (A) (A) (A)
                 (A) (A) (A) (A) (A) (A) (A) (A) (A) (A) (A) (A)
                 (A) (A) (A) (A) (A) (A) (A) (A) (A) (A) (A) (A)
                 (A) (A) (A) (A) (A) (A) (A) (A) (A) (A) (A) (A)
                 (A) (A) (A) (A) (A) (A) (A) (A) (A) (A) (A) (A)
                 (A) (A) (A) (A) (A) (A) (A) (A) (A) (A) (A) (A)
                 (A) (A) (A) (A) (A) (A) (A) (A) (A) (A) (A) (A)
                 (A) (A) (A) (A) (A) (A) (A) (A) (A) (A) (A) (A)
                 (A) (A) (A) (A) (A) (A) (A) (A) (A) (A) (A) (A)
                 (A) (A) (A) (A) (A) (A) (A) (A) (A) (A) (A) (A)
                 (A) (A) (A) (A) (A) (A) (A) (A) (A) (A) (A) (A)
                 (A) (A) (A) (A) (A) (A) (A) (A) (A) (A) (A) (A)
                 (A) (A) (A) (A) (A) (A) (A) (A) (A) (A) (A) (A)
                 (A) (A) (A) (A) (A) (A) (A) (A) (A) (A) (A) (A)
                 (A) (A) (A) (A) (A) (A) (A) (A) (A) (A) (A) (A)
                 (A) (A) (A) (A) (A) (A) (A) (A) (A) (A) (A) (A)
                 (A) (A) (A) (A) (A) (A) (A) (A) (A) (A) (A) (A)
                 (A) (A) (A) (A) (A) (A) (A) (A) (A) (A) (A) (A)
                 (A) (A) (A) (A) (A) (A) (A) (A) (A) (A) (A) (A)
                 (A) (A) (A) (A) (A) (A) (A) (A) (A) (A) (A) (A)
                 (A) (A) (A) (A) (A) (A) (A) (A) (A) (A) (A) (A)
                 (A) (A) (A) (A) (A) (A) (A) (A) (A) (A) (A) (A)
                 (A) (A) (A) (A) (A) (A) (A) (A) (A) (A) (A) (A)
                 (A) (A) (A) (A) (A) (A) (A) (A) (A) (A) (A) (A)
                 (A) (A) (A) (A) (A) (A) (A) (A) (A) (A) (A) (A)
                 (A) (A) (A) (A) (A) (A) (A) (A) (A) (A) (A) (A)
                 (A) (A) (A) (A) (A) (A) (A) (A) (A) (A) (A) (A)
                 (A) (A) (A) (A) (A) (A) (A) (A) (A) (A) (A) (A)
                 (A) (A) (A) (A) (A) (A) (A) (A) (A) (A) (A) (A)
                 (A) (A) (A) (A) (A) (A) (A) (A) (A) (A) (A) (A)
                 (A) (A) (A) (A) (A) (A) (A) (A) (A) (A) (A) (A)
                 (A) (A) (A) (A) (A) (A) (A) (A) (A) (A) (A) (A)
                 (A) (A) (A)
 Beta  Orbitals:
       Occupied  (A) (A) (A) (A) (A) (A) (A) (A) (A) (A) (A) (A)
                 (A) (A) (A) (A) (A) (A) (A) (A) (A) (A) (A) (A)
                 (A) (A) (A) (A) (A) (A) (A) (A) (A) (A) (A) (A)
                 (A) (A) (A) (A) (A) (A) (A) (A) (A) (A) (A) (A)
                 (A) (A) (A) (A) (A) (A) (A) (A) (A) (A) (A) (A)
                 (A) (A) (A) (A) (A) (A) (A) (A) (A) (A) (A) (A)
                 (A) (A) (A) (A) (A) (A) (A) (A) (A) (A) (A) (A)
                 (A) (A) (A) (A) (A) (A) (A) (A) (A) (A) (A) (A)
                 (A) (A) (A) (A) (A) (A) (A) (A) (A) (A) (A) (A)
                 (A) (A) (A) (A) (A) (A) (A) (A) (A) (A) (A) (A)
                 (A) (A) (A) (A) (A) (A) (A) (A) (A) (A) (A) (A)
                 (A) (A) (A) (A) (A) (A) (A) (A) (A) (A) (A) (A)
                 (A) (A) (A) (A) (A) (A) (A) (A) (A) (A) (A) (A)
       Virtual   (A) (A) (A) (A) (A) (A) (A) (A) (A) (A) (A) (A)
                 (A) (A) (A) (A) (A) (A) (A) (A) (A) (A) (A) (A)
                 (A) (A) (A) (A) (A) (A) (A) (A) (A) (A) (A) (A)
                 (A) (A) (A) (A) (A) (A) (A) (A) (A) (A) (A) (A)
                 (A) (A) (A) (A) (A) (A) (A) (A) (A) (A) (A) (A)
                 (A) (A) (A) (A) (A) (A) (A) (A) (A) (A) (A) (A)
                 (A) (A) (A) (A) (A) (A) (A) (A) (A) (A) (A) (A)
                 (A) (A) (A) (A) (A) (A) (A) (A) (A) (A) (A) (A)
                 (A) (A) (A) (A) (A) (A) (A) (A) (A) (A) (A) (A)
                 (A) (A) (A) (A) (A) (A) (A) (A) (A) (A) (A) (A)
                 (A) (A) (A) (A) (A) (A) (A) (A) (A) (A) (A) (A)
                 (A) (A) (A) (A) (A) (A) (A) (A) (A) (A) (A) (A)
                 (A) (A) (A) (A) (A) (A) (A) (A) (A) (A) (A) (A)
                 (A) (A) (A) (A) (A) (A) (A) (A) (A) (A) (A) (A)
                 (A) (A) (A) (A) (A) (A) (A) (A) (A) (A) (A) (A)
                 (A) (A) (A) (A) (A) (A) (A) (A) (A) (A) (A) (A)
                 (A) (A) (A) (A) (A) (A) (A) (A) (A) (A) (A) (A)
                 (A) (A) (A) (A) (A) (A) (A) (A) (A) (A) (A) (A)
                 (A) (A) (A) (A) (A) (A) (A) (A) (A) (A) (A) (A)
                 (A) (A) (A) (A) (A) (A) (A) (A) (A) (A) (A) (A)
                 (A) (A) (A) (A) (A) (A) (A) (A) (A) (A) (A) (A)
                 (A) (A) (A) (A) (A) (A) (A) (A) (A) (A) (A) (A)
                 (A) (A) (A) (A) (A) (A) (A) (A) (A) (A) (A) (A)
                 (A) (A) (A) (A) (A) (A) (A) (A) (A) (A) (A) (A)
                 (A) (A) (A) (A) (A) (A) (A) (A) (A) (A) (A) (A)
                 (A) (A) (A) (A) (A) (A) (A) (A) (A) (A) (A) (A)
                 (A) (A) (A) (A) (A) (A) (A) (A) (A) (A) (A) (A)
                 (A) (A) (A) (A) (A) (A) (A) (A) (A) (A) (A) (A)
                 (A) (A) (A) (A) (A) (A) (A) (A) (A) (A) (A) (A)
                 (A) (A) (A) (A) (A) (A) (A) (A) (A) (A) (A) (A)
                 (A) (A) (A) (A) (A) (A) (A) (A) (A) (A) (A) (A)
                 (A) (A) (A) (A) (A) (A) (A) (A) (A) (A) (A) (A)
                 (A) (A) (A) (A) (A) (A) (A) (A) (A) (A) (A) (A)
                 (A) (A) (A) (A) (A) (A) (A) (A) (A) (A) (A) (A)
                 (A) (A) (A) (A) (A) (A) (A) (A) (A) (A) (A) (A)
                 (A) (A) (A) (A) (A) (A) (A) (A) (A) (A) (A) (A)
                 (A) (A) (A) (A) (A) (A) (A) (A) (A) (A) (A) (A)
                 (A) (A) (A) (A) (A) (A) (A) (A) (A) (A) (A) (A)
                 (A) (A) (A) (A) (A) (A) (A) (A) (A) (A) (A) (A)
                 (A) (A) (A) (A) (A) (A) (A) (A) (A) (A) (A) (A)
                 (A) (A) (A) (A) (A) (A) (A) (A) (A) (A) (A) (A)
                 (A) (A) (A) (A) (A) (A) (A) (A) (A) (A) (A) (A)
                 (A) (A) (A) (A) (A) (A) (A) (A) (A) (A) (A) (A)
                 (A) (A) (A) (A) (A) (A) (A)
 The electronic state is 5-A.
 Alpha  occ. eigenvalues -- -256.17197 -30.06666 -25.91201 -25.89194 -25.88964
 Alpha  occ. eigenvalues --  -19.16703 -14.42452 -14.35977 -14.33032 -14.33022
 Alpha  occ. eigenvalues --  -14.32872 -14.32652 -10.25643 -10.23870 -10.21113
 Alpha  occ. eigenvalues --  -10.21026 -10.20901 -10.20897 -10.20871 -10.20865
 Alpha  occ. eigenvalues --  -10.20848 -10.20798 -10.20764 -10.20694 -10.19671
 Alpha  occ. eigenvalues --  -10.19587 -10.18965 -10.18843 -10.18826 -10.18764
 Alpha  occ. eigenvalues --  -10.18747 -10.18678 -10.18661 -10.18613 -10.18609
 Alpha  occ. eigenvalues --  -10.18539 -10.18487 -10.18434 -10.18419 -10.18385
 Alpha  occ. eigenvalues --  -10.18314 -10.18273 -10.18255 -10.18248 -10.18190
 Alpha  occ. eigenvalues --  -10.18187  -3.52619  -2.32423  -2.28030  -2.27749
 Alpha  occ. eigenvalues --   -1.04739  -1.03540  -0.96237  -0.95315  -0.95203
 Alpha  occ. eigenvalues --   -0.94295  -0.90356  -0.81446  -0.81118  -0.80799
 Alpha  occ. eigenvalues --   -0.80110  -0.79822  -0.79690  -0.78811  -0.78741
 Alpha  occ. eigenvalues --   -0.76055  -0.74977  -0.73683  -0.73121  -0.72642
 Alpha  occ. eigenvalues --   -0.71309  -0.70329  -0.69495  -0.67762  -0.67420
 Alpha  occ. eigenvalues --   -0.67146  -0.64152  -0.63356  -0.63252  -0.60665
 Alpha  occ. eigenvalues --   -0.59975  -0.59393  -0.59323  -0.56896  -0.55947
 Alpha  occ. eigenvalues --   -0.55369  -0.53786  -0.52923  -0.52596  -0.52012
 Alpha  occ. eigenvalues --   -0.50361  -0.50299  -0.49815  -0.48241  -0.47322
 Alpha  occ. eigenvalues --   -0.47107  -0.46864  -0.46631  -0.44531  -0.44066
 Alpha  occ. eigenvalues --   -0.43994  -0.43767  -0.43467  -0.43011  -0.42982
 Alpha  occ. eigenvalues --   -0.42768  -0.42646  -0.42450  -0.42177  -0.41994
 Alpha  occ. eigenvalues --   -0.41828  -0.41686  -0.41411  -0.41039  -0.40905
 Alpha  occ. eigenvalues --   -0.40838  -0.40444  -0.40049  -0.39760  -0.39588
 Alpha  occ. eigenvalues --   -0.38999  -0.38943  -0.38539  -0.38395  -0.38136
 Alpha  occ. eigenvalues --   -0.37906  -0.37741  -0.37407  -0.36992  -0.36268
 Alpha  occ. eigenvalues --   -0.36203  -0.36017  -0.35735  -0.35325  -0.34845
 Alpha  occ. eigenvalues --   -0.33917  -0.33675  -0.33084  -0.32964  -0.32513
 Alpha  occ. eigenvalues --   -0.31432  -0.30546  -0.30152  -0.29886  -0.29658
 Alpha  occ. eigenvalues --   -0.28988  -0.28365  -0.27817  -0.26546  -0.25361
 Alpha  occ. eigenvalues --   -0.25142  -0.22892  -0.22228  -0.21400  -0.20575
 Alpha  occ. eigenvalues --   -0.20230  -0.19403  -0.16846  -0.16565  -0.15022
 Alpha virt. eigenvalues --   -0.05473  -0.05319  -0.00639   0.02358   0.03076
 Alpha virt. eigenvalues --    0.04112   0.07089   0.07475   0.07860   0.08434
 Alpha virt. eigenvalues --    0.09517   0.10412   0.10527   0.11210   0.11764
 Alpha virt. eigenvalues --    0.11945   0.12474   0.12688   0.13472   0.14233
 Alpha virt. eigenvalues --    0.14551   0.15013   0.15355   0.15756   0.15810
 Alpha virt. eigenvalues --    0.16102   0.16225   0.16674   0.16930   0.17092
 Alpha virt. eigenvalues --    0.17772   0.17969   0.18004   0.18111   0.18357
 Alpha virt. eigenvalues --    0.18423   0.18792   0.19251   0.19282   0.19620
 Alpha virt. eigenvalues --    0.19809   0.20164   0.20240   0.20671   0.21155
 Alpha virt. eigenvalues --    0.21526   0.21766   0.22253   0.22326   0.22813
 Alpha virt. eigenvalues --    0.23299   0.23519   0.24280   0.24351   0.25124
 Alpha virt. eigenvalues --    0.25674   0.26061   0.26677   0.27360   0.27459
 Alpha virt. eigenvalues --    0.27724   0.28089   0.28375   0.28499   0.30506
 Alpha virt. eigenvalues --    0.30995   0.31726   0.32043   0.32462   0.33423
 Alpha virt. eigenvalues --    0.34261   0.34392   0.34988   0.35754   0.36590
 Alpha virt. eigenvalues --    0.36812   0.37432   0.37723   0.38122   0.39353
 Alpha virt. eigenvalues --    0.41072   0.41534   0.42393   0.43101   0.44532
 Alpha virt. eigenvalues --    0.44787   0.45162   0.45249   0.45969   0.47569
 Alpha virt. eigenvalues --    0.48840   0.48990   0.49292   0.49763   0.50372
 Alpha virt. eigenvalues --    0.51275   0.51510   0.51795   0.51965   0.52906
 Alpha virt. eigenvalues --    0.53146   0.53259   0.53554   0.53701   0.54235
 Alpha virt. eigenvalues --    0.54440   0.54853   0.55044   0.55589   0.55926
 Alpha virt. eigenvalues --    0.56407   0.56882   0.57137   0.57426   0.58175
 Alpha virt. eigenvalues --    0.58766   0.59296   0.59684   0.59901   0.60159
 Alpha virt. eigenvalues --    0.60645   0.61217   0.61526   0.61795   0.62441
 Alpha virt. eigenvalues --    0.62887   0.63391   0.63499   0.63971   0.64652
 Alpha virt. eigenvalues --    0.65149   0.65252   0.65737   0.66289   0.66644
 Alpha virt. eigenvalues --    0.67016   0.67240   0.67520   0.67747   0.67897
 Alpha virt. eigenvalues --    0.67963   0.68316   0.68961   0.69104   0.69724
 Alpha virt. eigenvalues --    0.70639   0.70691   0.71209   0.71754   0.72012
 Alpha virt. eigenvalues --    0.72981   0.73398   0.73926   0.74240   0.74562
 Alpha virt. eigenvalues --    0.75181   0.75529   0.75991   0.76555   0.77122
 Alpha virt. eigenvalues --    0.77175   0.77903   0.78490   0.78575   0.78922
 Alpha virt. eigenvalues --    0.79519   0.79605   0.80358   0.80579   0.80860
 Alpha virt. eigenvalues --    0.80978   0.81646   0.82179   0.82512   0.83057
 Alpha virt. eigenvalues --    0.83666   0.84480   0.84629   0.85896   0.86037
 Alpha virt. eigenvalues --    0.86830   0.87005   0.87244   0.88018   0.88137
 Alpha virt. eigenvalues --    0.88241   0.88699   0.88767   0.89241   0.89691
 Alpha virt. eigenvalues --    0.90170   0.90557   0.90762   0.90951   0.91210
 Alpha virt. eigenvalues --    0.91506   0.92246   0.92461   0.93086   0.93384
 Alpha virt. eigenvalues --    0.93456   0.94436   0.94581   0.94732   0.95185
 Alpha virt. eigenvalues --    0.95883   0.96275   0.96588   0.97000   0.97559
 Alpha virt. eigenvalues --    0.97681   0.98249   0.98308   0.99098   0.99725
 Alpha virt. eigenvalues --    0.99866   1.00253   1.00459   1.00655   1.01007
 Alpha virt. eigenvalues --    1.01671   1.01913   1.02026   1.02405   1.02923
 Alpha virt. eigenvalues --    1.03752   1.04234   1.04531   1.05035   1.05710
 Alpha virt. eigenvalues --    1.06322   1.07129   1.07635   1.08127   1.08137
 Alpha virt. eigenvalues --    1.09210   1.10113   1.10713   1.11327   1.12082
 Alpha virt. eigenvalues --    1.12229   1.14430   1.15147   1.15674   1.15992
 Alpha virt. eigenvalues --    1.17021   1.18271   1.18385   1.18559   1.19367
 Alpha virt. eigenvalues --    1.19730   1.20340   1.20941   1.21296   1.21341
 Alpha virt. eigenvalues --    1.22001   1.22043   1.23019   1.23786   1.24471
 Alpha virt. eigenvalues --    1.24896   1.25633   1.26273   1.27017   1.28655
 Alpha virt. eigenvalues --    1.29521   1.30075   1.31084   1.31630   1.31672
 Alpha virt. eigenvalues --    1.32118   1.32820   1.33114   1.34747   1.35105
 Alpha virt. eigenvalues --    1.36039   1.36449   1.37083   1.37764   1.38352
 Alpha virt. eigenvalues --    1.38967   1.39400   1.39519   1.39797   1.40001
 Alpha virt. eigenvalues --    1.40412   1.40911   1.41891   1.42526   1.43258
 Alpha virt. eigenvalues --    1.44270   1.44721   1.46156   1.46985   1.47612
 Alpha virt. eigenvalues --    1.48057   1.48217   1.49859   1.50204   1.50586
 Alpha virt. eigenvalues --    1.51504   1.53175   1.53402   1.54103   1.54572
 Alpha virt. eigenvalues --    1.54674   1.55059   1.55786   1.56898   1.57329
 Alpha virt. eigenvalues --    1.58231   1.59763   1.60655   1.61896   1.62819
 Alpha virt. eigenvalues --    1.64008   1.64554   1.65357   1.65777   1.66599
 Alpha virt. eigenvalues --    1.67382   1.68887   1.70094   1.70797   1.70911
 Alpha virt. eigenvalues --    1.71258   1.73196   1.74097   1.75977   1.76308
 Alpha virt. eigenvalues --    1.76639   1.80124   1.80427   1.81499   1.81527
 Alpha virt. eigenvalues --    1.82398   1.82669   1.83046   1.83518   1.83767
 Alpha virt. eigenvalues --    1.84213   1.84676   1.85256   1.85409   1.86319
 Alpha virt. eigenvalues --    1.86920   1.87792   1.88229   1.88900   1.89059
 Alpha virt. eigenvalues --    1.89804   1.90444   1.91289   1.91626   1.92132
 Alpha virt. eigenvalues --    1.92883   1.94220   1.94960   1.95279   1.95968
 Alpha virt. eigenvalues --    1.96560   1.97024   1.97321   1.97985   1.98621
 Alpha virt. eigenvalues --    1.99623   2.00239   2.00875   2.01582   2.01701
 Alpha virt. eigenvalues --    2.02002   2.02669   2.03614   2.04892   2.05909
 Alpha virt. eigenvalues --    2.06406   2.06608   2.07609   2.07967   2.08611
 Alpha virt. eigenvalues --    2.08770   2.09263   2.10003   2.10625   2.12126
 Alpha virt. eigenvalues --    2.12860   2.13215   2.13715   2.14708   2.15621
 Alpha virt. eigenvalues --    2.15898   2.16571   2.17327   2.17461   2.18379
 Alpha virt. eigenvalues --    2.19816   2.20311   2.21063   2.22864   2.23306
 Alpha virt. eigenvalues --    2.23823   2.24072   2.24685   2.25228   2.25596
 Alpha virt. eigenvalues --    2.26624   2.27062   2.27214   2.27685   2.27799
 Alpha virt. eigenvalues --    2.28620   2.29667   2.30218   2.30441   2.30841
 Alpha virt. eigenvalues --    2.31261   2.31718   2.32196   2.32936   2.33381
 Alpha virt. eigenvalues --    2.33975   2.34306   2.35960   2.36173   2.36885
 Alpha virt. eigenvalues --    2.37272   2.37982   2.38081   2.38398   2.39072
 Alpha virt. eigenvalues --    2.39824   2.40371   2.40713   2.41172   2.42064
 Alpha virt. eigenvalues --    2.42765   2.43614   2.43686   2.44404   2.45071
 Alpha virt. eigenvalues --    2.45128   2.45730   2.46201   2.46843   2.47801
 Alpha virt. eigenvalues --    2.49485   2.49949   2.51800   2.52107   2.53931
 Alpha virt. eigenvalues --    2.54066   2.54595   2.55186   2.56074   2.57125
 Alpha virt. eigenvalues --    2.57349   2.58189   2.58620   2.59173   2.59581
 Alpha virt. eigenvalues --    2.61211   2.62025   2.62297   2.62772   2.64388
 Alpha virt. eigenvalues --    2.65989   2.67049   2.68409   2.70174   2.70779
 Alpha virt. eigenvalues --    2.71635   2.72380   2.73248   2.73871   2.76346
 Alpha virt. eigenvalues --    2.77268   2.77736   2.79343   2.80957   2.81536
 Alpha virt. eigenvalues --    2.82127   2.82922   2.88849   2.89612   2.90324
 Alpha virt. eigenvalues --    2.91620   2.92971   2.94009   2.95260   2.97649
 Alpha virt. eigenvalues --    2.98146   2.98697   3.00180   3.00466   3.01304
 Alpha virt. eigenvalues --    3.02498   3.06535   3.06712   3.07205   3.09203
 Alpha virt. eigenvalues --    3.14596   3.15859   3.16575   3.22138   3.24636
 Alpha virt. eigenvalues --    3.27134   3.31648   3.31910   3.40568   3.40680
 Alpha virt. eigenvalues --    3.42460   3.48213   3.48531   3.63228   3.68122
 Alpha virt. eigenvalues --    3.86332   3.88257   4.14704   4.24625
  Beta  occ. eigenvalues -- -256.17060 -29.98268 -25.83366 -25.82576 -25.82369
  Beta  occ. eigenvalues --  -19.16582 -14.42447 -14.35768 -14.32828 -14.32810
  Beta  occ. eigenvalues --  -14.32695 -14.32480 -10.25661 -10.23858 -10.21111
  Beta  occ. eigenvalues --  -10.21028 -10.20934 -10.20904 -10.20884 -10.20876
  Beta  occ. eigenvalues --  -10.20865 -10.20803 -10.20767 -10.20723 -10.19664
  Beta  occ. eigenvalues --  -10.19587 -10.18958 -10.18848 -10.18824 -10.18760
  Beta  occ. eigenvalues --  -10.18744 -10.18680 -10.18648 -10.18612 -10.18607
  Beta  occ. eigenvalues --  -10.18547 -10.18493 -10.18432 -10.18424 -10.18377
  Beta  occ. eigenvalues --  -10.18313 -10.18285 -10.18264 -10.18248 -10.18207
  Beta  occ. eigenvalues --  -10.18184  -3.32590  -2.08323  -2.08062  -2.07712
  Beta  occ. eigenvalues --   -1.04648  -1.03352  -0.96045  -0.95105  -0.95041
  Beta  occ. eigenvalues --   -0.94097  -0.90152  -0.81465  -0.81063  -0.80752
  Beta  occ. eigenvalues --   -0.80042  -0.79762  -0.79658  -0.78811  -0.78749
  Beta  occ. eigenvalues --   -0.76046  -0.74956  -0.73675  -0.73126  -0.72642
  Beta  occ. eigenvalues --   -0.71270  -0.70291  -0.69432  -0.67673  -0.67322
  Beta  occ. eigenvalues --   -0.67132  -0.63983  -0.63348  -0.63262  -0.60615
  Beta  occ. eigenvalues --   -0.59930  -0.59335  -0.59220  -0.56876  -0.55771
  Beta  occ. eigenvalues --   -0.55282  -0.53746  -0.52863  -0.52533  -0.51785
  Beta  occ. eigenvalues --   -0.50251  -0.50202  -0.49725  -0.47921  -0.47161
  Beta  occ. eigenvalues --   -0.47059  -0.46623  -0.46500  -0.44260  -0.44004
  Beta  occ. eigenvalues --   -0.43766  -0.43701  -0.43425  -0.42853  -0.42724
  Beta  occ. eigenvalues --   -0.42599  -0.42559  -0.42411  -0.42100  -0.41885
  Beta  occ. eigenvalues --   -0.41770  -0.41656  -0.41152  -0.41042  -0.40862
  Beta  occ. eigenvalues --   -0.40835  -0.39753  -0.39603  -0.39516  -0.39420
  Beta  occ. eigenvalues --   -0.38912  -0.38434  -0.38312  -0.37992  -0.37839
  Beta  occ. eigenvalues --   -0.37431  -0.37021  -0.36748  -0.36189  -0.36110
  Beta  occ. eigenvalues --   -0.35571  -0.35038  -0.34576  -0.34452  -0.33631
  Beta  occ. eigenvalues --   -0.33302  -0.33003  -0.32342  -0.31727  -0.30758
  Beta  occ. eigenvalues --   -0.30605  -0.29710  -0.29240  -0.28456  -0.27974
  Beta  occ. eigenvalues --   -0.27626  -0.25601  -0.25556  -0.23276  -0.22269
  Beta  occ. eigenvalues --   -0.21882  -0.21297  -0.20774  -0.17236  -0.16888
  Beta  occ. eigenvalues --   -0.12670
  Beta virt. eigenvalues --   -0.06020  -0.04597  -0.00758   0.00872   0.01129
  Beta virt. eigenvalues --    0.02719   0.03683   0.04080   0.06067   0.07487
  Beta virt. eigenvalues --    0.07798   0.08462   0.09000   0.09818   0.10409
  Beta virt. eigenvalues --    0.10634   0.11129   0.11491   0.11831   0.11992
  Beta virt. eigenvalues --    0.12478   0.12821   0.13477   0.14246   0.14571
  Beta virt. eigenvalues --    0.15031   0.15387   0.15804   0.15821   0.16201
  Beta virt. eigenvalues --    0.16298   0.16691   0.16925   0.17169   0.17791
  Beta virt. eigenvalues --    0.18007   0.18071   0.18155   0.18372   0.18433
  Beta virt. eigenvalues --    0.18905   0.19329   0.19400   0.19650   0.19840
  Beta virt. eigenvalues --    0.20213   0.20287   0.20707   0.21156   0.21531
  Beta virt. eigenvalues --    0.21773   0.22283   0.22331   0.22897   0.23379
  Beta virt. eigenvalues --    0.23573   0.24438   0.24559   0.25217   0.25782
  Beta virt. eigenvalues --    0.26234   0.26744   0.27383   0.27585   0.27779
  Beta virt. eigenvalues --    0.28130   0.28519   0.28719   0.30616   0.31554
  Beta virt. eigenvalues --    0.31776   0.33010   0.33241   0.33923   0.34469
  Beta virt. eigenvalues --    0.35067   0.35850   0.36180   0.36830   0.37004
  Beta virt. eigenvalues --    0.37597   0.37875   0.38267   0.39503   0.41287
  Beta virt. eigenvalues --    0.42042   0.42750   0.43318   0.44800   0.45043
  Beta virt. eigenvalues --    0.45205   0.45543   0.46136   0.48724   0.49006
  Beta virt. eigenvalues --    0.49274   0.49634   0.50063   0.50617   0.51408
  Beta virt. eigenvalues --    0.51876   0.52043   0.52240   0.52966   0.53325
  Beta virt. eigenvalues --    0.53359   0.53571   0.54016   0.54403   0.54460
  Beta virt. eigenvalues --    0.55020   0.55160   0.55627   0.56001   0.56559
  Beta virt. eigenvalues --    0.56924   0.57229   0.57859   0.58279   0.58766
  Beta virt. eigenvalues --    0.59375   0.59712   0.60018   0.60262   0.60660
  Beta virt. eigenvalues --    0.61259   0.61528   0.61801   0.62573   0.62923
  Beta virt. eigenvalues --    0.63410   0.63511   0.64006   0.64712   0.65182
  Beta virt. eigenvalues --    0.65314   0.65906   0.66333   0.66855   0.67145
  Beta virt. eigenvalues --    0.67299   0.67713   0.67775   0.67976   0.68130
  Beta virt. eigenvalues --    0.68523   0.69085   0.69200   0.69923   0.70764
  Beta virt. eigenvalues --    0.70865   0.71240   0.71796   0.72089   0.73135
  Beta virt. eigenvalues --    0.73494   0.74246   0.74303   0.75244   0.75503
  Beta virt. eigenvalues --    0.75687   0.76140   0.76628   0.77211   0.77295
  Beta virt. eigenvalues --    0.77995   0.78484   0.78680   0.79002   0.79603
  Beta virt. eigenvalues --    0.79779   0.80458   0.80709   0.81006   0.81116
  Beta virt. eigenvalues --    0.82191   0.82311   0.82661   0.83320   0.83819
  Beta virt. eigenvalues --    0.84506   0.84601   0.85942   0.86137   0.86885
  Beta virt. eigenvalues --    0.87091   0.87255   0.88033   0.88181   0.88271
  Beta virt. eigenvalues --    0.88784   0.88797   0.89320   0.89868   0.90304
  Beta virt. eigenvalues --    0.90648   0.90817   0.91091   0.91408   0.91678
  Beta virt. eigenvalues --    0.92367   0.92515   0.93135   0.93459   0.93500
  Beta virt. eigenvalues --    0.94522   0.94622   0.95028   0.95375   0.95907
  Beta virt. eigenvalues --    0.96390   0.96728   0.97116   0.97663   0.97954
  Beta virt. eigenvalues --    0.98386   0.98762   0.99392   0.99980   1.00043
  Beta virt. eigenvalues --    1.00396   1.00562   1.00907   1.01064   1.01815
  Beta virt. eigenvalues --    1.02097   1.02473   1.02674   1.02981   1.03893
  Beta virt. eigenvalues --    1.04444   1.04594   1.05281   1.05868   1.06648
  Beta virt. eigenvalues --    1.07290   1.07915   1.08288   1.08416   1.09432
  Beta virt. eigenvalues --    1.10300   1.10915   1.11466   1.12483   1.12570
  Beta virt. eigenvalues --    1.15063   1.15757   1.15897   1.16439   1.17304
  Beta virt. eigenvalues --    1.18455   1.18664   1.19149   1.19661   1.20001
  Beta virt. eigenvalues --    1.20639   1.21064   1.21393   1.21747   1.22136
  Beta virt. eigenvalues --    1.23104   1.23865   1.24040   1.24676   1.25466
  Beta virt. eigenvalues --    1.25786   1.26456   1.28653   1.29585   1.29674
  Beta virt. eigenvalues --    1.30134   1.31328   1.31687   1.31784   1.32260
  Beta virt. eigenvalues --    1.32990   1.33192   1.34970   1.35228   1.36191
  Beta virt. eigenvalues --    1.36838   1.37280   1.37786   1.38418   1.39085
  Beta virt. eigenvalues --    1.39456   1.39634   1.39820   1.40126   1.40605
  Beta virt. eigenvalues --    1.40987   1.42236   1.42675   1.43339   1.44619
  Beta virt. eigenvalues --    1.44982   1.46184   1.47117   1.47730   1.48117
  Beta virt. eigenvalues --    1.48243   1.50134   1.50499   1.50808   1.51692
  Beta virt. eigenvalues --    1.53295   1.53682   1.54293   1.54703   1.54842
  Beta virt. eigenvalues --    1.55200   1.55887   1.56988   1.57549   1.58566
  Beta virt. eigenvalues --    1.59945   1.60826   1.62039   1.62974   1.64214
  Beta virt. eigenvalues --    1.64629   1.65660   1.66117   1.66755   1.67597
  Beta virt. eigenvalues --    1.69110   1.70164   1.70831   1.71020   1.71358
  Beta virt. eigenvalues --    1.73359   1.74211   1.76087   1.76713   1.76898
  Beta virt. eigenvalues --    1.80199   1.80474   1.81512   1.81547   1.82481
  Beta virt. eigenvalues --    1.82743   1.83070   1.83598   1.83902   1.84309
  Beta virt. eigenvalues --    1.84847   1.85431   1.85538   1.86536   1.87062
  Beta virt. eigenvalues --    1.87872   1.88308   1.88967   1.89126   1.89845
  Beta virt. eigenvalues --    1.90484   1.91439   1.91685   1.92200   1.92979
  Beta virt. eigenvalues --    1.94361   1.95104   1.95473   1.96066   1.96731
  Beta virt. eigenvalues --    1.97421   1.97587   1.98215   1.99080   1.99731
  Beta virt. eigenvalues --    2.00300   2.01121   2.01804   2.01871   2.02780
  Beta virt. eigenvalues --    2.03082   2.04204   2.05391   2.06231   2.06548
  Beta virt. eigenvalues --    2.06843   2.07828   2.08158   2.08769   2.09155
  Beta virt. eigenvalues --    2.09639   2.10277   2.11152   2.12802   2.13001
  Beta virt. eigenvalues --    2.13386   2.13990   2.15143   2.15704   2.16047
  Beta virt. eigenvalues --    2.16704   2.17440   2.17722   2.18415   2.20015
  Beta virt. eigenvalues --    2.20366   2.21524   2.23304   2.23525   2.23901
  Beta virt. eigenvalues --    2.24465   2.25270   2.25475   2.25738   2.27159
  Beta virt. eigenvalues --    2.27199   2.27539   2.27731   2.27812   2.28879
  Beta virt. eigenvalues --    2.29705   2.30376   2.30630   2.31022   2.31386
  Beta virt. eigenvalues --    2.31899   2.32387   2.33457   2.33706   2.34341
  Beta virt. eigenvalues --    2.35304   2.36038   2.36675   2.37137   2.37453
  Beta virt. eigenvalues --    2.38115   2.38431   2.38650   2.39342   2.39998
  Beta virt. eigenvalues --    2.40675   2.41133   2.41579   2.42230   2.42963
  Beta virt. eigenvalues --    2.43687   2.43746   2.44640   2.45128   2.45249
  Beta virt. eigenvalues --    2.46041   2.46244   2.47887   2.48274   2.49727
  Beta virt. eigenvalues --    2.50570   2.52761   2.52899   2.54043   2.54241
  Beta virt. eigenvalues --    2.54862   2.55893   2.57302   2.57410   2.57517
  Beta virt. eigenvalues --    2.58522   2.59042   2.59565   2.60196   2.61508
  Beta virt. eigenvalues --    2.62123   2.62464   2.63457   2.64387   2.66066
  Beta virt. eigenvalues --    2.67237   2.68467   2.70451   2.71001   2.71853
  Beta virt. eigenvalues --    2.72530   2.73488   2.74151   2.76471   2.77450
  Beta virt. eigenvalues --    2.78169   2.79489   2.81013   2.81582   2.82408
  Beta virt. eigenvalues --    2.83153   2.88957   2.89764   2.90450   2.91774
  Beta virt. eigenvalues --    2.93119   2.94147   2.95497   2.97793   2.98225
  Beta virt. eigenvalues --    2.98807   3.00203   3.00527   3.01378   3.02900
  Beta virt. eigenvalues --    3.06724   3.07241   3.07340   3.09556   3.14771
  Beta virt. eigenvalues --    3.16044   3.16643   3.22210   3.24765   3.27715
  Beta virt. eigenvalues --    3.31682   3.31938   3.40614   3.40777   3.43174
  Beta virt. eigenvalues --    3.48382   3.48694   3.73494   3.78033   3.94896
  Beta virt. eigenvalues --    3.99773   4.25893   4.34988
          Condensed to atoms (all electrons):
          Atomic-Atomic Spin Densities.
 Mulliken charges and spin densities:
               1          2
     1  Fe   1.045638   3.883466
     2  N   -0.687177   0.050140
     3  N   -0.704458   0.039748
     4  N   -0.705489   0.057921
     5  N   -0.703002   0.039565
     6  C    0.296871  -0.009418
     7  C    0.026576  -0.003398
     8  C    0.031910   0.003509
     9  C    0.281377  -0.016624
    10  C    0.294695  -0.018201
    11  C    0.028975   0.002855
    12  C   -0.009530  -0.006162
    13  C    0.317438  -0.005874
    14  C    0.311452  -0.008375
    15  C    0.030778  -0.004401
    16  C   -0.008243   0.005130
    17  C    0.304733  -0.027441
    18  C    0.295725  -0.025806
    19  C    0.031200   0.009267
    20  C    0.030513  -0.008939
    21  C    0.317569  -0.007593
    22  C   -0.318816  -0.010640
    23  H    0.158564   0.000777
    24  C   -0.324291  -0.001894
    25  H    0.158495   0.000389
    26  C   -0.312630  -0.007142
    27  H    0.162374   0.000531
    28  C   -0.314642   0.002627
    29  H    0.161139   0.000184
    30  C   -0.607429   0.000586
    31  H    0.181818   0.000349
    32  H    0.184729  -0.000393
    33  H    0.187071  -0.000473
    34  C   -0.607802   0.001128
    35  H    0.187172  -0.000773
    36  H    0.186267  -0.000664
    37  H    0.180920   0.000302
    38  C   -0.610605   0.000510
    39  H    0.183290   0.000103
    40  H    0.181423  -0.000207
    41  H    0.194581   0.000279
    42  C   -0.142329   0.004287
    43  H    0.163162  -0.000381
    44  C   -0.407416  -0.006703
    45  H    0.169505   0.000335
    46  H    0.163141   0.000487
    47  C   -0.611176   0.001331
    48  H    0.180850  -0.000770
    49  H    0.186126  -0.000506
    50  H    0.192990   0.000176
    51  C   -0.146274  -0.000116
    52  H    0.162846  -0.000262
    53  C   -0.405624  -0.000059
    54  H    0.172527   0.000005
    55  H    0.162931   0.000037
    56  C   -0.607961  -0.000031
    57  H    0.188297   0.000212
    58  H    0.187264   0.000206
    59  H    0.181081   0.000371
    60  C   -0.608101   0.001449
    61  H    0.180946   0.000343
    62  H    0.186819  -0.000500
    63  H    0.187033  -0.000560
    64  O   -0.818993   0.014099
    65  H    0.460651   0.002324
    66  H    0.444983   0.003719
    67  C   -0.601409   0.000497
    68  H    0.193716   0.000314
    69  H    0.190897   0.000238
    70  H    0.209477   0.000065
    71  N   -0.636799   0.000778
    72  H    0.360902   0.002401
    73  C    0.273392   0.006718
    74  C    0.241704  -0.014948
    75  H    0.218398   0.002273
    76  N   -0.467825   0.052163
    77  C   -0.043042  -0.006861
    78  H    0.198128   0.001921
 Sum of Mulliken charges =  -0.00000   4.00000
 Mulliken charges and spin densities with hydrogens summed into heavy atoms:
               1          2
     1  Fe   1.045638   3.883466
     2  N   -0.687177   0.050140
     3  N   -0.704458   0.039748
     4  N   -0.705489   0.057921
     5  N   -0.703002   0.039565
     6  C    0.296871  -0.009418
     7  C    0.026576  -0.003398
     8  C    0.031910   0.003509
     9  C    0.281377  -0.016624
    10  C    0.294695  -0.018201
    11  C    0.028975   0.002855
    12  C   -0.009530  -0.006162
    13  C    0.317438  -0.005874
    14  C    0.311452  -0.008375
    15  C    0.030778  -0.004401
    16  C   -0.008243   0.005130
    17  C    0.304733  -0.027441
    18  C    0.295725  -0.025806
    19  C    0.031200   0.009267
    20  C    0.030513  -0.008939
    21  C    0.317569  -0.007593
    22  C   -0.160252  -0.009863
    24  C   -0.165796  -0.001506
    26  C   -0.150257  -0.006610
    28  C   -0.153504   0.002811
    30  C   -0.053811   0.000068
    34  C   -0.053444  -0.000007
    38  C   -0.051311   0.000685
    42  C    0.020833   0.003907
    44  C   -0.074770  -0.005882
    47  C   -0.051209   0.000232
    51  C    0.016571  -0.000378
    53  C   -0.070165  -0.000018
    56  C   -0.051318   0.000759
    60  C   -0.053302   0.000732
    64  O    0.086641   0.020142
    67  C   -0.007318   0.001114
    71  N   -0.275896   0.003179
    73  C    0.273392   0.006718
    74  C    0.460102  -0.012676
    76  N   -0.467825   0.052163
    77  C    0.155086  -0.004940
 Electronic spatial extent (au):  <R**2>=          19909.2900
 Charge=             -0.0000 electrons
 Dipole moment (field-independent basis, Debye):
    X=              0.8294    Y=             -1.7684    Z=              3.3094  Tot=              3.8428
 Quadrupole moment (field-independent basis, Debye-Ang):
   XX=           -236.8735   YY=           -241.5858   ZZ=           -219.7618
   XY=             -1.9453   XZ=              2.9162   YZ=             -0.4058
 Traceless Quadrupole moment (field-independent basis, Debye-Ang):
   XX=             -4.1332   YY=             -8.8454   ZZ=             12.9786
   XY=             -1.9453   XZ=              2.9162   YZ=             -0.4058
 Octapole moment (field-independent basis, Debye-Ang**2):
  XXX=             -1.3954  YYY=            -22.3398  ZZZ=             84.7344  XYY=             -2.8269
  XXY=            -28.8516  XXZ=              9.4919  XZZ=             18.7432  YZZ=            -22.1869
  YYZ=             -8.5517  XYZ=              7.5120
 Hexadecapole moment (field-independent basis, Debye-Ang**3):
 XXXX=         -11669.7361 YYYY=         -11270.0303 ZZZZ=          -2655.6098 XXXY=            -36.9054
 XXXZ=             95.0801 YYYX=             -1.4323 YYYZ=             55.1737 ZZZX=             37.4928
 ZZZY=            -38.2259 XXYY=          -3896.3154 XXZZ=          -2554.7684 YYZZ=          -2604.1020
 XXYZ=             40.0751 YYXZ=            -22.9182 ZZXY=            -22.5041
 N-N= 5.974306551580D+03 E-N=-1.896177162588D+04  KE= 2.973440186688D+03
                          Isotropic Fermi Contact Couplings
        Atom                 a.u.       MegaHertz       Gauss      10(-4) cm-1
     1  Fe(57)             0.41018      14.87306       5.30708       4.96112
     2  N(14)              0.10597       8.55976       3.05434       2.85523
     3  N(14)              0.09857       7.96234       2.84116       2.65595
     4  N(14)              0.10139       8.19006       2.92242       2.73191
     5  N(14)              0.09469       7.64843       2.72915       2.55124
     6  C(13)              0.00362       1.01622       0.36261       0.33897
     7  C(13)              0.00303       0.85258       0.30422       0.28439
     8  C(13)              0.00421       1.18224       0.42185       0.39435
     9  C(13)              0.00324       0.91180       0.32535       0.30414
    10  C(13)              0.00311       0.87274       0.31141       0.29111
    11  C(13)              0.00439       1.23372       0.44022       0.41153
    12  C(13)              0.00228       0.64105       0.22874       0.21383
    13  C(13)              0.00387       1.08880       0.38851       0.36318
    14  C(13)              0.00452       1.27116       0.45358       0.42401
    15  C(13)              0.00323       0.90767       0.32388       0.30277
    16  C(13)              0.00463       1.30214       0.46463       0.43435
    17  C(13)              0.00166       0.46574       0.16619       0.15535
    18  C(13)              0.00150       0.42134       0.15034       0.14054
    19  C(13)              0.00510       1.43391       0.51166       0.47830
    20  C(13)              0.00212       0.59627       0.21277       0.19890
    21  C(13)              0.00458       1.28623       0.45896       0.42904
    22  C(13)             -0.00111      -0.31186      -0.11128      -0.10402
    23  H(1)               0.00024       0.26907       0.09601       0.08975
    24  C(13)              0.00037       0.10265       0.03663       0.03424
    25  H(1)               0.00012       0.13682       0.04882       0.04564
    26  C(13)             -0.00074      -0.20797      -0.07421      -0.06937
    27  H(1)               0.00017       0.19429       0.06933       0.06481
    28  C(13)              0.00118       0.33285       0.11877       0.11103
    29  H(1)               0.00006       0.07153       0.02552       0.02386
    30  C(13)              0.00077       0.21535       0.07684       0.07183
    31  H(1)               0.00010       0.11144       0.03976       0.03717
    32  H(1)              -0.00001      -0.01383      -0.00493      -0.00461
    33  H(1)              -0.00000      -0.00219      -0.00078      -0.00073
    34  C(13)              0.00091       0.25619       0.09142       0.08546
    35  H(1)              -0.00012      -0.12851      -0.04586      -0.04287
    36  H(1)              -0.00014      -0.16132      -0.05756      -0.05381
    37  H(1)               0.00008       0.09436       0.03367       0.03147
    38  C(13)              0.00064       0.17878       0.06379       0.05964
    39  H(1)               0.00003       0.03302       0.01178       0.01102
    40  H(1)              -0.00010      -0.11723      -0.04183      -0.03911
    41  H(1)               0.00005       0.05143       0.01835       0.01716
    42  C(13)              0.00128       0.36094       0.12879       0.12040
    43  H(1)              -0.00011      -0.12732      -0.04543      -0.04247
    44  C(13)             -0.00071      -0.20027      -0.07146      -0.06680
    45  H(1)               0.00011       0.12041       0.04297       0.04017
    46  H(1)               0.00015       0.16278       0.05808       0.05430
    47  C(13)              0.00094       0.26478       0.09448       0.08832
    48  H(1)              -0.00007      -0.08147      -0.02907      -0.02717
    49  H(1)              -0.00019      -0.21502      -0.07673      -0.07172
    50  H(1)               0.00004       0.03990       0.01424       0.01331
    51  C(13)              0.00038       0.10581       0.03776       0.03529
    52  H(1)               0.00002       0.02694       0.00961       0.00899
    53  C(13)              0.00020       0.05661       0.02020       0.01888
    54  H(1)              -0.00001      -0.00685      -0.00244      -0.00228
    55  H(1)               0.00002       0.02259       0.00806       0.00753
    56  C(13)              0.00041       0.11468       0.04092       0.03825
    57  H(1)               0.00007       0.07415       0.02646       0.02473
    58  H(1)               0.00003       0.03229       0.01152       0.01077
    59  H(1)               0.00011       0.12556       0.04480       0.04188
    60  C(13)              0.00095       0.26692       0.09524       0.08903
    61  H(1)               0.00010       0.11395       0.04066       0.03801
    62  H(1)              -0.00027      -0.30531      -0.10894      -0.10184
    63  H(1)              -0.00027      -0.29793      -0.10631      -0.09938
    64  O(17)              0.09312     -14.11194      -5.03549      -4.70724
    65  H(1)              -0.00017      -0.19436      -0.06935      -0.06483
    66  H(1)               0.00075       0.83878       0.29930       0.27979
    67  C(13)              0.00055       0.15368       0.05484       0.05126
    68  H(1)               0.00013       0.15058       0.05373       0.05023
    69  H(1)               0.00011       0.11797       0.04209       0.03935
    70  H(1)               0.00005       0.05233       0.01867       0.01746
    71  N(14)              0.00826       0.66749       0.23818       0.22265
    72  H(1)               0.00071       0.78926       0.28163       0.26327
    73  C(13)              0.00405       1.13829       0.40617       0.37969
    74  C(13)              0.00092       0.25879       0.09234       0.08632
    75  H(1)               0.00059       0.65535       0.23385       0.21860
    76  N(14)              0.12169       9.82951       3.50741       3.27877
    77  C(13)             -0.00018      -0.05194      -0.01853      -0.01732
    78  H(1)               0.00053       0.59154       0.21108       0.19732
 --------------------------------------------------------
       Center         ----  Spin Dipole Couplings  ----
                      3XX-RR        3YY-RR        3ZZ-RR
 --------------------------------------------------------
     1   Atom        1.056251     -0.111482     -0.944769
     2   Atom        0.002813      0.069204     -0.072017
     3   Atom        0.087763      0.016000     -0.103763
     4   Atom       -0.006072      0.067277     -0.061206
     5   Atom        0.083711      0.019650     -0.103361
     6   Atom       -0.012270      0.051304     -0.039035
     7   Atom        0.003071      0.014302     -0.017372
     8   Atom        0.005791      0.005958     -0.011749
     9   Atom        0.044671     -0.000373     -0.044297
    10   Atom        0.056544     -0.008376     -0.048168
    11   Atom        0.011282      0.000426     -0.011708
    12   Atom        0.010378      0.008821     -0.019199
    13   Atom       -0.004887      0.040553     -0.035665
    14   Atom       -0.014794      0.053881     -0.039087
    15   Atom        0.003130      0.015564     -0.018694
    16   Atom        0.005192      0.005969     -0.011161
    17   Atom        0.051943      0.004874     -0.056817
    18   Atom        0.061284     -0.005632     -0.055651
    19   Atom        0.008226     -0.002332     -0.005895
    20   Atom        0.011755      0.010281     -0.022036
    21   Atom       -0.005267      0.043704     -0.038437
    22   Atom       -0.006263      0.036530     -0.030267
    23   Atom       -0.005768      0.012330     -0.006562
    24   Atom        0.031986     -0.010132     -0.021854
    25   Atom        0.012223     -0.005876     -0.006347
    26   Atom       -0.008508      0.035415     -0.026908
    27   Atom       -0.006061      0.012715     -0.006654
    28   Atom        0.032146     -0.012436     -0.019710
    29   Atom        0.012751     -0.006347     -0.006404
    30   Atom        0.004129     -0.000798     -0.003331
    31   Atom        0.001441      0.000791     -0.002232
    32   Atom        0.003801     -0.001040     -0.002762
    33   Atom        0.003591     -0.001187     -0.002404
    34   Atom       -0.002549      0.005976     -0.003427
    35   Atom       -0.002441      0.005031     -0.002590
    36   Atom       -0.002218      0.004918     -0.002700
    37   Atom       -0.000553      0.002799     -0.002246
    38   Atom        0.006267     -0.002433     -0.003834
    39   Atom        0.005372     -0.002504     -0.002867
    40   Atom        0.004467     -0.002041     -0.002427
    41   Atom        0.003074     -0.000778     -0.002296
    42   Atom       -0.000904      0.002889     -0.001985
    43   Atom       -0.001365      0.004382     -0.003017
    44   Atom       -0.000753      0.004524     -0.003770
    45   Atom        0.000974      0.000561     -0.001535
    46   Atom        0.000206      0.000856     -0.001062
    47   Atom       -0.002548      0.006218     -0.003670
    48   Atom       -0.002815      0.005763     -0.002949
    49   Atom       -0.001796      0.004321     -0.002525
    50   Atom       -0.000783      0.002967     -0.002183
    51   Atom        0.004798     -0.000508     -0.004290
    52   Atom        0.004145     -0.001532     -0.002613
    53   Atom        0.001782      0.000689     -0.002471
    54   Atom        0.000687      0.000992     -0.001679
    55   Atom        0.001317      0.000005     -0.001322
    56   Atom        0.006346     -0.002417     -0.003929
    57   Atom        0.004863     -0.002201     -0.002662
    58   Atom        0.005414     -0.002522     -0.002892
    59   Atom        0.003095     -0.000728     -0.002367
    60   Atom       -0.000593      0.004452     -0.003859
    61   Atom        0.000623      0.001678     -0.002301
    62   Atom       -0.001129      0.003716     -0.002587
    63   Atom       -0.000998      0.003739     -0.002742
    64   Atom       -0.070122     -0.086141      0.156263
    65   Atom       -0.026182     -0.017389      0.043572
    66   Atom       -0.025499     -0.020624      0.046123
    67   Atom       -0.002731     -0.004176      0.006907
    68   Atom       -0.002247     -0.002444      0.004691
    69   Atom       -0.002212     -0.002363      0.004576
    70   Atom       -0.000852     -0.003290      0.004142
    71   Atom       -0.006410     -0.013953      0.020363
    72   Atom       -0.003841     -0.004882      0.008723
    73   Atom       -0.009899     -0.004964      0.014864
    74   Atom        0.000358     -0.043523      0.043165
    75   Atom        0.002639     -0.018478      0.015840
    76   Atom       -0.127365     -0.099776      0.227141
    77   Atom       -0.002685     -0.032484      0.035169
    78   Atom        0.007883     -0.018785      0.010903
 --------------------------------------------------------
                        XY            XZ            YZ
 --------------------------------------------------------
     1   Atom        1.289949      0.245658      0.179370
     2   Atom       -0.158840     -0.002239      0.007424
     3   Atom        0.165965     -0.013327     -0.014228
     4   Atom       -0.161292      0.004585     -0.020352
     5   Atom        0.166513      0.011504      0.014124
     6   Atom       -0.014986     -0.002645     -0.001889
     7   Atom       -0.011858     -0.003774      0.002617
     8   Atom       -0.013220     -0.001319      0.001535
     9   Atom       -0.025244     -0.010600      0.002474
    10   Atom        0.013303      0.000340      0.003132
    11   Atom        0.011904      0.000765      0.001900
    12   Atom        0.012947      0.001349      0.004242
    13   Atom        0.026497      0.001793      0.006326
    14   Atom       -0.013610      0.004573     -0.002718
    15   Atom       -0.012216      0.004634     -0.002805
    16   Atom       -0.013550      0.003172     -0.002963
    17   Atom       -0.026739      0.017441     -0.003401
    18   Atom        0.014983      0.002799     -0.004664
    19   Atom        0.012269     -0.001233     -0.001297
    20   Atom        0.012641     -0.003239     -0.004563
    21   Atom        0.026489      0.000502     -0.005547
    22   Atom        0.003817     -0.000561     -0.003307
    23   Atom        0.001396     -0.000011     -0.000460
    24   Atom       -0.004645     -0.003531      0.002951
    25   Atom       -0.002320     -0.001137      0.000188
    26   Atom        0.004662      0.003558      0.002613
    27   Atom        0.001725      0.000151      0.000927
    28   Atom       -0.004584      0.006376     -0.002462
    29   Atom       -0.002358      0.002088     -0.000244
    30   Atom       -0.004887     -0.000807      0.000456
    31   Atom       -0.003292     -0.000432      0.000396
    32   Atom       -0.003485      0.000536     -0.000184
    33   Atom       -0.003459     -0.001869      0.000868
    34   Atom       -0.003426     -0.000121      0.000598
    35   Atom       -0.002110     -0.000321      0.001626
    36   Atom       -0.002304      0.000200     -0.000912
    37   Atom       -0.002822     -0.000230      0.000383
    38   Atom        0.003303      0.000199      0.000190
    39   Atom        0.002033     -0.001015     -0.000216
    40   Atom        0.002240      0.001371      0.000380
    41   Atom        0.002910     -0.000121     -0.000141
    42   Atom        0.004556     -0.001391      0.001007
    43   Atom        0.003313     -0.000039     -0.000087
    44   Atom        0.002904      0.005690      0.000958
    45   Atom        0.002997      0.000987      0.001176
    46   Atom        0.001763      0.000590      0.000496
    47   Atom       -0.003507      0.000086     -0.000917
    48   Atom       -0.001757      0.000227     -0.001504
    49   Atom       -0.002619     -0.000222      0.000728
    50   Atom       -0.002839      0.000584     -0.000958
    51   Atom       -0.004939      0.001243     -0.000192
    52   Atom       -0.003412      0.001946     -0.000872
    53   Atom       -0.002821     -0.000119     -0.000023
    54   Atom       -0.002820     -0.000135      0.000206
    55   Atom       -0.001913      0.000268     -0.000181
    56   Atom        0.003322     -0.000118     -0.000048
    57   Atom        0.002280      0.001323      0.000352
    58   Atom        0.002122     -0.001293     -0.000278
    59   Atom        0.002956     -0.000207     -0.000111
    60   Atom        0.004730     -0.000429     -0.000871
    61   Atom        0.003335     -0.000320     -0.000403
    62   Atom        0.003589     -0.000880     -0.001704
    63   Atom        0.003426      0.000303      0.000606
    64   Atom        0.011328     -0.026527      0.027956
    65   Atom       -0.011232     -0.021698      0.030309
    66   Atom       -0.002258      0.003593     -0.014440
    67   Atom        0.000018     -0.003738     -0.000102
    68   Atom       -0.000209     -0.001762      0.001063
    69   Atom        0.000287     -0.001820     -0.001286
    70   Atom        0.000011     -0.004062     -0.000037
    71   Atom        0.001694      0.001915     -0.004117
    72   Atom       -0.000045      0.003016     -0.000671
    73   Atom        0.001069     -0.003959      0.000528
    74   Atom       -0.009491      0.024265     -0.011424
    75   Atom       -0.002633      0.027323     -0.002579
    76   Atom        0.001170     -0.012316     -0.009237
    77   Atom       -0.004296     -0.028931      0.004736
    78   Atom       -0.001359     -0.027863      0.001001
 --------------------------------------------------------


 ---------------------------------------------------------------------------------
              Anisotropic Spin Dipole Couplings in Principal Axis System
 ---------------------------------------------------------------------------------

       Atom             a.u.   MegaHertz   Gauss  10(-4) cm-1        Axes

              Baa    -0.9844   -17.043    -6.081    -5.685  0.1319 -0.3827  0.9144
     1 Fe(57) Bbb    -0.9361   -16.206    -5.783    -5.406 -0.5337  0.7499  0.3909
              Bcc     1.9205    33.249    11.864    11.091  0.8353  0.5396  0.1054
 
              Baa    -0.1264    -4.876    -1.740    -1.626  0.7742  0.6306 -0.0542
     2 N(14)  Bbb    -0.0720    -2.779    -0.992    -0.927  0.0588  0.0136  0.9982
              Bcc     0.1985     7.655     2.731     2.553 -0.6302  0.7759  0.0265
 
              Baa    -0.1185    -4.569    -1.630    -1.524 -0.6073  0.7702  0.1950
     3 N(14)  Bbb    -0.1044    -4.025    -1.436    -1.343  0.1678 -0.1156  0.9790
              Bcc     0.2228     8.594     3.066     2.867  0.7766  0.6272 -0.0590
 
              Baa    -0.1359    -5.243    -1.871    -1.749  0.7713  0.6245  0.1228
     4 N(14)  Bbb    -0.0614    -2.370    -0.846    -0.790 -0.1411 -0.0203  0.9898
              Bcc     0.1974     7.612     2.716     2.539 -0.6206  0.7808 -0.0725
 
              Baa    -0.1188    -4.580    -1.634    -1.528 -0.6086  0.7566 -0.2392
     5 N(14)  Bbb    -0.1035    -3.990    -1.424    -1.331 -0.1937  0.1507  0.9694
              Bcc     0.2222     8.571     3.058     2.859  0.7695  0.6363  0.0548
 
              Baa    -0.0394    -5.291    -1.888    -1.765  0.1189  0.0403  0.9921
     6 C(13)  Bbb    -0.0152    -2.046    -0.730    -0.683  0.9687  0.2146 -0.1248
              Bcc     0.0547     7.337     2.618     2.447 -0.2179  0.9759 -0.0135
 
              Baa    -0.0181    -2.423    -0.865    -0.808  0.1654 -0.0191  0.9860
     7 C(13)  Bbb    -0.0042    -0.564    -0.201    -0.188  0.8267  0.5479 -0.1281
              Bcc     0.0223     2.987     1.066     0.996 -0.5378  0.8363  0.1064
 
              Baa    -0.0119    -1.595    -0.569    -0.532  0.0230 -0.0688  0.9974
     8 C(13)  Bbb    -0.0073    -0.985    -0.351    -0.329  0.7107  0.7028  0.0321
              Bcc     0.0192     2.580     0.921     0.861 -0.7031  0.7081  0.0650
 
              Baa    -0.0455    -6.112    -2.181    -2.039  0.1202  0.0128  0.9927
     9 C(13)  Bbb    -0.0116    -1.551    -0.553    -0.517  0.3994  0.9148 -0.0602
              Bcc     0.0571     7.663     2.734     2.556  0.9089 -0.4037 -0.1049
 
              Baa    -0.0484    -6.497    -2.318    -2.167  0.0069 -0.0803  0.9967
    10 C(13)  Bbb    -0.0108    -1.443    -0.515    -0.481 -0.1937  0.9778  0.0801
              Bcc     0.0592     7.940     2.833     2.649  0.9810  0.1936  0.0088
 
              Baa    -0.0121    -1.622    -0.579    -0.541  0.0840 -0.2273  0.9702
    11 C(13)  Bbb    -0.0069    -0.932    -0.332    -0.311 -0.5384  0.8090  0.2361
              Bcc     0.0190     2.553     0.911     0.852  0.8385  0.5421  0.0544
 
              Baa    -0.0198    -2.662    -0.950    -0.888  0.0230 -0.1565  0.9874
    12 C(13)  Bbb    -0.0031    -0.415    -0.148    -0.138 -0.6939  0.7085  0.1285
              Bcc     0.0229     3.077     1.098     1.026  0.7197  0.6881  0.0923
 
              Baa    -0.0362    -4.857    -1.733    -1.620  0.0176 -0.0882  0.9960
    13 C(13)  Bbb    -0.0170    -2.284    -0.815    -0.762  0.9093 -0.4127 -0.0526
              Bcc     0.0532     7.140     2.548     2.382  0.4157  0.9066  0.0729
 
              Baa    -0.0399    -5.357    -1.911    -1.787 -0.1776  0.0027  0.9841
    14 C(13)  Bbb    -0.0167    -2.240    -0.799    -0.747  0.9657  0.1929  0.1737
              Bcc     0.0566     7.597     2.711     2.534 -0.1894  0.9812 -0.0369
 
              Baa    -0.0196    -2.636    -0.940    -0.879 -0.1938  0.0109  0.9810
    15 C(13)  Bbb    -0.0040    -0.532    -0.190    -0.177  0.8269  0.5399  0.1574
              Bcc     0.0236     3.168     1.130     1.057 -0.5279  0.8417 -0.1136
 
              Baa    -0.0118    -1.581    -0.564    -0.527 -0.1357  0.0615  0.9888
    16 C(13)  Bbb    -0.0080    -1.069    -0.381    -0.356  0.7101  0.7020  0.0537
              Bcc     0.0197     2.649     0.945     0.884 -0.6909  0.7095 -0.1389
 
              Baa    -0.0596    -7.992    -2.852    -2.666 -0.1576 -0.0133  0.9874
    17 C(13)  Bbb    -0.0069    -0.926    -0.331    -0.309  0.3939  0.9161  0.0752
              Bcc     0.0665     8.918     3.182     2.975  0.9055 -0.4008  0.1392
 
              Baa    -0.0562    -7.546    -2.693    -2.517 -0.0367  0.1025  0.9941
    18 C(13)  Bbb    -0.0083    -1.110    -0.396    -0.370 -0.2052  0.9728 -0.1079
              Bcc     0.0645     8.657     3.089     2.888  0.9780  0.2079  0.0147
 
              Baa    -0.0104    -1.402    -0.500    -0.468 -0.5427  0.8350  0.0908
    19 C(13)  Bbb    -0.0060    -0.804    -0.287    -0.268  0.1149 -0.0333  0.9928
              Bcc     0.0164     2.206     0.787     0.736  0.8321  0.5492 -0.0778
 
              Baa    -0.0227    -3.052    -1.089    -1.018  0.0499  0.1179  0.9918
    20 C(13)  Bbb    -0.0016    -0.213    -0.076    -0.071 -0.6933  0.7189 -0.0506
              Bcc     0.0243     3.265     1.165     1.089  0.7189  0.6851 -0.1176
 
              Baa    -0.0390    -5.235    -1.868    -1.746 -0.0894  0.0951  0.9914
    21 C(13)  Bbb    -0.0165    -2.218    -0.792    -0.740  0.9128 -0.3904  0.1198
              Bcc     0.0555     7.454     2.660     2.486  0.3984  0.9157 -0.0519
 
              Baa    -0.0304    -4.084    -1.457    -1.362  0.0155  0.0484  0.9987
    22 C(13)  Bbb    -0.0066    -0.885    -0.316    -0.295  0.9960 -0.0890 -0.0112
              Bcc     0.0370     4.970     1.773     1.658  0.0883  0.9949 -0.0496
 
              Baa    -0.0066    -3.507    -1.251    -1.170 -0.0324  0.0267  0.9991
    23 H(1)   Bbb    -0.0059    -3.134    -1.118    -1.046  0.9966 -0.0756  0.0343
              Bcc     0.0124     6.642     2.370     2.215  0.0764  0.9968 -0.0242
 
              Baa    -0.0227    -3.041    -1.085    -1.014  0.0449 -0.2132  0.9760
    24 C(13)  Bbb    -0.0101    -1.355    -0.484    -0.452  0.1244  0.9705  0.2063
              Bcc     0.0328     4.396     1.569     1.466  0.9912 -0.1122 -0.0702
 
              Baa    -0.0064    -3.428    -1.223    -1.143  0.0380 -0.1764  0.9836
    25 H(1)   Bbb    -0.0062    -3.287    -1.173    -1.097  0.1337  0.9763  0.1700
              Bcc     0.0126     6.715     2.396     2.240  0.9903 -0.1251 -0.0607
 
              Baa    -0.0276    -3.706    -1.322    -1.236 -0.1764 -0.0277  0.9839
    26 C(13)  Bbb    -0.0084    -1.131    -0.403    -0.377  0.9784 -0.1143  0.1722
              Bcc     0.0360     4.837     1.726     1.613  0.1077  0.9931  0.0473
 
              Baa    -0.0067    -3.579    -1.277    -1.194 -0.1374 -0.0351  0.9899
    27 H(1)   Bbb    -0.0062    -3.313    -1.182    -1.105  0.9863 -0.0965  0.1335
              Bcc     0.0129     6.892     2.459     2.299  0.0908  0.9947  0.0478
 
              Baa    -0.0209    -2.808    -1.002    -0.937 -0.0966  0.2287  0.9687
    28 C(13)  Bbb    -0.0125    -1.678    -0.599    -0.560  0.1301  0.9678 -0.2155
              Bcc     0.0334     4.486     1.601     1.496  0.9868 -0.1052  0.1233
 
              Baa    -0.0066    -3.544    -1.264    -1.182  0.1600  0.7775 -0.6081
    29 H(1)   Bbb    -0.0066    -3.533    -1.261    -1.178 -0.0096  0.6173  0.7867
              Bcc     0.0133     7.076     2.525     2.360  0.9871 -0.1200  0.1063
 
              Baa    -0.0038    -0.511    -0.182    -0.171  0.5286  0.8444  0.0873
    30 C(13)  Bbb    -0.0034    -0.457    -0.163    -0.153  0.0283 -0.1203  0.9923
              Bcc     0.0072     0.969     0.346     0.323  0.8484 -0.5221 -0.0874
 
              Baa    -0.0023    -1.218    -0.435    -0.406  0.0405 -0.0848  0.9956
    31 H(1)   Bbb    -0.0022    -1.170    -0.417    -0.390  0.6734  0.7385  0.0355
              Bcc     0.0045     2.388     0.852     0.797  0.7382 -0.6689 -0.0871
 
              Baa    -0.0029    -1.559    -0.556    -0.520  0.4136  0.7102 -0.5696
    32 H(1)   Bbb    -0.0027    -1.462    -0.522    -0.488  0.2159  0.5313  0.8192
              Bcc     0.0057     3.021     1.078     1.008  0.8845 -0.4618  0.0664
 
              Baa    -0.0031    -1.635    -0.583    -0.545  0.5039  0.6861  0.5248
    33 H(1)   Bbb    -0.0029    -1.521    -0.543    -0.507 -0.0706 -0.5728  0.8167
              Bcc     0.0059     3.156     1.126     1.053  0.8609 -0.4486 -0.2402
 
              Baa    -0.0038    -0.507    -0.181    -0.169  0.9066  0.3342 -0.2577
    34 C(13)  Bbb    -0.0034    -0.461    -0.165    -0.154  0.2617  0.0339  0.9646
              Bcc     0.0072     0.968     0.346     0.323 -0.3311  0.9419  0.0567
 
              Baa    -0.0031    -1.634    -0.583    -0.545  0.7775  0.3123 -0.5459
    35 H(1)   Bbb    -0.0028    -1.518    -0.542    -0.506  0.5782 -0.0136  0.8158
              Bcc     0.0059     3.152     1.125     1.051 -0.2474  0.9499  0.1911
 
              Baa    -0.0029    -1.564    -0.558    -0.522  0.8395  0.2991  0.4537
    36 H(1)   Bbb    -0.0028    -1.478    -0.527    -0.493 -0.4656 -0.0347  0.8843
              Bcc     0.0057     3.042     1.085     1.015 -0.2803  0.9536 -0.1102
 
              Baa    -0.0023    -1.215    -0.434    -0.405  0.1115 -0.0129  0.9937
    37 H(1)   Bbb    -0.0022    -1.151    -0.411    -0.384  0.8625  0.4979 -0.0903
              Bcc     0.0044     2.366     0.844     0.789 -0.4936  0.8671  0.0666
 
              Baa    -0.0039    -0.521    -0.186    -0.174  0.0850 -0.3178  0.9443
    38 C(13)  Bbb    -0.0035    -0.470    -0.168    -0.157 -0.3085  0.8928  0.3282
              Bcc     0.0074     0.991     0.354     0.331  0.9474  0.3192  0.0222
 
              Baa    -0.0030    -1.613    -0.576    -0.538 -0.2525  0.7203 -0.6460
    39 H(1)   Bbb    -0.0030    -1.581    -0.564    -0.527 -0.0673  0.6530  0.7544
              Bcc     0.0060     3.194     1.140     1.066  0.9652  0.2340 -0.1164
 
              Baa    -0.0028    -1.474    -0.526    -0.492 -0.3415  0.8058  0.4838
    40 H(1)   Bbb    -0.0027    -1.419    -0.506    -0.473 -0.0028 -0.5156  0.8568
              Bcc     0.0054     2.893     1.032     0.965  0.9399  0.2912  0.1783
 
              Baa    -0.0024    -1.276    -0.455    -0.425 -0.3683  0.7163  0.5928
    41 H(1)   Bbb    -0.0023    -1.201    -0.429    -0.401  0.2985 -0.5127  0.8050
              Bcc     0.0046     2.477     0.884     0.826  0.8805  0.4734 -0.0250
 
              Baa    -0.0049    -0.663    -0.236    -0.221  0.7177 -0.4823  0.5023
    42 C(13)  Bbb    -0.0010    -0.133    -0.047    -0.044 -0.4225  0.2718  0.8646
              Bcc     0.0059     0.795     0.284     0.265  0.5536  0.8328  0.0087
 
              Baa    -0.0030    -1.610    -0.575    -0.537 -0.0003  0.0119  0.9999
    43 H(1)   Bbb    -0.0029    -1.535    -0.548    -0.512  0.9097 -0.4151  0.0053
              Bcc     0.0059     3.145     1.122     1.049  0.4152  0.9097 -0.0107
 
              Baa    -0.0082    -1.105    -0.394    -0.369 -0.6237  0.0836  0.7772
    44 C(13)  Bbb     0.0012     0.161     0.057     0.054 -0.5629  0.6418 -0.5207
              Bcc     0.0070     0.944     0.337     0.315  0.5424  0.7623  0.3532
 
              Baa    -0.0023    -1.239    -0.442    -0.413 -0.5412  0.7316 -0.4145
    45 H(1)   Bbb    -0.0019    -0.991    -0.353    -0.330 -0.4643  0.1511  0.8727
              Bcc     0.0042     2.229     0.796     0.744  0.7011  0.6647  0.2579
 
              Baa    -0.0014    -0.735    -0.262    -0.245  0.6649 -0.3825 -0.6415
    46 H(1)   Bbb    -0.0011    -0.591    -0.211    -0.197  0.3989 -0.5443  0.7380
              Bcc     0.0025     1.326     0.473     0.442  0.6315  0.7466  0.2093
 
              Baa    -0.0040    -0.534    -0.191    -0.178  0.6768  0.2934  0.6752
    47 C(13)  Bbb    -0.0035    -0.475    -0.169    -0.158 -0.6588 -0.1679  0.7334
              Bcc     0.0075     1.009     0.360     0.337 -0.3285  0.9411 -0.0796
 
              Baa    -0.0032    -1.733    -0.618    -0.578  0.5723  0.2424  0.7834
    48 H(1)   Bbb    -0.0031    -1.659    -0.592    -0.553  0.7978  0.0563 -0.6003
              Bcc     0.0064     3.392     1.210     1.131 -0.1895  0.9686 -0.1612
 
              Baa    -0.0028    -1.481    -0.528    -0.494  0.9027  0.3577 -0.2391
    49 H(1)   Bbb    -0.0026    -1.381    -0.493    -0.460  0.2575 -0.0042  0.9663
              Bcc     0.0054     2.861     1.021     0.954 -0.3447  0.9338  0.0959
 
              Baa    -0.0024    -1.283    -0.458    -0.428 -0.5381 -0.1361  0.8318
    50 H(1)   Bbb    -0.0023    -1.212    -0.433    -0.404  0.7005  0.4767  0.5311
              Bcc     0.0047     2.495     0.890     0.832 -0.4688  0.8685 -0.1612
 
              Baa    -0.0046    -0.617    -0.220    -0.206 -0.2710 -0.2841  0.9197
    51 C(13)  Bbb    -0.0033    -0.438    -0.156    -0.146  0.4395  0.8135  0.3808
              Bcc     0.0079     1.055     0.377     0.352  0.8564 -0.5074  0.0956
 
              Baa    -0.0032    -1.688    -0.602    -0.563 -0.4555 -0.6011  0.6567
    52 H(1)   Bbb    -0.0031    -1.650    -0.589    -0.550  0.1300  0.6848  0.7170
              Bcc     0.0063     3.338     1.191     1.114  0.8807 -0.4120  0.2338
 
              Baa    -0.0025    -0.333    -0.119    -0.111  0.0790  0.0774  0.9939
    53 C(13)  Bbb    -0.0016    -0.218    -0.078    -0.073  0.6313  0.7677 -0.1100
              Bcc     0.0041     0.552     0.197     0.184  0.7715 -0.6361 -0.0117
 
              Baa    -0.0020    -1.062    -0.379    -0.354  0.7143  0.6851 -0.1433
    54 H(1)   Bbb    -0.0017    -0.898    -0.320    -0.300  0.1349  0.0661  0.9886
              Bcc     0.0037     1.960     0.699     0.654 -0.6868  0.7255  0.0452
 
              Baa    -0.0014    -0.729    -0.260    -0.243  0.5532  0.7159 -0.4259
    55 H(1)   Bbb    -0.0013    -0.717    -0.256    -0.239  0.1894  0.3898  0.9012
              Bcc     0.0027     1.446     0.516     0.482  0.8112 -0.5792  0.0800
 
              Baa    -0.0039    -0.528    -0.188    -0.176  0.0040  0.0232  0.9997
    56 C(13)  Bbb    -0.0035    -0.474    -0.169    -0.158 -0.3189  0.9476 -0.0207
              Bcc     0.0075     1.002     0.357     0.334  0.9478  0.3187 -0.0111
 
              Baa    -0.0029    -1.555    -0.555    -0.519 -0.2995  0.5840  0.7544
    57 H(1)   Bbb    -0.0028    -1.516    -0.541    -0.506 -0.1163  0.7625 -0.6365
              Bcc     0.0058     3.072     1.096     1.025  0.9470  0.2784  0.1605
 
              Baa    -0.0031    -1.663    -0.593    -0.555  0.2543 -0.5287  0.8098
    58 H(1)   Bbb    -0.0030    -1.613    -0.576    -0.538 -0.1177  0.8142  0.5685
              Bcc     0.0061     3.276     1.169     1.093  0.9599  0.2399 -0.1448
 
              Baa    -0.0024    -1.267    -0.452    -0.423  0.0540 -0.0299  0.9981
    59 H(1)   Bbb    -0.0023    -1.247    -0.445    -0.416 -0.4758  0.8780  0.0520
              Bcc     0.0047     2.514     0.897     0.839  0.8779  0.4777 -0.0332
 
              Baa    -0.0040    -0.531    -0.189    -0.177 -0.0864  0.1507  0.9848
    60 C(13)  Bbb    -0.0034    -0.459    -0.164    -0.153  0.8546 -0.4968  0.1510
              Bcc     0.0074     0.989     0.353     0.330  0.5120  0.8547 -0.0858
 
              Baa    -0.0023    -1.250    -0.446    -0.417 -0.0682  0.1552  0.9855
    61 H(1)   Bbb    -0.0022    -1.186    -0.423    -0.396  0.7590 -0.6331  0.1522
              Bcc     0.0046     2.436     0.869     0.813  0.6475  0.7584 -0.0747
 
              Baa    -0.0030    -1.627    -0.581    -0.543  0.7033 -0.5003 -0.5050
    62 H(1)   Bbb    -0.0030    -1.600    -0.571    -0.534  0.5439 -0.0786  0.8355
              Bcc     0.0060     3.227     1.152     1.077  0.4577  0.8623 -0.2168
 
              Baa    -0.0028    -1.498    -0.535    -0.500  0.5694 -0.3661  0.7360
    63 H(1)   Bbb    -0.0028    -1.485    -0.530    -0.495  0.6794 -0.2945 -0.6721
              Bcc     0.0056     2.983     1.064     0.995  0.4628  0.8828  0.0810
 
              Baa    -0.0975     7.054     2.517     2.353 -0.4961  0.8559 -0.1462
    64 O(17)  Bbb    -0.0647     4.680     1.670     1.561  0.8616  0.5061  0.0394
              Bcc     0.1622   -11.734    -4.187    -3.914 -0.1077  0.1064  0.9885
 
              Baa    -0.0339   -18.078    -6.451    -6.030  0.8599  0.5088  0.0418
    65 H(1)   Bbb    -0.0289   -15.398    -5.494    -5.136 -0.4369  0.7757 -0.4555
              Bcc     0.0627    33.476    11.945    11.167 -0.2642  0.3734  0.8893
 
              Baa    -0.0265   -14.126    -5.041    -4.712  0.8870  0.4593  0.0475
    66 H(1)   Bbb    -0.0228   -12.191    -4.350    -4.066 -0.4587  0.8647  0.2049
              Bcc     0.0493    26.317     9.391     8.778  0.0531 -0.2035  0.9776
 
              Baa    -0.0042    -0.561    -0.200    -0.187  0.0865  0.9955  0.0383
    67 C(13)  Bbb    -0.0040    -0.538    -0.192    -0.179  0.9421 -0.0942  0.3218
              Bcc     0.0082     1.099     0.392     0.366 -0.3239 -0.0083  0.9460
 
              Baa    -0.0027    -1.435    -0.512    -0.479  0.8676 -0.4193  0.2675
    68 H(1)   Bbb    -0.0026    -1.374    -0.490    -0.458  0.4410  0.8972 -0.0243
              Bcc     0.0053     2.809     1.002     0.937 -0.2298  0.1390  0.9633
 
              Baa    -0.0027    -1.431    -0.511    -0.477  0.8926  0.3490  0.2856
    69 H(1)   Bbb    -0.0026    -1.375    -0.491    -0.459 -0.3822  0.9215  0.0685
              Bcc     0.0053     2.807     1.001     0.936 -0.2393 -0.1703  0.9559
 
              Baa    -0.0033    -1.756    -0.626    -0.586  0.0402  0.9988  0.0269
    70 H(1)   Bbb    -0.0031    -1.666    -0.594    -0.556  0.8719 -0.0483  0.4873
              Bcc     0.0064     3.422     1.221     1.141 -0.4880 -0.0039  0.8728
 
              Baa    -0.0149    -0.574    -0.205    -0.191 -0.2218  0.9670  0.1250
    71 N(14)  Bbb    -0.0061    -0.235    -0.084    -0.078  0.9731  0.2277 -0.0350
              Bcc     0.0210     0.808     0.288     0.270  0.0623 -0.1139  0.9915
 
              Baa    -0.0049    -2.635    -0.940    -0.879 -0.2311  0.9679  0.0985
    72 H(1)   Bbb    -0.0045    -2.401    -0.857    -0.801  0.9474  0.2469 -0.2036
              Bcc     0.0094     5.037     1.797     1.680  0.2214 -0.0463  0.9741
 
              Baa    -0.0107    -1.441    -0.514    -0.481  0.9690 -0.1933  0.1538
    73 C(13)  Bbb    -0.0047    -0.637    -0.227    -0.212  0.1937  0.9810  0.0127
              Bcc     0.0155     2.078     0.742     0.693 -0.1534  0.0175  0.9880
 
              Baa    -0.0460    -6.174    -2.203    -2.059  0.1579  0.9839  0.0831
    74 C(13)  Bbb    -0.0102    -1.364    -0.487    -0.455  0.8961 -0.1075 -0.4307
              Bcc     0.0562     7.539     2.690     2.515  0.4149 -0.1425  0.8987
 
              Baa    -0.0193   -10.283    -3.669    -3.430  0.6243  0.6466 -0.4383
    75 H(1)   Bbb    -0.0183    -9.772    -3.487    -3.260 -0.4783  0.7600  0.4400
              Bcc     0.0376    20.054     7.156     6.689  0.6177 -0.0651  0.7837
 
              Baa    -0.1278    -4.930    -1.759    -1.644  0.9990 -0.0305  0.0339
    76 N(14)  Bbb    -0.1000    -3.857    -1.376    -1.287  0.0296  0.9991  0.0293
              Bcc     0.2278     8.787     3.135     2.931 -0.0347 -0.0283  0.9990
 
              Baa    -0.0331    -4.442    -1.585    -1.482  0.1251  0.9920 -0.0158
    77 C(13)  Bbb    -0.0182    -2.439    -0.870    -0.813  0.8706 -0.1021  0.4812
              Bcc     0.0513     6.881     2.455     2.295 -0.4758  0.0740  0.8764
 
              Baa    -0.0190   -10.144    -3.620    -3.384  0.3889  0.8588  0.3335
    78 H(1)   Bbb    -0.0183    -9.782    -3.490    -3.263  0.6132 -0.5115  0.6019
              Bcc     0.0373    19.926     7.110     6.647 -0.6875  0.0296  0.7256
 

 ---------------------------------------------------------------------------------

 Unable to Open any file for archive entry.
 1\1\GINC-BGN1038\SP\UAPFD\Gen\C34H36Fe1N6O1(5)\BECSLEIP\09-Sep-2024\0\
 \# apfd/gen scf=maxcycle=999 geom=check\\2x08_II_Q\\0,5\Fe,0,-12.27865
 31619,-1.4472546879,1.3147122989\N,0,-12.8338955556,0.3591808763,0.594
 0539215\N,0,-10.571545342,-1.2860060894,0.2530545877\N,0,-11.669114874
 5,-3.1724317002,2.0603062884\N,0,-13.8812629226,-1.4398477001,2.505696
 7082\C,0,-13.9773197678,1.0295233043,0.9008882319\C,0,-13.954066987,2.
 3641454151,0.3464105277\C,0,-12.7728549843,2.4817275306,-0.3184695142\
 C,0,-12.0917041162,1.2165154167,-0.160637925\C,0,-10.180308987,-0.2640
 055533,-0.5545340391\C,0,-8.9933959147,-0.6118812572,-1.2916959706\C,0
 ,-8.6645226136,-1.8864063834,-0.9106078536\C,0,-9.6577419055,-2.275742
 4778,0.0724616157\C,0,-10.5198684921,-3.8337440136,1.7599718689\C,0,-1
 0.347137412,-4.9765741627,2.620080844\C,0,-11.4230590635,-4.9860366634
 ,3.4687885017\C,0,-12.2361094588,-3.8438379431,3.094660749\C,0,-14.246
 7322167,-2.4544608998,3.3327190948\C,0,-15.6123236886,-2.2856106997,3.
 7791701537\C,0,-16.0617503167,-1.1384898748,3.2026163017\C,0,-14.96667
 7111,-0.6288499289,2.4072469099\C,0,-15.0160356645,0.5406454266,1.6742
 577989\H,0,-15.9097352468,1.1416614193,1.7466425351\C,0,-10.8492562187
 ,0.9409446573,-0.6953273993\H,0,-10.3949681698,1.6984488437,-1.3157263
 039\C,0,-9.63562218,-3.4754305855,0.7565286075\H,0,-8.8265870688,-4.15
 74268227,0.5433198778\C,0,-13.4418961292,-3.5219755645,3.6921754492\H,
 0,-13.8248778574,-4.2001940069,4.4400958363\C,0,-12.2211056743,3.64662
 28825,-1.0671952037\H,0,-12.9087660163,4.4881273608,-1.0345198541\H,0,
 -12.0492998307,3.3853469087,-2.1118126318\H,0,-11.2700443042,3.9639282
 486,-0.6385975012\C,0,-15.0462572982,3.3641469726,0.5151874713\H,0,-15
 .2122763322,3.576255263,1.5716358198\H,0,-15.9795984395,2.9865289211,0
 .0968072284\H,0,-14.7991056527,4.2965239544,0.0133651856\C,0,-8.259146
 2666,0.2984421207,-2.2136826935\H,0,-8.2599716198,1.317827623,-1.82991
 45501\H,0,-8.7210583947,0.3109353688,-3.2026716155\H,0,-7.2278862031,-
 0.0317756763,-2.3209780264\C,0,-7.5573017456,-2.7098731253,-1.34075815
 04\H,0,-7.1544676758,-3.3822843743,-0.592355801\C,0,-7.0193862999,-2.7
 090174017,-2.5564829715\H,0,-7.4058832003,-2.099650656,-3.3546734237\H
 ,0,-6.1836004493,-3.3428153875,-2.8026908008\C,0,-9.1672709327,-5.8850
 685858,2.6094507298\H,0,-8.2564727629,-5.3306383415,2.3894077144\H,0,-
 9.2814384443,-6.661840181,1.851342703\H,0,-9.0566376096,-6.3661167402,
 3.579312681\C,0,-11.7300530954,-5.8950767799,4.5502413446\H,0,-12.2567
 849727,-5.4590930281,5.3913658293\C,0,-11.4293364761,-7.1897232702,4.5
 812406863\H,0,-10.9509038679,-7.6870875272,3.7558710141\H,0,-11.677848
 6106,-7.8055057694,5.4298493731\C,0,-16.3197827345,-3.2229037979,4.696
 8238756\H,0,-15.8003130306,-3.2878901824,5.6532233886\H,0,-16.35994921
 21,-4.2240608212,4.2670558346\H,0,-17.3372361723,-2.8881715395,4.88332
 13509\C,0,-17.3963510436,-0.4842357826,3.3106786682\H,0,-18.0702991022
 ,-1.0764525387,3.9248285125\H,0,-17.8452404082,-0.3632831309,2.3248525
 713\H,0,-17.3019218869,0.5040828593,3.7618462471\O,0,-11.235,-0.266,2.
 952\H,0,-11.556,0.624,2.806\H,0,-10.646,-0.518,3.568\C,0,-15.530619405
 6,-4.7857797192,-1.728600359\H,0,-15.0459888527,-5.4787424098,-2.41630
 95011\H,0,-16.3851805699,-4.3413187415,-2.2385875263\H,0,-15.889058090
 2,-5.3430508325,-0.8689138682\N,0,-13.9932682886,-2.8546687935,-2.1487
 469016\H,0,-14.1359625386,-2.8268631,-3.1449426461\C,0,-14.5804109869,
 -3.7367495836,-1.2799000902\C,0,-13.1917973581,-2.0395833418,-1.425884
 8739\H,0,-12.6038739528,-1.2482621338,-1.8428955471\N,0,-13.2362448732
 ,-2.3521697414,-0.1532515276\C,0,-14.0952276544,-3.4066539785,-0.04687
 8409\H,0,-14.3050593237,-3.852080331,0.9036941679\\Version=ES64L-G16Re
 vC.02\State=5-A\HF=-2983.3754158\S2=6.154036\S2-1=0.\S2A=6.000593\RMSD
 =2.094e-09\Dipole=-0.9600695,0.0699807,-1.1658189\Quadrupole=-4.193434
 1,-2.2248019,6.418236,3.0681445,5.3480478,3.1470035\PG=C01 [X(C34H36Fe
 1N6O1)]\\@
 The archive entry for this job was punched.


 BUT 'GLORY' DOESN'T MEAN 'A NICE KNOCK DOWN ARGUMENT', ALICE OBJECTED.
 WHEN I USE A WORD, HUMPTY DUMPTY SAID, IN A RATHER SCORNFUL TONE,
 IT MEANS JUST WHAT I CHOOSE IT TO MEAN....
 NEITHER MORE NOR LESS....
 THE QUESTION IS, SAID ALICE,
 WHETHER YOU CAN MAKE WORDS MEAN SO MANY DIFFERENT THINGS...
 THE QUESTION IS, SAID HUMPTY DUMPTY,
 WHICH IS TO BE MASTER....
 THAT IS ALL.....

 ALICE THROUGH THE LOOKING GLASS
 Job cpu time:       0 days  3 hours 31 minutes 17.5 seconds.
 Elapsed time:       0 days  0 hours  3 minutes 40.8 seconds.
 File lengths (MBytes):  RWF=    430 Int=      0 D2E=      0 Chk=    155 Scr=      1
 Normal termination of Gaussian 16 at Mon Sep  9 12:21:12 2024.
