 Entering Gaussian System, Link 0=g16
 Input=2xkg01.com
 Output=2xkg01.log
 Initial command:
 /sw/chem/gaussian/g16_C02/a100/g16/l1.exe "/local/becsleip_8009128/Gau-3986388.inp" -scrdir="/local/becsleip_8009128/"
 Entering Link 1 = /sw/chem/gaussian/g16_C02/a100/g16/l1.exe PID=   3986389.
  
 Copyright (c) 1988-2021, Gaussian, Inc.  All Rights Reserved.
  
 This is part of the Gaussian(R) 16 program.  It is based on
 the Gaussian(R) 09 system (copyright 2009, Gaussian, Inc.),
 the Gaussian(R) 03 system (copyright 2003, Gaussian, Inc.),
 the Gaussian(R) 98 system (copyright 1998, Gaussian, Inc.),
 the Gaussian(R) 94 system (copyright 1995, Gaussian, Inc.),
 the Gaussian 92(TM) system (copyright 1992, Gaussian, Inc.),
 the Gaussian 90(TM) system (copyright 1990, Gaussian, Inc.),
 the Gaussian 88(TM) system (copyright 1988, Gaussian, Inc.),
 the Gaussian 86(TM) system (copyright 1986, Carnegie Mellon
 University), and the Gaussian 82(TM) system (copyright 1983,
 Carnegie Mellon University). Gaussian is a federally registered
 trademark of Gaussian, Inc.
  
 This software contains proprietary and confidential information,
 including trade secrets, belonging to Gaussian, Inc.
  
 This software is provided under written license and may be
 used, copied, transmitted, or stored only in accord with that
 written license.
  
 The following legend is applicable only to US Government
 contracts under FAR:
  
                    RESTRICTED RIGHTS LEGEND
  
 Use, reproduction and disclosure by the US Government is
 subject to restrictions as set forth in subparagraphs (a)
 and (c) of the Commercial Computer Software - Restricted
 Rights clause in FAR 52.227-19.
  
 Gaussian, Inc.
 340 Quinnipiac St., Bldg. 40, Wallingford CT 06492
  
  
 ---------------------------------------------------------------
 Warning -- This program may not be used in any manner that
 competes with the business of Gaussian, Inc. or will provide
 assistance to any competitor of Gaussian, Inc.  The licensee
 of this program is prohibited from giving any competitor of
 Gaussian, Inc. access to this program.  By using this program,
 the user acknowledges that Gaussian, Inc. is engaged in the
 business of creating and licensing software in the field of
 computational chemistry and represents and warrants to the
 licensee that it is not a competitor of Gaussian, Inc. and that
 it will not use this program in any manner prohibited above.
 ---------------------------------------------------------------
  

 Cite this work as:
 Gaussian 16, Revision C.02,
 M. J. Frisch, G. W. Trucks, H. B. Schlegel, G. E. Scuseria, 
 M. A. Robb, J. R. Cheeseman, G. Scalmani, V. Barone, 
 G. A. Petersson, H. Nakatsuji, X. Li, M. Caricato, A. V. Marenich, 
 J. Bloino, B. G. Janesko, R. Gomperts, B. Mennucci, H. P. Hratchian, 
 J. V. Ortiz, A. F. Izmaylov, J. L. Sonnenberg, D. Williams-Young, 
 F. Ding, F. Lipparini, F. Egidi, J. Goings, B. Peng, A. Petrone, 
 T. Henderson, D. Ranasinghe, V. G. Zakrzewski, J. Gao, N. Rega, 
 G. Zheng, W. Liang, M. Hada, M. Ehara, K. Toyota, R. Fukuda, 
 J. Hasegawa, M. Ishida, T. Nakajima, Y. Honda, O. Kitao, H. Nakai, 
 T. Vreven, K. Throssell, J. A. Montgomery, Jr., J. E. Peralta, 
 F. Ogliaro, M. J. Bearpark, J. J. Heyd, E. N. Brothers, K. N. Kudin, 
 V. N. Staroverov, T. A. Keith, R. Kobayashi, J. Normand, 
 K. Raghavachari, A. P. Rendell, J. C. Burant, S. S. Iyengar, 
 J. Tomasi, M. Cossi, J. M. Millam, M. Klene, C. Adamo, R. Cammi, 
 J. W. Ochterski, R. L. Martin, K. Morokuma, O. Farkas, 
 J. B. Foresman, and D. J. Fox, Gaussian, Inc., Wallingford CT, 2019.
 
 ******************************************
 Gaussian 16:  ES64L-G16RevC.02  7-Dec-2021
                 9-Sep-2024 
 ******************************************
 %mem=16GB
 %CPU=0-71
 SetSPE:  set environment variable "OMP_PROC_BIND" = "true"
 SetSPE:  set environment variable "OMP_PLACES" = "{0},{1},{2},{3},{4},{5},{6},{7},{8},{9},{10},{11},{12},{13},{14},{15},{16},{17},{18},{19},{20},{21},{22},{23},{24},{25},{26},{27},{28},{29},{30},{31},{32},{33},{34},{35},{36},{37},{38},{39},{40},{41},{42},{43},{44},{45},{46},{47},{48},{49},{50},{51},{52},{53},{54},{55},{56},{57},{58},{59},{60},{61},{62},{63},{64},{65},{66},{67},{68},{69},{70},{71}"
 Will use up to   72 processors via shared memory.
 %gpucpu=0,1,2,3=0,1,2,3
 Will use    4 GPUs:
 Thread  CPU   GPU
      0    0     0
      1    1     1
      2    2     2
      3    3     3
      4    4    -1
      5    5    -1
      6    6    -1
      7    7    -1
      8    8    -1
      9    9    -1
     10   10    -1
     11   11    -1
     12   12    -1
     13   13    -1
     14   14    -1
     15   15    -1
     16   16    -1
     17   17    -1
     18   18    -1
     19   19    -1
     20   20    -1
     21   21    -1
     22   22    -1
     23   23    -1
     24   24    -1
     25   25    -1
     26   26    -1
     27   27    -1
     28   28    -1
     29   29    -1
     30   30    -1
     31   31    -1
     32   32    -1
     33   33    -1
     34   34    -1
     35   35    -1
     36   36    -1
     37   37    -1
     38   38    -1
     39   39    -1
     40   40    -1
     41   41    -1
     42   42    -1
     43   43    -1
     44   44    -1
     45   45    -1
     46   46    -1
     47   47    -1
     48   48    -1
     49   49    -1
     50   50    -1
     51   51    -1
     52   52    -1
     53   53    -1
     54   54    -1
     55   55    -1
     56   56    -1
     57   57    -1
     58   58    -1
     59   59    -1
     60   60    -1
     61   61    -1
     62   62    -1
     63   63    -1
     64   64    -1
     65   65    -1
     66   66    -1
     67   67    -1
     68   68    -1
     69   69    -1
     70   70    -1
     71   71    -1
 SetGPE:  set environment variable "OMP_PROC_BIND" = "true"
 SetGPE:  set environment variable "OMP_PLACES" = "{0},{1},{2},{3},{4},{5},{6},{7},{8},{9},{10},{11},{12},{13},{14},{15},{16},{17},{18},{19},{20},{21},{22},{23},{24},{25},{26},{27},{28},{29},{30},{31},{32},{33},{34},{35},{36},{37},{38},{39},{40},{41},{42},{43},{44},{45},{46},{47},{48},{49},{50},{51},{52},{53},{54},{55},{56},{57},{58},{59},{60},{61},{62},{63},{64},{65},{66},{67},{68},{69},{70},{71}"
 %chk=2xkg_II_O.chk
 Properties for Device   0
 Minimum vector length:                              32
 Maximum vector length:                            1024
 Number of SMPs:                                    108
 Maximum number of threads per SMP:                2048
 Number of ASync Engines:                             5
 Memory:                                           9207742464
 Properties for Device   1
 Minimum vector length:                              32
 Maximum vector length:                            1024
 Number of SMPs:                                    108
 Maximum number of threads per SMP:                2048
 Number of ASync Engines:                             5
 Memory:                                           9207742464
 Properties for Device   2
 Minimum vector length:                              32
 Maximum vector length:                            1024
 Number of SMPs:                                    108
 Maximum number of threads per SMP:                2048
 Number of ASync Engines:                             5
 Memory:                                           9207742464
 Properties for Device   3
 Minimum vector length:                              32
 Maximum vector length:                            1024
 Number of SMPs:                                    108
 Maximum number of threads per SMP:                2048
 Number of ASync Engines:                             5
 Memory:                                           9207742464
   8286968217 words of memory will be used on each GPU.
 ------------------------------------------
 # polar def2tzvp apfd int=(grid=ultrafine)
 ------------------------------------------
 1/38=1,172=1/1;
 2/12=2,17=6,18=5,40=1/2;
 3/5=44,7=101,11=2,25=1,30=1,74=-44,75=-5/1,2,3;
 4//1;
 5/5=2,38=5,98=1/2;
 8/6=4,10=90,11=11/1;
 10/6=1,13=10/2;
 6/7=2,8=2,9=2,10=2,28=1/1;
 99/5=1,9=1/99;
 ---------
 2xkg_II_S
 ---------
 Symbolic Z-matrix:
 Charge =  0 Multiplicity = 1
 Fe                    28.071    31.635    10.155 
 N                     26.233    32.48     10.381 
 N                     28.849    32.925    11.515 
 N                     29.905    30.749    9.959 
 N                     27.308    30.351    8.788 
 C                     25.08     32.171    9.712 
 C                     24.005    33.054    10.134 
 C                     24.545    33.906    11.016 
 C                     25.951    33.602    11.153 
 C                     28.147    33.906    12.212 
 C                     29.057    34.554    13.113 
 C                     30.261    33.986    12.975 
 C                     30.139    32.914    11.997 
 C                     31.065    31.112    10.621 
 C                     32.14     30.249    10.184 
 C                     31.664    29.486    9.195 
 C                     30.251    29.776    9.049 
 C                     28.05     29.411    8.062 
 C                     27.18     28.76     7.134 
 C                     25.838    29.409    7.272 
 C                     25.988    30.381    8.33 
 C                     24.956    31.171    8.787 
 H                     23.962    30.984    8.379 
 C                     26.839    34.273    11.976 
 H                     26.473    35.167    12.48 
 C                     31.179    32.103    11.569 
 H                     32.16     32.262    12.017 
 C                     29.369    29.101    8.244 
 H                     29.755    28.239    7.7 
 C                     23.862    35.077    11.74 
 H                     22.765    35.03     11.569 
 H                     24.248    36.04     11.343 
 H                     24.059    35.01     12.831 
 C                     22.527    32.947    9.677 
 H                     22.015    32.153    10.261 
 H                     22.486    32.685    8.598 
 H                     22.009    33.914    9.853 
 C                     28.659    35.725    14.028 
 H                     27.586    35.635    14.3 
 H                     28.816    36.687    13.496 
 H                     29.269    35.7      14.956 
 C                     31.523    34.248    13.831 
 H                     32.125    33.404    14.198 
 C                     31.915    35.484    14.146 
 H                     31.342    36.357    13.8 
 H                     32.816    35.646    14.756 
 C                     33.588    30.282    10.728 
 H                     33.633    29.738    11.696 
 H                     33.904    31.335    10.891 
 H                     34.272    29.788    10.005 
 C                     32.427    28.343    8.495 
 H                     33.178    27.765    9.054 
 C                     32.216    28.018    7.226 
 H                     31.475    28.566    6.625 
 H                     32.779    27.196    6.759 
 C                     27.575    27.725    6.081 
 H                     28.027    26.842    6.581 
 H                     28.319    28.165    5.383 
 H                     26.674    27.399    5.519 
 C                     24.567    29.143    6.452 
 H                     23.888    28.476    7.026 
 H                     24.835    28.647    5.495 
 H                     24.043    30.102    6.25 
 O                     28.453    32.9      8.693 
 O                     29.541    33.435    8.88 
 C                     27.455    26.969    13.255 
 H                     28.272    26.414    12.746 
 H                     26.492    26.45     13.062 
 H                     27.661    26.993    14.346 
 N                     26.48     29.302    13.183 
 H                     25.818    29.141    13.914 
 C                     27.392    28.365    12.722 
 C                     26.635    30.428    12.499 
 H                     26.074    31.344    12.681 
 N                     27.571    30.234    11.582 
 C                     28.066    28.956    11.708 
 H                     28.853    28.589    11.061 
 
 Stoichiometry    C34H34FeN6O2
 Framework group  C1[X(C34H34FeN6O2)]
 Deg. of freedom   225
 Full point group                 C1      NOp   1
 Largest Abelian subgroup         C1      NOp   1
 Largest concise Abelian subgroup C1      NOp   1
                         Standard orientation:                         
 ---------------------------------------------------------------------
 Center     Atomic      Atomic             Coordinates (Angstroms)
 Number     Number       Type             X           Y           Z
 ---------------------------------------------------------------------
      1         26           0        0.038235    0.163984   -0.339066
      2          7           0        0.943442    1.987129   -0.329716
      3          7           0        1.848356   -0.752835   -0.295588
      4          7           0       -0.879282   -1.664553   -0.299259
      5          7           0       -1.772609    1.068015   -0.394625
      6          6           0        0.350270    3.218252   -0.399965
      7          6           0        1.363172    4.260785   -0.423428
      8          6           0        2.546816    3.632861   -0.412178
      9          6           0        2.314829    2.206630   -0.403947
     10          6           0        3.088812   -0.120160   -0.251281
     11          6           0        4.105046   -1.130522   -0.172263
     12          6           0        3.507303   -2.327967   -0.161731
     13          6           0        2.068048   -2.108312   -0.190878
     14          6           0       -0.249368   -2.896605   -0.269794
     15          6           0       -1.256380   -3.934531   -0.270185
     16          6           0       -2.443212   -3.340794   -0.430724
     17          6           0       -2.227301   -1.907147   -0.435414
     18          6           0       -3.002290    0.405358   -0.494672
     19          6           0       -4.040380    1.381643   -0.600131
     20          6           0       -3.371914    2.720759   -0.633745
     21          6           0       -1.960624    2.449727   -0.487285
     22          6           0       -0.999755    3.435589   -0.434565
     23          1           0       -1.342873    4.470722   -0.419099
     24          6           0        3.300609    1.234911   -0.393313
     25          1           0        4.331310    1.569555   -0.506785
     26          6           0        1.108921   -3.109413   -0.210270
     27          1           0        1.456634   -4.141998   -0.175482
     28          6           0       -3.205101   -0.945136   -0.431281
     29          1           0       -4.237737   -1.288832   -0.372015
     30          6           0        3.949653    4.257700   -0.471608
     31          1           0        3.871012    5.359061   -0.346397
     32          1           0        4.416421    4.038970   -1.455610
     33          1           0        4.578532    3.846844    0.346492
     34          6           0        1.079755    5.785166   -0.396596
     35          1           0        0.869463    6.104789    0.646119
     36          1           0        0.195608    6.013546   -1.029598
     37          1           0        1.967704    6.338437   -0.770531
     38          6           0        5.611925   -0.821421   -0.146895
     39          1           0        5.779843    0.166497    0.331888
     40          1           0        6.006045   -0.790138   -1.184589
     41          1           0        6.144839   -1.600542    0.438667
     42          6           0        4.176370   -3.706019    0.055863
     43          1           0        3.722727   -4.436888    0.741041
     44          6           0        5.304963   -4.046448   -0.569413
     45          1           0        5.792530   -3.345571   -1.263116
     46          1           0        5.762615   -5.032190   -0.399082
     47          6           0       -0.972959   -5.452788   -0.179087
     48          1           0       -0.780497   -5.731283    0.879395
     49          1           0       -0.077246   -5.704719   -0.786921
     50          1           0       -1.853611   -6.021809   -0.546902
     51          6           0       -3.814065   -4.046130   -0.387330
     52          1           0       -3.949892   -4.937642    0.243006
     53          6           0       -4.857088   -3.619887   -1.087992
     54          1           0       -4.771631   -2.732484   -1.732816
     55          1           0       -5.820703   -4.148191   -1.032463
     56          6           0       -5.529871    1.113828   -0.814026
     57          1           0       -5.920121    0.500324    0.025802
     58          1           0       -5.678649    0.559924   -1.765549
     59          1           0       -6.083419    2.076406   -0.844831
     60          6           0       -4.020674    4.100250   -0.820057
     61          1           0       -4.129402    4.595704    0.168937
     62          1           0       -5.026305    3.983194   -1.276886
     63          1           0       -3.378414    4.732409   -1.470394
     64          8           0        0.062058    0.182225   -2.309521
     65          8           0        0.527387   -0.872382   -2.729297
     66          6           0       -1.552365   -0.231243    5.053039
     67          1           0       -2.352221   -0.977088    4.856720
     68          1           0       -2.016705    0.703732    5.432762
     69          1           0       -0.853916   -0.643233    5.811805
     70          7           0        0.258197    0.931945    3.723544
     71          1           0        0.637940    1.422771    4.506750
     72          6           0       -0.811240    0.051751    3.785158
     73          6           0        0.682333    1.008623    2.468958
     74          1           0        1.537386    1.598451    2.140493
     75          7           0       -0.105475    0.256427    1.715181
     76          6           0       -1.040000   -0.359429    2.516161
     77          1           0       -1.780776   -1.033228    2.103956
 ---------------------------------------------------------------------
 Rotational constants (GHZ):           0.0918264           0.0875263           0.0582191
 Standard basis: def2TZVP (5D, 7F)
 There are  1768 symmetry adapted cartesian basis functions of A   symmetry.
 There are  1551 symmetry adapted basis functions of A   symmetry.
  1551 basis functions,  2516 primitive gaussians,  1768 cartesian basis functions
   161 alpha electrons      161 beta electrons
       nuclear repulsion energy      6163.8871241748 Hartrees.
 NAtoms=   77 NActive=   77 NUniq=   77 SFac= 1.00D+00 NAtFMM=   60 NAOKFM=T Big=T
 Integral buffers will be    131072 words long.
 Raffenetti 2 integral format.
 Two-electron integral symmetry is turned on.
 R6APFD:  NTU= -4 IXU= 1 FactS= 1.050
 Nuclear repulsion after empirical dispersion term =     6163.7357594277 Hartrees.
 One-electron integrals computed using PRISM.
   1 Symmetry operations used in ECPInt.
 ECPInt:  NShTT=  188191 NPrTT=  584825 LenC2=  147683 LenP2D=  302413.
 LDataN:  DoStor=T MaxTD1= 6 Len=  172
 Number of processors reduced to  23 by ecpmxn.
 NBasis=  1551 RedAO= T EigKep=  4.02D-06  NBF=  1551
 NBsUse=  1551 1.00D-06 EigRej= -1.00D+00 NBFU=  1551
 ExpMin= 4.20D-02 ExpMax= 3.01D+05 ExpMxC= 2.91D+03 IAcc=3 IRadAn=         5 AccDes= 0.00D+00
 Harris functional with IExCor= 3731 and IRadAn=       5 diagonalized for initial guess.
 HarFok:  IExCor= 3731 AccDes= 0.00D+00 IRadAn=         5 IDoV= 1 UseB2=F ITyADJ=14
 ICtDFT=  3500011 ScaDFX=  1.000000  1.000000  1.000000  1.000000
 FoFCou: FMM=F IPFlag=           0 FMFlag=      100000 FMFlg1=        2001
         NFxFlg=           0 DoJE=T BraDBF=F KetDBF=T FulRan=T
         wScrn=  0.000000 ICntrl=       500 IOpCl=  0 I1Cent=   200000004 NGrid=           0
         NMat0=    1 NMatS0=      1 NMatT0=    0 NMatD0=    1 NMtDS0=    0 NMtDT0=    0
 Petite list used in FoFCou.
 Requested convergence on RMS density matrix=1.00D-08 within 128 cycles.
 Requested convergence on MAX density matrix=1.00D-06.
 Requested convergence on             energy=1.00D-06.
 No special actions if energy rises.
 EnCoef did     6 forward-backward iterations
 Rare condition: small coef for last iteration:  0.000D+00
 EnCoef did   100 forward-backward iterations
 EnCoef did   100 forward-backward iterations
 EnCoef did     3 forward-backward iterations
 EnCoef did     2 forward-backward iterations
 EnCoef did   100 forward-backward iterations
 EnCoef did     5 forward-backward iterations
 EnCoef did     4 forward-backward iterations
 EnCoef did     5 forward-backward iterations
 Restarting incremental Fock formation.
 SCF Done:  E(RAPFD) =  -3057.80879836     A.U. after   34 cycles
            NFock= 34  Conv=0.26D-08     -V/T= 2.0042
 DoSCS=F DFT=T ScalE2(SS,OS)=  1.000000  1.000000
 Range of M.O.s used for correlation:     1  1551
 NBasis=  1551 NAE=   161 NBE=   161 NFC=     0 NFV=     0
 NROrb=   1551 NOA=   161 NOB=   161 NVA=  1390 NVB=  1390

 **** Warning!!: The largest alpha MO coefficient is  0.48598800D+02


 **** Warning!!: The smallest alpha delta epsilon is  0.73172723D-01

          Differentiating once with respect to electric field.
                with respect to dipole field.
          Electric field/nuclear overlap derivatives assumed to be zero.
          There are     3 degrees of freedom in the 1st order CPHF.  IDoFFX=0 NUNeed=     3.
      3 vectors produced by pass  0 Test12= 7.46D-12 3.33D-08 XBig12= 1.98D+03 2.99D+01.
 AX will form     3 AO Fock derivatives at one time.
      3 vectors produced by pass  1 Test12= 7.46D-12 3.33D-08 XBig12= 4.41D+03 2.00D+01.
      3 vectors produced by pass  2 Test12= 7.46D-12 3.33D-08 XBig12= 3.51D+03 1.15D+01.
      3 vectors produced by pass  3 Test12= 7.46D-12 3.33D-08 XBig12= 2.39D+03 8.59D+00.
      3 vectors produced by pass  4 Test12= 7.46D-12 3.33D-08 XBig12= 8.52D+02 8.12D+00.
      3 vectors produced by pass  5 Test12= 7.46D-12 3.33D-08 XBig12= 7.34D+02 7.35D+00.
      3 vectors produced by pass  6 Test12= 7.46D-12 3.33D-08 XBig12= 5.62D+02 4.90D+00.
      3 vectors produced by pass  7 Test12= 7.46D-12 3.33D-08 XBig12= 2.65D+02 3.23D+00.
      3 vectors produced by pass  8 Test12= 7.46D-12 3.33D-08 XBig12= 1.31D+02 2.76D+00.
      3 vectors produced by pass  9 Test12= 7.46D-12 3.33D-08 XBig12= 6.49D+01 2.81D+00.
      3 vectors produced by pass 10 Test12= 7.46D-12 3.33D-08 XBig12= 4.11D+01 1.87D+00.
      3 vectors produced by pass 11 Test12= 7.46D-12 3.33D-08 XBig12= 1.54D+01 8.06D-01.
      3 vectors produced by pass 12 Test12= 7.46D-12 3.33D-08 XBig12= 5.35D+00 4.70D-01.
      3 vectors produced by pass 13 Test12= 7.46D-12 3.33D-08 XBig12= 1.96D+00 3.47D-01.
      3 vectors produced by pass 14 Test12= 7.46D-12 3.33D-08 XBig12= 8.51D-01 2.43D-01.
      3 vectors produced by pass 15 Test12= 7.46D-12 3.33D-08 XBig12= 3.63D-01 1.75D-01.
      3 vectors produced by pass 16 Test12= 7.46D-12 3.33D-08 XBig12= 1.96D-01 1.05D-01.
      3 vectors produced by pass 17 Test12= 7.46D-12 3.33D-08 XBig12= 7.40D-02 6.91D-02.
      3 vectors produced by pass 18 Test12= 7.46D-12 3.33D-08 XBig12= 3.42D-02 5.89D-02.
      3 vectors produced by pass 19 Test12= 7.46D-12 3.33D-08 XBig12= 1.40D-02 3.48D-02.
      3 vectors produced by pass 20 Test12= 7.46D-12 3.33D-08 XBig12= 3.76D-03 9.69D-03.
      3 vectors produced by pass 21 Test12= 7.46D-12 3.33D-08 XBig12= 6.82D-04 2.82D-03.
      3 vectors produced by pass 22 Test12= 7.46D-12 3.33D-08 XBig12= 1.28D-04 1.84D-03.
      3 vectors produced by pass 23 Test12= 7.46D-12 3.33D-08 XBig12= 2.79D-05 9.01D-04.
      3 vectors produced by pass 24 Test12= 7.46D-12 3.33D-08 XBig12= 5.46D-06 4.07D-04.
      3 vectors produced by pass 25 Test12= 7.46D-12 3.33D-08 XBig12= 1.11D-06 1.75D-04.
      3 vectors produced by pass 26 Test12= 7.46D-12 3.33D-08 XBig12= 2.06D-07 8.27D-05.
      3 vectors produced by pass 27 Test12= 7.46D-12 3.33D-08 XBig12= 2.41D-08 2.76D-05.
      3 vectors produced by pass 28 Test12= 7.46D-12 3.33D-08 XBig12= 5.87D-09 1.28D-05.
      3 vectors produced by pass 29 Test12= 7.46D-12 3.33D-08 XBig12= 8.88D-10 4.67D-06.
      3 vectors produced by pass 30 Test12= 7.46D-12 3.33D-08 XBig12= 1.71D-10 1.99D-06.
      3 vectors produced by pass 31 Test12= 7.46D-12 3.33D-08 XBig12= 3.58D-11 8.17D-07.
      3 vectors produced by pass 32 Test12= 7.46D-12 3.33D-08 XBig12= 3.62D-12 2.20D-07.
      3 vectors produced by pass 33 Test12= 7.46D-12 3.33D-08 XBig12= 3.99D-13 7.37D-08.
 InvSVY:  IOpt=1 It=  1 EMax= 1.78D-14
 Solved reduced A of dimension   102 with     3 vectors.
 Isotropic polarizability for W=    0.000000      589.76 Bohr**3.
 End of Minotr F.D. properties file   721 does not exist.
 End of Minotr F.D. properties file   722 does not exist.
 End of Minotr F.D. properties file   788 does not exist.

 **********************************************************************

            Population analysis using the SCF Density.

 **********************************************************************

 Orbital symmetries:
       Occupied  (A) (A) (A) (A) (A) (A) (A) (A) (A) (A) (A) (A)
                 (A) (A) (A) (A) (A) (A) (A) (A) (A) (A) (A) (A)
                 (A) (A) (A) (A) (A) (A) (A) (A) (A) (A) (A) (A)
                 (A) (A) (A) (A) (A) (A) (A) (A) (A) (A) (A) (A)
                 (A) (A) (A) (A) (A) (A) (A) (A) (A) (A) (A) (A)
                 (A) (A) (A) (A) (A) (A) (A) (A) (A) (A) (A) (A)
                 (A) (A) (A) (A) (A) (A) (A) (A) (A) (A) (A) (A)
                 (A) (A) (A) (A) (A) (A) (A) (A) (A) (A) (A) (A)
                 (A) (A) (A) (A) (A) (A) (A) (A) (A) (A) (A) (A)
                 (A) (A) (A) (A) (A) (A) (A) (A) (A) (A) (A) (A)
                 (A) (A) (A) (A) (A) (A) (A) (A) (A) (A) (A) (A)
                 (A) (A) (A) (A) (A) (A) (A) (A) (A) (A) (A) (A)
                 (A) (A) (A) (A) (A) (A) (A) (A) (A) (A) (A) (A)
                 (A) (A) (A) (A) (A)
       Virtual   (A) (A) (A) (A) (A) (A) (A) (A) (A) (A) (A) (A)
                 (A) (A) (A) (A) (A) (A) (A) (A) (A) (A) (A) (A)
                 (A) (A) (A) (A) (A) (A) (A) (A) (A) (A) (A) (A)
                 (A) (A) (A) (A) (A) (A) (A) (A) (A) (A) (A) (A)
                 (A) (A) (A) (A) (A) (A) (A) (A) (A) (A) (A) (A)
                 (A) (A) (A) (A) (A) (A) (A) (A) (A) (A) (A) (A)
                 (A) (A) (A) (A) (A) (A) (A) (A) (A) (A) (A) (A)
                 (A) (A) (A) (A) (A) (A) (A) (A) (A) (A) (A) (A)
                 (A) (A) (A) (A) (A) (A) (A) (A) (A) (A) (A) (A)
                 (A) (A) (A) (A) (A) (A) (A) (A) (A) (A) (A) (A)
                 (A) (A) (A) (A) (A) (A) (A) (A) (A) (A) (A) (A)
                 (A) (A) (A) (A) (A) (A) (A) (A) (A) (A) (A) (A)
                 (A) (A) (A) (A) (A) (A) (A) (A) (A) (A) (A) (A)
                 (A) (A) (A) (A) (A) (A) (A) (A) (A) (A) (A) (A)
                 (A) (A) (A) (A) (A) (A) (A) (A) (A) (A) (A) (A)
                 (A) (A) (A) (A) (A) (A) (A) (A) (A) (A) (A) (A)
                 (A) (A) (A) (A) (A) (A) (A) (A) (A) (A) (A) (A)
                 (A) (A) (A) (A) (A) (A) (A) (A) (A) (A) (A) (A)
                 (A) (A) (A) (A) (A) (A) (A) (A) (A) (A) (A) (A)
                 (A) (A) (A) (A) (A) (A) (A) (A) (A) (A) (A) (A)
                 (A) (A) (A) (A) (A) (A) (A) (A) (A) (A) (A) (A)
                 (A) (A) (A) (A) (A) (A) (A) (A) (A) (A) (A) (A)
                 (A) (A) (A) (A) (A) (A) (A) (A) (A) (A) (A) (A)
                 (A) (A) (A) (A) (A) (A) (A) (A) (A) (A) (A) (A)
                 (A) (A) (A) (A) (A) (A) (A) (A) (A) (A) (A) (A)
                 (A) (A) (A) (A) (A) (A) (A) (A) (A) (A) (A) (A)
                 (A) (A) (A) (A) (A) (A) (A) (A) (A) (A) (A) (A)
                 (A) (A) (A) (A) (A) (A) (A) (A) (A) (A) (A) (A)
                 (A) (A) (A) (A) (A) (A) (A) (A) (A) (A) (A) (A)
                 (A) (A) (A) (A) (A) (A) (A) (A) (A) (A) (A) (A)
                 (A) (A) (A) (A) (A) (A) (A) (A) (A) (A) (A) (A)
                 (A) (A) (A) (A) (A) (A) (A) (A) (A) (A) (A) (A)
                 (A) (A) (A) (A) (A) (A) (A) (A) (A) (A) (A) (A)
                 (A) (A) (A) (A) (A) (A) (A) (A) (A) (A) (A) (A)
                 (A) (A) (A) (A) (A) (A) (A) (A) (A) (A) (A) (A)
                 (A) (A) (A) (A) (A) (A) (A) (A) (A) (A) (A) (A)
                 (A) (A) (A) (A) (A) (A) (A) (A) (A) (A) (A) (A)
                 (A) (A) (A) (A) (A) (A) (A) (A) (A) (A) (A) (A)
                 (A) (A) (A) (A) (A) (A) (A) (A) (A) (A) (A) (A)
                 (A) (A) (A) (A) (A) (A) (A) (A) (A) (A) (A) (A)
                 (A) (A) (A) (A) (A) (A) (A) (A) (A) (A) (A) (A)
                 (A) (A) (A) (A) (A) (A) (A) (A) (A) (A) (A) (A)
                 (A) (A) (A) (A) (A) (A) (A) (A) (A) (A) (A) (A)
                 (A) (A) (A) (A) (A) (A) (A) (A) (A) (A) (A) (A)
                 (A) (A) (A) (A) (A) (A) (A) (A) (A) (A) (A) (A)
                 (A) (A) (A) (A) (A) (A) (A) (A) (A) (A) (A) (A)
                 (A) (A) (A) (A) (A) (A) (A) (A) (A) (A) (A) (A)
                 (A) (A) (A) (A) (A) (A) (A) (A) (A) (A) (A) (A)
                 (A) (A) (A) (A) (A) (A) (A) (A) (A) (A) (A) (A)
                 (A) (A) (A) (A) (A) (A) (A) (A) (A) (A) (A) (A)
                 (A) (A) (A) (A) (A) (A) (A) (A) (A) (A) (A) (A)
                 (A) (A) (A) (A) (A) (A) (A) (A) (A) (A) (A) (A)
                 (A) (A) (A) (A) (A) (A) (A) (A) (A) (A) (A) (A)
                 (A) (A) (A) (A) (A) (A) (A) (A) (A) (A) (A) (A)
                 (A) (A) (A) (A) (A) (A) (A) (A) (A) (A) (A) (A)
                 (A) (A) (A) (A) (A) (A) (A) (A) (A) (A) (A) (A)
                 (A) (A) (A) (A) (A) (A) (A) (A) (A) (A) (A) (A)
                 (A) (A) (A) (A) (A) (A) (A) (A) (A) (A) (A) (A)
                 (A) (A) (A) (A) (A) (A) (A) (A) (A) (A) (A) (A)
                 (A) (A) (A) (A) (A) (A) (A) (A) (A) (A) (A) (A)
                 (A) (A) (A) (A) (A) (A) (A) (A) (A) (A) (A) (A)
                 (A) (A) (A) (A) (A) (A) (A) (A) (A) (A) (A) (A)
                 (A) (A) (A) (A) (A) (A) (A) (A) (A) (A) (A) (A)
                 (A) (A) (A) (A) (A) (A) (A) (A) (A) (A) (A) (A)
                 (A) (A) (A) (A) (A) (A) (A) (A) (A) (A) (A) (A)
                 (A) (A) (A) (A) (A) (A) (A) (A) (A) (A) (A) (A)
                 (A) (A) (A) (A) (A) (A) (A) (A) (A) (A) (A) (A)
                 (A) (A) (A) (A) (A) (A) (A) (A) (A) (A) (A) (A)
                 (A) (A) (A) (A) (A) (A) (A) (A) (A) (A) (A) (A)
                 (A) (A) (A) (A) (A) (A) (A) (A) (A) (A) (A) (A)
                 (A) (A) (A) (A) (A) (A) (A) (A) (A) (A) (A) (A)
                 (A) (A) (A) (A) (A) (A) (A) (A) (A) (A) (A) (A)
                 (A) (A) (A) (A) (A) (A) (A) (A) (A) (A) (A) (A)
                 (A) (A) (A) (A) (A) (A) (A) (A) (A) (A) (A) (A)
                 (A) (A) (A) (A) (A) (A) (A) (A) (A) (A) (A) (A)
                 (A) (A) (A) (A) (A) (A) (A) (A) (A) (A) (A) (A)
                 (A) (A) (A) (A) (A) (A) (A) (A) (A) (A) (A) (A)
                 (A) (A) (A) (A) (A) (A) (A) (A) (A) (A) (A) (A)
                 (A) (A) (A) (A) (A) (A) (A) (A) (A) (A) (A) (A)
                 (A) (A) (A) (A) (A) (A) (A) (A) (A) (A) (A) (A)
                 (A) (A) (A) (A) (A) (A) (A) (A) (A) (A) (A) (A)
                 (A) (A) (A) (A) (A) (A) (A) (A) (A) (A) (A) (A)
                 (A) (A) (A) (A) (A) (A) (A) (A) (A) (A) (A) (A)
                 (A) (A) (A) (A) (A) (A) (A) (A) (A) (A) (A) (A)
                 (A) (A) (A) (A) (A) (A) (A) (A) (A) (A) (A) (A)
                 (A) (A) (A) (A) (A) (A) (A) (A) (A) (A) (A) (A)
                 (A) (A) (A) (A) (A) (A) (A) (A) (A) (A) (A) (A)
                 (A) (A) (A) (A) (A) (A) (A) (A) (A) (A) (A) (A)
                 (A) (A) (A) (A) (A) (A) (A) (A) (A) (A) (A) (A)
                 (A) (A) (A) (A) (A) (A) (A) (A) (A) (A) (A) (A)
                 (A) (A) (A) (A) (A) (A) (A) (A) (A) (A) (A) (A)
                 (A) (A) (A) (A) (A) (A) (A) (A) (A) (A) (A) (A)
                 (A) (A) (A) (A) (A) (A) (A) (A) (A) (A) (A) (A)
                 (A) (A) (A) (A) (A) (A) (A) (A) (A) (A) (A) (A)
                 (A) (A) (A) (A) (A) (A) (A) (A) (A) (A) (A) (A)
                 (A) (A) (A) (A) (A) (A) (A) (A) (A) (A) (A) (A)
                 (A) (A) (A) (A) (A) (A) (A) (A) (A) (A) (A) (A)
                 (A) (A) (A) (A) (A) (A) (A) (A) (A) (A) (A) (A)
                 (A) (A) (A) (A) (A) (A) (A) (A) (A) (A) (A) (A)
                 (A) (A) (A) (A) (A) (A) (A) (A) (A) (A) (A) (A)
                 (A) (A) (A) (A) (A) (A) (A) (A) (A) (A) (A) (A)
                 (A) (A) (A) (A) (A) (A) (A) (A) (A) (A) (A) (A)
                 (A) (A) (A) (A) (A) (A) (A) (A) (A) (A) (A) (A)
                 (A) (A) (A) (A) (A) (A) (A) (A) (A) (A) (A) (A)
                 (A) (A) (A) (A) (A) (A) (A) (A) (A) (A) (A) (A)
                 (A) (A) (A) (A) (A) (A) (A) (A) (A) (A) (A) (A)
                 (A) (A) (A) (A) (A) (A) (A) (A) (A) (A) (A) (A)
                 (A) (A) (A) (A) (A) (A) (A) (A) (A) (A) (A) (A)
                 (A) (A) (A) (A) (A) (A) (A) (A) (A) (A) (A) (A)
                 (A) (A) (A) (A) (A) (A) (A) (A) (A) (A) (A) (A)
                 (A) (A) (A) (A) (A) (A) (A) (A) (A) (A) (A) (A)
                 (A) (A) (A) (A) (A) (A) (A) (A) (A) (A) (A) (A)
                 (A) (A) (A) (A) (A) (A) (A) (A) (A) (A) (A) (A)
                 (A) (A) (A) (A) (A) (A) (A) (A) (A) (A) (A) (A)
                 (A) (A) (A) (A) (A) (A) (A) (A) (A) (A) (A) (A)
                 (A) (A) (A) (A) (A) (A) (A) (A) (A) (A)
 The electronic state is 1-A.
 Alpha  occ. eigenvalues -- -256.22127 -30.07474 -25.91791 -25.91411 -25.90792
 Alpha  occ. eigenvalues --  -19.27241 -19.22303 -14.42331 -14.36815 -14.34424
 Alpha  occ. eigenvalues --  -14.34371 -14.34283 -14.33586 -10.26492 -10.24417
 Alpha  occ. eigenvalues --  -10.22297 -10.22210 -10.22188 -10.22164 -10.22075
 Alpha  occ. eigenvalues --  -10.22027 -10.21859 -10.21781 -10.21755 -10.21613
 Alpha  occ. eigenvalues --  -10.21029 -10.21016 -10.20481 -10.20472 -10.20288
 Alpha  occ. eigenvalues --  -10.20141 -10.20068 -10.19931 -10.19893 -10.19804
 Alpha  occ. eigenvalues --  -10.19772 -10.19771 -10.19742 -10.19659 -10.19658
 Alpha  occ. eigenvalues --  -10.19611 -10.19555 -10.19391 -10.19259 -10.19247
 Alpha  occ. eigenvalues --  -10.19221 -10.19063  -3.44431  -2.21206  -2.20500
 Alpha  occ. eigenvalues --   -2.19505  -1.22313  -1.06108  -0.96607  -0.96026
 Alpha  occ. eigenvalues --   -0.95243  -0.93433  -0.90728  -0.82769  -0.81371
 Alpha  occ. eigenvalues --   -0.81118  -0.80973  -0.80535  -0.80137  -0.79776
 Alpha  occ. eigenvalues --   -0.78156  -0.76803  -0.76572  -0.75916  -0.74762
 Alpha  occ. eigenvalues --   -0.74066  -0.72563  -0.72006  -0.70837  -0.69854
 Alpha  occ. eigenvalues --   -0.68402  -0.68170  -0.66696  -0.65046  -0.64912
 Alpha  occ. eigenvalues --   -0.64433  -0.62095  -0.60029  -0.59127  -0.58142
 Alpha  occ. eigenvalues --   -0.56936  -0.56335  -0.55119  -0.54241  -0.53478
 Alpha  occ. eigenvalues --   -0.52145  -0.51122  -0.50865  -0.50478  -0.49382
 Alpha  occ. eigenvalues --   -0.48862  -0.48282  -0.48054  -0.47920  -0.47230
 Alpha  occ. eigenvalues --   -0.46854  -0.46614  -0.46130  -0.45016  -0.44818
 Alpha  occ. eigenvalues --   -0.44641  -0.44238  -0.43475  -0.43384  -0.43269
 Alpha  occ. eigenvalues --   -0.43062  -0.42990  -0.42834  -0.42732  -0.42602
 Alpha  occ. eigenvalues --   -0.42250  -0.41738  -0.41484  -0.41307  -0.41035
 Alpha  occ. eigenvalues --   -0.40461  -0.40385  -0.40148  -0.39827  -0.39603
 Alpha  occ. eigenvalues --   -0.39362  -0.39121  -0.38919  -0.38802  -0.38027
 Alpha  occ. eigenvalues --   -0.37539  -0.37431  -0.36892  -0.36387  -0.36043
 Alpha  occ. eigenvalues --   -0.35780  -0.35270  -0.34480  -0.33937  -0.33804
 Alpha  occ. eigenvalues --   -0.33562  -0.32476  -0.32176  -0.31568  -0.30444
 Alpha  occ. eigenvalues --   -0.29830  -0.29485  -0.28749  -0.27475  -0.27335
 Alpha  occ. eigenvalues --   -0.25694  -0.24992  -0.24134  -0.23524  -0.22702
 Alpha  occ. eigenvalues --   -0.22266  -0.21567  -0.20633  -0.19435  -0.19061
 Alpha  occ. eigenvalues --   -0.18769
 Alpha virt. eigenvalues --   -0.11451  -0.07688  -0.07136  -0.02312  -0.00337
 Alpha virt. eigenvalues --    0.00092   0.00827   0.01264   0.01726   0.02265
 Alpha virt. eigenvalues --    0.03589   0.04173   0.04635   0.04699   0.05056
 Alpha virt. eigenvalues --    0.05620   0.05925   0.06238   0.06833   0.07253
 Alpha virt. eigenvalues --    0.07707   0.07851   0.08238   0.08446   0.08828
 Alpha virt. eigenvalues --    0.09346   0.09706   0.10170   0.10517   0.10596
 Alpha virt. eigenvalues --    0.10744   0.11138   0.11382   0.11546   0.11847
 Alpha virt. eigenvalues --    0.11934   0.12147   0.12339   0.12640   0.12813
 Alpha virt. eigenvalues --    0.12961   0.13264   0.13498   0.13662   0.13762
 Alpha virt. eigenvalues --    0.13949   0.14146   0.14283   0.14410   0.14636
 Alpha virt. eigenvalues --    0.14942   0.15203   0.15420   0.15593   0.15647
 Alpha virt. eigenvalues --    0.16106   0.16408   0.16714   0.17035   0.17227
 Alpha virt. eigenvalues --    0.17662   0.17763   0.18188   0.18687   0.18896
 Alpha virt. eigenvalues --    0.19035   0.19490   0.19864   0.20021   0.20253
 Alpha virt. eigenvalues --    0.20736   0.21028   0.21137   0.21464   0.21591
 Alpha virt. eigenvalues --    0.21862   0.22185   0.22549   0.22843   0.22997
 Alpha virt. eigenvalues --    0.23446   0.23549   0.23670   0.24048   0.24718
 Alpha virt. eigenvalues --    0.24870   0.25169   0.25303   0.25707   0.25783
 Alpha virt. eigenvalues --    0.26303   0.26564   0.26901   0.27080   0.27336
 Alpha virt. eigenvalues --    0.27684   0.28035   0.28272   0.28315   0.28541
 Alpha virt. eigenvalues --    0.28633   0.28760   0.29132   0.29579   0.29721
 Alpha virt. eigenvalues --    0.29781   0.29862   0.30189   0.30441   0.30914
 Alpha virt. eigenvalues --    0.30948   0.31131   0.31598   0.31793   0.32420
 Alpha virt. eigenvalues --    0.32840   0.33076   0.33213   0.33494   0.33616
 Alpha virt. eigenvalues --    0.34174   0.34507   0.34888   0.35066   0.35191
 Alpha virt. eigenvalues --    0.35408   0.35606   0.36165   0.36407   0.36663
 Alpha virt. eigenvalues --    0.36808   0.37042   0.37245   0.37589   0.37824
 Alpha virt. eigenvalues --    0.38008   0.38148   0.38225   0.38680   0.38862
 Alpha virt. eigenvalues --    0.39018   0.39265   0.39656   0.39835   0.40061
 Alpha virt. eigenvalues --    0.40253   0.40420   0.40527   0.41013   0.41271
 Alpha virt. eigenvalues --    0.41503   0.41698   0.41848   0.42158   0.42342
 Alpha virt. eigenvalues --    0.42579   0.42870   0.43074   0.43126   0.43282
 Alpha virt. eigenvalues --    0.43402   0.43719   0.44144   0.44226   0.44607
 Alpha virt. eigenvalues --    0.44715   0.44923   0.45117   0.45408   0.45470
 Alpha virt. eigenvalues --    0.45651   0.45858   0.46037   0.46210   0.46362
 Alpha virt. eigenvalues --    0.46485   0.46981   0.46995   0.47152   0.47466
 Alpha virt. eigenvalues --    0.47634   0.47718   0.47965   0.48250   0.48557
 Alpha virt. eigenvalues --    0.48923   0.49059   0.49366   0.49637   0.50083
 Alpha virt. eigenvalues --    0.50387   0.50473   0.50842   0.51046   0.51243
 Alpha virt. eigenvalues --    0.51338   0.51474   0.51557   0.51966   0.52261
 Alpha virt. eigenvalues --    0.52424   0.52555   0.53082   0.53222   0.53733
 Alpha virt. eigenvalues --    0.53902   0.54432   0.54587   0.54638   0.54793
 Alpha virt. eigenvalues --    0.55216   0.55275   0.55721   0.55769   0.56145
 Alpha virt. eigenvalues --    0.56269   0.56636   0.56936   0.57253   0.57655
 Alpha virt. eigenvalues --    0.57920   0.58127   0.58522   0.58916   0.58957
 Alpha virt. eigenvalues --    0.59602   0.59956   0.60099   0.60233   0.60827
 Alpha virt. eigenvalues --    0.60878   0.61263   0.61383   0.61776   0.61966
 Alpha virt. eigenvalues --    0.62315   0.62693   0.62869   0.63009   0.63441
 Alpha virt. eigenvalues --    0.63691   0.64083   0.64445   0.65118   0.65380
 Alpha virt. eigenvalues --    0.65699   0.65911   0.66228   0.66480   0.66923
 Alpha virt. eigenvalues --    0.67176   0.67369   0.67654   0.68069   0.68383
 Alpha virt. eigenvalues --    0.68619   0.68951   0.69424   0.69584   0.69667
 Alpha virt. eigenvalues --    0.70125   0.70224   0.71033   0.71391   0.71755
 Alpha virt. eigenvalues --    0.72177   0.72692   0.72820   0.73164   0.73233
 Alpha virt. eigenvalues --    0.73558   0.74037   0.74457   0.74665   0.74783
 Alpha virt. eigenvalues --    0.75402   0.75822   0.75836   0.76242   0.76461
 Alpha virt. eigenvalues --    0.76778   0.76962   0.77509   0.77769   0.78139
 Alpha virt. eigenvalues --    0.78449   0.78862   0.79378   0.79476   0.79773
 Alpha virt. eigenvalues --    0.80033   0.80956   0.81716   0.81994   0.82379
 Alpha virt. eigenvalues --    0.82463   0.83057   0.83389   0.83659   0.84235
 Alpha virt. eigenvalues --    0.84447   0.84492   0.85041   0.85449   0.86014
 Alpha virt. eigenvalues --    0.86517   0.86644   0.86835   0.87143   0.87197
 Alpha virt. eigenvalues --    0.87413   0.87952   0.88337   0.88986   0.89343
 Alpha virt. eigenvalues --    0.89758   0.89855   0.90152   0.90924   0.91096
 Alpha virt. eigenvalues --    0.91246   0.91633   0.91766   0.92433   0.92694
 Alpha virt. eigenvalues --    0.92814   0.93174   0.93643   0.93759   0.94244
 Alpha virt. eigenvalues --    0.94295   0.94550   0.94807   0.95400   0.95842
 Alpha virt. eigenvalues --    0.96119   0.96388   0.96950   0.97523   0.97678
 Alpha virt. eigenvalues --    0.98065   0.98198   0.98387   0.99031   0.99141
 Alpha virt. eigenvalues --    0.99329   0.99692   0.99908   0.99953   1.00602
 Alpha virt. eigenvalues --    1.00830   1.01457   1.01590   1.01668   1.02261
 Alpha virt. eigenvalues --    1.02491   1.02776   1.03017   1.03174   1.04093
 Alpha virt. eigenvalues --    1.04299   1.04641   1.04978   1.05378   1.06286
 Alpha virt. eigenvalues --    1.06461   1.06520   1.06742   1.07394   1.07695
 Alpha virt. eigenvalues --    1.08301   1.08649   1.09121   1.09303   1.10127
 Alpha virt. eigenvalues --    1.10633   1.11189   1.11425   1.11709   1.11925
 Alpha virt. eigenvalues --    1.12453   1.12663   1.13491   1.13940   1.14531
 Alpha virt. eigenvalues --    1.15037   1.15346   1.15640   1.16159   1.16789
 Alpha virt. eigenvalues --    1.16974   1.17185   1.17580   1.17829   1.17871
 Alpha virt. eigenvalues --    1.18495   1.19180   1.19344   1.19500   1.20130
 Alpha virt. eigenvalues --    1.20651   1.20885   1.21372   1.21408   1.21958
 Alpha virt. eigenvalues --    1.22313   1.23083   1.23338   1.24041   1.24325
 Alpha virt. eigenvalues --    1.24819   1.25024   1.25312   1.25866   1.26319
 Alpha virt. eigenvalues --    1.26825   1.27094   1.27540   1.27847   1.28401
 Alpha virt. eigenvalues --    1.28860   1.29361   1.29562   1.29838   1.30175
 Alpha virt. eigenvalues --    1.31310   1.31476   1.31727   1.32289   1.32801
 Alpha virt. eigenvalues --    1.33003   1.33377   1.34383   1.34957   1.35789
 Alpha virt. eigenvalues --    1.36205   1.36504   1.36944   1.37042   1.37787
 Alpha virt. eigenvalues --    1.38047   1.38867   1.39075   1.39288   1.39698
 Alpha virt. eigenvalues --    1.40024   1.40643   1.41410   1.41560   1.42227
 Alpha virt. eigenvalues --    1.42336   1.43156   1.43677   1.44798   1.45000
 Alpha virt. eigenvalues --    1.45698   1.45872   1.46437   1.46771   1.47077
 Alpha virt. eigenvalues --    1.47775   1.48115   1.48326   1.48470   1.48658
 Alpha virt. eigenvalues --    1.49011   1.49276   1.49462   1.49597   1.49747
 Alpha virt. eigenvalues --    1.50236   1.50411   1.50601   1.51193   1.51640
 Alpha virt. eigenvalues --    1.51753   1.51933   1.52560   1.52754   1.53079
 Alpha virt. eigenvalues --    1.53306   1.53529   1.53937   1.54211   1.54479
 Alpha virt. eigenvalues --    1.54848   1.55022   1.55387   1.55613   1.55944
 Alpha virt. eigenvalues --    1.56230   1.56684   1.56788   1.57117   1.57670
 Alpha virt. eigenvalues --    1.58132   1.58369   1.58591   1.59071   1.59605
 Alpha virt. eigenvalues --    1.59930   1.60118   1.60191   1.60634   1.60840
 Alpha virt. eigenvalues --    1.60926   1.61196   1.61560   1.61995   1.62137
 Alpha virt. eigenvalues --    1.62548   1.62693   1.62860   1.63219   1.63883
 Alpha virt. eigenvalues --    1.63979   1.64222   1.64372   1.64546   1.65496
 Alpha virt. eigenvalues --    1.65775   1.66118   1.66158   1.66564   1.66921
 Alpha virt. eigenvalues --    1.67172   1.67614   1.67774   1.68099   1.68479
 Alpha virt. eigenvalues --    1.68966   1.69152   1.69586   1.70120   1.70264
 Alpha virt. eigenvalues --    1.70478   1.70918   1.71122   1.71576   1.72112
 Alpha virt. eigenvalues --    1.72458   1.73037   1.73253   1.74055   1.74348
 Alpha virt. eigenvalues --    1.74569   1.75124   1.75328   1.76213   1.76642
 Alpha virt. eigenvalues --    1.76921   1.77728   1.78338   1.79192   1.79339
 Alpha virt. eigenvalues --    1.79924   1.80474   1.80985   1.81336   1.81536
 Alpha virt. eigenvalues --    1.82400   1.82606   1.82809   1.83525   1.83793
 Alpha virt. eigenvalues --    1.84112   1.84601   1.84934   1.85620   1.86688
 Alpha virt. eigenvalues --    1.86809   1.87471   1.88172   1.88550   1.88849
 Alpha virt. eigenvalues --    1.89052   1.89392   1.90189   1.90487   1.91228
 Alpha virt. eigenvalues --    1.91510   1.92110   1.92350   1.92547   1.93192
 Alpha virt. eigenvalues --    1.93501   1.93934   1.94495   1.94735   1.95448
 Alpha virt. eigenvalues --    1.95717   1.96039   1.96131   1.96699   1.96764
 Alpha virt. eigenvalues --    1.97498   1.97594   1.98381   1.99123   1.99510
 Alpha virt. eigenvalues --    1.99634   2.00207   2.00547   2.00966   2.01652
 Alpha virt. eigenvalues --    2.02614   2.02901   2.03671   2.03822   2.03929
 Alpha virt. eigenvalues --    2.04502   2.05318   2.05456   2.05680   2.06167
 Alpha virt. eigenvalues --    2.06997   2.07438   2.07998   2.08290   2.08532
 Alpha virt. eigenvalues --    2.08818   2.09028   2.09699   2.10384   2.10474
 Alpha virt. eigenvalues --    2.11240   2.11715   2.12418   2.12720   2.13077
 Alpha virt. eigenvalues --    2.13688   2.14050   2.14496   2.15093   2.15548
 Alpha virt. eigenvalues --    2.16350   2.16513   2.16758   2.17008   2.17297
 Alpha virt. eigenvalues --    2.17504   2.18036   2.18855   2.19333   2.19633
 Alpha virt. eigenvalues --    2.20001   2.20536   2.20870   2.21403   2.21952
 Alpha virt. eigenvalues --    2.22054   2.22436   2.23771   2.24091   2.24694
 Alpha virt. eigenvalues --    2.24813   2.25414   2.25500   2.25930   2.26185
 Alpha virt. eigenvalues --    2.26734   2.27356   2.27475   2.28088   2.28515
 Alpha virt. eigenvalues --    2.28883   2.29089   2.29815   2.30036   2.30484
 Alpha virt. eigenvalues --    2.31066   2.31259   2.31662   2.32072   2.32635
 Alpha virt. eigenvalues --    2.32878   2.33183   2.33598   2.33846   2.34502
 Alpha virt. eigenvalues --    2.34641   2.35096   2.35264   2.35996   2.36174
 Alpha virt. eigenvalues --    2.36264   2.36895   2.37054   2.37808   2.38087
 Alpha virt. eigenvalues --    2.38577   2.38825   2.39227   2.39374   2.39824
 Alpha virt. eigenvalues --    2.40194   2.40465   2.41228   2.41505   2.41804
 Alpha virt. eigenvalues --    2.42672   2.42940   2.43175   2.43606   2.44421
 Alpha virt. eigenvalues --    2.44583   2.45054   2.45356   2.46208   2.46885
 Alpha virt. eigenvalues --    2.47142   2.48588   2.49137   2.49280   2.49627
 Alpha virt. eigenvalues --    2.50339   2.50735   2.51019   2.51183   2.51322
 Alpha virt. eigenvalues --    2.51720   2.52129   2.52429   2.52628   2.53061
 Alpha virt. eigenvalues --    2.53185   2.53948   2.54446   2.54644   2.55106
 Alpha virt. eigenvalues --    2.55472   2.55630   2.56136   2.56299   2.56678
 Alpha virt. eigenvalues --    2.57401   2.58029   2.58197   2.58537   2.59254
 Alpha virt. eigenvalues --    2.59827   2.60485   2.60830   2.61313   2.61484
 Alpha virt. eigenvalues --    2.62054   2.62169   2.62776   2.63182   2.63584
 Alpha virt. eigenvalues --    2.63720   2.64404   2.64758   2.65445   2.65967
 Alpha virt. eigenvalues --    2.66425   2.66493   2.67226   2.67335   2.67706
 Alpha virt. eigenvalues --    2.68092   2.68211   2.68679   2.69130   2.69571
 Alpha virt. eigenvalues --    2.70259   2.70338   2.70811   2.71724   2.71973
 Alpha virt. eigenvalues --    2.73099   2.73262   2.73400   2.74197   2.74437
 Alpha virt. eigenvalues --    2.74555   2.75280   2.75630   2.76216   2.76477
 Alpha virt. eigenvalues --    2.76941   2.77401   2.77619   2.78187   2.78286
 Alpha virt. eigenvalues --    2.78604   2.78961   2.79336   2.80295   2.80753
 Alpha virt. eigenvalues --    2.80898   2.81909   2.81968   2.82233   2.82624
 Alpha virt. eigenvalues --    2.83123   2.83385   2.83892   2.84395   2.84905
 Alpha virt. eigenvalues --    2.85807   2.85998   2.86305   2.86674   2.87128
 Alpha virt. eigenvalues --    2.87318   2.87844   2.88017   2.88277   2.89073
 Alpha virt. eigenvalues --    2.89356   2.89865   2.90496   2.90763   2.91211
 Alpha virt. eigenvalues --    2.91387   2.91748   2.92247   2.92523   2.93093
 Alpha virt. eigenvalues --    2.93429   2.93945   2.94201   2.94666   2.95088
 Alpha virt. eigenvalues --    2.95185   2.95595   2.95841   2.96105   2.96788
 Alpha virt. eigenvalues --    2.96859   2.97664   2.98058   2.98207   2.98623
 Alpha virt. eigenvalues --    2.99119   2.99497   2.99984   3.00217   3.00454
 Alpha virt. eigenvalues --    3.00711   3.01289   3.01808   3.02149   3.02403
 Alpha virt. eigenvalues --    3.02944   3.03302   3.03402   3.03722   3.03983
 Alpha virt. eigenvalues --    3.04629   3.05066   3.05372   3.06127   3.06306
 Alpha virt. eigenvalues --    3.06783   3.06925   3.07060   3.07339   3.07901
 Alpha virt. eigenvalues --    3.08321   3.08468   3.08650   3.08731   3.09099
 Alpha virt. eigenvalues --    3.09696   3.09789   3.10137   3.10360   3.10754
 Alpha virt. eigenvalues --    3.10956   3.11416   3.11606   3.11829   3.12474
 Alpha virt. eigenvalues --    3.12560   3.12904   3.13192   3.13846   3.14123
 Alpha virt. eigenvalues --    3.14562   3.14849   3.15058   3.15216   3.15261
 Alpha virt. eigenvalues --    3.15693   3.16006   3.16204   3.16491   3.16841
 Alpha virt. eigenvalues --    3.17344   3.17806   3.18153   3.18335   3.18591
 Alpha virt. eigenvalues --    3.18834   3.19826   3.20052   3.20163   3.20454
 Alpha virt. eigenvalues --    3.20769   3.21187   3.21466   3.21888   3.22067
 Alpha virt. eigenvalues --    3.22428   3.22544   3.22838   3.23171   3.23765
 Alpha virt. eigenvalues --    3.24189   3.24376   3.24698   3.25004   3.25312
 Alpha virt. eigenvalues --    3.25691   3.26009   3.26277   3.26682   3.26751
 Alpha virt. eigenvalues --    3.27446   3.27696   3.27879   3.28233   3.28434
 Alpha virt. eigenvalues --    3.28498   3.28909   3.29146   3.29487   3.29851
 Alpha virt. eigenvalues --    3.30140   3.30270   3.30928   3.31133   3.31319
 Alpha virt. eigenvalues --    3.31508   3.31641   3.31882   3.32533   3.32784
 Alpha virt. eigenvalues --    3.32989   3.33169   3.33416   3.34194   3.34276
 Alpha virt. eigenvalues --    3.34449   3.34623   3.34990   3.35272   3.35664
 Alpha virt. eigenvalues --    3.35777   3.35871   3.36152   3.36517   3.36673
 Alpha virt. eigenvalues --    3.37178   3.37416   3.37544   3.37775   3.38029
 Alpha virt. eigenvalues --    3.38767   3.39047   3.39131   3.39179   3.39728
 Alpha virt. eigenvalues --    3.40371   3.40431   3.40738   3.40931   3.41555
 Alpha virt. eigenvalues --    3.41766   3.41972   3.42363   3.42564   3.43382
 Alpha virt. eigenvalues --    3.43730   3.43995   3.44450   3.44693   3.44799
 Alpha virt. eigenvalues --    3.45096   3.45454   3.46031   3.46341   3.46931
 Alpha virt. eigenvalues --    3.47529   3.47948   3.48239   3.48815   3.49303
 Alpha virt. eigenvalues --    3.49415   3.50359   3.50509   3.50829   3.51432
 Alpha virt. eigenvalues --    3.52053   3.52586   3.52944   3.53314   3.53649
 Alpha virt. eigenvalues --    3.54578   3.54745   3.54996   3.56110   3.56737
 Alpha virt. eigenvalues --    3.56831   3.57100   3.57965   3.58873   3.58910
 Alpha virt. eigenvalues --    3.59873   3.60235   3.60440   3.61198   3.61790
 Alpha virt. eigenvalues --    3.62093   3.62423   3.62943   3.63177   3.64045
 Alpha virt. eigenvalues --    3.64332   3.64349   3.64716   3.65154   3.65407
 Alpha virt. eigenvalues --    3.65791   3.66121   3.66442   3.66565   3.67124
 Alpha virt. eigenvalues --    3.67237   3.67444   3.68188   3.68451   3.68685
 Alpha virt. eigenvalues --    3.68968   3.69483   3.69662   3.70473   3.70881
 Alpha virt. eigenvalues --    3.70959   3.71396   3.71660   3.71951   3.72487
 Alpha virt. eigenvalues --    3.73579   3.73670   3.74225   3.74976   3.75490
 Alpha virt. eigenvalues --    3.75856   3.75994   3.77364   3.77929   3.78701
 Alpha virt. eigenvalues --    3.78884   3.79573   3.80201   3.81189   3.81271
 Alpha virt. eigenvalues --    3.82251   3.82371   3.82519   3.83454   3.83980
 Alpha virt. eigenvalues --    3.84797   3.85179   3.85500   3.86090   3.87122
 Alpha virt. eigenvalues --    3.87191   3.87592   3.88088   3.89136   3.89645
 Alpha virt. eigenvalues --    3.89821   3.90352   3.91478   3.92320   3.92751
 Alpha virt. eigenvalues --    3.93865   3.94372   3.94680   3.94944   3.96431
 Alpha virt. eigenvalues --    3.96680   3.97043   3.97493   3.98268   3.99140
 Alpha virt. eigenvalues --    3.99648   3.99770   4.00563   4.01199   4.01822
 Alpha virt. eigenvalues --    4.02561   4.03076   4.03637   4.04544   4.05121
 Alpha virt. eigenvalues --    4.05846   4.06730   4.08359   4.08736   4.09920
 Alpha virt. eigenvalues --    4.10540   4.11175   4.12051   4.12300   4.12776
 Alpha virt. eigenvalues --    4.13334   4.13775   4.14257   4.15098   4.15546
 Alpha virt. eigenvalues --    4.16286   4.16399   4.16760   4.17335   4.17450
 Alpha virt. eigenvalues --    4.17956   4.18457   4.19388   4.19599   4.20280
 Alpha virt. eigenvalues --    4.21162   4.21756   4.22287   4.22531   4.23581
 Alpha virt. eigenvalues --    4.23746   4.24022   4.24649   4.25327   4.25403
 Alpha virt. eigenvalues --    4.26252   4.26488   4.27129   4.27380   4.27709
 Alpha virt. eigenvalues --    4.28548   4.29777   4.30259   4.30737   4.31362
 Alpha virt. eigenvalues --    4.31872   4.32021   4.32362   4.33298   4.33732
 Alpha virt. eigenvalues --    4.34245   4.34371   4.35115   4.35760   4.36145
 Alpha virt. eigenvalues --    4.36338   4.37209   4.38231   4.38621   4.38874
 Alpha virt. eigenvalues --    4.39141   4.39556   4.40172   4.40628   4.41094
 Alpha virt. eigenvalues --    4.41769   4.42421   4.42607   4.43481   4.43810
 Alpha virt. eigenvalues --    4.44206   4.45200   4.45709   4.46641   4.47693
 Alpha virt. eigenvalues --    4.48052   4.49179   4.49954   4.51487   4.52375
 Alpha virt. eigenvalues --    4.52670   4.54104   4.54538   4.55668   4.56213
 Alpha virt. eigenvalues --    4.57371   4.58305   4.59890   4.61008   4.61456
 Alpha virt. eigenvalues --    4.61885   4.62329   4.62774   4.64177   4.64864
 Alpha virt. eigenvalues --    4.65439   4.65853   4.66100   4.66382   4.67519
 Alpha virt. eigenvalues --    4.67807   4.68679   4.69268   4.69955   4.70097
 Alpha virt. eigenvalues --    4.70913   4.71734   4.72292   4.72556   4.72977
 Alpha virt. eigenvalues --    4.74580   4.75215   4.76426   4.77447   4.78331
 Alpha virt. eigenvalues --    4.78688   4.79558   4.79865   4.80129   4.80618
 Alpha virt. eigenvalues --    4.81722   4.82385   4.82630   4.82894   4.83694
 Alpha virt. eigenvalues --    4.84730   4.86630   4.87870   4.88425   4.89652
 Alpha virt. eigenvalues --    4.90369   4.90887   4.91059   4.92022   4.92622
 Alpha virt. eigenvalues --    4.93122   4.93856   4.94223   4.95572   4.97235
 Alpha virt. eigenvalues --    4.98055   4.98818   4.99459   5.00182   5.00702
 Alpha virt. eigenvalues --    5.01243   5.01520   5.02436   5.02655   5.03572
 Alpha virt. eigenvalues --    5.05184   5.05493   5.05975   5.06611   5.07237
 Alpha virt. eigenvalues --    5.07747   5.09038   5.10539   5.11031   5.12575
 Alpha virt. eigenvalues --    5.13490   5.15138   5.15641   5.17281   5.18076
 Alpha virt. eigenvalues --    5.19010   5.20510   5.21079   5.21840   5.23794
 Alpha virt. eigenvalues --    5.24702   5.25398   5.26900   5.27805   5.29060
 Alpha virt. eigenvalues --    5.30444   5.31125   5.32929   5.34490   5.34780
 Alpha virt. eigenvalues --    5.35509   5.36696   5.37135   5.37759   5.38480
 Alpha virt. eigenvalues --    5.39622   5.40560   5.41997   5.42899   5.44792
 Alpha virt. eigenvalues --    5.45479   5.46146   5.46606   5.48140   5.49205
 Alpha virt. eigenvalues --    5.52541   5.53861   5.54587   5.56902   5.57683
 Alpha virt. eigenvalues --    5.58381   5.59263   5.60810   5.61117   5.62520
 Alpha virt. eigenvalues --    5.63393   5.65726   5.69659   5.71398   5.72385
 Alpha virt. eigenvalues --    5.74643   5.75530   5.75787   5.76263   5.79706
 Alpha virt. eigenvalues --    5.80164   5.89966   5.91766   5.92351   5.93819
 Alpha virt. eigenvalues --    5.95242   5.96454   5.98475   5.98828   6.05409
 Alpha virt. eigenvalues --    6.05531   6.07840   6.08691   6.09936   6.14917
 Alpha virt. eigenvalues --    6.16250   6.22063   6.27196   6.28840   6.34376
 Alpha virt. eigenvalues --    6.37353   6.38788   6.42690   6.45377   6.50691
 Alpha virt. eigenvalues --    6.52282   6.58927   6.62384   6.76344   7.23850
 Alpha virt. eigenvalues --    7.29498   7.53804   8.76319  22.18215  22.19265
 Alpha virt. eigenvalues --   22.30220  22.30722  22.33371  22.36104  22.39374
 Alpha virt. eigenvalues --   22.41548  22.44074  22.71660  22.73354  22.75269
 Alpha virt. eigenvalues --   22.78740  22.84688  22.87612  22.91544  22.92061
 Alpha virt. eigenvalues --   22.99993  23.02240  23.04997  23.10415  23.13650
 Alpha virt. eigenvalues --   23.18903  23.23229  23.24148  23.24681  23.34001
 Alpha virt. eigenvalues --   23.40608  23.49738  23.51502  23.59218  23.65967
 Alpha virt. eigenvalues --   23.70725  23.78058  32.41995  32.71784  32.91045
 Alpha virt. eigenvalues --   32.94023  32.96389  33.12336  43.84944  44.21362
          Condensed to atoms (all electrons):
 Mulliken charges:
               1
     1  Fe  -0.229618
     2  N   -0.070239
     3  N   -0.001543
     4  N   -0.062114
     5  N   -0.002719
     6  C    0.277058
     7  C   -0.050663
     8  C   -0.050586
     9  C    0.189083
    10  C    0.255229
    11  C   -0.054777
    12  C    0.058296
    13  C    0.219087
    14  C    0.308742
    15  C   -0.073349
    16  C    0.099477
    17  C    0.191397
    18  C    0.321385
    19  C   -0.072289
    20  C   -0.046785
    21  C    0.239455
    22  C   -0.493804
    23  H    0.129930
    24  C   -0.462184
    25  H    0.138019
    26  C   -0.474685
    27  H    0.116475
    28  C   -0.542489
    29  H    0.171648
    30  C   -0.407585
    31  H    0.122626
    32  H    0.141412
    33  H    0.132505
    34  C   -0.406628
    35  H    0.135809
    36  H    0.134233
    37  H    0.128986
    38  C   -0.438727
    39  H    0.121926
    40  H    0.145743
    41  H    0.160272
    42  C   -0.247083
    43  H    0.120775
    44  C   -0.255740
    45  H    0.139353
    46  H    0.122256
    47  C   -0.420612
    48  H    0.139372
    49  H    0.138273
    50  H    0.138107
    51  C   -0.241558
    52  H    0.127541
    53  C   -0.287212
    54  H    0.149999
    55  H    0.122280
    56  C   -0.410253
    57  H    0.132504
    58  H    0.138945
    59  H    0.122849
    60  C   -0.417578
    61  H    0.137150
    62  H    0.128245
    63  H    0.133677
    64  O    0.014528
    65  O   -0.125094
    66  C   -0.394989
    67  H    0.147436
    68  H    0.136978
    69  H    0.134008
    70  N   -0.221679
    71  H    0.231136
    72  C    0.170305
    73  C    0.034656
    74  H    0.177174
    75  N    0.012496
    76  C   -0.188156
    77  H    0.161901
 Sum of Mulliken charges =  -0.00000
 Mulliken charges with hydrogens summed into heavy atoms:
               1
     1  Fe  -0.229618
     2  N   -0.070239
     3  N   -0.001543
     4  N   -0.062114
     5  N   -0.002719
     6  C    0.277058
     7  C   -0.050663
     8  C   -0.050586
     9  C    0.189083
    10  C    0.255229
    11  C   -0.054777
    12  C    0.058296
    13  C    0.219087
    14  C    0.308742
    15  C   -0.073349
    16  C    0.099477
    17  C    0.191397
    18  C    0.321385
    19  C   -0.072289
    20  C   -0.046785
    21  C    0.239455
    22  C   -0.363874
    24  C   -0.324165
    26  C   -0.358210
    28  C   -0.370841
    30  C   -0.011042
    34  C   -0.007600
    38  C   -0.010787
    42  C   -0.126308
    44  C    0.005870
    47  C   -0.004860
    51  C   -0.114017
    53  C   -0.014933
    56  C   -0.015954
    60  C   -0.018505
    64  O    0.014528
    65  O   -0.125094
    66  C    0.023433
    70  N    0.009457
    72  C    0.170305
    73  C    0.211831
    75  N    0.012496
    76  C   -0.026255
 Electronic spatial extent (au):  <R**2>=          20430.5254
 Charge=              0.0000 electrons
 Dipole moment (field-independent basis, Debye):
    X=              0.2183    Y=              1.9023    Z=              7.4228  Tot=              7.6658
 Quadrupole moment (field-independent basis, Debye-Ang):
   XX=           -238.2252   YY=           -234.4300   ZZ=           -243.1582
   XY=              5.5719   XZ=              0.7883   YZ=              0.9021
 Traceless Quadrupole moment (field-independent basis, Debye-Ang):
   XX=              0.3793   YY=              4.1745   ZZ=             -4.5537
   XY=              5.5719   XZ=              0.7883   YZ=              0.9021
 Octapole moment (field-independent basis, Debye-Ang**2):
  XXX=             -2.0889  YYY=             14.6785  ZZZ=            146.4353  XYY=              5.2219
  XXY=              3.1560  XXZ=            -25.0582  XZZ=              0.0732  YZZ=             43.4126
  YYZ=             16.3077  XYZ=             14.0990
 Hexadecapole moment (field-independent basis, Debye-Ang**3):
 XXXX=         -12346.2488 YYYY=         -11354.3373 ZZZZ=          -3103.2773 XXXY=             52.5948
 XXXZ=            -48.2257 YYYX=             10.1180 YYYZ=           -106.3326 ZZZX=            -13.3324
 ZZZY=            129.1711 XXYY=          -3898.4117 XXZZ=          -2739.6932 YYZZ=          -2637.7229
 XXYZ=            -12.8468 YYXZ=             -8.5238 ZZXY=             43.7892
 N-N= 6.163735759428D+03 E-N=-1.951278143854D+04  KE= 3.044951849371D+03
  Exact polarizability:     732.504      -9.289     695.317       5.549      -2.681     341.468
 Approx polarizability:    1379.282     -15.574    1338.234      10.002      10.073     653.995

 ----------------------------------------------------------------------

 Electric dipole moment (input orientation):
 (Debye = 10**-18 statcoulomb cm , SI units = C m)
                  (au)            (Debye)         (10**-30 SI)
   Tot        0.301594D+01      0.766576D+01      0.255702D+02
   x         -0.133121D+01     -0.338361D+01     -0.112865D+02
   y         -0.171615D+01     -0.436201D+01     -0.145501D+02
   z          0.209251D+01      0.531864D+01      0.177411D+02

 Dipole polarizability, Alpha (input orientation).
 (esu units = cm**3 , SI units = C**2 m**2 J**-1)
 Alpha(0;0):
               (au)            (10**-24 esu)      (10**-40 SI)
   iso        0.589763D+03      0.873938D+02      0.972387D+02
   aniso      0.374331D+03      0.554701D+02      0.617188D+02
   xx         0.678754D+03      0.100581D+03      0.111911D+03
   yx        -0.424865D+02     -0.629585D+01     -0.700508D+01
   yy         0.569783D+03      0.844331D+02      0.939445D+02
   zx         0.590013D+02      0.874310D+01      0.972801D+01
   zy         0.186764D+03      0.276756D+02      0.307933D+02
   zz         0.520751D+03      0.771674D+02      0.858603D+02

 First dipole hyperpolarizability, Beta (input orientation).
 ||, _|_  parallel and perpendicular components, (z) with respect to z axis,
 vector components x,y,z.  Values do not include the 1/n! factor of 1/2.
 (esu units = statvolt**-1 cm**4 , SI units = C**3 m**3 J**-2)
 Beta(0;0,0):
               (au)            (10**-30 esu)      (10**-50 SI)
   || (z)     0.806256D+02      0.696543D+00      0.258515D+00
   _|_(z)     0.268752D+02      0.232181D+00      0.861716D-01
   x          0.239425D+04      0.206844D+02      0.767682D+01
   y          0.140126D+04      0.121058D+02      0.449294D+01
   z          0.403128D+03      0.348271D+01      0.129257D+01
   ||         0.560659D+03      0.484366D+01      0.179767D+01
   xxx        0.349887D+03      0.302275D+01      0.112186D+01
   xxy        0.841407D+02      0.726910D+00      0.269785D+00
   yxy        0.234511D+03      0.202599D+01      0.751927D+00
   yyy        0.346387D+03      0.299252D+01      0.111064D+01
   xxz       -0.214634D+02     -0.185427D+00     -0.688195D-01
   yxz        0.240952D+03      0.208164D+01      0.772580D+00
   yyz        0.157546D+03      0.136107D+01      0.505149D+00
   zxz        0.213685D+03      0.184607D+01      0.685150D+00
   zyz        0.365582D+02      0.315834D+00      0.117219D+00
   zzz       -0.170628D+01     -0.147409D-01     -0.547094D-02

 ----------------------------------------------------------------------

 Dipole orientation:
    26         46.55081463         51.40749953        -44.11701110
     7         43.42873604         53.45712045        -43.19623264
     7         48.62482978         54.62365220        -44.36995787
     7         49.70271580         49.32859060        -44.95103196
     7         44.49436492         48.18878747        -43.89220568
     6         41.02906499         52.58852665        -42.77937827
     6         39.33583862         54.69318671        -42.27890673
     6         40.73585950         56.79255860        -42.48907093
     6         43.28666299         56.08123556        -43.15531372
     6         47.75731508         57.06929256        -43.92542950
     6         49.84912268         58.77360513        -44.19994142
     6         51.90670434         57.41965662        -44.77437371
     6         51.18730446         54.76365966        -44.80216911
     6         52.09312313         50.27023405        -45.44096931
     6         53.76823358         48.18001419        -45.98261378
     6         52.36105534         46.08368662        -46.06182495
     6         49.79496128         46.76589461        -45.38648929
     6         45.39309630         45.76342277        -44.45220849
     6         43.34650297         44.01428306        -44.24323545
     6         41.03543764         45.53070837        -43.64079544
     6         41.89641387         48.11203491        -43.42393486
     6         40.33035288         50.10013215        -42.81343755
     1         38.38010467         49.65411368        -42.31818979
     6         45.27017306         57.74299444        -43.53847497
     1         44.82796839         59.75397156        -43.53370355
     6         52.79681804         52.77240626        -45.35873531
     1         54.76653587         53.22228196        -45.76058616
     6         47.83762024         45.11569596        -44.98043123
     1         48.27094099         43.10501405        -45.08873955
     6         39.86940023         59.55232048        -42.22929768
     1         37.90535267         59.60399868        -41.48794212
     1         39.91394633         60.48919564        -44.10729707
     1         41.12764464         60.56786462        -40.89113414
     6         36.51287716         54.45238048        -41.53021898
     1         36.36623562         54.01020787        -39.48366730
     1         35.61772116         52.90315470        -42.62899577
     1         35.52242927         56.26483037        -41.90720906
     6         49.61860256         61.65888901        -43.92746458
     1         48.07625172         62.11447606        -42.57906104
     1         49.16785235         62.51323868        -45.79037940
     1         51.41980494         62.44762732        -43.19266469
     6         54.65781182         58.38694985        -44.98642641
     1         56.20719399         57.32285499        -44.09982257
     6         55.22978036         60.50503569        -46.22946656
     1         53.73828692         61.62791183        -47.14390972
     1         57.19999417         61.15611286        -46.35541216
     6         56.63432744         48.40967012        -46.51263793
     1         57.66943841         48.60645647        -44.69603894
     1         57.00369047         50.10589321        -47.69479650
     1         57.31358893         46.68548861        -47.49991376
     6         53.37347651         43.37011256        -46.38696846
     1         55.25765358         42.87730135        -45.65894131
     6         52.05319090         41.56792094        -47.52531635
     1         50.15911125         41.96691274        -48.28449281
     1         52.83553828         39.65157905        -47.72331758
     6         43.41878981         41.18932226        -44.84038640
     1         44.83918215         40.25066359        -43.61234955
     1         43.95752697         40.90281681        -46.84926296
     1         41.53456823         40.33918784        -44.47515720
     6         38.30042769         44.59853399        -43.36973403
     1         37.83057299         44.38652172        -41.33356059
     1         38.08936387         42.73624343        -44.31467282
     1         36.98689369         45.99397303        -44.22872249
     8         45.61571961         51.66190159        -47.71276405
     8         47.44131767         52.37585149        -48.95038209
     6         49.41385324         47.78163017        -34.52134989
     1         50.51113188         46.15705733        -35.27338807
     1         47.78781277         47.05065760        -33.41306721
     1         50.66164954         48.93374466        -33.28854584
     7         47.06950404         51.54337489        -36.31117359
     1         46.61724702         52.26883555        -34.62743623
     6         48.47273607         49.35991451        -36.66875276
     6         46.44266940         52.48551082        -38.54806084
     1         45.39960534         54.23850888        -38.82647702
     7         47.29748566         50.94065290        -40.32248145
     6         48.58851667         48.98402991        -39.19592793
     1         49.46783711         47.50682719        -40.30603494

 Electric dipole moment (dipole orientation):
 (Debye = 10**-18 statcoulomb cm , SI units = C m)
                  (au)            (Debye)         (10**-30 SI)
   Tot        0.301594D+01      0.766576D+01      0.255702D+02
   x          0.000000D+00      0.000000D+00      0.000000D+00
   y          0.000000D+00      0.000000D+00      0.000000D+00
   z          0.301594D+01      0.766576D+01      0.255702D+02

 Dipole polarizability, Alpha (dipole orientation).
 (esu units = cm**3 , SI units = C**2 m**2 J**-1)
 Alpha(0;0):
               (au)            (10**-24 esu)      (10**-40 SI)
   iso        0.589763D+03      0.873938D+02      0.972387D+02
   aniso      0.374331D+03      0.554701D+02      0.617188D+02
   xx         0.678372D+03      0.100524D+03      0.111848D+03
   yx         0.188081D+02      0.278708D+01      0.310104D+01
   yy         0.728455D+03      0.107946D+03      0.120106D+03
   zx        -0.803582D+02     -0.119079D+02     -0.132493D+02
   zy         0.228063D+02      0.337955D+01      0.376025D+01
   zz         0.362461D+03      0.537112D+02      0.597618D+02

 First dipole hyperpolarizability, Beta (dipole orientation).
 ||, _|_  parallel and perpendicular components, (z) with respect to z axis,
 vector components x,y,z.  Values do not include the 1/n! factor of 1/2.
 (esu units = statvolt**-1 cm**4 , SI units = C**3 m**3 J**-2)
 Beta(0;0,0):
               (au)            (10**-30 esu)      (10**-50 SI)
   || (z)    -0.314891D+03     -0.272041D+01     -0.100966D+01
   _|_(z)    -0.104964D+03     -0.906805D+00     -0.336552D+00
   x          0.208901D+04      0.180474D+02      0.669812D+01
   y          0.100776D+04      0.870626D+01      0.323124D+01
   z         -0.157446D+04     -0.136021D+02     -0.504828D+01
   ||         0.560659D+03      0.484366D+01      0.179767D+01
   xxx        0.231556D+03      0.200046D+01      0.742451D+00
   xxy        0.162386D+03      0.140289D+01      0.520668D+00
   yxy        0.361145D+03      0.312001D+01      0.115796D+01
   yyy        0.192501D+03      0.166306D+01      0.617228D+00
   xxz       -0.157637D+03     -0.136186D+01     -0.505440D+00
   yxz       -0.177621D+02     -0.153450D+00     -0.569516D-01
   yyz       -0.327327D+03     -0.282785D+01     -0.104953D+01
   zxz        0.103636D+03      0.895338D+00      0.332296D+00
   zyz       -0.189671D+02     -0.163861D+00     -0.608154D-01
   zzz       -0.398555D+02     -0.344320D+00     -0.127791D+00

 ----------------------------------------------------------------------
 Unable to Open any file for archive entry.
 1\1\GINC-BGN1036\SP\RAPFD\def2TZVP\C34H34Fe1N6O2\BECSLEIP\09-Sep-2024\
 0\\# polar def2tzvp apfd int=(grid=ultrafine)\\2xkg_II_S\\0,1\Fe,0,28.
 071,31.635,10.155\N,0,26.233,32.48,10.381\N,0,28.849,32.925,11.515\N,0
 ,29.905,30.749,9.959\N,0,27.308,30.351,8.788\C,0,25.08,32.171,9.712\C,
 0,24.005,33.054,10.134\C,0,24.545,33.906,11.016\C,0,25.951,33.602,11.1
 53\C,0,28.147,33.906,12.212\C,0,29.057,34.554,13.113\C,0,30.261,33.986
 ,12.975\C,0,30.139,32.914,11.997\C,0,31.065,31.112,10.621\C,0,32.14,30
 .249,10.184\C,0,31.664,29.486,9.195\C,0,30.251,29.776,9.049\C,0,28.05,
 29.411,8.062\C,0,27.18,28.76,7.134\C,0,25.838,29.409,7.272\C,0,25.988,
 30.381,8.33\C,0,24.956,31.171,8.787\H,0,23.962,30.984,8.379\C,0,26.839
 ,34.273,11.976\H,0,26.473,35.167,12.48\C,0,31.179,32.103,11.569\H,0,32
 .16,32.262,12.017\C,0,29.369,29.101,8.244\H,0,29.755,28.239,7.7\C,0,23
 .862,35.077,11.74\H,0,22.765,35.03,11.569\H,0,24.248,36.04,11.343\H,0,
 24.059,35.01,12.831\C,0,22.527,32.947,9.677\H,0,22.015,32.153,10.261\H
 ,0,22.486,32.685,8.598\H,0,22.009,33.914,9.853\C,0,28.659,35.725,14.02
 8\H,0,27.586,35.635,14.3\H,0,28.816,36.687,13.496\H,0,29.269,35.7,14.9
 56\C,0,31.523,34.248,13.831\H,0,32.125,33.404,14.198\C,0,31.915,35.484
 ,14.146\H,0,31.342,36.357,13.8\H,0,32.816,35.646,14.756\C,0,33.588,30.
 282,10.728\H,0,33.633,29.738,11.696\H,0,33.904,31.335,10.891\H,0,34.27
 2,29.788,10.005\C,0,32.427,28.343,8.495\H,0,33.178,27.765,9.054\C,0,32
 .216,28.018,7.226\H,0,31.475,28.566,6.625\H,0,32.779,27.196,6.759\C,0,
 27.575,27.725,6.081\H,0,28.027,26.842,6.581\H,0,28.319,28.165,5.383\H,
 0,26.674,27.399,5.519\C,0,24.567,29.143,6.452\H,0,23.888,28.476,7.026\
 H,0,24.835,28.647,5.495\H,0,24.043,30.102,6.25\O,0,28.453,32.9,8.693\O
 ,0,29.541,33.435,8.88\C,0,27.455,26.969,13.255\H,0,28.272,26.414,12.74
 6\H,0,26.492,26.45,13.062\H,0,27.661,26.993,14.346\N,0,26.48,29.302,13
 .183\H,0,25.818,29.141,13.914\C,0,27.392,28.365,12.722\C,0,26.635,30.4
 28,12.499\H,0,26.074,31.344,12.681\N,0,27.571,30.234,11.582\C,0,28.066
 ,28.956,11.708\H,0,28.853,28.589,11.061\\Version=ES64L-G16RevC.02\Stat
 e=1-A\HF=-3057.8087984\RMSD=2.555e-09\Dipole=-1.331213,-1.7161478,2.09
 25143\Polar=678.7538578,-42.4865001,569.7830362,59.0013315,186.7644868
 ,520.7512173\HyperPolar=349.8869266,84.140657,234.5108479,346.3874179,
 -21.4634263,240.9521448,157.545747,213.6845373,36.5582036,-1.7062764\Q
 uadrupole=3.5933383,-1.2670675,-2.3262708,-3.5110076,-1.9898805,1.5133
 192\PG=C01 [X(C34H34Fe1N6O2)]\\@
 The archive entry for this job was punched.


 KNOWLEDGE IS CHIMERA - FOR BEYOND IT LIES OTHER KNOWLEDGE,
 AND THE INCOMPLETENESS OF WHAT IS KNOWN RENDERS THE KNOWING FALSE.
     -- THE THOMAS COVENANT CHRONICLES
 Job cpu time:       2 days 13 hours 23 minutes  7.3 seconds.
 Elapsed time:       0 days  0 hours 53 minutes  3.8 seconds.
 File lengths (MBytes):  RWF=   1238 Int=      0 D2E=      0 Chk=    158 Scr=      1
 Normal termination of Gaussian 16 at Mon Sep  9 12:08:31 2024.
 Initial command:
 /sw/chem/gaussian/g16_C02/a100/g16/l1.exe "/local/becsleip_8009128/Gau-3986388.inp" -scrdir="/local/becsleip_8009128/"
 Entering Link 1 = /sw/chem/gaussian/g16_C02/a100/g16/l1.exe PID=   3988299.
  
 Copyright (c) 1988-2021, Gaussian, Inc.  All Rights Reserved.
  
 This is part of the Gaussian(R) 16 program.  It is based on
 the Gaussian(R) 09 system (copyright 2009, Gaussian, Inc.),
 the Gaussian(R) 03 system (copyright 2003, Gaussian, Inc.),
 the Gaussian(R) 98 system (copyright 1998, Gaussian, Inc.),
 the Gaussian(R) 94 system (copyright 1995, Gaussian, Inc.),
 the Gaussian 92(TM) system (copyright 1992, Gaussian, Inc.),
 the Gaussian 90(TM) system (copyright 1990, Gaussian, Inc.),
 the Gaussian 88(TM) system (copyright 1988, Gaussian, Inc.),
 the Gaussian 86(TM) system (copyright 1986, Carnegie Mellon
 University), and the Gaussian 82(TM) system (copyright 1983,
 Carnegie Mellon University). Gaussian is a federally registered
 trademark of Gaussian, Inc.
  
 This software contains proprietary and confidential information,
 including trade secrets, belonging to Gaussian, Inc.
  
 This software is provided under written license and may be
 used, copied, transmitted, or stored only in accord with that
 written license.
  
 The following legend is applicable only to US Government
 contracts under FAR:
  
                    RESTRICTED RIGHTS LEGEND
  
 Use, reproduction and disclosure by the US Government is
 subject to restrictions as set forth in subparagraphs (a)
 and (c) of the Commercial Computer Software - Restricted
 Rights clause in FAR 52.227-19.
  
 Gaussian, Inc.
 340 Quinnipiac St., Bldg. 40, Wallingford CT 06492
  
  
 ---------------------------------------------------------------
 Warning -- This program may not be used in any manner that
 competes with the business of Gaussian, Inc. or will provide
 assistance to any competitor of Gaussian, Inc.  The licensee
 of this program is prohibited from giving any competitor of
 Gaussian, Inc. access to this program.  By using this program,
 the user acknowledges that Gaussian, Inc. is engaged in the
 business of creating and licensing software in the field of
 computational chemistry and represents and warrants to the
 licensee that it is not a competitor of Gaussian, Inc. and that
 it will not use this program in any manner prohibited above.
 ---------------------------------------------------------------
  

 Cite this work as:
 Gaussian 16, Revision C.02,
 M. J. Frisch, G. W. Trucks, H. B. Schlegel, G. E. Scuseria, 
 M. A. Robb, J. R. Cheeseman, G. Scalmani, V. Barone, 
 G. A. Petersson, H. Nakatsuji, X. Li, M. Caricato, A. V. Marenich, 
 J. Bloino, B. G. Janesko, R. Gomperts, B. Mennucci, H. P. Hratchian, 
 J. V. Ortiz, A. F. Izmaylov, J. L. Sonnenberg, D. Williams-Young, 
 F. Ding, F. Lipparini, F. Egidi, J. Goings, B. Peng, A. Petrone, 
 T. Henderson, D. Ranasinghe, V. G. Zakrzewski, J. Gao, N. Rega, 
 G. Zheng, W. Liang, M. Hada, M. Ehara, K. Toyota, R. Fukuda, 
 J. Hasegawa, M. Ishida, T. Nakajima, Y. Honda, O. Kitao, H. Nakai, 
 T. Vreven, K. Throssell, J. A. Montgomery, Jr., J. E. Peralta, 
 F. Ogliaro, M. J. Bearpark, J. J. Heyd, E. N. Brothers, K. N. Kudin, 
 V. N. Staroverov, T. A. Keith, R. Kobayashi, J. Normand, 
 K. Raghavachari, A. P. Rendell, J. C. Burant, S. S. Iyengar, 
 J. Tomasi, M. Cossi, J. M. Millam, M. Klene, C. Adamo, R. Cammi, 
 J. W. Ochterski, R. L. Martin, K. Morokuma, O. Farkas, 
 J. B. Foresman, and D. J. Fox, Gaussian, Inc., Wallingford CT, 2019.
 
 ******************************************
 Gaussian 16:  ES64L-G16RevC.02  7-Dec-2021
                 9-Sep-2024 
 ******************************************
 %mem=16GB
 %CPU=0-71
 SetSPE:  set environment variable "OMP_PROC_BIND" = "true"
[...]
                                                    1551(v),1426(v),168(r)
                                                    155(r),1547(g),1541(r)
                                                    167(r),154(r),1455(r),3(r)
                                                    174(r),272(r),247(r),166(r)
                                                    195(r),186(r),220(r),1456(r)
                                                    248(r),245(r)
    97. BD (   2) C  73 - N  75          1.88534    -0.32965  1546(v),1425(v),1310(v)
                                                    153(r),155(r),169(r),167(r)
                                                    1456(r),1459(r),181(r)
                                                    154(r),275(r)
    98. BD (   1) N  75 - C  76          1.97513    -0.79269  156(r),153(r),1541(v)
                                                    1547(v),1544(v),168(r)
                                                    1545(g),1543(v),1369(v)
                                                    1548(g),155(r),3(r),271(r)
                                                    173(r),169(r),195(r),1456(r)
                                                    186(r),247(r),194(r),220(r)
    99. BD (   1) C  76 - H  77          1.98074    -0.54715  1548(v),1543(v),1341(v)
                                                    1545(g),1399(v),1398(v)
                                                    156(r),153(r),155(r),245(r)
                                                    174(r),3(r)
   145. CR (   1) C  66                  1.99942   -10.07947  1545(v),1543(v),1341(v)
   146. CR (   1) N  70                  1.99937   -14.22428  1369(v),1343(v),1337(v)
                                                    1344(v),1541(v)
   147. CR (   1) C  72                  1.99907   -10.09733  1545(g),1426(v),1551(v)
                                                    1271(v)
   148. CR (   1) C  73                  1.99934   -10.13196  1542(v),1314(v),1400(v)
                                                    1550(v),153(r),156(r),155(r)
   149. CR (   1) N  75                  1.99937   -14.16676  156(r),153(r),1367(v)
                                                    1424(v),1547(v),155(r)
                                                    1455(r),1456(r),167(r)
                                                    172(r)
   150. CR (   1) C  76                  1.99889   -10.06971  1341(v),1541(v),1545(g)
                                                    1400(v),1451(v),1344(v)
                                                    153(r),156(r)
   164. LP (   1) N  70                  1.57335    -0.29165  1549(v),1546(v),1370(v)
                                                    1336(v),1342(v),1368(v)
   165. LP (   1) N  75                  1.62444    -0.36651  153(r),156(r),155(r),1544(v)
                                                    1545(v),1367(v),1547(v)
                                                    1551(v),1424(v),1548(g)
                                                    1401(g),1550(g),1455(r)
                                                    1456(r),1399(g),171(r),3(r)
                                                    182(r),222(r),245(r),274(r)
                                                    194(r),196(r),271(r),195(r)
                                                    1465(r),273(r),1466(r)
                                                    1463(r),219(r),248(r)
                                                    1458(r),1457(r),1462(r)
                                                    1460(r),247(r),179(r)
                                                    1461(r),154(r),221(r),174(r)
                                                    169(r)
  1269. RY*(   1) C  66                  0.00116     1.10841   
  1270. RY*(   2) C  66                  0.00079     1.93244   
  1271. RY*(   3) C  66                  0.00052     1.32531   
  1272. RY*(   4) C  66                  0.00010     1.22462   
  1273. RY*(   5) C  66                  0.00008     2.14398   
  1274. RY*(   6) C  66                  0.00006     1.30012   
  1275. RY*(   7) C  66                  0.00001     1.90872   
  1276. RY*(   8) C  66                  0.00001     1.89363   
  1277. RY*(   9) C  66                  0.00001     1.41041   
  1278. RY*(  10) C  66                  0.00000     3.17445   
  1279. RY*(  11) C  66                  0.00000     2.62595   
  1280. RY*(  12) C  66                  0.00001     2.60326   
  1281. RY*(  13) C  66                  0.00000     2.46445   
  1282. RY*(  14) C  66                  0.00000     1.70571   
  1283. RY*(  15) C  66                  0.00000     2.67759   
  1284. RY*(  16) C  66                  0.00000     2.34638   
  1285. RY*(  17) C  66                  0.00001     2.54930   
  1286. RY*(  18) C  66                  0.00000    21.54691   
  1287. RY*(  19) C  66                  0.00000     2.73514   
  1288. RY*(  20) C  66                  0.00000     3.61052   
  1289. RY*(  21) C  66                  0.00001     3.49781   
  1290. RY*(  22) C  66                  0.00001     3.37806   
  1291. RY*(  23) C  66                  0.00000     3.32995   
  1292. RY*(  24) C  66                  0.00000     3.55249   
  1293. RY*(  25) C  66                  0.00000     3.36220   
  1294. RY*(  26) C  66                  0.00000     3.18516   
  1295. RY*(   1) H  67                  0.00024     1.30665   
  1296. RY*(   2) H  67                  0.00011     1.78904   
  1297. RY*(   3) H  67                  0.00007     2.02406   
  1298. RY*(   4) H  67                  0.00003     1.52694   
  1299. RY*(   5) H  67                  0.00001     2.85647   
  1300. RY*(   1) H  68                  0.00073     1.04576   
  1301. RY*(   2) H  68                  0.00013     1.67157   
  1302. RY*(   3) H  68                  0.00008     1.84244   
  1303. RY*(   4) H  68                  0.00005     2.00519   
  1304. RY*(   5) H  68                  0.00000     2.85022   
  1305. RY*(   1) H  69                  0.00071     1.00766   
  1306. RY*(   2) H  69                  0.00014     1.71576   
  1307. RY*(   3) H  69                  0.00008     1.83342   
  1308. RY*(   4) H  69                  0.00005     2.02165   
  1309. RY*(   5) H  69                  0.00000     2.85276   
  1310. RY*(   1) N  70                  0.00280     0.67377   
  1311. RY*(   2) N  70                  0.00243     1.75455   
  1312. RY*(   3) N  70                  0.00108     2.05824   
  1313. RY*(   4) N  70                  0.00078     2.21067   
  1314. RY*(   5) N  70                  0.00050     1.12445   
  1315. RY*(   6) N  70                  0.00025     2.13485   
  1316. RY*(   7) N  70                  0.00022     1.74558   
  1317. RY*(   8) N  70                  0.00007     3.60793   
  1318. RY*(   9) N  70                  0.00007     2.32797   
  1319. RY*(  10) N  70                  0.00006     2.47280   
  1320. RY*(  11) N  70                  0.00004     2.93887   
  1321. RY*(  12) N  70                  0.00000    30.51996   
  1322. RY*(  13) N  70                  0.00000     3.78077   
  1323. RY*(  14) N  70                  0.00001     2.62995   
  1324. RY*(  15) N  70                  0.00001     3.84327   
  1325. RY*(  16) N  70                  0.00000     2.14442   
  1326. RY*(  17) N  70                  0.00000     3.91170   
  1327. RY*(  18) N  70                  0.00000     4.79136   
  1328. RY*(  19) N  70                  0.00001     3.52139   
  1329. RY*(  20) N  70                  0.00000     4.62613   
  1330. RY*(  21) N  70                  0.00000     4.57273   
  1331. RY*(  22) N  70                  0.00000     4.68194   
  1332. RY*(  23) N  70                  0.00000     4.31177   
  1333. RY*(  24) N  70                  0.00000     4.58535   
  1334. RY*(  25) N  70                  0.00000     4.42729   
  1335. RY*(  26) N  70                  0.00000     4.43589   
  1336. RY*(   1) H  71                  0.00056     2.15362   
  1337. RY*(   2) H  71                  0.00039     2.08105   
  1338. RY*(   3) H  71                  0.00034     1.00774   
  1339. RY*(   4) H  71                  0.00021     2.63735   
  1340. RY*(   5) H  71                  0.00001     3.07621   
  1341. RY*(   1) C  72                  0.00427     1.67468   
  1342. RY*(   2) C  72                  0.00254     0.92260   
  1343. RY*(   3) C  72                  0.00190     1.53885   
  1344. RY*(   4) C  72                  0.00160     1.99672   
  1345. RY*(   5) C  72                  0.00123     1.74995   
  1346. RY*(   6) C  72                  0.00119     1.75166   
  1347. RY*(   7) C  72                  0.00037     2.87373   
  1348. RY*(   8) C  72                  0.00020     2.93028   
  1349. RY*(   9) C  72                  0.00014     2.30683   
  1350. RY*(  10) C  72                  0.00007     3.61841   
  1351. RY*(  11) C  72                  0.00003     2.87720   
  1352. RY*(  12) C  72                  0.00001     2.03782   
  1353. RY*(  13) C  72                  0.00001     2.71828   
  1354. RY*(  14) C  72                  0.00001     1.80240   
  1355. RY*(  15) C  72                  0.00001     1.50929   
  1356. RY*(  16) C  72                  0.00000     1.11935   
  1357. RY*(  17) C  72                  0.00001     2.05681   
  1358. RY*(  18) C  72                  0.00000    20.82244   
  1359. RY*(  19) C  72                  0.00000     3.45928   
  1360. RY*(  20) C  72                  0.00000     4.00574   
  1361. RY*(  21) C  72                  0.00000     3.55126   
  1362. RY*(  22) C  72                  0.00000     3.51361   
  1363. RY*(  23) C  72                  0.00000     3.44803   
  1364. RY*(  24) C  72                  0.00000     3.63701   
  1365. RY*(  25) C  72                  0.00000     3.49893   
  1366. RY*(  26) C  72                  0.00000     3.55518   
  1367. RY*(   1) C  73                  0.00409     1.61620   
  1368. RY*(   2) C  73                  0.00292     0.65898   
  1369. RY*(   3) C  73                  0.00229     1.25635   
  1370. RY*(   4) C  73                  0.00142     2.48264   
  1371. RY*(   5) C  73                  0.00082     1.72463   
  1372. RY*(   6) C  73                  0.00042     1.57333   
  1373. RY*(   7) C  73                  0.00025     1.72053   
  1374. RY*(   8) C  73                  0.00010     2.80577   
  1375. RY*(   9) C  73                  0.00006     2.33729   
  1376. RY*(  10) C  73                  0.00004     1.93152   
  1377. RY*(  11) C  73                  0.00002     3.12483   
  1378. RY*(  12) C  73                  0.00003     2.14887   
  1379. RY*(  13) C  73                  0.00003     2.07095   
  1380. RY*(  14) C  73                  0.00002     2.74786   
  1381. RY*(  15) C  73                  0.00002     3.66520   
  1382. RY*(  16) C  73                  0.00000     3.20970   
  1383. RY*(  17) C  73                  0.00000    21.64049   
  1384. RY*(  18) C  73                  0.00001     3.51545   
  1385. RY*(  19) C  73                  0.00000     3.06921   
  1386. RY*(  20) C  73                  0.00001     2.73915   
  1387. RY*(  21) C  73                  0.00000     3.77924   
  1388. RY*(  22) C  73                  0.00000     3.85461   
  1389. RY*(  23) C  73                  0.00000     3.55418   
  1390. RY*(  24) C  73                  0.00000     3.76237   
  1391. RY*(  25) C  73                  0.00000     3.41718   
  1392. RY*(  26) C  73                  0.00000     3.58688   
  1393. RY*(   1) H  74                  0.00067     0.76782   
  1394. RY*(   2) H  74                  0.00028     2.46954   
  1395. RY*(   3) H  74                  0.00019     2.05219   
  1396. RY*(   4) H  74                  0.00011     2.33851   
  1397. RY*(   5) H  74                  0.00002     3.11848   
  1398. RY*(   1) N  75                  0.00789     1.00724   
  1399. RY*(   2) N  75                  0.00717     1.30230   
  1400. RY*(   3) N  75                  0.00536     1.24366   
  1401. RY*(   4) N  75                  0.00132     1.46045   
  1402. RY*(   5) N  75                  0.00067     1.82363   
  1403. RY*(   6) N  75                  0.00052     2.02932   
  1404. RY*(   7) N  75                  0.00037     2.93839   
  1405. RY*(   8) N  75                  0.00036     3.39088   
  1406. RY*(   9) N  75                  0.00013     3.36349   
  1407. RY*(  10) N  75                  0.00013     3.39346   
  1408. RY*(  11) N  75                  0.00009     2.94577   
  1409. RY*(  12) N  75                  0.00006     3.20684   
  1410. RY*(  13) N  75                  0.00005     2.45684   
  1411. RY*(  14) N  75                  0.00005     3.67827   
  1412. RY*(  15) N  75                  0.00004     4.68728   
  1413. RY*(  16) N  75                  0.00001     4.60474   
  1414. RY*(  17) N  75                  0.00000    31.28097   
  1415. RY*(  18) N  75                  0.00000     4.85471   
  1416. RY*(  19) N  75                  0.00001     4.25436   
  1417. RY*(  20) N  75                  0.00000     4.31146   
  1418. RY*(  21) N  75                  0.00001     4.17197   
  1419. RY*(  22) N  75                  0.00000     4.18279   
  1420. RY*(  23) N  75                  0.00000     4.66000   
  1421. RY*(  24) N  75                  0.00000     4.68768   
  1422. RY*(  25) N  75                  0.00000     4.56924   
  1423. RY*(  26) N  75                  0.00000     4.70238   
  1424. RY*(   1) C  76                  0.00421     1.47894   
  1425. RY*(   2) C  76                  0.00234     0.77903   
  1426. RY*(   3) C  76                  0.00171     1.83081   
  1427. RY*(   4) C  76                  0.00070     1.92875   
  1428. RY*(   5) C  76                  0.00061     1.52259   
  1429. RY*(   6) C  76                  0.00046     1.87079   
  1430. RY*(   7) C  76                  0.00041     2.13512   
  1431. RY*(   8) C  76                  0.00020     1.41943   
  1432. RY*(   9) C  76                  0.00018     1.77723   
  1433. RY*(  10) C  76                  0.00016     1.65512   
  1434. RY*(  11) C  76                  0.00010     1.20961   
  1435. RY*(  12) C  76                  0.00005     1.78659   
  1436. RY*(  13) C  76                  0.00005     2.27484   
  1437. RY*(  14) C  76                  0.00003     2.71067   
  1438. RY*(  15) C  76                  0.00003     2.21552   
  1439. RY*(  16) C  76                  0.00002     3.50309   
  1440. RY*(  17) C  76                  0.00000     3.22134   
  1441. RY*(  18) C  76                  0.00001     3.60677   
  1442. RY*(  19) C  76                  0.00000    21.09712   
  1443. RY*(  20) C  76                  0.00001     3.86320   
  1444. RY*(  21) C  76                  0.00001     3.79893   
  1445. RY*(  22) C  76                  0.00000     3.73608   
  1446. RY*(  23) C  76                  0.00000     3.36052   
  1447. RY*(  24) C  76                  0.00000     3.76807   
  1448. RY*(  25) C  76                  0.00000     3.47346   
  1449. RY*(  26) C  76                  0.00000     3.61701   
  1450. RY*(   1) H  77                  0.00052     0.70421   
  1451. RY*(   2) H  77                  0.00032     2.34514   
  1452. RY*(   3) H  77                  0.00023     2.27116   
  1453. RY*(   4) H  77                  0.00009     2.69440   
  1454. RY*(   5) H  77                  0.00001     3.12640   
  1538. BD*(   1) C  66 - H  67          0.00316     0.33766   
  1539. BD*(   1) C  66 - H  68          0.01164     0.33054   
  1540. BD*(   1) C  66 - H  69          0.01099     0.33026   
  1541. BD*(   1) C  66 - C  72          0.01427     0.37018   
  1542. BD*(   1) N  70 - H  71          0.01500     0.37162   
  1543. BD*(   1) N  70 - C  72          0.02945     0.40171   
  1544. BD*(   1) N  70 - C  73          0.02045     0.47691   
  1545. BD*(   1) C  72 - C  76          0.01973     0.57287   
  1546. BD*(   2) C  72 - C  76          0.28741     0.03035  1549(v),1539(v),1540(v)
                                                    1430(g),1345(g),1464(r)
                                                    1467(r)
  1547. BD*(   1) C  73 - H  74          0.01804     0.35627   
  1548. BD*(   1) C  73 - N  75          0.01575     0.51622   
  1549. BD*(   2) C  73 - N  75          0.42061    -0.01591  1546(v),1368(g),1467(r)
                                                    153(r),1459(r),1464(r)
                                                    155(r),1456(r)
  1550. BD*(   1) N  75 - C  76          0.01518     0.46400   
  1551. BD*(   1) C  76 - H  77          0.01431     0.40505   
       -------------------------------
              Total Lewis   42.69897  ( 97.7669%)
        Valence non-Lewis    0.89601  (  2.0516%)
        Rydberg non-Lewis    0.07928  (  0.1815%)
       -------------------------------
            Total unit  3   43.67425  (100.0000%)
           Charge unit  3    0.32575
 Unable to Open any file for archive entry.
 1\1\GINC-BGN1036\SP\RAPFD\def2TZVP\C34H34Fe1N6O2\BECSLEIP\09-Sep-2024\
 0\\# apfd/def2TZVP int=(grid=ultrafine) geom=check guess=read pop=nbo 
 scf=qc\\2xkg_II_S_nbo\\0,1\Fe,0,28.071,31.635,10.155\N,0,26.233,32.48,
 10.381\N,0,28.849,32.925,11.515\N,0,29.905,30.749,9.959\N,0,27.308,30.
 351,8.788\C,0,25.08,32.171,9.712\C,0,24.005,33.054,10.134\C,0,24.545,3
 3.906,11.016\C,0,25.951,33.602,11.153\C,0,28.147,33.906,12.212\C,0,29.
 057,34.554,13.113\C,0,30.261,33.986,12.975\C,0,30.139,32.914,11.997\C,
 0,31.065,31.112,10.621\C,0,32.14,30.249,10.184\C,0,31.664,29.486,9.195
 \C,0,30.251,29.776,9.049\C,0,28.05,29.411,8.062\C,0,27.18,28.76,7.134\
 C,0,25.838,29.409,7.272\C,0,25.988,30.381,8.33\C,0,24.956,31.171,8.787
 \H,0,23.962,30.984,8.379\C,0,26.839,34.273,11.976\H,0,26.473,35.167,12
 .48\C,0,31.179,32.103,11.569\H,0,32.16,32.262,12.017\C,0,29.369,29.101
 ,8.244\H,0,29.755,28.239,7.7\C,0,23.862,35.077,11.74\H,0,22.765,35.03,
 11.569\H,0,24.248,36.04,11.343\H,0,24.059,35.01,12.831\C,0,22.527,32.9
 47,9.677\H,0,22.015,32.153,10.261\H,0,22.486,32.685,8.598\H,0,22.009,3
 3.914,9.853\C,0,28.659,35.725,14.028\H,0,27.586,35.635,14.3\H,0,28.816
 ,36.687,13.496\H,0,29.269,35.7,14.956\C,0,31.523,34.248,13.831\H,0,32.
 125,33.404,14.198\C,0,31.915,35.484,14.146\H,0,31.342,36.357,13.8\H,0,
 32.816,35.646,14.756\C,0,33.588,30.282,10.728\H,0,33.633,29.738,11.696
 \H,0,33.904,31.335,10.891\H,0,34.272,29.788,10.005\C,0,32.427,28.343,8
 .495\H,0,33.178,27.765,9.054\C,0,32.216,28.018,7.226\H,0,31.475,28.566
 ,6.625\H,0,32.779,27.196,6.759\C,0,27.575,27.725,6.081\H,0,28.027,26.8
 42,6.581\H,0,28.319,28.165,5.383\H,0,26.674,27.399,5.519\C,0,24.567,29
 .143,6.452\H,0,23.888,28.476,7.026\H,0,24.835,28.647,5.495\H,0,24.043,
 30.102,6.25\O,0,28.453,32.9,8.693\O,0,29.541,33.435,8.88\C,0,27.455,26
 .969,13.255\H,0,28.272,26.414,12.746\H,0,26.492,26.45,13.062\H,0,27.66
 1,26.993,14.346\N,0,26.48,29.302,13.183\H,0,25.818,29.141,13.914\C,0,2
 7.392,28.365,12.722\C,0,26.635,30.428,12.499\H,0,26.074,31.344,12.681\
 N,0,27.571,30.234,11.582\C,0,28.066,28.956,11.708\H,0,28.853,28.589,11
 .061\\Version=ES64L-G16RevC.02\State=1-A\HF=-3057.8087984\RMSD=1.577e-
 09\Dipole=-1.331213,-1.7161478,2.0925143\Quadrupole=3.5933383,-1.26706
 75,-2.3262708,-3.5110076,-1.9898805,1.5133192\PG=C01 [X(C34H34Fe1N6O2)
 ]\\@
 The archive entry for this job was punched.


 BE LIKE A POSTAGE STAMP.  STICK TO ONE THING UNTIL
 YOU GET THERE -- JOSH BILLINGS
 Job cpu time:       0 days  0 hours 49 minutes 15.1 seconds.
 Elapsed time:       0 days  0 hours  0 minutes 57.6 seconds.
 File lengths (MBytes):  RWF=    812 Int=      0 D2E=      0 Chk=    157 Scr=      1
 Normal termination of Gaussian 16 at Mon Sep  9 12:09:31 2024.
