 Entering Gaussian System, Link 0=g16
 Input=2xkh01.com
 Output=2xkh01.log
 Initial command:
 /sw/chem/gaussian/g16_C02/a100/g16/l1.exe "/local/becsleip_8009130/Gau-3261223.inp" -scrdir="/local/becsleip_8009130/"
 Entering Link 1 = /sw/chem/gaussian/g16_C02/a100/g16/l1.exe PID=   3261224.
  
 Copyright (c) 1988-2021, Gaussian, Inc.  All Rights Reserved.
  
 This is part of the Gaussian(R) 16 program.  It is based on
 the Gaussian(R) 09 system (copyright 2009, Gaussian, Inc.),
 the Gaussian(R) 03 system (copyright 2003, Gaussian, Inc.),
 the Gaussian(R) 98 system (copyright 1998, Gaussian, Inc.),
 the Gaussian(R) 94 system (copyright 1995, Gaussian, Inc.),
 the Gaussian 92(TM) system (copyright 1992, Gaussian, Inc.),
 the Gaussian 90(TM) system (copyright 1990, Gaussian, Inc.),
 the Gaussian 88(TM) system (copyright 1988, Gaussian, Inc.),
 the Gaussian 86(TM) system (copyright 1986, Carnegie Mellon
 University), and the Gaussian 82(TM) system (copyright 1983,
 Carnegie Mellon University). Gaussian is a federally registered
 trademark of Gaussian, Inc.
  
 This software contains proprietary and confidential information,
 including trade secrets, belonging to Gaussian, Inc.
  
 This software is provided under written license and may be
 used, copied, transmitted, or stored only in accord with that
 written license.
  
 The following legend is applicable only to US Government
 contracts under FAR:
  
                    RESTRICTED RIGHTS LEGEND
  
 Use, reproduction and disclosure by the US Government is
 subject to restrictions as set forth in subparagraphs (a)
 and (c) of the Commercial Computer Software - Restricted
 Rights clause in FAR 52.227-19.
  
 Gaussian, Inc.
 340 Quinnipiac St., Bldg. 40, Wallingford CT 06492
  
  
 ---------------------------------------------------------------
 Warning -- This program may not be used in any manner that
 competes with the business of Gaussian, Inc. or will provide
 assistance to any competitor of Gaussian, Inc.  The licensee
 of this program is prohibited from giving any competitor of
 Gaussian, Inc. access to this program.  By using this program,
 the user acknowledges that Gaussian, Inc. is engaged in the
 business of creating and licensing software in the field of
 computational chemistry and represents and warrants to the
 licensee that it is not a competitor of Gaussian, Inc. and that
 it will not use this program in any manner prohibited above.
 ---------------------------------------------------------------
  

 Cite this work as:
 Gaussian 16, Revision C.02,
 M. J. Frisch, G. W. Trucks, H. B. Schlegel, G. E. Scuseria, 
 M. A. Robb, J. R. Cheeseman, G. Scalmani, V. Barone, 
 G. A. Petersson, H. Nakatsuji, X. Li, M. Caricato, A. V. Marenich, 
 J. Bloino, B. G. Janesko, R. Gomperts, B. Mennucci, H. P. Hratchian, 
 J. V. Ortiz, A. F. Izmaylov, J. L. Sonnenberg, D. Williams-Young, 
 F. Ding, F. Lipparini, F. Egidi, J. Goings, B. Peng, A. Petrone, 
 T. Henderson, D. Ranasinghe, V. G. Zakrzewski, J. Gao, N. Rega, 
 G. Zheng, W. Liang, M. Hada, M. Ehara, K. Toyota, R. Fukuda, 
 J. Hasegawa, M. Ishida, T. Nakajima, Y. Honda, O. Kitao, H. Nakai, 
 T. Vreven, K. Throssell, J. A. Montgomery, Jr., J. E. Peralta, 
 F. Ogliaro, M. J. Bearpark, J. J. Heyd, E. N. Brothers, K. N. Kudin, 
 V. N. Staroverov, T. A. Keith, R. Kobayashi, J. Normand, 
 K. Raghavachari, A. P. Rendell, J. C. Burant, S. S. Iyengar, 
 J. Tomasi, M. Cossi, J. M. Millam, M. Klene, C. Adamo, R. Cammi, 
 J. W. Ochterski, R. L. Martin, K. Morokuma, O. Farkas, 
 J. B. Foresman, and D. J. Fox, Gaussian, Inc., Wallingford CT, 2019.
 
 ******************************************
 Gaussian 16:  ES64L-G16RevC.02  7-Dec-2021
                 9-Sep-2024 
 ******************************************
 %mem=16GB
 %CPU=0-71
 SetSPE:  set environment variable "OMP_PROC_BIND" = "true"
 SetSPE:  set environment variable "OMP_PLACES" = "{0},{1},{2},{3},{4},{5},{6},{7},{8},{9},{10},{11},{12},{13},{14},{15},{16},{17},{18},{19},{20},{21},{22},{23},{24},{25},{26},{27},{28},{29},{30},{31},{32},{33},{34},{35},{36},{37},{38},{39},{40},{41},{42},{43},{44},{45},{46},{47},{48},{49},{50},{51},{52},{53},{54},{55},{56},{57},{58},{59},{60},{61},{62},{63},{64},{65},{66},{67},{68},{69},{70},{71}"
 Will use up to   72 processors via shared memory.
 %gpucpu=0,1,2,3=0,1,2,3
 Will use    4 GPUs:
 Thread  CPU   GPU
      0    0     0
      1    1     1
      2    2     2
      3    3     3
      4    4    -1
      5    5    -1
      6    6    -1
      7    7    -1
      8    8    -1
      9    9    -1
     10   10    -1
     11   11    -1
     12   12    -1
     13   13    -1
     14   14    -1
     15   15    -1
     16   16    -1
     17   17    -1
     18   18    -1
     19   19    -1
     20   20    -1
     21   21    -1
     22   22    -1
     23   23    -1
     24   24    -1
     25   25    -1
     26   26    -1
     27   27    -1
     28   28    -1
     29   29    -1
     30   30    -1
     31   31    -1
     32   32    -1
     33   33    -1
     34   34    -1
     35   35    -1
     36   36    -1
     37   37    -1
     38   38    -1
     39   39    -1
     40   40    -1
     41   41    -1
     42   42    -1
     43   43    -1
     44   44    -1
     45   45    -1
     46   46    -1
     47   47    -1
     48   48    -1
     49   49    -1
     50   50    -1
     51   51    -1
     52   52    -1
     53   53    -1
     54   54    -1
     55   55    -1
     56   56    -1
     57   57    -1
     58   58    -1
     59   59    -1
     60   60    -1
     61   61    -1
     62   62    -1
     63   63    -1
     64   64    -1
     65   65    -1
     66   66    -1
     67   67    -1
     68   68    -1
     69   69    -1
     70   70    -1
     71   71    -1
 SetGPE:  set environment variable "OMP_PROC_BIND" = "true"
 SetGPE:  set environment variable "OMP_PLACES" = "{0},{1},{2},{3},{4},{5},{6},{7},{8},{9},{10},{11},{12},{13},{14},{15},{16},{17},{18},{19},{20},{21},{22},{23},{24},{25},{26},{27},{28},{29},{30},{31},{32},{33},{34},{35},{36},{37},{38},{39},{40},{41},{42},{43},{44},{45},{46},{47},{48},{49},{50},{51},{52},{53},{54},{55},{56},{57},{58},{59},{60},{61},{62},{63},{64},{65},{66},{67},{68},{69},{70},{71}"
 %chk=2xkh_II_O.chk
 Properties for Device   0
 Minimum vector length:                              32
 Maximum vector length:                            1024
 Number of SMPs:                                    108
 Maximum number of threads per SMP:                2048
 Number of ASync Engines:                             5
 Memory:                                           9207742464
 Properties for Device   1
 Minimum vector length:                              32
 Maximum vector length:                            1024
 Number of SMPs:                                    108
 Maximum number of threads per SMP:                2048
 Number of ASync Engines:                             5
 Memory:                                           9207742464
 Properties for Device   2
 Minimum vector length:                              32
 Maximum vector length:                            1024
 Number of SMPs:                                    108
 Maximum number of threads per SMP:                2048
 Number of ASync Engines:                             5
 Memory:                                           9207742464
 Properties for Device   3
 Minimum vector length:                              32
 Maximum vector length:                            1024
 Number of SMPs:                                    108
 Maximum number of threads per SMP:                2048
 Number of ASync Engines:                             5
 Memory:                                           9207742464
   8286968217 words of memory will be used on each GPU.
 ------------------------------------------
 # polar def2tzvp apfd int=(grid=ultrafine)
 ------------------------------------------
 1/38=1,172=1/1;
 2/12=2,17=6,18=5,40=1/2;
 3/5=44,7=101,11=2,25=1,30=1,74=-44,75=-5/1,2,3;
 4//1;
 5/5=2,38=5,98=1/2;
 8/6=4,10=90,11=11/1;
 10/6=1,13=10/2;
 6/7=2,8=2,9=2,10=2,28=1/1;
 99/5=1,9=1/99;
 ---------
 2xkh_II_S
 ---------
 Symbolic Z-matrix:
 Charge =  0 Multiplicity = 1
 Fe                    28.18923   31.42673   9.96292 
 N                     26.35075   32.31383   10.15763 
 N                     28.96749   32.82617   11.22223 
 N                     29.97492   30.56219   9.74253 
 N                     27.3418   30.08535   8.69123 
 C                     25.17792   31.89006   9.6246 
 C                     24.07544   32.68185   10.12875 
 C                     24.6149   33.58044   10.99414 
 C                     26.04082   33.32422   11.01076 
 C                     28.26024   33.68912   11.99753 
 C                     29.08846   34.23554   13.03879 
 C                     30.29005   33.58092   12.95272 
 C                     30.16259   32.64807   11.85163 
 C                     31.1028   30.86651   10.43478 
 C                     32.17944   29.99431   10.03488 
 C                     31.67011   29.15827   9.07907 
 C                     30.277    29.53451   8.9141 
 C                     28.04807   29.23405   7.90253 
 C                     27.20945   28.70218   6.85284 
 C                     25.97718   29.25285   7.03321 
 C                     26.08557   30.13074   8.17766 
 C                     25.04373   30.89493   8.67274 
 H                     24.06541   30.74407   8.24253 
 C                     26.93142   34.03553   11.79096 
 H                     26.52568   34.82754   12.4025 
 C                     31.20742   31.85795   11.39508 
 H                     32.15633   31.95153   11.90267 
 C                     29.38648   28.90811   8.05991 
 H                     29.77755   28.119    7.43679 
 C                     23.94339   34.64622   11.78964 
 H                     22.8691   34.63397   11.62398 
 H                     24.3231   35.62625   11.5022 
 H                     24.12756   34.50993   12.85574 
 C                     22.65392   32.49701   9.72338 
 H                     22.32966   31.47275   9.90662 
 H                     22.53489   32.70522   8.66017 
 H                     22.00316   33.16951   10.27659 
 C                     28.65165   35.23084   14.05653 
 H                     27.62664   35.03963   14.37249 
 H                     28.69507   36.24172   13.64919 
 H                     29.30183   35.18291   14.92826 
 C                     31.46448   33.72181   13.78799 
 H                     32.01313   32.80828   13.9865 
 C                     31.90392   34.86891   14.29362 
 H                     31.41979   35.80608   14.08157 
 H                     32.78367   34.91301   14.91354 
 C                     33.57214   30.06354   10.55701 
 H                     33.58389   29.95115   11.64148 
 H                     34.01932   31.02742   10.31412 
 H                     34.18535   29.282    10.11593 
 C                     32.39081   28.11395   8.37292 
 H                     33.06525   27.52793   8.98885 
 C                     32.31992   27.86546   7.07147 
 H                     31.71109   28.45658   6.40885 
 H                     32.8965   27.07694   6.61676 
 C                     27.67696   27.75038   5.80716 
 H                     28.07008   26.84109   6.26199 
 H                     28.47114   28.20139   5.21308 
 H                     26.86327   27.47666   5.14065 
 C                     24.73769   29.07578   6.22681 
 H                     23.92114   28.71262   6.85078 
 H                     24.8994   28.3623   5.42286 
 H                     24.4322   30.02527   5.78799 
 O                     28.59258   32.34561   8.61417 
 O                     28.22537   33.5672   8.56424 
 C                     27.55323   26.8685   13.50521 
 H                     28.01948   26.19034   12.79657 
 H                     26.53498   26.52804   13.69603 
 H                     28.10666   26.82981   14.44376 
 N                     27.07017   29.31998   13.65672 
 H                     26.68112   29.28624   14.58562 
 C                     27.55247   28.24537   12.95197 
 C                     27.21066   30.41433   12.87978 
 H                     26.91765   31.40244   13.17307 
 N                     27.75133   30.10243   11.73036 
 C                     27.97065   28.75833   11.75661 
 H                     28.40931   28.26032   10.91648 
 
 Stoichiometry    C34H34FeN6O2
 Framework group  C1[X(C34H34FeN6O2)]
 Deg. of freedom   225
 Full point group                 C1      NOp   1
 Largest Abelian subgroup         C1      NOp   1
 Largest concise Abelian subgroup C1      NOp   1
                         Standard orientation:                         
 ---------------------------------------------------------------------
 Center     Atomic      Atomic             Coordinates (Angstroms)
 Number     Number       Type             X           Y           Z
 ---------------------------------------------------------------------
      1         26           0       -0.055710    0.150124   -0.442288
      2          7           0        0.845438    1.991814   -0.473248
      3          7           0        1.764121   -0.715053   -0.741739
      4          7           0       -0.954880   -1.632034   -0.431486
      5          7           0       -1.837783    1.091998   -0.174457
      6          6           0        0.256304    3.194028   -0.256856
      7          6           0        1.252133    4.243112   -0.191180
      8          6           0        2.457389    3.636430   -0.354527
      9          6           0        2.183243    2.222790   -0.514624
     10          6           0        2.971235   -0.100298   -0.637196
     11          6           0        4.027190   -1.068314   -0.508158
     12          6           0        3.413589   -2.290304   -0.408203
     13          6           0        1.989746   -2.033354   -0.482298
     14          6           0       -0.336601   -2.840951   -0.446013
     15          6           0       -1.315188   -3.898148   -0.378883
     16          6           0       -2.541088   -3.292762   -0.327653
     17          6           0       -2.287205   -1.863048   -0.359432
     18          6           0       -3.045861    0.482607   -0.295924
     19          6           0       -4.096576    1.464326   -0.438213
     20          6           0       -3.489100    2.682248   -0.394697
     21          6           0       -2.072817    2.427363   -0.248471
     22          6           0       -1.107380    3.416494   -0.184726
     23          1           0       -1.444282    4.440655   -0.134350
     24          6           0        3.170177    1.272946   -0.692406
     25          1           0        4.190709    1.624244   -0.724000
     26          6           0        1.032471   -3.037152   -0.502637
     27          1           0        1.384635   -4.057160   -0.453587
     28          6           0       -3.265217   -0.886412   -0.290687
     29          1           0       -4.290692   -1.220575   -0.265390
     30          6           0        3.820617    4.236682   -0.385046
     31          1           0        3.773984    5.311159   -0.226886
     32          1           0        4.291427    4.052703   -1.350317
     33          1           0        4.453694    3.803158    0.389757
     34          6           0        0.940355    5.686167    0.007847
     35          1           0        0.361324    5.834508    0.919187
     36          1           0        0.355862    6.064773   -0.830589
     37          1           0        1.852703    6.272985    0.078933
     38          6           0        5.478208   -0.753362   -0.396065
     39          1           0        5.636336    0.143835    0.201486
     40          1           0        5.911707   -0.581546   -1.382098
     41          1           0        6.005048   -1.583259    0.071557
     42          6           0        4.011723   -3.596086   -0.223877
     43          1           0        3.459201   -4.281842    0.408118
     44          6           0        5.150471   -3.995311   -0.779293
     45          1           0        5.705740   -3.366040   -1.452598
     46          1           0        5.550701   -4.979604   -0.602715
     47          6           0       -1.002318   -5.353507   -0.411547
     48          1           0       -0.326923   -5.621530    0.401389
     49          1           0       -0.516828   -5.614672   -1.351822
     50          1           0       -1.911488   -5.942362   -0.321843
     51          6           0       -3.830256   -3.957994   -0.263146
     52          1           0       -3.867228   -4.819243    0.396058
     53          6           0       -4.910004   -3.627902   -0.960084
     54          1           0       -4.906699   -2.819027   -1.670627
     55          1           0       -5.831007   -4.179127   -0.865886
     56          6           0       -5.538289    1.131223   -0.606862
     57          1           0       -5.897773    0.538935    0.234676
     58          1           0       -5.688477    0.551053   -1.516754
     59          1           0       -6.139499    2.034247   -0.672713
     60          6           0       -4.088192    4.040092   -0.518483
     61          1           0       -3.852912    4.645846    0.356554
     62          1           0       -5.169300    3.977413   -0.612470
     63          1           0       -3.695213    4.548921   -1.398300
     64          8           0       -0.370418    0.173710   -2.093513
     65          8           0        0.492254    0.688052   -2.881459
     66          6           0       -0.789045   -0.581182    5.272365
     67          1           0       -1.800497   -0.955428    5.144452
     68          1           0       -0.825094    0.319435    5.886156
     69          1           0       -0.202020   -1.331366    5.802731
     70          7           0        1.099384    0.149108    3.800425
     71          1           0        1.751309    0.313060    4.551065
     72          6           0       -0.193170   -0.289580    3.945049
     73          6           0        1.327582    0.320007    2.481456
     74          1           0        2.257815    0.657382    2.070251
     75          7           0        0.264466    0.016975    1.782376
     76          6           0       -0.691389   -0.363904    2.674946
     77          1           0       -1.664114   -0.660177    2.339865
 ---------------------------------------------------------------------
 Rotational constants (GHZ):           0.0927124           0.0876196           0.0596821
 Standard basis: def2TZVP (5D, 7F)
 There are  1768 symmetry adapted cartesian basis functions of A   symmetry.
 There are  1551 symmetry adapted basis functions of A   symmetry.
  1551 basis functions,  2516 primitive gaussians,  1768 cartesian basis functions
   161 alpha electrons      161 beta electrons
       nuclear repulsion energy      6203.9997631814 Hartrees.
 NAtoms=   77 NActive=   77 NUniq=   77 SFac= 1.00D+00 NAtFMM=   60 NAOKFM=T Big=T
 Integral buffers will be    131072 words long.
 Raffenetti 2 integral format.
 Two-electron integral symmetry is turned on.
 R6APFD:  NTU= -4 IXU= 1 FactS= 1.050
 Nuclear repulsion after empirical dispersion term =     6203.8446074276 Hartrees.
 One-electron integrals computed using PRISM.
   1 Symmetry operations used in ECPInt.
 ECPInt:  NShTT=  188191 NPrTT=  584825 LenC2=  148302 LenP2D=  303847.
 LDataN:  DoStor=T MaxTD1= 6 Len=  172
 Number of processors reduced to  23 by ecpmxn.
 NBasis=  1551 RedAO= T EigKep=  3.59D-06  NBF=  1551
 NBsUse=  1551 1.00D-06 EigRej= -1.00D+00 NBFU=  1551
 ExpMin= 4.20D-02 ExpMax= 3.01D+05 ExpMxC= 2.91D+03 IAcc=3 IRadAn=         5 AccDes= 0.00D+00
 Harris functional with IExCor= 3731 and IRadAn=       5 diagonalized for initial guess.
 HarFok:  IExCor= 3731 AccDes= 0.00D+00 IRadAn=         5 IDoV= 1 UseB2=F ITyADJ=14
 ICtDFT=  3500011 ScaDFX=  1.000000  1.000000  1.000000  1.000000
 FoFCou: FMM=F IPFlag=           0 FMFlag=      100000 FMFlg1=        2001
         NFxFlg=           0 DoJE=T BraDBF=F KetDBF=T FulRan=T
         wScrn=  0.000000 ICntrl=       500 IOpCl=  0 I1Cent=   200000004 NGrid=           0
         NMat0=    1 NMatS0=      1 NMatT0=    0 NMatD0=    1 NMtDS0=    0 NMtDT0=    0
 Petite list used in FoFCou.
 Requested convergence on RMS density matrix=1.00D-08 within 128 cycles.
 Requested convergence on MAX density matrix=1.00D-06.
 Requested convergence on             energy=1.00D-06.
 No special actions if energy rises.
 EnCoef did     3 forward-backward iterations
 EnCoef did   100 forward-backward iterations
 EnCoef did   100 forward-backward iterations
 EnCoef did     2 forward-backward iterations
 EnCoef did     7 forward-backward iterations
 EnCoef did   100 forward-backward iterations
 EnCoef did     5 forward-backward iterations
 EnCoef did     5 forward-backward iterations
 Restarting incremental Fock formation.
 SCF Done:  E(RAPFD) =  -3057.86757847     A.U. after   30 cycles
            NFock= 30  Conv=0.50D-08     -V/T= 2.0035
 DoSCS=F DFT=T ScalE2(SS,OS)=  1.000000  1.000000
 Range of M.O.s used for correlation:     1  1551
 NBasis=  1551 NAE=   161 NBE=   161 NFC=     0 NFV=     0
 NROrb=   1551 NOA=   161 NOB=   161 NVA=  1390 NVB=  1390

 **** Warning!!: The largest alpha MO coefficient is  0.39905223D+02


 **** Warning!!: The smallest alpha delta epsilon is  0.81013080D-01

          Differentiating once with respect to electric field.
                with respect to dipole field.
          Electric field/nuclear overlap derivatives assumed to be zero.
          There are     3 degrees of freedom in the 1st order CPHF.  IDoFFX=0 NUNeed=     3.
      3 vectors produced by pass  0 Test12= 7.46D-12 3.33D-08 XBig12= 2.05D+03 2.26D+01.
 AX will form     3 AO Fock derivatives at one time.
      3 vectors produced by pass  1 Test12= 7.46D-12 3.33D-08 XBig12= 4.26D+03 2.28D+01.
      3 vectors produced by pass  2 Test12= 7.46D-12 3.33D-08 XBig12= 4.22D+03 9.94D+00.
      3 vectors produced by pass  3 Test12= 7.46D-12 3.33D-08 XBig12= 2.29D+03 6.87D+00.
      3 vectors produced by pass  4 Test12= 7.46D-12 3.33D-08 XBig12= 9.60D+02 6.39D+00.
      3 vectors produced by pass  5 Test12= 7.46D-12 3.33D-08 XBig12= 9.66D+02 7.53D+00.
      3 vectors produced by pass  6 Test12= 7.46D-12 3.33D-08 XBig12= 5.57D+02 5.59D+00.
      3 vectors produced by pass  7 Test12= 7.46D-12 3.33D-08 XBig12= 2.82D+02 3.39D+00.
      3 vectors produced by pass  8 Test12= 7.46D-12 3.33D-08 XBig12= 1.49D+02 2.06D+00.
      3 vectors produced by pass  9 Test12= 7.46D-12 3.33D-08 XBig12= 6.93D+01 1.80D+00.
      3 vectors produced by pass 10 Test12= 7.46D-12 3.33D-08 XBig12= 3.16D+01 1.04D+00.
      3 vectors produced by pass 11 Test12= 7.46D-12 3.33D-08 XBig12= 1.41D+01 6.25D-01.
      3 vectors produced by pass 12 Test12= 7.46D-12 3.33D-08 XBig12= 7.60D+00 5.72D-01.
      3 vectors produced by pass 13 Test12= 7.46D-12 3.33D-08 XBig12= 2.79D+00 4.47D-01.
      3 vectors produced by pass 14 Test12= 7.46D-12 3.33D-08 XBig12= 1.22D+00 3.36D-01.
      3 vectors produced by pass 15 Test12= 7.46D-12 3.33D-08 XBig12= 4.37D-01 1.53D-01.
      3 vectors produced by pass 16 Test12= 7.46D-12 3.33D-08 XBig12= 2.06D-01 1.03D-01.
      3 vectors produced by pass 17 Test12= 7.46D-12 3.33D-08 XBig12= 6.03D-02 5.58D-02.
      3 vectors produced by pass 18 Test12= 7.46D-12 3.33D-08 XBig12= 2.07D-02 3.55D-02.
      3 vectors produced by pass 19 Test12= 7.46D-12 3.33D-08 XBig12= 6.31D-03 1.72D-02.
      3 vectors produced by pass 20 Test12= 7.46D-12 3.33D-08 XBig12= 1.56D-03 8.35D-03.
      3 vectors produced by pass 21 Test12= 7.46D-12 3.33D-08 XBig12= 3.45D-04 2.68D-03.
      3 vectors produced by pass 22 Test12= 7.46D-12 3.33D-08 XBig12= 8.69D-05 1.01D-03.
      3 vectors produced by pass 23 Test12= 7.46D-12 3.33D-08 XBig12= 1.33D-05 4.88D-04.
      3 vectors produced by pass 24 Test12= 7.46D-12 3.33D-08 XBig12= 3.13D-06 2.91D-04.
      3 vectors produced by pass 25 Test12= 7.46D-12 3.33D-08 XBig12= 6.22D-07 1.26D-04.
      3 vectors produced by pass 26 Test12= 7.46D-12 3.33D-08 XBig12= 7.99D-08 4.88D-05.
      3 vectors produced by pass 27 Test12= 7.46D-12 3.33D-08 XBig12= 1.18D-08 1.24D-05.
      3 vectors produced by pass 28 Test12= 7.46D-12 3.33D-08 XBig12= 2.88D-09 9.41D-06.
      3 vectors produced by pass 29 Test12= 7.46D-12 3.33D-08 XBig12= 4.07D-10 2.31D-06.
      3 vectors produced by pass 30 Test12= 7.46D-12 3.33D-08 XBig12= 5.31D-11 8.20D-07.
      3 vectors produced by pass 31 Test12= 7.46D-12 3.33D-08 XBig12= 5.13D-12 4.11D-07.
      3 vectors produced by pass 32 Test12= 7.46D-12 3.33D-08 XBig12= 7.65D-13 2.13D-07.
      2 vectors produced by pass 33 Test12= 7.46D-12 3.33D-08 XBig12= 1.14D-13 5.82D-08.
 InvSVY:  IOpt=1 It=  1 EMax= 2.13D-14
 Solved reduced A of dimension   101 with     3 vectors.
 Isotropic polarizability for W=    0.000000      579.89 Bohr**3.
 End of Minotr F.D. properties file   721 does not exist.
 End of Minotr F.D. properties file   722 does not exist.
 End of Minotr F.D. properties file   788 does not exist.

 **********************************************************************

            Population analysis using the SCF Density.

 **********************************************************************

 Orbital symmetries:
       Occupied  (A) (A) (A) (A) (A) (A) (A) (A) (A) (A) (A) (A)
                 (A) (A) (A) (A) (A) (A) (A) (A) (A) (A) (A) (A)
                 (A) (A) (A) (A) (A) (A) (A) (A) (A) (A) (A) (A)
                 (A) (A) (A) (A) (A) (A) (A) (A) (A) (A) (A) (A)
                 (A) (A) (A) (A) (A) (A) (A) (A) (A) (A) (A) (A)
                 (A) (A) (A) (A) (A) (A) (A) (A) (A) (A) (A) (A)
                 (A) (A) (A) (A) (A) (A) (A) (A) (A) (A) (A) (A)
                 (A) (A) (A) (A) (A) (A) (A) (A) (A) (A) (A) (A)
                 (A) (A) (A) (A) (A) (A) (A) (A) (A) (A) (A) (A)
                 (A) (A) (A) (A) (A) (A) (A) (A) (A) (A) (A) (A)
                 (A) (A) (A) (A) (A) (A) (A) (A) (A) (A) (A) (A)
                 (A) (A) (A) (A) (A) (A) (A) (A) (A) (A) (A) (A)
                 (A) (A) (A) (A) (A) (A) (A) (A) (A) (A) (A) (A)
                 (A) (A) (A) (A) (A)
       Virtual   (A) (A) (A) (A) (A) (A) (A) (A) (A) (A) (A) (A)
                 (A) (A) (A) (A) (A) (A) (A) (A) (A) (A) (A) (A)
                 (A) (A) (A) (A) (A) (A) (A) (A) (A) (A) (A) (A)
                 (A) (A) (A) (A) (A) (A) (A) (A) (A) (A) (A) (A)
                 (A) (A) (A) (A) (A) (A) (A) (A) (A) (A) (A) (A)
                 (A) (A) (A) (A) (A) (A) (A) (A) (A) (A) (A) (A)
                 (A) (A) (A) (A) (A) (A) (A) (A) (A) (A) (A) (A)
                 (A) (A) (A) (A) (A) (A) (A) (A) (A) (A) (A) (A)
                 (A) (A) (A) (A) (A) (A) (A) (A) (A) (A) (A) (A)
                 (A) (A) (A) (A) (A) (A) (A) (A) (A) (A) (A) (A)
                 (A) (A) (A) (A) (A) (A) (A) (A) (A) (A) (A) (A)
                 (A) (A) (A) (A) (A) (A) (A) (A) (A) (A) (A) (A)
                 (A) (A) (A) (A) (A) (A) (A) (A) (A) (A) (A) (A)
                 (A) (A) (A) (A) (A) (A) (A) (A) (A) (A) (A) (A)
                 (A) (A) (A) (A) (A) (A) (A) (A) (A) (A) (A) (A)
                 (A) (A) (A) (A) (A) (A) (A) (A) (A) (A) (A) (A)
                 (A) (A) (A) (A) (A) (A) (A) (A) (A) (A) (A) (A)
                 (A) (A) (A) (A) (A) (A) (A) (A) (A) (A) (A) (A)
                 (A) (A) (A) (A) (A) (A) (A) (A) (A) (A) (A) (A)
                 (A) (A) (A) (A) (A) (A) (A) (A) (A) (A) (A) (A)
                 (A) (A) (A) (A) (A) (A) (A) (A) (A) (A) (A) (A)
                 (A) (A) (A) (A) (A) (A) (A) (A) (A) (A) (A) (A)
                 (A) (A) (A) (A) (A) (A) (A) (A) (A) (A) (A) (A)
                 (A) (A) (A) (A) (A) (A) (A) (A) (A) (A) (A) (A)
                 (A) (A) (A) (A) (A) (A) (A) (A) (A) (A) (A) (A)
                 (A) (A) (A) (A) (A) (A) (A) (A) (A) (A) (A) (A)
                 (A) (A) (A) (A) (A) (A) (A) (A) (A) (A) (A) (A)
                 (A) (A) (A) (A) (A) (A) (A) (A) (A) (A) (A) (A)
                 (A) (A) (A) (A) (A) (A) (A) (A) (A) (A) (A) (A)
                 (A) (A) (A) (A) (A) (A) (A) (A) (A) (A) (A) (A)
                 (A) (A) (A) (A) (A) (A) (A) (A) (A) (A) (A) (A)
                 (A) (A) (A) (A) (A) (A) (A) (A) (A) (A) (A) (A)
                 (A) (A) (A) (A) (A) (A) (A) (A) (A) (A) (A) (A)
                 (A) (A) (A) (A) (A) (A) (A) (A) (A) (A) (A) (A)
                 (A) (A) (A) (A) (A) (A) (A) (A) (A) (A) (A) (A)
                 (A) (A) (A) (A) (A) (A) (A) (A) (A) (A) (A) (A)
                 (A) (A) (A) (A) (A) (A) (A) (A) (A) (A) (A) (A)
                 (A) (A) (A) (A) (A) (A) (A) (A) (A) (A) (A) (A)
                 (A) (A) (A) (A) (A) (A) (A) (A) (A) (A) (A) (A)
                 (A) (A) (A) (A) (A) (A) (A) (A) (A) (A) (A) (A)
                 (A) (A) (A) (A) (A) (A) (A) (A) (A) (A) (A) (A)
                 (A) (A) (A) (A) (A) (A) (A) (A) (A) (A) (A) (A)
                 (A) (A) (A) (A) (A) (A) (A) (A) (A) (A) (A) (A)
                 (A) (A) (A) (A) (A) (A) (A) (A) (A) (A) (A) (A)
                 (A) (A) (A) (A) (A) (A) (A) (A) (A) (A) (A) (A)
                 (A) (A) (A) (A) (A) (A) (A) (A) (A) (A) (A) (A)
                 (A) (A) (A) (A) (A) (A) (A) (A) (A) (A) (A) (A)
                 (A) (A) (A) (A) (A) (A) (A) (A) (A) (A) (A) (A)
                 (A) (A) (A) (A) (A) (A) (A) (A) (A) (A) (A) (A)
                 (A) (A) (A) (A) (A) (A) (A) (A) (A) (A) (A) (A)
                 (A) (A) (A) (A) (A) (A) (A) (A) (A) (A) (A) (A)
                 (A) (A) (A) (A) (A) (A) (A) (A) (A) (A) (A) (A)
                 (A) (A) (A) (A) (A) (A) (A) (A) (A) (A) (A) (A)
                 (A) (A) (A) (A) (A) (A) (A) (A) (A) (A) (A) (A)
                 (A) (A) (A) (A) (A) (A) (A) (A) (A) (A) (A) (A)
                 (A) (A) (A) (A) (A) (A) (A) (A) (A) (A) (A) (A)
                 (A) (A) (A) (A) (A) (A) (A) (A) (A) (A) (A) (A)
                 (A) (A) (A) (A) (A) (A) (A) (A) (A) (A) (A) (A)
                 (A) (A) (A) (A) (A) (A) (A) (A) (A) (A) (A) (A)
                 (A) (A) (A) (A) (A) (A) (A) (A) (A) (A) (A) (A)
                 (A) (A) (A) (A) (A) (A) (A) (A) (A) (A) (A) (A)
                 (A) (A) (A) (A) (A) (A) (A) (A) (A) (A) (A) (A)
                 (A) (A) (A) (A) (A) (A) (A) (A) (A) (A) (A) (A)
                 (A) (A) (A) (A) (A) (A) (A) (A) (A) (A) (A) (A)
                 (A) (A) (A) (A) (A) (A) (A) (A) (A) (A) (A) (A)
                 (A) (A) (A) (A) (A) (A) (A) (A) (A) (A) (A) (A)
                 (A) (A) (A) (A) (A) (A) (A) (A) (A) (A) (A) (A)
                 (A) (A) (A) (A) (A) (A) (A) (A) (A) (A) (A) (A)
                 (A) (A) (A) (A) (A) (A) (A) (A) (A) (A) (A) (A)
                 (A) (A) (A) (A) (A) (A) (A) (A) (A) (A) (A) (A)
                 (A) (A) (A) (A) (A) (A) (A) (A) (A) (A) (A) (A)
                 (A) (A) (A) (A) (A) (A) (A) (A) (A) (A) (A) (A)
                 (A) (A) (A) (A) (A) (A) (A) (A) (A) (A) (A) (A)
                 (A) (A) (A) (A) (A) (A) (A) (A) (A) (A) (A) (A)
                 (A) (A) (A) (A) (A) (A) (A) (A) (A) (A) (A) (A)
                 (A) (A) (A) (A) (A) (A) (A) (A) (A) (A) (A) (A)
                 (A) (A) (A) (A) (A) (A) (A) (A) (A) (A) (A) (A)
                 (A) (A) (A) (A) (A) (A) (A) (A) (A) (A) (A) (A)
                 (A) (A) (A) (A) (A) (A) (A) (A) (A) (A) (A) (A)
                 (A) (A) (A) (A) (A) (A) (A) (A) (A) (A) (A) (A)
                 (A) (A) (A) (A) (A) (A) (A) (A) (A) (A) (A) (A)
                 (A) (A) (A) (A) (A) (A) (A) (A) (A) (A) (A) (A)
                 (A) (A) (A) (A) (A) (A) (A) (A) (A) (A) (A) (A)
                 (A) (A) (A) (A) (A) (A) (A) (A) (A) (A) (A) (A)
                 (A) (A) (A) (A) (A) (A) (A) (A) (A) (A) (A) (A)
                 (A) (A) (A) (A) (A) (A) (A) (A) (A) (A) (A) (A)
                 (A) (A) (A) (A) (A) (A) (A) (A) (A) (A) (A) (A)
                 (A) (A) (A) (A) (A) (A) (A) (A) (A) (A) (A) (A)
                 (A) (A) (A) (A) (A) (A) (A) (A) (A) (A) (A) (A)
                 (A) (A) (A) (A) (A) (A) (A) (A) (A) (A) (A) (A)
                 (A) (A) (A) (A) (A) (A) (A) (A) (A) (A) (A) (A)
                 (A) (A) (A) (A) (A) (A) (A) (A) (A) (A) (A) (A)
                 (A) (A) (A) (A) (A) (A) (A) (A) (A) (A) (A) (A)
                 (A) (A) (A) (A) (A) (A) (A) (A) (A) (A) (A) (A)
                 (A) (A) (A) (A) (A) (A) (A) (A) (A) (A) (A) (A)
                 (A) (A) (A) (A) (A) (A) (A) (A) (A) (A) (A) (A)
                 (A) (A) (A) (A) (A) (A) (A) (A) (A) (A) (A) (A)
                 (A) (A) (A) (A) (A) (A) (A) (A) (A) (A) (A) (A)
                 (A) (A) (A) (A) (A) (A) (A) (A) (A) (A) (A) (A)
                 (A) (A) (A) (A) (A) (A) (A) (A) (A) (A) (A) (A)
                 (A) (A) (A) (A) (A) (A) (A) (A) (A) (A) (A) (A)
                 (A) (A) (A) (A) (A) (A) (A) (A) (A) (A) (A) (A)
                 (A) (A) (A) (A) (A) (A) (A) (A) (A) (A) (A) (A)
                 (A) (A) (A) (A) (A) (A) (A) (A) (A) (A) (A) (A)
                 (A) (A) (A) (A) (A) (A) (A) (A) (A) (A) (A) (A)
                 (A) (A) (A) (A) (A) (A) (A) (A) (A) (A) (A) (A)
                 (A) (A) (A) (A) (A) (A) (A) (A) (A) (A) (A) (A)
                 (A) (A) (A) (A) (A) (A) (A) (A) (A) (A) (A) (A)
                 (A) (A) (A) (A) (A) (A) (A) (A) (A) (A) (A) (A)
                 (A) (A) (A) (A) (A) (A) (A) (A) (A) (A) (A) (A)
                 (A) (A) (A) (A) (A) (A) (A) (A) (A) (A) (A) (A)
                 (A) (A) (A) (A) (A) (A) (A) (A) (A) (A) (A) (A)
                 (A) (A) (A) (A) (A) (A) (A) (A) (A) (A) (A) (A)
                 (A) (A) (A) (A) (A) (A) (A) (A) (A) (A) (A) (A)
                 (A) (A) (A) (A) (A) (A) (A) (A) (A) (A) (A) (A)
                 (A) (A) (A) (A) (A) (A) (A) (A) (A) (A)
 The electronic state is 1-A.
 Alpha  occ. eigenvalues -- -256.24123 -30.09721 -25.94103 -25.93819 -25.92736
 Alpha  occ. eigenvalues --  -19.27221 -19.19397 -14.42484 -14.36389 -14.34371
 Alpha  occ. eigenvalues --  -14.34257 -14.34157 -14.33925 -10.26297 -10.24418
 Alpha  occ. eigenvalues --  -10.22022 -10.21884 -10.21861 -10.21682 -10.21652
 Alpha  occ. eigenvalues --  -10.21651 -10.21625 -10.21609 -10.21533 -10.21527
 Alpha  occ. eigenvalues --  -10.20176 -10.20119 -10.19795 -10.19613 -10.19419
 Alpha  occ. eigenvalues --  -10.19327 -10.19318 -10.19251 -10.19182 -10.19139
 Alpha  occ. eigenvalues --  -10.19117 -10.19108 -10.19098 -10.19049 -10.18987
 Alpha  occ. eigenvalues --  -10.18965 -10.18897 -10.18865 -10.18854 -10.18816
 Alpha  occ. eigenvalues --  -10.18811 -10.18611  -3.46643  -2.23885  -2.22895
 Alpha  occ. eigenvalues --   -2.21204  -1.17791  -1.06019  -0.97699  -0.96800
 Alpha  occ. eigenvalues --   -0.96728  -0.95807  -0.91356  -0.82841  -0.82493
 Alpha  occ. eigenvalues --   -0.82115  -0.81226  -0.80952  -0.80883  -0.80212
 Alpha  occ. eigenvalues --   -0.80118  -0.78485  -0.77413  -0.76433  -0.74735
 Alpha  occ. eigenvalues --   -0.74513  -0.73558  -0.72395  -0.71488  -0.70512
 Alpha  occ. eigenvalues --   -0.68679  -0.68483  -0.68310  -0.65036  -0.64879
 Alpha  occ. eigenvalues --   -0.64666  -0.61927  -0.61519  -0.60597  -0.58188
 Alpha  occ. eigenvalues --   -0.57313  -0.56537  -0.55140  -0.54689  -0.53945
 Alpha  occ. eigenvalues --   -0.52733  -0.51826  -0.51556  -0.51083  -0.49442
 Alpha  occ. eigenvalues --   -0.48898  -0.48458  -0.48355  -0.48155  -0.48012
 Alpha  occ. eigenvalues --   -0.46692  -0.46304  -0.46120  -0.45402  -0.45020
 Alpha  occ. eigenvalues --   -0.44687  -0.44380  -0.43988  -0.43886  -0.43726
 Alpha  occ. eigenvalues --   -0.43626  -0.43525  -0.43247  -0.43192  -0.43019
 Alpha  occ. eigenvalues --   -0.42659  -0.42133  -0.41964  -0.41855  -0.41621
 Alpha  occ. eigenvalues --   -0.40763  -0.40681  -0.40507  -0.40309  -0.39951
 Alpha  occ. eigenvalues --   -0.39653  -0.39336  -0.39252  -0.38982  -0.38319
 Alpha  occ. eigenvalues --   -0.38098  -0.37819  -0.37635  -0.36803  -0.36709
 Alpha  occ. eigenvalues --   -0.36251  -0.35635  -0.35201  -0.34640  -0.34409
 Alpha  occ. eigenvalues --   -0.33766  -0.32380  -0.32090  -0.32022  -0.30465
 Alpha  occ. eigenvalues --   -0.30357  -0.29675  -0.29338  -0.27345  -0.27190
 Alpha  occ. eigenvalues --   -0.25654  -0.25188  -0.24569  -0.24529  -0.23464
 Alpha  occ. eigenvalues --   -0.22911  -0.22284  -0.21385  -0.21223  -0.18900
 Alpha  occ. eigenvalues --   -0.18385
 Alpha virt. eigenvalues --   -0.10284  -0.07304  -0.07194  -0.02421  -0.00841
 Alpha virt. eigenvalues --   -0.00072   0.00505   0.00836   0.01553   0.02214
 Alpha virt. eigenvalues --    0.03825   0.04337   0.04569   0.05137   0.05338
 Alpha virt. eigenvalues --    0.05750   0.05998   0.06791   0.07180   0.07616
 Alpha virt. eigenvalues --    0.08043   0.08134   0.08453   0.08761   0.09276
 Alpha virt. eigenvalues --    0.09442   0.10014   0.10370   0.10756   0.10903
 Alpha virt. eigenvalues --    0.11107   0.11386   0.11729   0.11874   0.11958
 Alpha virt. eigenvalues --    0.12076   0.12363   0.12491   0.12807   0.13175
 Alpha virt. eigenvalues --    0.13318   0.13744   0.13800   0.13946   0.14178
 Alpha virt. eigenvalues --    0.14345   0.14599   0.14933   0.15202   0.15422
 Alpha virt. eigenvalues --    0.15643   0.15700   0.15939   0.16215   0.16390
 Alpha virt. eigenvalues --    0.16679   0.16856   0.17149   0.17198   0.17566
 Alpha virt. eigenvalues --    0.18104   0.18387   0.18717   0.19130   0.19431
 Alpha virt. eigenvalues --    0.19485   0.19687   0.19808   0.19922   0.20343
 Alpha virt. eigenvalues --    0.20502   0.20924   0.21222   0.21322   0.21828
 Alpha virt. eigenvalues --    0.22224   0.22470   0.22647   0.23025   0.23182
 Alpha virt. eigenvalues --    0.23302   0.23878   0.24116   0.24524   0.24875
 Alpha virt. eigenvalues --    0.25095   0.25467   0.25672   0.25927   0.26548
 Alpha virt. eigenvalues --    0.26824   0.27020   0.27285   0.27422   0.27590
 Alpha virt. eigenvalues --    0.27737   0.28195   0.28485   0.28573   0.28914
 Alpha virt. eigenvalues --    0.28956   0.29218   0.29539   0.29689   0.29866
 Alpha virt. eigenvalues --    0.30070   0.30446   0.30646   0.31186   0.31691
 Alpha virt. eigenvalues --    0.31921   0.32221   0.32566   0.32911   0.33061
 Alpha virt. eigenvalues --    0.33327   0.33637   0.33811   0.33907   0.34101
 Alpha virt. eigenvalues --    0.34425   0.34955   0.35338   0.35598   0.36095
 Alpha virt. eigenvalues --    0.36286   0.36627   0.36734   0.37024   0.37211
 Alpha virt. eigenvalues --    0.37300   0.37499   0.37722   0.37886   0.38592
 Alpha virt. eigenvalues --    0.38684   0.38885   0.39169   0.39254   0.39634
 Alpha virt. eigenvalues --    0.39803   0.40024   0.40249   0.40526   0.40772
 Alpha virt. eigenvalues --    0.41078   0.41341   0.41400   0.41513   0.41618
 Alpha virt. eigenvalues --    0.41953   0.42069   0.42396   0.42584   0.42924
 Alpha virt. eigenvalues --    0.42978   0.43297   0.43680   0.43790   0.43906
 Alpha virt. eigenvalues --    0.44168   0.44568   0.44699   0.45009   0.45019
 Alpha virt. eigenvalues --    0.45278   0.45550   0.46129   0.46187   0.46229
 Alpha virt. eigenvalues --    0.46428   0.46782   0.46981   0.47167   0.47420
 Alpha virt. eigenvalues --    0.47581   0.47683   0.47790   0.48141   0.48274
 Alpha virt. eigenvalues --    0.48385   0.48441   0.48657   0.49048   0.49108
 Alpha virt. eigenvalues --    0.49364   0.49902   0.49931   0.50130   0.50594
 Alpha virt. eigenvalues --    0.50774   0.50938   0.51448   0.51583   0.51698
 Alpha virt. eigenvalues --    0.51754   0.52080   0.52476   0.52664   0.52808
 Alpha virt. eigenvalues --    0.53081   0.53398   0.53724   0.53860   0.54008
 Alpha virt. eigenvalues --    0.54208   0.54356   0.54586   0.55037   0.55259
 Alpha virt. eigenvalues --    0.55427   0.55901   0.56169   0.56583   0.56783
 Alpha virt. eigenvalues --    0.56886   0.57293   0.57579   0.58019   0.58137
 Alpha virt. eigenvalues --    0.58472   0.58848   0.59098   0.59498   0.59665
 Alpha virt. eigenvalues --    0.59878   0.60141   0.60427   0.60594   0.61072
 Alpha virt. eigenvalues --    0.61503   0.61815   0.62134   0.62561   0.62721
 Alpha virt. eigenvalues --    0.63183   0.63359   0.63752   0.64147   0.64222
 Alpha virt. eigenvalues --    0.64475   0.64693   0.65059   0.65443   0.65571
 Alpha virt. eigenvalues --    0.65672   0.66032   0.66610   0.66949   0.67140
 Alpha virt. eigenvalues --    0.67690   0.67889   0.68262   0.68655   0.68944
 Alpha virt. eigenvalues --    0.69283   0.69614   0.69637   0.70173   0.70617
 Alpha virt. eigenvalues --    0.70852   0.71039   0.71424   0.71442   0.71803
 Alpha virt. eigenvalues --    0.72082   0.72453   0.72938   0.73130   0.73285
 Alpha virt. eigenvalues --    0.73898   0.74020   0.74295   0.74724   0.74934
 Alpha virt. eigenvalues --    0.75244   0.75578   0.76012   0.76465   0.77136
 Alpha virt. eigenvalues --    0.77359   0.77601   0.77788   0.77982   0.78326
 Alpha virt. eigenvalues --    0.78496   0.78893   0.79319   0.79525   0.79908
 Alpha virt. eigenvalues --    0.80505   0.80867   0.81144   0.81567   0.81850
 Alpha virt. eigenvalues --    0.82309   0.82779   0.83161   0.83563   0.83879
 Alpha virt. eigenvalues --    0.83998   0.84573   0.85079   0.85498   0.85710
 Alpha virt. eigenvalues --    0.86070   0.86598   0.86890   0.87336   0.87776
 Alpha virt. eigenvalues --    0.88102   0.88814   0.89168   0.89444   0.90002
 Alpha virt. eigenvalues --    0.90152   0.90902   0.91133   0.91150   0.91655
 Alpha virt. eigenvalues --    0.91862   0.92395   0.92439   0.92853   0.93224
 Alpha virt. eigenvalues --    0.93458   0.93777   0.94175   0.94307   0.94829
 Alpha virt. eigenvalues --    0.95134   0.95357   0.95709   0.95931   0.96418
 Alpha virt. eigenvalues --    0.96698   0.97076   0.97481   0.97735   0.98189
 Alpha virt. eigenvalues --    0.98556   0.98577   0.99558   0.99881   1.00029
 Alpha virt. eigenvalues --    1.00163   1.00529   1.00815   1.00917   1.01329
 Alpha virt. eigenvalues --    1.01686   1.02150   1.02413   1.02939   1.03016
 Alpha virt. eigenvalues --    1.03313   1.03572   1.03855   1.04337   1.04515
 Alpha virt. eigenvalues --    1.04790   1.05428   1.05564   1.06115   1.06379
 Alpha virt. eigenvalues --    1.06922   1.07102   1.07634   1.08026   1.08496
 Alpha virt. eigenvalues --    1.08954   1.09103   1.09505   1.09822   1.10014
 Alpha virt. eigenvalues --    1.10943   1.11513   1.11695   1.12583   1.12742
 Alpha virt. eigenvalues --    1.13332   1.13890   1.14558   1.14779   1.15052
 Alpha virt. eigenvalues --    1.15271   1.15636   1.16643   1.16814   1.17320
 Alpha virt. eigenvalues --    1.17744   1.18155   1.18477   1.18987   1.19336
 Alpha virt. eigenvalues --    1.19442   1.19842   1.20218   1.20829   1.21259
 Alpha virt. eigenvalues --    1.21566   1.21823   1.22407   1.22755   1.23007
 Alpha virt. eigenvalues --    1.23447   1.23759   1.24365   1.24803   1.25542
 Alpha virt. eigenvalues --    1.25825   1.26264   1.26834   1.27022   1.27238
 Alpha virt. eigenvalues --    1.27315   1.27968   1.28129   1.28443   1.28558
 Alpha virt. eigenvalues --    1.29122   1.29529   1.29978   1.30426   1.31120
 Alpha virt. eigenvalues --    1.31478   1.31590   1.31854   1.32221   1.32979
 Alpha virt. eigenvalues --    1.33380   1.33754   1.35233   1.35402   1.36413
 Alpha virt. eigenvalues --    1.36617   1.36963   1.37392   1.37789   1.38685
 Alpha virt. eigenvalues --    1.39087   1.39508   1.39958   1.40368   1.40820
 Alpha virt. eigenvalues --    1.41598   1.41757   1.42135   1.42580   1.42668
 Alpha virt. eigenvalues --    1.43555   1.44406   1.45255   1.45470   1.45893
 Alpha virt. eigenvalues --    1.46230   1.46772   1.47371   1.47486   1.47601
 Alpha virt. eigenvalues --    1.48195   1.48246   1.48746   1.49371   1.49608
 Alpha virt. eigenvalues --    1.49739   1.50340   1.50398   1.50820   1.50848
 Alpha virt. eigenvalues --    1.51063   1.51521   1.51841   1.51958   1.52365
 Alpha virt. eigenvalues --    1.52589   1.52860   1.53025   1.53405   1.53505
 Alpha virt. eigenvalues --    1.53832   1.54212   1.54556   1.54643   1.55182
 Alpha virt. eigenvalues --    1.55579   1.55639   1.55759   1.55926   1.56248
 Alpha virt. eigenvalues --    1.56514   1.56566   1.57057   1.57203   1.57573
 Alpha virt. eigenvalues --    1.58194   1.58214   1.58305   1.58629   1.59306
 Alpha virt. eigenvalues --    1.59680   1.59712   1.59830   1.60264   1.60736
 Alpha virt. eigenvalues --    1.61176   1.61475   1.61749   1.61875   1.62312
 Alpha virt. eigenvalues --    1.62629   1.63002   1.63385   1.63638   1.63833
 Alpha virt. eigenvalues --    1.63976   1.64656   1.65006   1.65210   1.65456
 Alpha virt. eigenvalues --    1.65786   1.66016   1.66446   1.67373   1.67556
 Alpha virt. eigenvalues --    1.67802   1.68122   1.68362   1.68590   1.69177
 Alpha virt. eigenvalues --    1.69408   1.70025   1.70083   1.70243   1.70629
 Alpha virt. eigenvalues --    1.71696   1.71910   1.72417   1.72598   1.72703
 Alpha virt. eigenvalues --    1.73117   1.73794   1.74007   1.74538   1.75160
 Alpha virt. eigenvalues --    1.75614   1.75908   1.76406   1.76608   1.77243
 Alpha virt. eigenvalues --    1.78130   1.79123   1.79471   1.80012   1.80530
 Alpha virt. eigenvalues --    1.81113   1.81486   1.81600   1.81779   1.82269
 Alpha virt. eigenvalues --    1.83325   1.83674   1.83781   1.84453   1.84679
 Alpha virt. eigenvalues --    1.84991   1.85372   1.86122   1.86496   1.87097
 Alpha virt. eigenvalues --    1.87449   1.87642   1.88069   1.88388   1.88731
 Alpha virt. eigenvalues --    1.89953   1.90432   1.90845   1.91242   1.91620
 Alpha virt. eigenvalues --    1.91765   1.92230   1.92644   1.93400   1.93940
 Alpha virt. eigenvalues --    1.94351   1.94838   1.95583   1.95897   1.96282
 Alpha virt. eigenvalues --    1.96793   1.97344   1.97713   1.97909   1.98634
 Alpha virt. eigenvalues --    1.98741   1.99423   1.99559   1.99837   2.00407
 Alpha virt. eigenvalues --    2.00751   2.00898   2.01746   2.02087   2.02306
 Alpha virt. eigenvalues --    2.02888   2.03304   2.03909   2.04943   2.05222
 Alpha virt. eigenvalues --    2.06142   2.06614   2.06874   2.07000   2.07236
 Alpha virt. eigenvalues --    2.07613   2.07830   2.08516   2.09115   2.09571
 Alpha virt. eigenvalues --    2.10134   2.10901   2.11176   2.11292   2.11858
 Alpha virt. eigenvalues --    2.12419   2.13337   2.13552   2.13908   2.14411
 Alpha virt. eigenvalues --    2.14918   2.15029   2.15382   2.16230   2.16721
 Alpha virt. eigenvalues --    2.17107   2.17432   2.18058   2.18331   2.18799
 Alpha virt. eigenvalues --    2.19054   2.19865   2.20148   2.20616   2.20974
 Alpha virt. eigenvalues --    2.21594   2.22122   2.22464   2.22659   2.22966
 Alpha virt. eigenvalues --    2.23442   2.24397   2.24922   2.25301   2.25537
 Alpha virt. eigenvalues --    2.26222   2.26629   2.27076   2.27578   2.27835
 Alpha virt. eigenvalues --    2.28310   2.28656   2.28887   2.29893   2.30038
 Alpha virt. eigenvalues --    2.30321   2.30842   2.31015   2.31346   2.32159
 Alpha virt. eigenvalues --    2.32606   2.33016   2.33413   2.33899   2.34248
 Alpha virt. eigenvalues --    2.34721   2.34858   2.35436   2.36000   2.36144
 Alpha virt. eigenvalues --    2.36872   2.37169   2.37260   2.37776   2.38154
 Alpha virt. eigenvalues --    2.38359   2.38672   2.39209   2.39748   2.39925
 Alpha virt. eigenvalues --    2.40156   2.40734   2.40883   2.41777   2.42034
 Alpha virt. eigenvalues --    2.42810   2.42861   2.43412   2.43864   2.44259
 Alpha virt. eigenvalues --    2.44446   2.44862   2.45335   2.45797   2.46145
 Alpha virt. eigenvalues --    2.46279   2.47367   2.47786   2.48217   2.48790
 Alpha virt. eigenvalues --    2.49416   2.50009   2.50202   2.50998   2.51283
 Alpha virt. eigenvalues --    2.51757   2.52302   2.52546   2.52843   2.53288
 Alpha virt. eigenvalues --    2.53397   2.54178   2.55127   2.55216   2.55586
 Alpha virt. eigenvalues --    2.56159   2.56486   2.56563   2.56993   2.57135
 Alpha virt. eigenvalues --    2.57426   2.58307   2.58436   2.58927   2.59139
 Alpha virt. eigenvalues --    2.59723   2.60207   2.60464   2.60838   2.61103
 Alpha virt. eigenvalues --    2.61235   2.61872   2.62171   2.62513   2.63518
 Alpha virt. eigenvalues --    2.63851   2.64028   2.64577   2.64973   2.65162
 Alpha virt. eigenvalues --    2.65416   2.65854   2.66655   2.66920   2.67204
 Alpha virt. eigenvalues --    2.68094   2.68108   2.68718   2.68948   2.69666
 Alpha virt. eigenvalues --    2.69840   2.70190   2.70715   2.70820   2.71470
 Alpha virt. eigenvalues --    2.71823   2.72682   2.72802   2.73420   2.73672
 Alpha virt. eigenvalues --    2.74452   2.74780   2.74805   2.75529   2.76403
 Alpha virt. eigenvalues --    2.77099   2.77433   2.77864   2.78006   2.78045
 Alpha virt. eigenvalues --    2.78602   2.79082   2.79913   2.80136   2.80824
 Alpha virt. eigenvalues --    2.81447   2.81622   2.81834   2.82128   2.82702
 Alpha virt. eigenvalues --    2.83493   2.83788   2.84268   2.84687   2.84979
 Alpha virt. eigenvalues --    2.85530   2.85941   2.86077   2.86479   2.87197
 Alpha virt. eigenvalues --    2.87312   2.87459   2.87902   2.88467   2.88588
 Alpha virt. eigenvalues --    2.88703   2.89158   2.89825   2.90050   2.90573
 Alpha virt. eigenvalues --    2.90619   2.91222   2.91316   2.91954   2.92279
 Alpha virt. eigenvalues --    2.92416   2.92854   2.93185   2.93617   2.94044
 Alpha virt. eigenvalues --    2.94200   2.94888   2.95201   2.95533   2.95865
 Alpha virt. eigenvalues --    2.96285   2.96504   2.97191   2.97627   2.98244
 Alpha virt. eigenvalues --    2.98553   2.98921   2.98957   2.99262   2.99963
 Alpha virt. eigenvalues --    3.00407   3.00686   3.00810   3.01136   3.01603
 Alpha virt. eigenvalues --    3.02579   3.02798   3.03118   3.03462   3.04004
 Alpha virt. eigenvalues --    3.04199   3.04670   3.05016   3.05557   3.06083
 Alpha virt. eigenvalues --    3.06420   3.06778   3.06838   3.07289   3.07583
 Alpha virt. eigenvalues --    3.07856   3.07947   3.08730   3.08893   3.09393
 Alpha virt. eigenvalues --    3.09483   3.09712   3.09829   3.10262   3.10453
 Alpha virt. eigenvalues --    3.11008   3.11322   3.11667   3.11873   3.12229
 Alpha virt. eigenvalues --    3.12357   3.12570   3.13253   3.13366   3.13810
 Alpha virt. eigenvalues --    3.14222   3.14589   3.14804   3.14979   3.15318
 Alpha virt. eigenvalues --    3.15772   3.16021   3.16311   3.16887   3.17007
 Alpha virt. eigenvalues --    3.17563   3.17765   3.17969   3.18233   3.18735
 Alpha virt. eigenvalues --    3.18981   3.19454   3.19866   3.20222   3.20493
 Alpha virt. eigenvalues --    3.20850   3.20967   3.21483   3.22136   3.22280
 Alpha virt. eigenvalues --    3.22482   3.22812   3.23072   3.23394   3.23805
 Alpha virt. eigenvalues --    3.24080   3.24369   3.24432   3.24729   3.25063
 Alpha virt. eigenvalues --    3.25559   3.25801   3.26068   3.26275   3.26465
 Alpha virt. eigenvalues --    3.26787   3.27195   3.27365   3.27620   3.28005
 Alpha virt. eigenvalues --    3.28226   3.28648   3.28728   3.29321   3.29433
 Alpha virt. eigenvalues --    3.29541   3.29778   3.29814   3.30401   3.30558
 Alpha virt. eigenvalues --    3.30745   3.30979   3.31266   3.31576   3.31764
 Alpha virt. eigenvalues --    3.32269   3.32593   3.32789   3.33133   3.33512
 Alpha virt. eigenvalues --    3.34217   3.34404   3.34431   3.34599   3.35013
 Alpha virt. eigenvalues --    3.35362   3.35794   3.35904   3.36122   3.36376
 Alpha virt. eigenvalues --    3.36850   3.37098   3.37407   3.37533   3.37731
 Alpha virt. eigenvalues --    3.38044   3.38100   3.38230   3.38897   3.39266
 Alpha virt. eigenvalues --    3.39647   3.39973   3.40203   3.40661   3.40726
 Alpha virt. eigenvalues --    3.41051   3.41436   3.42241   3.42795   3.43095
 Alpha virt. eigenvalues --    3.43591   3.43671   3.44177   3.44359   3.44609
 Alpha virt. eigenvalues --    3.45047   3.45180   3.45680   3.46318   3.46548
 Alpha virt. eigenvalues --    3.46821   3.47396   3.47861   3.48050   3.49073
 Alpha virt. eigenvalues --    3.49314   3.49682   3.50271   3.50600   3.50710
 Alpha virt. eigenvalues --    3.51523   3.51625   3.52518   3.52776   3.53178
 Alpha virt. eigenvalues --    3.53270   3.53897   3.55038   3.55395   3.55521
 Alpha virt. eigenvalues --    3.56158   3.56389   3.56781   3.57635   3.57772
 Alpha virt. eigenvalues --    3.58449   3.59530   3.59832   3.60162   3.60827
 Alpha virt. eigenvalues --    3.61469   3.61553   3.62409   3.62734   3.63237
 Alpha virt. eigenvalues --    3.63519   3.63814   3.64316   3.65142   3.65263
 Alpha virt. eigenvalues --    3.65770   3.66304   3.66913   3.67759   3.67911
 Alpha virt. eigenvalues --    3.68270   3.68446   3.69376   3.69612   3.70105
 Alpha virt. eigenvalues --    3.70370   3.70618   3.70966   3.71342   3.71608
 Alpha virt. eigenvalues --    3.71778   3.71815   3.72088   3.73034   3.73658
 Alpha virt. eigenvalues --    3.74079   3.74303   3.74889   3.75516   3.75877
 Alpha virt. eigenvalues --    3.76282   3.76585   3.77280   3.78196   3.78244
 Alpha virt. eigenvalues --    3.78668   3.79473   3.79533   3.80368   3.81123
 Alpha virt. eigenvalues --    3.81516   3.82542   3.83767   3.84261   3.84521
 Alpha virt. eigenvalues --    3.84949   3.85297   3.85651   3.86006   3.86693
 Alpha virt. eigenvalues --    3.87109   3.87902   3.88530   3.89538   3.89759
 Alpha virt. eigenvalues --    3.90285   3.91004   3.91797   3.91988   3.92693
 Alpha virt. eigenvalues --    3.93212   3.93729   3.94287   3.95289   3.95640
 Alpha virt. eigenvalues --    3.96172   3.97257   3.97852   3.98247   3.98662
 Alpha virt. eigenvalues --    3.98982   3.99493   4.00068   4.00904   4.01183
 Alpha virt. eigenvalues --    4.01698   4.02750   4.02848   4.03767   4.04040
 Alpha virt. eigenvalues --    4.04566   4.04777   4.05534   4.05998   4.07179
 Alpha virt. eigenvalues --    4.07628   4.08608   4.09641   4.09985   4.10217
 Alpha virt. eigenvalues --    4.11418   4.11834   4.12252   4.12695   4.13902
 Alpha virt. eigenvalues --    4.14681   4.14858   4.15366   4.16125   4.16265
 Alpha virt. eigenvalues --    4.16558   4.17585   4.18298   4.18670   4.19079
 Alpha virt. eigenvalues --    4.19572   4.20106   4.20448   4.20817   4.21638
 Alpha virt. eigenvalues --    4.22144   4.22584   4.23143   4.23794   4.24459
 Alpha virt. eigenvalues --    4.25175   4.25511   4.25613   4.26614   4.27487
 Alpha virt. eigenvalues --    4.28040   4.28346   4.29868   4.30871   4.31114
 Alpha virt. eigenvalues --    4.31421   4.32124   4.32582   4.33033   4.33904
 Alpha virt. eigenvalues --    4.34478   4.35061   4.35566   4.36447   4.37076
 Alpha virt. eigenvalues --    4.38456   4.38851   4.39579   4.39843   4.40077
 Alpha virt. eigenvalues --    4.40220   4.40746   4.41192   4.41214   4.41679
 Alpha virt. eigenvalues --    4.42265   4.42940   4.43209   4.43884   4.43986
 Alpha virt. eigenvalues --    4.44637   4.45253   4.45943   4.46339   4.46591
 Alpha virt. eigenvalues --    4.47666   4.48250   4.48381   4.49054   4.50700
 Alpha virt. eigenvalues --    4.51506   4.53326   4.54224   4.54578   4.55208
 Alpha virt. eigenvalues --    4.55692   4.56686   4.57065   4.58219   4.60012
 Alpha virt. eigenvalues --    4.61361   4.61613   4.62440   4.62962   4.63951
 Alpha virt. eigenvalues --    4.65306   4.65607   4.66776   4.66979   4.68059
 Alpha virt. eigenvalues --    4.68646   4.69559   4.70083   4.70573   4.71184
 Alpha virt. eigenvalues --    4.71764   4.72862   4.73614   4.74010   4.74363
 Alpha virt. eigenvalues --    4.75536   4.76361   4.77106   4.77690   4.79675
 Alpha virt. eigenvalues --    4.79702   4.79887   4.80441   4.81336   4.81908
 Alpha virt. eigenvalues --    4.83041   4.83808   4.84124   4.84369   4.84849
 Alpha virt. eigenvalues --    4.85917   4.86173   4.87365   4.87904   4.88887
 Alpha virt. eigenvalues --    4.89685   4.90375   4.91261   4.92273   4.92576
 Alpha virt. eigenvalues --    4.93748   4.94359   4.94710   4.94936   4.95871
 Alpha virt. eigenvalues --    4.96505   4.98407   4.98713   4.99338   5.00709
 Alpha virt. eigenvalues --    5.01339   5.01645   5.03235   5.03726   5.04059
 Alpha virt. eigenvalues --    5.04406   5.05312   5.05951   5.06441   5.07062
 Alpha virt. eigenvalues --    5.07556   5.08199   5.08946   5.09529   5.10696
 Alpha virt. eigenvalues --    5.12066   5.12925   5.14044   5.15982   5.16308
 Alpha virt. eigenvalues --    5.16928   5.18497   5.19012   5.19619   5.20278
 Alpha virt. eigenvalues --    5.21313   5.22174   5.24286   5.24418   5.24946
 Alpha virt. eigenvalues --    5.28292   5.28635   5.30099   5.31425   5.32089
 Alpha virt. eigenvalues --    5.34538   5.35126   5.36503   5.37391   5.38064
 Alpha virt. eigenvalues --    5.38358   5.38747   5.39996   5.40456   5.41149
 Alpha virt. eigenvalues --    5.41913   5.43129   5.43212   5.45370   5.47092
 Alpha virt. eigenvalues --    5.48269   5.49077   5.49686   5.50437   5.50650
 Alpha virt. eigenvalues --    5.51378   5.53000   5.58806   5.59226   5.60312
 Alpha virt. eigenvalues --    5.61203   5.61877   5.61987   5.64171   5.65393
 Alpha virt. eigenvalues --    5.65633   5.67303   5.68248   5.69098   5.71425
 Alpha virt. eigenvalues --    5.73885   5.74124   5.75264   5.77288   5.78009
 Alpha virt. eigenvalues --    5.82967   5.84678   5.88856   5.89952   5.92332
 Alpha virt. eigenvalues --    5.93648   5.99930   6.00595   6.01154   6.07080
 Alpha virt. eigenvalues --    6.09133   6.10280   6.11611   6.13820   6.16430
 Alpha virt. eigenvalues --    6.19608   6.22504   6.31442   6.32383   6.33631
 Alpha virt. eigenvalues --    6.37236   6.40174   6.44578   6.48845   6.53264
 Alpha virt. eigenvalues --    6.55185   6.61349   6.67605   6.94232   7.16305
 Alpha virt. eigenvalues --    7.34762   7.49089   8.67549  22.33773  22.34634
 Alpha virt. eigenvalues --   22.43409  22.45873  22.46452  22.52368  22.54443
 Alpha virt. eigenvalues --   22.61637  22.62186  22.75498  22.84736  22.85880
 Alpha virt. eigenvalues --   22.89174  22.91880  22.93723  22.94519  22.95842
 Alpha virt. eigenvalues --   23.01782  23.02372  23.05376  23.12916  23.26403
 Alpha virt. eigenvalues --   23.27411  23.28840  23.29770  23.39388  23.41390
 Alpha virt. eigenvalues --   23.49669  23.52039  23.56036  23.72890  23.77960
 Alpha virt. eigenvalues --   23.78274  23.87678  32.39876  32.69600  32.87688
 Alpha virt. eigenvalues --   32.96318  32.99416  33.09703  43.84581  44.24110
          Condensed to atoms (all electrons):
 Mulliken charges:
               1
     1  Fe  -0.184235
     2  N   -0.005100
     3  N   -0.026114
     4  N    0.034395
     5  N   -0.046059
     6  C    0.275961
     7  C   -0.065863
     8  C   -0.002012
     9  C    0.183144
    10  C    0.163983
    11  C   -0.021965
    12  C    0.051505
    13  C    0.257388
    14  C    0.254484
    15  C   -0.108277
    16  C    0.143268
    17  C    0.185563
    18  C    0.309550
    19  C   -0.044223
    20  C   -0.049673
    21  C    0.280152
    22  C   -0.476187
    23  H    0.140053
    24  C   -0.430252
    25  H    0.130089
    26  C   -0.451382
    27  H    0.118723
    28  C   -0.518237
    29  H    0.167260
    30  C   -0.413955
    31  H    0.120724
    32  H    0.145170
    33  H    0.130705
    34  C   -0.413052
    35  H    0.135638
    36  H    0.140424
    37  H    0.120086
    38  C   -0.438070
    39  H    0.122753
    40  H    0.147599
    41  H    0.156357
    42  C   -0.224382
    43  H    0.115926
    44  C   -0.280256
    45  H    0.142813
    46  H    0.124263
    47  C   -0.393326
    48  H    0.132740
    49  H    0.146287
    50  H    0.125707
    51  C   -0.256590
    52  H    0.118424
    53  C   -0.296128
    54  H    0.146148
    55  H    0.123702
    56  C   -0.415542
    57  H    0.134330
    58  H    0.144490
    59  H    0.119756
    60  C   -0.416974
    61  H    0.132219
    62  H    0.120413
    63  H    0.144782
    64  O    0.055822
    65  O   -0.215152
    66  C   -0.391193
    67  H    0.147516
    68  H    0.137381
    69  H    0.135051
    70  N   -0.227284
    71  H    0.236738
    72  C    0.155982
    73  C    0.035367
    74  H    0.171286
    75  N   -0.123428
    76  C   -0.186899
    77  H    0.159695
 Sum of Mulliken charges =  -0.00000
 Mulliken charges with hydrogens summed into heavy atoms:
               1
     1  Fe  -0.184235
     2  N   -0.005100
     3  N   -0.026114
     4  N    0.034395
     5  N   -0.046059
     6  C    0.275961
     7  C   -0.065863
     8  C   -0.002012
     9  C    0.183144
    10  C    0.163983
    11  C   -0.021965
    12  C    0.051505
    13  C    0.257388
    14  C    0.254484
    15  C   -0.108277
    16  C    0.143268
    17  C    0.185563
    18  C    0.309550
    19  C   -0.044223
    20  C   -0.049673
    21  C    0.280152
    22  C   -0.336134
    24  C   -0.300164
    26  C   -0.332658
    28  C   -0.350977
    30  C   -0.017356
    34  C   -0.016905
    38  C   -0.011361
    42  C   -0.108456
    44  C   -0.013179
    47  C    0.011407
    51  C   -0.138167
    53  C   -0.026278
    56  C   -0.016966
    60  C   -0.019559
    64  O    0.055822
    65  O   -0.215152
    66  C    0.028754
    70  N    0.009454
    72  C    0.155982
    73  C    0.206652
    75  N   -0.123428
    76  C   -0.027204
 Electronic spatial extent (au):  <R**2>=          20145.3931
 Charge=             -0.0000 electrons
 Dipole moment (field-independent basis, Debye):
    X=              1.1160    Y=              0.7215    Z=              8.0917  Tot=              8.2001
 Quadrupole moment (field-independent basis, Debye-Ang):
   XX=           -232.2188   YY=           -236.4315   ZZ=           -243.6629
   XY=              2.0051   XZ=              7.5573   YZ=             -0.7408
 Traceless Quadrupole moment (field-independent basis, Debye-Ang):
   XX=              5.2190   YY=              1.0062   ZZ=             -6.2252
   XY=              2.0051   XZ=              7.5573   YZ=             -0.7408
 Octapole moment (field-independent basis, Debye-Ang**2):
  XXX=             -2.3216  YYY=             30.5143  ZZZ=            163.6504  XYY=              0.1153
  XXY=             22.9459  XXZ=            -13.1143  XZZ=             26.0586  YZZ=              5.2424
  YYZ=             -1.7149  XYZ=             14.0669
 Hexadecapole moment (field-independent basis, Debye-Ang**3):
 XXXX=         -11911.4110 YYYY=         -10956.5664 ZZZZ=          -3223.4351 XXXY=             20.3308
 XXXZ=              5.4754 YYYX=             -6.1393 YYYZ=            -99.8612 ZZZX=            152.2905
 ZZZY=             -8.3975 XXYY=          -3804.6585 XXZZ=          -2659.9379 YYZZ=          -2647.4624
 XXYZ=             -4.8720 YYXZ=            -15.8212 ZZXY=             23.9705
 N-N= 6.203844607428D+03 E-N=-1.959415061287D+04  KE= 3.047220346945D+03
  Exact polarizability:     728.302     -10.643     680.237      -6.845       2.501     331.131
 Approx polarizability:    1400.062     -11.632    1304.313     -39.867     -11.513     633.076

 ----------------------------------------------------------------------

 Electric dipole moment (input orientation):
 (Debye = 10**-18 statcoulomb cm , SI units = C m)
                  (au)            (Debye)         (10**-30 SI)
   Tot        0.322618D+01      0.820013D+01      0.273527D+02
   x         -0.108401D+01     -0.275527D+01     -0.919060D+01
   y         -0.185122D+01     -0.470532D+01     -0.156953D+02
   z          0.240960D+01      0.612458D+01      0.204294D+02

 Dipole polarizability, Alpha (input orientation).
 (esu units = cm**3 , SI units = C**2 m**2 J**-1)
 Alpha(0;0):
               (au)            (10**-24 esu)      (10**-40 SI)
   iso        0.579890D+03      0.859308D+02      0.956109D+02
   aniso      0.376117D+03      0.557348D+02      0.620134D+02
   xx         0.659102D+03      0.976688D+02      0.108671D+03
   yx        -0.515045D+02     -0.763217D+01     -0.849194D+01
   yy         0.542636D+03      0.804104D+02      0.894686D+02
   zx         0.626332D+02      0.928129D+01      0.103268D+02
   zy         0.189388D+03      0.280643D+02      0.312258D+02
   zz         0.537931D+03      0.797131D+02      0.886928D+02

 First dipole hyperpolarizability, Beta (input orientation).
 ||, _|_  parallel and perpendicular components, (z) with respect to z axis,
 vector components x,y,z.  Values do not include the 1/n! factor of 1/2.
 (esu units = statvolt**-1 cm**4 , SI units = C**3 m**3 J**-2)
 Beta(0;0,0):
               (au)            (10**-30 esu)      (10**-50 SI)
   || (z)     0.892145D+02      0.770743D+00      0.286054D+00
   _|_(z)     0.297382D+02      0.256914D+00      0.953513D-01
   x          0.326449D+04      0.282027D+02      0.104671D+02
   y          0.116661D+04      0.100786D+02      0.374057D+01
   z          0.446072D+03      0.385372D+01      0.143027D+01
   ||         0.699052D+03      0.603927D+01      0.224141D+01
   xxx        0.362600D+03      0.313259D+01      0.116263D+01
   xxy       -0.196441D+03     -0.169710D+01     -0.629861D+00
   yxy        0.439125D+03      0.379370D+01      0.140799D+01
   yyy        0.345454D+03      0.298445D+01      0.110765D+01
   xxz       -0.212764D+03     -0.183812D+01     -0.682199D+00
   yxz        0.360871D+03      0.311764D+01      0.115708D+01
   yyz        0.229906D+03      0.198621D+01      0.737162D+00
   zxz        0.286438D+03      0.247461D+01      0.918425D+00
   zyz        0.239857D+03      0.207217D+01      0.769067D+00
   zzz        0.131549D+03      0.113648D+01      0.421793D+00

 ----------------------------------------------------------------------

 Dipole orientation:
    26         49.59859023         53.11819989        -37.91449040
     7         46.28751625         55.07317648        -37.43424304
     7         51.48196973         56.46751294        -38.14871187
     7         52.79535282         51.18096190        -38.42192116
     7         47.57298084         49.85892179        -37.71676793
     6         43.96436908         54.08993626        -36.98234954
     6         42.17059726         56.08079806        -36.42933548
     6         43.48621000         58.28470140        -36.52483822
     6         46.07064877         57.61238794        -37.12893071
     6         50.54413307         58.77908770        -37.54110036
     6         52.55528869         60.57338841        -37.18985527
     6         54.76109765         59.22555186        -37.36445409
     6         54.03121597         56.62761653        -37.82608877
     6         55.16507844         52.16306377        -38.49100579
     6         56.99612353         50.16731234        -38.79328380
     6         55.66331747         47.95500678        -38.91237724
     6         53.01763335         48.64367813        -38.66862256
     6         48.49814607         47.55089657        -38.35529673
     6         46.46023158         45.77192605        -38.72762462
     6         44.28175572         47.06900406        -38.28773986
     6         45.01691884         49.63366070        -37.69319975
     6         43.33033367         51.55970616        -37.16157351
     1         41.35936122         51.06590912        -36.98399170
     6         47.99190739         59.36347303        -37.36455684
     1         47.49783351         61.32580463        -37.10259561
     6         55.75295442         54.70294998        -38.27711544
     1         57.73302913         55.19895469        -38.26467631
     6         51.03182932         46.94255065        -38.62957351
     1         51.49201264         44.97517851        -38.90169954
     6         42.58206989         60.92176587        -36.13134225
     1         40.58052708         60.94740663        -35.66975364
     1         42.86632723         62.03379935        -37.84083235
     1         43.61294977         61.83036870        -34.59579786
     6         39.43907538         55.65425593        -35.89844836
     1         39.19590839         54.34983233        -34.32328260
     1         38.51016247         54.84549639        -37.54928788
     1         38.49979154         57.42116834        -35.43367758
     6         52.22181031         63.29440280        -36.55528318
     1         50.65051617         63.55757627        -35.25115658
     1         51.82909241         64.39389724        -38.25392801
     1         53.93458498         64.03056750        -35.68578048
     6         57.33798592         60.10238252        -37.08401692
     1         58.62435874         58.80226837        -36.16162849
     6         58.19655366         62.31813940        -37.89323733
     1         57.01068549         63.62636872        -38.90134358
     1         60.13600968         62.87449445        -37.62469157
     6         59.77494300         50.54918324        -39.01571391
     1         60.50775316         51.55032082        -37.37065873
     1         60.21011849         51.67068235        -40.68765006
     1         60.74179512         48.74447903        -39.18017228
     6         56.70664799         45.43747271        -39.23425083
     1         58.41210989         45.06600431        -38.15771226
     6         55.80680981         43.65996671        -40.75667313
     1         54.18663033         43.97494908        -41.94631089
     1         56.70171793         41.83742327        -40.90953669
     6         46.82115743         43.08091382        -39.46828301
     1         47.99448445         42.09768100        -38.08996314
     1         47.75366212         42.96272619        -41.30009257
     1         45.01677646         42.10813284        -39.59555373
     6         41.61573733         46.18156270        -38.44687750
     1         40.64434043         46.47153711        -36.65392511
     1         41.53990747         44.18190815        -38.91060375
     1         40.59909375         47.22552824        -39.90183882
     8         49.26351953         52.98071131        -41.07062144
     8         48.32795395         54.87651476        -42.23255276
     6         51.67429948         50.10165164        -27.56831519
     1         52.18992252         48.19601228        -28.12919552
     1         50.06661987         49.99884570        -26.28327700
     1         53.25654133         50.94462189        -26.55307910
     7         50.40535158         54.12616043        -29.70600793
     1         50.31451416         55.16279964        -28.11133177
     6         51.03449999         51.61342073        -29.84168634
     6         49.93211624         54.93260777        -32.07844486
     1         49.39433128         56.82706672        -32.54990143
     7         50.22300879         53.09517774        -33.70585319
     6         50.90768939         51.01665075        -32.35059683
     1         51.25349790         49.25044753        -33.27486880

 Electric dipole moment (dipole orientation):
 (Debye = 10**-18 statcoulomb cm , SI units = C m)
                  (au)            (Debye)         (10**-30 SI)
   Tot        0.322618D+01      0.820013D+01      0.273527D+02
   x          0.000000D+00      0.000000D+00      0.000000D+00
   y          0.000000D+00      0.000000D+00      0.000000D+00
   z          0.322618D+01      0.820013D+01      0.273527D+02

 Dipole polarizability, Alpha (dipole orientation).
 (esu units = cm**3 , SI units = C**2 m**2 J**-1)
 Alpha(0;0):
               (au)            (10**-24 esu)      (10**-40 SI)
   iso        0.579890D+03      0.859308D+02      0.956109D+02
   aniso      0.376117D+03      0.557348D+02      0.620134D+02
   xx         0.679961D+03      0.100760D+03      0.112110D+03
   yx         0.182873D+02      0.270990D+01      0.301517D+01
   yy         0.720178D+03      0.106719D+03      0.118741D+03
   zx        -0.274915D+02     -0.407382D+01     -0.453274D+01
   zy         0.482783D+02      0.715411D+01      0.796002D+01
   zz         0.339531D+03      0.503132D+02      0.559810D+02

 First dipole hyperpolarizability, Beta (dipole orientation).
 ||, _|_  parallel and perpendicular components, (z) with respect to z axis,
 vector components x,y,z.  Values do not include the 1/n! factor of 1/2.
 (esu units = statvolt**-1 cm**4 , SI units = C**3 m**3 J**-2)
 Beta(0;0,0):
               (au)            (10**-30 esu)      (10**-50 SI)
   || (z)    -0.286625D+03     -0.247622D+01     -0.919025D+00
   _|_(z)    -0.955418D+02     -0.825407D+00     -0.306342D+00
   x          0.307464D+04      0.265625D+02      0.985840D+01
   y          0.842386D+03      0.727756D+01      0.270099D+01
   z         -0.143313D+04     -0.123811D+02     -0.459512D+01
   ||         0.699052D+03      0.603927D+01      0.224141D+01
   xxx        0.195040D+03      0.168499D+01      0.625367D+00
   xxy       -0.896917D+02     -0.774867D+00     -0.287584D+00
   yxy        0.797570D+03      0.689039D+01      0.255730D+01
   yyy        0.413346D+03      0.357099D+01      0.132534D+01
   xxz       -0.126951D+03     -0.109676D+01     -0.407052D+00
   yxz        0.948860D+02      0.819741D+00      0.304239D+00
   yyz       -0.255169D+03     -0.220446D+01     -0.818163D+00
   zxz        0.322691D+02      0.278780D+00      0.103466D+00
   zyz       -0.428590D+02     -0.370268D+00     -0.137421D+00
   zzz       -0.955888D+02     -0.825813D+00     -0.306492D+00

 ----------------------------------------------------------------------
 Unable to Open any file for archive entry.
 1\1\GINC-BGN1031\SP\RAPFD\def2TZVP\C34H34Fe1N6O2\BECSLEIP\09-Sep-2024\
 0\\# polar def2tzvp apfd int=(grid=ultrafine)\\2xkh_II_S\\0,1\Fe,0,28.
 1892264041,31.4267330725,9.9629175156\N,0,26.3507490081,32.3138275795,
 10.1576259777\N,0,28.9674867116,32.8261721579,11.2222304546\N,0,29.974
 9195745,30.5621866652,9.7425262831\N,0,27.3417967578,30.0853480031,8.6
 912284987\C,0,25.1779204261,31.8900550353,9.6246042237\C,0,24.07543917
 05,32.6818468368,10.1287536866\C,0,24.6149002054,33.5804440755,10.9941
 404559\C,0,26.0408162631,33.3242159373,11.0107617874\C,0,28.260235147,
 33.6891206694,11.9975324069\C,0,29.0884627896,34.2355427451,13.0387866
 569\C,0,30.2900531242,33.5809195315,12.9527162043\C,0,30.1625911151,32
 .6480745841,11.8516276434\C,0,31.1028044453,30.8665109699,10.434784329
 1\C,0,32.1794384912,29.9943070542,10.0348775801\C,0,31.6701142359,29.1
 582673724,9.0790661801\C,0,30.2769977334,29.5345129192,8.9141034668\C,
 0,28.048066198,29.2340518192,7.9025316619\C,0,27.2094467983,28.7021776
 753,6.8528418251\C,0,25.9771810086,29.2528535135,7.0332102347\C,0,26.0
 855695414,30.1307425039,8.1776619536\C,0,25.0437317077,30.8949339681,8
 .6727352009\H,0,24.0654099445,30.7440714912,8.2425322458\C,0,26.931419
 7774,34.0355320989,11.7909566034\H,0,26.5256767152,34.8275409238,12.40
 25015083\C,0,31.207417458,31.8579482941,11.3950794315\H,0,32.156328954
 1,31.9515278047,11.9026743924\C,0,29.3864803978,28.9081102837,8.059907
 1948\H,0,29.7775501434,28.1190027538,7.4367883162\C,0,23.9433884195,34
 .6462173209,11.7896417205\H,0,22.8690994313,34.6339677783,11.623979084
 \H,0,24.3230978519,35.6262454326,11.5021975501\H,0,24.1275558972,34.50
 99317225,12.855735994\C,0,22.6539150151,32.497005476,9.7233819035\H,0,
 22.3296644651,31.4727454481,9.9066234764\H,0,22.5348876497,32.70522113
 66,8.6601662319\H,0,22.0031558612,33.1695139618,10.276585261\C,0,28.65
 16479718,35.2308355836,14.0565279234\H,0,27.6266415357,35.0396280117,1
 4.3724938379\H,0,28.6950739353,36.2417244213,13.6491929131\H,0,29.3018
 349777,35.1829148319,14.9282623284\C,0,31.4644803141,33.7218058136,13.
 7879873188\H,0,32.0131330695,32.8082782598,13.9864963997\C,0,31.903924
 9299,34.8689056516,14.2936210355\H,0,31.4197868316,35.8060762177,14.08
 15675566\H,0,32.7836692064,34.91300796,14.9135417071\C,0,33.5721375865
 ,30.063540332,10.5570082955\H,0,33.5838912063,29.9511485238,11.6414847
 862\H,0,34.0193179647,31.0274158252,10.3141150913\H,0,34.1853524794,29
 .2820034191,10.1159257689\C,0,32.3908061456,28.1139474797,8.3729166196
 \H,0,33.0652524634,27.5279300117,8.9888487996\C,0,32.319916258,27.8654
 565543,7.0714682448\H,0,31.7110915106,28.4565782664,6.4088469582\H,0,3
 2.8965007726,27.0769399597,6.6167595447\C,0,27.6769579415,27.750378642
 ,5.8071617671\H,0,28.0700811354,26.841091363,6.2619917104\H,0,28.47113
 50232,28.2013864021,5.213080677\H,0,26.863274566,27.4766610622,5.14064
 85005\C,0,24.7376884247,29.0757839208,6.226811397\H,0,23.9211364245,28
 .7126180123,6.8507821116\H,0,24.8993967423,28.3622978205,5.4228566117\
 H,0,24.4322001798,30.0252729584,5.7879904588\O,0,28.592581026,32.34561
 17749,8.6141737916\O,0,28.2253708549,33.5671977556,8.5642436418\C,0,27
 .5532308538,26.8684952748,13.5052085624\H,0,28.0194785908,26.190339645
 9,12.7965659307\H,0,26.5349834006,26.5280440914,13.696031742\H,0,28.10
 66569341,26.8298128545,14.4437639403\N,0,27.0701730362,29.3199833465,1
 3.6567209213\H,0,26.6811238937,29.2862396413,14.5856167998\C,0,27.5524
 676388,28.2453748249,12.9519744839\C,0,27.210663898,30.4143250631,12.8
 797791807\H,0,26.9176545513,31.4024403891,13.1730691522\N,0,27.7513257
 75,30.1024349796,11.7303590333\C,0,27.9706512424,28.7583310773,11.7566
 060437\H,0,28.409313869,28.2603153599,10.9164832718\\Version=ES64L-G16
 RevC.02\State=1-A\HF=-3057.8675785\RMSD=4.975e-09\Dipole=-1.0840072,-1
 .851216,2.4095966\Polar=659.1019971,-51.5044594,542.6362496,62.6332164
 ,189.3875113,537.9308816\HyperPolar=362.600444,-196.4410128,439.124675
 9,345.4541745,-212.7641005,360.871012,229.9059499,286.4384851,239.8566
 327,131.5489065\Quadrupole=0.5900898,-5.4076597,4.8175699,-3.1591631,-
 1.1465126,3.8624244\PG=C01 [X(C34H34Fe1N6O2)]\\@
 The archive entry for this job was punched.


 MODELS ARE TO BE USED, NOT BELIEVED.

    -- PARAPHRASED BY H. THIEL IN "PRINCIPLES OF ECONOMETRICS"
 Job cpu time:       2 days 15 hours  2 minutes  5.6 seconds.
 Elapsed time:       0 days  0 hours 54 minutes 47.5 seconds.
 File lengths (MBytes):  RWF=   1238 Int=      0 D2E=      0 Chk=    158 Scr=      1
 Normal termination of Gaussian 16 at Mon Sep  9 12:12:26 2024.
 Initial command:
 /sw/chem/gaussian/g16_C02/a100/g16/l1.exe "/local/becsleip_8009130/Gau-3261223.inp" -scrdir="/local/becsleip_8009130/"
 Entering Link 1 = /sw/chem/gaussian/g16_C02/a100/g16/l1.exe PID=   3263084.
  
 Copyright (c) 1988-2021, Gaussian, Inc.  All Rights Reserved.
  
 This is part of the Gaussian(R) 16 program.  It is based on
 the Gaussian(R) 09 system (copyright 2009, Gaussian, Inc.),
 the Gaussian(R) 03 system (copyright 2003, Gaussian, Inc.),
 the Gaussian(R) 98 system (copyright 1998, Gaussian, Inc.),
 the Gaussian(R) 94 system (copyright 1995, Gaussian, Inc.),
 the Gaussian 92(TM) system (copyright 1992, Gaussian, Inc.),
 the Gaussian 90(TM) system (copyright 1990, Gaussian, Inc.),
 the Gaussian 88(TM) system (copyright 1988, Gaussian, Inc.),
 the Gaussian 86(TM) system (copyright 1986, Carnegie Mellon
 University), and the Gaussian 82(TM) system (copyright 1983,
 Carnegie Mellon University). Gaussian is a federally registered
 trademark of Gaussian, Inc.
  
 This software contains proprietary and confidential information,
 including trade secrets, belonging to Gaussian, Inc.
  
 This software is provided under written license and may be
 used, copied, transmitted, or stored only in accord with that
 written license.
  
 The following legend is applicable only to US Government
 contracts under FAR:
  
                    RESTRICTED RIGHTS LEGEND
  
 Use, reproduction and disclosure by the US Government is
 subject to restrictions as set forth in subparagraphs (a)
 and (c) of the Commercial Computer Software - Restricted
 Rights clause in FAR 52.227-19.
  
 Gaussian, Inc.
 340 Quinnipiac St., Bldg. 40, Wallingford CT 06492
  
  
 ---------------------------------------------------------------
 Warning -- This program may not be used in any manner that
 competes with the business of Gaussian, Inc. or will provide
 assistance to any competitor of Gaussian, Inc.  The licensee
 of this program is prohibited from giving any competitor of
 Gaussian, Inc. access to this program.  By using this program,
 the user acknowledges that Gaussian, Inc. is engaged in the
 business of creating and licensing software in the field of
[...]
                                                    155(r),1457(r),171(r)
   145. CR (   1) C  66                  1.99940   -10.06531  1545(v),1339(v),1543(v)
   146. CR (   1) N  70                  1.99938   -14.22910  1367(v),1341(v),1335(v)
                                                    1342(v),1541(v)
   147. CR (   1) C  72                  1.99915   -10.09693  1424(v),1545(g),1551(v)
                                                    1269(v),1312(v)
   148. CR (   1) C  73                  1.99939   -10.12995  1397(v),1542(v),1396(v)
                                                    1392(v),153(r),1457(r)
   149. CR (   1) N  75                  1.99937   -14.15873  153(r),1365(v),1422(v)
                                                    1424(v),1457(r),1547(v)
                                                    165(r)
   150. CR (   1) C  76                  1.99901   -10.06702  1541(v),1339(v),1397(v)
                                                    1545(g),1342(v),153(r)
                                                    1457(r)
   162. LP (   1) N  70                  1.57483    -0.29192  1549(v),1546(v),1368(v)
                                                    1340(v),1334(v)
   163. LP (   1) N  75                  1.70589    -0.37751  153(r),1544(v),1457(r)
                                                    1545(v),1365(v),1547(v)
                                                    1551(v),1422(v),1548(g)
                                                    1550(g),175(r),154(r),269(r)
                                                    220(r),155(r),1222(r),194(r)
                                                    1215(r),1217(r),246(r)
                                                    272(r),1465(r),191(r),243(r)
                                                    1461(r),1460(r),172(r)
                                                    177(r),179(r),1466(r),193(r)
                                                    245(r),1464(r),1458(r)
                                                    1459(r)
  1267. RY*(   1) C  66                  0.00122     1.14251   
  1268. RY*(   2) C  66                  0.00077     1.98988   
  1269. RY*(   3) C  66                  0.00053     1.30294   
  1270. RY*(   4) C  66                  0.00012     1.25852   
  1271. RY*(   5) C  66                  0.00007     1.08643   
  1272. RY*(   6) C  66                  0.00008     2.35858   
  1273. RY*(   7) C  66                  0.00000    21.58531   
  1274. RY*(   8) C  66                  0.00001     1.87379   
  1275. RY*(   9) C  66                  0.00001     1.24388   
  1276. RY*(  10) C  66                  0.00001     1.80163   
  1277. RY*(  11) C  66                  0.00001     2.44087   
  1278. RY*(  12) C  66                  0.00000     3.39290   
  1279. RY*(  13) C  66                  0.00000     2.75857   
  1280. RY*(  14) C  66                  0.00001     1.48212   
  1281. RY*(  15) C  66                  0.00000     2.40161   
  1282. RY*(  16) C  66                  0.00000     2.78270   
  1283. RY*(  17) C  66                  0.00000     2.49931   
  1284. RY*(  18) C  66                  0.00000     2.54085   
  1285. RY*(  19) C  66                  0.00000     2.63647   
  1286. RY*(  20) C  66                  0.00000     3.72862   
  1287. RY*(  21) C  66                  0.00001     3.46151   
  1288. RY*(  22) C  66                  0.00000     3.38457   
  1289. RY*(  23) C  66                  0.00000     3.53824   
  1290. RY*(  24) C  66                  0.00000     3.46897   
  1291. RY*(  25) C  66                  0.00000     3.25613   
  1292. RY*(  26) C  66                  0.00000     3.37990   
  1293. RY*(   1) H  67                  0.00024     1.29225   
  1294. RY*(   2) H  67                  0.00014     1.66328   
  1295. RY*(   3) H  67                  0.00008     2.04979   
  1296. RY*(   4) H  67                  0.00003     1.70654   
  1297. RY*(   5) H  67                  0.00001     2.88014   
  1298. RY*(   1) H  68                  0.00075     1.00270   
  1299. RY*(   2) H  68                  0.00014     1.68694   
  1300. RY*(   3) H  68                  0.00008     1.95473   
  1301. RY*(   4) H  68                  0.00006     2.00404   
  1302. RY*(   5) H  68                  0.00000     2.86735   
  1303. RY*(   1) H  69                  0.00073     1.00286   
  1304. RY*(   2) H  69                  0.00014     1.68704   
  1305. RY*(   3) H  69                  0.00008     1.96699   
  1306. RY*(   4) H  69                  0.00006     1.99291   
  1307. RY*(   5) H  69                  0.00000     2.86626   
  1308. RY*(   1) N  70                  0.00273     0.67341   
  1309. RY*(   2) N  70                  0.00238     1.75362   
  1310. RY*(   3) N  70                  0.00116     2.03052   
  1311. RY*(   4) N  70                  0.00070     2.27514   
  1312. RY*(   5) N  70                  0.00052     1.12223   
  1313. RY*(   6) N  70                  0.00025     2.18034   
  1314. RY*(   7) N  70                  0.00019     1.72118   
  1315. RY*(   8) N  70                  0.00006     2.29004   
  1316. RY*(   9) N  70                  0.00006     2.37947   
  1317. RY*(  10) N  70                  0.00006     2.84983   
  1318. RY*(  11) N  70                  0.00005     3.80328   
  1319. RY*(  12) N  70                  0.00000     2.11310   
  1320. RY*(  13) N  70                  0.00000    30.63103   
  1321. RY*(  14) N  70                  0.00001     2.54094   
  1322. RY*(  15) N  70                  0.00000     3.12072   
  1323. RY*(  16) N  70                  0.00001     3.71401   
  1324. RY*(  17) N  70                  0.00000     4.35732   
  1325. RY*(  18) N  70                  0.00000     4.28054   
  1326. RY*(  19) N  70                  0.00001     4.35587   
  1327. RY*(  20) N  70                  0.00000     4.64862   
  1328. RY*(  21) N  70                  0.00000     4.53950   
  1329. RY*(  22) N  70                  0.00000     4.38291   
  1330. RY*(  23) N  70                  0.00000     4.49807   
  1331. RY*(  24) N  70                  0.00000     4.35911   
  1332. RY*(  25) N  70                  0.00000     4.43385   
  1333. RY*(  26) N  70                  0.00000     4.46620   
  1334. RY*(   1) H  71                  0.00057     2.14069   
  1335. RY*(   2) H  71                  0.00039     2.13381   
  1336. RY*(   3) H  71                  0.00032     1.02279   
  1337. RY*(   4) H  71                  0.00021     2.50196   
  1338. RY*(   5) H  71                  0.00001     3.06969   
  1339. RY*(   1) C  72                  0.00413     1.67016   
  1340. RY*(   2) C  72                  0.00257     0.97860   
  1341. RY*(   3) C  72                  0.00188     1.49812   
  1342. RY*(   4) C  72                  0.00164     1.97859   
  1343. RY*(   5) C  72                  0.00119     1.60394   
  1344. RY*(   6) C  72                  0.00113     1.77820   
  1345. RY*(   7) C  72                  0.00037     2.83095   
  1346. RY*(   8) C  72                  0.00020     2.88741   
  1347. RY*(   9) C  72                  0.00015     2.22756   
  1348. RY*(  10) C  72                  0.00008     3.52409   
  1349. RY*(  11) C  72                  0.00003     2.64030   
  1350. RY*(  12) C  72                  0.00002     2.54283   
  1351. RY*(  13) C  72                  0.00002     2.79197   
  1352. RY*(  14) C  72                  0.00000     1.05931   
  1353. RY*(  15) C  72                  0.00000     2.83490   
  1354. RY*(  16) C  72                  0.00001     1.35922   
  1355. RY*(  17) C  72                  0.00000     3.49178   
  1356. RY*(  18) C  72                  0.00000    20.86111   
  1357. RY*(  19) C  72                  0.00001     2.20137   
  1358. RY*(  20) C  72                  0.00000     3.39539   
  1359. RY*(  21) C  72                  0.00000     3.79527   
  1360. RY*(  22) C  72                  0.00000     3.51593   
  1361. RY*(  23) C  72                  0.00000     3.21858   
  1362. RY*(  24) C  72                  0.00000     3.33103   
  1363. RY*(  25) C  72                  0.00000     3.41903   
  1364. RY*(  26) C  72                  0.00000     3.34592   
  1365. RY*(   1) C  73                  0.00422     1.56796   
  1366. RY*(   2) C  73                  0.00289     0.69812   
  1367. RY*(   3) C  73                  0.00221     1.39444   
  1368. RY*(   4) C  73                  0.00133     2.44790   
  1369. RY*(   5) C  73                  0.00077     1.70484   
  1370. RY*(   6) C  73                  0.00040     1.53562   
  1371. RY*(   7) C  73                  0.00030     1.67494   
  1372. RY*(   8) C  73                  0.00009     3.26541   
  1373. RY*(   9) C  73                  0.00005     1.97740   
  1374. RY*(  10) C  73                  0.00005     2.54926   
  1375. RY*(  11) C  73                  0.00003     2.08659   
  1376. RY*(  12) C  73                  0.00003     2.61335   
  1377. RY*(  13) C  73                  0.00002     2.89409   
  1378. RY*(  14) C  73                  0.00000     3.24066   
  1379. RY*(  15) C  73                  0.00000     2.75106   
  1380. RY*(  16) C  73                  0.00001     3.32650   
  1381. RY*(  17) C  73                  0.00001     2.63379   
  1382. RY*(  18) C  73                  0.00000    20.82179   
  1383. RY*(  19) C  73                  0.00001     2.85162   
  1384. RY*(  20) C  73                  0.00001     3.74668   
  1385. RY*(  21) C  73                  0.00000     4.11325   
  1386. RY*(  22) C  73                  0.00000     3.56690   
  1387. RY*(  23) C  73                  0.00000     3.64273   
  1388. RY*(  24) C  73                  0.00000     3.59370   
  1389. RY*(  25) C  73                  0.00000     3.45648   
  1390. RY*(  26) C  73                  0.00000     3.55523   
  1391. RY*(   1) H  74                  0.00055     0.69034   
  1392. RY*(   2) H  74                  0.00031     2.45929   
  1393. RY*(   3) H  74                  0.00020     2.08049   
  1394. RY*(   4) H  74                  0.00012     2.38359   
  1395. RY*(   5) H  74                  0.00002     3.15931   
  1396. RY*(   1) N  75                  0.00669     1.70028   
  1397. RY*(   2) N  75                  0.00501     1.19432   
  1398. RY*(   3) N  75                  0.00358     0.81120   
  1399. RY*(   4) N  75                  0.00119     1.10158   
  1400. RY*(   5) N  75                  0.00049     2.90392   
  1401. RY*(   6) N  75                  0.00037     2.96466   
  1402. RY*(   7) N  75                  0.00035     2.26887   
  1403. RY*(   8) N  75                  0.00023     2.50565   
  1404. RY*(   9) N  75                  0.00011     3.07515   
  1405. RY*(  10) N  75                  0.00009     3.31763   
  1406. RY*(  11) N  75                  0.00008     3.05605   
  1407. RY*(  12) N  75                  0.00005     1.94980   
  1408. RY*(  13) N  75                  0.00005     3.07877   
  1409. RY*(  14) N  75                  0.00001     4.39030   
  1410. RY*(  15) N  75                  0.00001     4.48422   
  1411. RY*(  16) N  75                  0.00001     4.00565   
  1412. RY*(  17) N  75                  0.00001     4.60936   
  1413. RY*(  18) N  75                  0.00001     3.95452   
  1414. RY*(  19) N  75                  0.00001     4.92005   
  1415. RY*(  20) N  75                  0.00001     4.61072   
  1416. RY*(  21) N  75                  0.00000    31.41139   
  1417. RY*(  22) N  75                  0.00000     4.04206   
  1418. RY*(  23) N  75                  0.00000     4.76514   
  1419. RY*(  24) N  75                  0.00000     4.66542   
  1420. RY*(  25) N  75                  0.00000     4.60474   
  1421. RY*(  26) N  75                  0.00000     4.69062   
  1422. RY*(   1) C  76                  0.00364     1.63289   
  1423. RY*(   2) C  76                  0.00241     0.73703   
  1424. RY*(   3) C  76                  0.00180     1.69731   
  1425. RY*(   4) C  76                  0.00063     2.09770   
  1426. RY*(   5) C  76                  0.00052     1.74799   
  1427. RY*(   6) C  76                  0.00043     2.14241   
  1428. RY*(   7) C  76                  0.00038     1.81634   
  1429. RY*(   8) C  76                  0.00015     1.48991   
  1430. RY*(   9) C  76                  0.00013     1.80054   
  1431. RY*(  10) C  76                  0.00011     1.68602   
  1432. RY*(  11) C  76                  0.00007     1.68791   
  1433. RY*(  12) C  76                  0.00005     2.74456   
  1434. RY*(  13) C  76                  0.00004     1.99823   
  1435. RY*(  14) C  76                  0.00003     3.56840   
  1436. RY*(  15) C  76                  0.00002     1.76281   
  1437. RY*(  16) C  76                  0.00002     4.96921   
  1438. RY*(  17) C  76                  0.00000     3.46030   
  1439. RY*(  18) C  76                  0.00000     3.35057   
  1440. RY*(  19) C  76                  0.00000    17.85470   
  1441. RY*(  20) C  76                  0.00001     3.78803   
  1442. RY*(  21) C  76                  0.00001     3.80748   
  1443. RY*(  22) C  76                  0.00000     3.47980   
  1444. RY*(  23) C  76                  0.00000     3.73833   
  1445. RY*(  24) C  76                  0.00000     3.58673   
  1446. RY*(  25) C  76                  0.00000     3.49399   
  1447. RY*(  26) C  76                  0.00000     3.57413   
  1448. RY*(   1) H  77                  0.00055     0.93503   
  1449. RY*(   2) H  77                  0.00024     2.26392   
  1450. RY*(   3) H  77                  0.00023     2.18524   
  1451. RY*(   4) H  77                  0.00006     2.64876   
  1452. RY*(   5) H  77                  0.00002     3.10293   
  1538. BD*(   1) C  66 - H  67          0.00353     0.36623   
  1539. BD*(   1) C  66 - H  68          0.01213     0.35295   
  1540. BD*(   1) C  66 - H  69          0.01141     0.35281   
  1541. BD*(   1) C  66 - C  72          0.01379     0.38354   
  1542. BD*(   1) N  70 - H  71          0.01456     0.35808   
  1543. BD*(   1) N  70 - C  72          0.02741     0.41891   
  1544. BD*(   1) N  70 - C  73          0.02527     0.44113   
  1545. BD*(   1) C  72 - C  76          0.02246     0.55565   
  1546. BD*(   2) C  72 - C  76          0.29591     0.02681  1549(v),1539(v),1540(v)
                                                    1427(g),1344(g),1468(r)
  1547. BD*(   1) C  73 - H  74          0.01930     0.37921   
  1548. BD*(   1) C  73 - N  75          0.01302     0.54433   
  1549. BD*(   2) C  73 - N  75          0.40640    -0.01067  1546(v),1366(g),1398(g)
                                                    1458(r),1456(r),1455(r)
                                                    1454(r),1468(r),1453(r)
  1550. BD*(   1) N  75 - C  76          0.01291     0.48358   
  1551. BD*(   1) C  76 - H  77          0.01501     0.42227   
       -------------------------------
              Total Lewis   42.78553  ( 97.7938%)
        Valence non-Lewis    0.89311  (  2.0414%)
        Rydberg non-Lewis    0.07210  (  0.1648%)
       -------------------------------
            Total unit  2   43.75074  (100.0000%)
           Charge unit  2    0.24926
 Unable to Open any file for archive entry.
 1\1\GINC-BGN1031\SP\RAPFD\def2TZVP\C34H34Fe1N6O2\BECSLEIP\09-Sep-2024\
 0\\# apfd/def2TZVP int=(grid=ultrafine) geom=check guess=read pop=nbo 
 scf=qc\\2xkh_II_S_nbo\\0,1\Fe,0,28.1892264041,31.4267330725,9.96291751
 56\N,0,26.3507490081,32.3138275795,10.1576259777\N,0,28.9674867116,32.
 8261721579,11.2222304546\N,0,29.9749195745,30.5621866652,9.7425262831\
 N,0,27.3417967578,30.0853480031,8.6912284987\C,0,25.1779204261,31.8900
 550353,9.6246042237\C,0,24.0754391705,32.6818468368,10.1287536866\C,0,
 24.6149002054,33.5804440755,10.9941404559\C,0,26.0408162631,33.3242159
 373,11.0107617874\C,0,28.260235147,33.6891206694,11.9975324069\C,0,29.
 0884627896,34.2355427451,13.0387866569\C,0,30.2900531242,33.5809195315
 ,12.9527162043\C,0,30.1625911151,32.6480745841,11.8516276434\C,0,31.10
 28044453,30.8665109699,10.4347843291\C,0,32.1794384912,29.9943070542,1
 0.0348775801\C,0,31.6701142359,29.1582673724,9.0790661801\C,0,30.27699
 77334,29.5345129192,8.9141034668\C,0,28.048066198,29.2340518192,7.9025
 316619\C,0,27.2094467983,28.7021776753,6.8528418251\C,0,25.9771810086,
 29.2528535135,7.0332102347\C,0,26.0855695414,30.1307425039,8.177661953
 6\C,0,25.0437317077,30.8949339681,8.6727352009\H,0,24.0654099445,30.74
 40714912,8.2425322458\C,0,26.9314197774,34.0355320989,11.7909566034\H,
 0,26.5256767152,34.8275409238,12.4025015083\C,0,31.207417458,31.857948
 2941,11.3950794315\H,0,32.1563289541,31.9515278047,11.9026743924\C,0,2
 9.3864803978,28.9081102837,8.0599071948\H,0,29.7775501434,28.119002753
 8,7.4367883162\C,0,23.9433884195,34.6462173209,11.7896417205\H,0,22.86
 90994313,34.6339677783,11.623979084\H,0,24.3230978519,35.6262454326,11
 .5021975501\H,0,24.1275558972,34.5099317225,12.855735994\C,0,22.653915
 0151,32.497005476,9.7233819035\H,0,22.3296644651,31.4727454481,9.90662
 34764\H,0,22.5348876497,32.7052211366,8.6601662319\H,0,22.0031558612,3
 3.1695139618,10.276585261\C,0,28.6516479718,35.2308355836,14.056527923
 4\H,0,27.6266415357,35.0396280117,14.3724938379\H,0,28.6950739353,36.2
 417244213,13.6491929131\H,0,29.3018349777,35.1829148319,14.9282623284\
 C,0,31.4644803141,33.7218058136,13.7879873188\H,0,32.0131330695,32.808
 2782598,13.9864963997\C,0,31.9039249299,34.8689056516,14.2936210355\H,
 0,31.4197868316,35.8060762177,14.0815675566\H,0,32.7836692064,34.91300
 796,14.9135417071\C,0,33.5721375865,30.063540332,10.5570082955\H,0,33.
 5838912063,29.9511485238,11.6414847862\H,0,34.0193179647,31.0274158252
 ,10.3141150913\H,0,34.1853524794,29.2820034191,10.1159257689\C,0,32.39
 08061456,28.1139474797,8.3729166196\H,0,33.0652524634,27.5279300117,8.
 9888487996\C,0,32.319916258,27.8654565543,7.0714682448\H,0,31.71109151
 06,28.4565782664,6.4088469582\H,0,32.8965007726,27.0769399597,6.616759
 5447\C,0,27.6769579415,27.750378642,5.8071617671\H,0,28.0700811354,26.
 841091363,6.2619917104\H,0,28.4711350232,28.2013864021,5.213080677\H,0
 ,26.863274566,27.4766610622,5.1406485005\C,0,24.7376884247,29.07578392
 08,6.226811397\H,0,23.9211364245,28.7126180123,6.8507821116\H,0,24.899
 3967423,28.3622978205,5.4228566117\H,0,24.4322001798,30.0252729584,5.7
 879904588\O,0,28.592581026,32.3456117749,8.6141737916\O,0,28.225370854
 9,33.5671977556,8.5642436418\C,0,27.5532308538,26.8684952748,13.505208
 5624\H,0,28.0194785908,26.1903396459,12.7965659307\H,0,26.5349834006,2
 6.5280440914,13.696031742\H,0,28.1066569341,26.8298128545,14.443763940
 3\N,0,27.0701730362,29.3199833465,13.6567209213\H,0,26.6811238937,29.2
 862396413,14.5856167998\C,0,27.5524676388,28.2453748249,12.9519744839\
 C,0,27.210663898,30.4143250631,12.8797791807\H,0,26.9176545513,31.4024
 403891,13.1730691522\N,0,27.751325775,30.1024349796,11.7303590333\C,0,
 27.9706512424,28.7583310773,11.7566060437\H,0,28.409313869,28.26031535
 99,10.9164832718\\Version=ES64L-G16RevC.02\State=1-A\HF=-3057.8675785\
 RMSD=2.315e-09\Dipole=-1.0840072,-1.851216,2.4095966\Quadrupole=0.5900
 898,-5.4076597,4.8175699,-3.1591631,-1.1465126,3.8624244\PG=C01 [X(C34
 H34Fe1N6O2)]\\@
 The archive entry for this job was punched.


 TOWERING GENIUS DISDAINS A BEATEN PATH.  IT SEEKS 
 REGIONS HITHERTO UNEXPLORED.

                                -- ABRAHAM LINCOLN
 Job cpu time:       0 days  0 hours 50 minutes 40.7 seconds.
 Elapsed time:       0 days  0 hours  1 minutes  6.4 seconds.
 File lengths (MBytes):  RWF=    812 Int=      0 D2E=      0 Chk=    157 Scr=      1
 Normal termination of Gaussian 16 at Mon Sep  9 12:13:35 2024.
