 Entering Gaussian System, Link 0=g16
 Input=2xlh12re.com
 Output=2xlh12re.log
 Initial command:
 /sw/chem/gaussian/g16_C02/a100/g16/l1.exe "/local/becsleip_8011261/Gau-3194052.inp" -scrdir="/local/becsleip_8011261/"
 Entering Link 1 = /sw/chem/gaussian/g16_C02/a100/g16/l1.exe PID=   3194053.
  
 Copyright (c) 1988-2021, Gaussian, Inc.  All Rights Reserved.
  
 This is part of the Gaussian(R) 16 program.  It is based on
 the Gaussian(R) 09 system (copyright 2009, Gaussian, Inc.),
 the Gaussian(R) 03 system (copyright 2003, Gaussian, Inc.),
 the Gaussian(R) 98 system (copyright 1998, Gaussian, Inc.),
 the Gaussian(R) 94 system (copyright 1995, Gaussian, Inc.),
 the Gaussian 92(TM) system (copyright 1992, Gaussian, Inc.),
 the Gaussian 90(TM) system (copyright 1990, Gaussian, Inc.),
 the Gaussian 88(TM) system (copyright 1988, Gaussian, Inc.),
 the Gaussian 86(TM) system (copyright 1986, Carnegie Mellon
 University), and the Gaussian 82(TM) system (copyright 1983,
 Carnegie Mellon University). Gaussian is a federally registered
 trademark of Gaussian, Inc.
  
 This software contains proprietary and confidential information,
 including trade secrets, belonging to Gaussian, Inc.
  
 This software is provided under written license and may be
 used, copied, transmitted, or stored only in accord with that
 written license.
  
 The following legend is applicable only to US Government
 contracts under FAR:
  
                    RESTRICTED RIGHTS LEGEND
  
 Use, reproduction and disclosure by the US Government is
 subject to restrictions as set forth in subparagraphs (a)
 and (c) of the Commercial Computer Software - Restricted
 Rights clause in FAR 52.227-19.
  
 Gaussian, Inc.
 340 Quinnipiac St., Bldg. 40, Wallingford CT 06492
  
  
 ---------------------------------------------------------------
 Warning -- This program may not be used in any manner that
 competes with the business of Gaussian, Inc. or will provide
 assistance to any competitor of Gaussian, Inc.  The licensee
 of this program is prohibited from giving any competitor of
 Gaussian, Inc. access to this program.  By using this program,
 the user acknowledges that Gaussian, Inc. is engaged in the
 business of creating and licensing software in the field of
 computational chemistry and represents and warrants to the
 licensee that it is not a competitor of Gaussian, Inc. and that
 it will not use this program in any manner prohibited above.
 ---------------------------------------------------------------
  

 Cite this work as:
 Gaussian 16, Revision C.02,
 M. J. Frisch, G. W. Trucks, H. B. Schlegel, G. E. Scuseria, 
 M. A. Robb, J. R. Cheeseman, G. Scalmani, V. Barone, 
 G. A. Petersson, H. Nakatsuji, X. Li, M. Caricato, A. V. Marenich, 
 J. Bloino, B. G. Janesko, R. Gomperts, B. Mennucci, H. P. Hratchian, 
 J. V. Ortiz, A. F. Izmaylov, J. L. Sonnenberg, D. Williams-Young, 
 F. Ding, F. Lipparini, F. Egidi, J. Goings, B. Peng, A. Petrone, 
 T. Henderson, D. Ranasinghe, V. G. Zakrzewski, J. Gao, N. Rega, 
 G. Zheng, W. Liang, M. Hada, M. Ehara, K. Toyota, R. Fukuda, 
 J. Hasegawa, M. Ishida, T. Nakajima, Y. Honda, O. Kitao, H. Nakai, 
 T. Vreven, K. Throssell, J. A. Montgomery, Jr., J. E. Peralta, 
 F. Ogliaro, M. J. Bearpark, J. J. Heyd, E. N. Brothers, K. N. Kudin, 
 V. N. Staroverov, T. A. Keith, R. Kobayashi, J. Normand, 
 K. Raghavachari, A. P. Rendell, J. C. Burant, S. S. Iyengar, 
 J. Tomasi, M. Cossi, J. M. Millam, M. Klene, C. Adamo, R. Cammi, 
 J. W. Ochterski, R. L. Martin, K. Morokuma, O. Farkas, 
 J. B. Foresman, and D. J. Fox, Gaussian, Inc., Wallingford CT, 2019.
 
 ******************************************
 Gaussian 16:  ES64L-G16RevC.02  7-Dec-2021
                10-Sep-2024 
 ******************************************
 %mem=16GB
 %CPU=0-71
 SetSPE:  set environment variable "OMP_PROC_BIND" = "true"
 SetSPE:  set environment variable "OMP_PLACES" = "{0},{1},{2},{3},{4},{5},{6},{7},{8},{9},{10},{11},{12},{13},{14},{15},{16},{17},{18},{19},{20},{21},{22},{23},{24},{25},{26},{27},{28},{29},{30},{31},{32},{33},{34},{35},{36},{37},{38},{39},{40},{41},{42},{43},{44},{45},{46},{47},{48},{49},{50},{51},{52},{53},{54},{55},{56},{57},{58},{59},{60},{61},{62},{63},{64},{65},{66},{67},{68},{69},{70},{71}"
 Will use up to   72 processors via shared memory.
 %gpucpu=0,1,2,3=0,1,2,3
 Will use    4 GPUs:
 Thread  CPU   GPU
      0    0     0
      1    1     1
      2    2     2
      3    3     3
      4    4    -1
      5    5    -1
      6    6    -1
      7    7    -1
      8    8    -1
      9    9    -1
     10   10    -1
     11   11    -1
     12   12    -1
     13   13    -1
     14   14    -1
     15   15    -1
     16   16    -1
     17   17    -1
     18   18    -1
     19   19    -1
     20   20    -1
     21   21    -1
     22   22    -1
     23   23    -1
     24   24    -1
     25   25    -1
     26   26    -1
     27   27    -1
     28   28    -1
     29   29    -1
     30   30    -1
     31   31    -1
     32   32    -1
     33   33    -1
     34   34    -1
     35   35    -1
     36   36    -1
     37   37    -1
     38   38    -1
     39   39    -1
     40   40    -1
     41   41    -1
     42   42    -1
     43   43    -1
     44   44    -1
     45   45    -1
     46   46    -1
     47   47    -1
     48   48    -1
     49   49    -1
     50   50    -1
     51   51    -1
     52   52    -1
     53   53    -1
     54   54    -1
     55   55    -1
     56   56    -1
     57   57    -1
     58   58    -1
     59   59    -1
     60   60    -1
     61   61    -1
     62   62    -1
     63   63    -1
     64   64    -1
     65   65    -1
     66   66    -1
     67   67    -1
     68   68    -1
     69   69    -1
     70   70    -1
     71   71    -1
 SetGPE:  set environment variable "OMP_PROC_BIND" = "true"
 SetGPE:  set environment variable "OMP_PLACES" = "{0},{1},{2},{3},{4},{5},{6},{7},{8},{9},{10},{11},{12},{13},{14},{15},{16},{17},{18},{19},{20},{21},{22},{23},{24},{25},{26},{27},{28},{29},{30},{31},{32},{33},{34},{35},{36},{37},{38},{39},{40},{41},{42},{43},{44},{45},{46},{47},{48},{49},{50},{51},{52},{53},{54},{55},{56},{57},{58},{59},{60},{61},{62},{63},{64},{65},{66},{67},{68},{69},{70},{71}"
 %oldchk=2xlh_II_S.chk
 %chk=2xlh_II_Sre.chk
 Properties for Device   0
 Minimum vector length:                              32
 Maximum vector length:                            1024
 Number of SMPs:                                    108
 Maximum number of threads per SMP:                2048
 Number of ASync Engines:                             5
 Memory:                                           9207742464
 Properties for Device   1
 Minimum vector length:                              32
 Maximum vector length:                            1024
 Number of SMPs:                                    108
 Maximum number of threads per SMP:                2048
 Number of ASync Engines:                             5
 Memory:                                           9207742464
 Properties for Device   2
 Minimum vector length:                              32
 Maximum vector length:                            1024
 Number of SMPs:                                    108
 Maximum number of threads per SMP:                2048
 Number of ASync Engines:                             5
 Memory:                                           9207742464
 Properties for Device   3
 Minimum vector length:                              32
 Maximum vector length:                            1024
 Number of SMPs:                                    108
 Maximum number of threads per SMP:                2048
 Number of ASync Engines:                             5
 Memory:                                           9207742464
   8286968217 words of memory will be used on each GPU.
 Copying data from "2xlh_II_S.chk" to current chk file "2xlh_II_Sre.chk"
 IOpt=  2 FromEx=T IUOpen= 4 IOptOp= 5 NList=   0 IFRang= 0 IUIn= 4 IUOut= 2.
 --------------------------------------
 # apfd/gen scf=maxcycle=999 geom=check
 --------------------------------------
 1/29=2,38=1,172=1/1;
 2/12=2,40=1/2;
 3/5=7,11=2,14=-4,25=1,30=1,74=-44/1,2,3;
 4//1;
 5/5=2,7=999,38=5/2;
 6/7=2,8=2,9=2,10=2,28=1/1;
 99/5=1,9=1/99;
 ----------
 2xlh_III_D
 ----------
 Structure from the checkpoint file:  "2xlh_II_Sre.chk"
 Charge =  1 Multiplicity = 2
 Z-Matrix found in chk file.
 Fe,0,-22.9764373207,25.4014527608,8.394696911
 N,0,-24.3526989317,25.4458248293,9.855194905
 N,0,-24.4586931818,25.2218446334,7.0561826393
 N,0,-21.653529259,24.9483660169,6.9674942139
 N,0,-21.5455995777,25.2313783632,9.7796317634
 C,0,-24.1205221834,25.5242859372,11.197575098
 C,0,-25.3624716306,25.5567878258,11.9364089919
 C,0,-26.3564685764,25.4745279675,11.0126742969
 C,0,-25.70776313,25.4088603897,9.7222723233
 C,0,-25.8004681876,25.2856221434,7.2819251233
 C,0,-26.5404533673,25.1776869482,6.0450993416
 C,0,-25.6143723477,25.0748223562,5.0551783565
 C,0,-24.3235234787,25.0842623918,5.7067127536
 C,0,-21.8850804744,24.8601393478,5.6299304481
 C,0,-20.6478370482,24.6593026377,4.9025054334
 C,0,-19.6546211998,24.6430639046,5.8451544346
 C,0,-20.3026546907,24.8216861548,7.1188542461
 C,0,-20.2088315169,25.1006068318,9.5545074625
 C,0,-19.4598142938,25.2537352878,10.7857306163
 C,0,-20.3875431215,25.4973627484,11.7637541156
 C,0,-21.6724946666,25.4711469266,11.1168784874
 C,0,-22.8762329414,25.5852983803,11.7908450931
 H,0,-22.8402878417,25.699914784,12.8635567859
 C,0,-26.3944913598,25.3771209429,8.5244799102
 H,0,-27.4726998179,25.3896407857,8.5650321934
 C,0,-23.1283221463,24.932608977,5.0313297093
 H,0,-23.1749519028,24.8295398974,3.9580171941
 C,0,-19.6272516896,24.8659095595,8.3243480755
 H,0,-18.556605173,24.7332977158,8.2972239339
 C,0,-25.455861345,25.6352698121,13.4217016044
 H,0,-24.9810947967,26.5449182759,13.7907991633
 H,0,-24.9558328859,24.7826256896,13.8813224124
 H,0,-26.4942479844,25.637308445,13.7435253398
 C,0,-27.8327800524,25.4470041761,11.2119416926
 H,0,-28.2573022268,24.5360115264,10.7902053765
 H,0,-28.3028261643,26.2988024286,10.7196133489
 H,0,-28.0814586973,25.4827583949,12.2697046692
 C,0,-20.1618033907,25.8012573123,13.2039367713
 H,0,-20.3046729929,24.9095200326,13.8163498062
 H,0,-20.8577148079,26.56360486,13.5518700831
 H,0,-19.1458923491,26.1608657745,13.3545007222
 C,0,-18.0187821896,25.1829514425,10.8898986042
 H,0,-17.4690172105,25.5328724836,10.0238198365
 C,0,-17.3427709686,24.7256891161,11.9387696357
 H,0,-17.8345386983,24.3192118813,12.8050226196
 H,0,-16.265536419,24.7134904267,11.9519888394
 C,0,-18.1848120583,24.5291516054,5.6390177408
 H,0,-17.8439319972,23.5103662943,5.829925562
 H,0,-17.6477994599,25.1957716918,6.3121202627
 H,0,-17.9306440469,24.7904894959,4.6138314605
 C,0,-20.5490865754,24.5328004818,3.4646066005
 H,0,-21.2693807651,25.1065154206,2.8925342031
 C,0,-19.6687188899,23.7770132046,2.8168515666
 H,0,-18.9626232075,23.1500750576,3.3325292757
 H,0,-19.6426785692,23.7398758885,1.7403477938
 C,0,-25.8133068805,24.9360376089,3.5849623588
 H,0,-25.4193593836,23.9824482804,3.2330472815
 H,0,-25.2963064862,25.7336006441,3.0511112191
 H,0,-26.8694971699,24.983735634,3.3321157355
 C,0,-28.027333848,25.1971006279,5.9515395643
 H,0,-28.3511183533,25.097679487,4.918275186
 H,0,-28.4244507584,26.1320398452,6.3487941432
 H,0,-28.4570338365,24.3758049346,6.5256651392
 C,0,-22.4711415496,30.6133255939,6.4534581484
 H,0,-21.5251193995,31.128278884,6.6195229558
 H,0,-23.2806438333,31.3163615517,6.6486092163
 H,0,-22.5211206718,30.3042940913,5.4143029061
 N,0,-22.5624263674,29.5120161589,8.6996428223
 H,0,-22.4687778525,30.3615041344,9.2318781147
 C,0,-22.584428493,29.422618174,7.33294974
 C,0,-22.6861118275,28.2601120149,9.1958102523
 H,0,-22.7003319675,28.0259788386,10.2412471914
 N,0,-22.7850731954,27.3797111001,8.225399125
 C,0,-22.7235985349,28.0920344534,7.0596866792
 H,0,-22.7832897852,27.5999992786,6.110052373
 Recover connectivity data from disk.
 Stoichiometry    C34H34FeN6(1+,2)
 Framework group  C1[X(C34H34FeN6)]
 Deg. of freedom   219
 Full point group                 C1      NOp   1
 Largest Abelian subgroup         C1      NOp   1
 Largest concise Abelian subgroup C1      NOp   1
                         Standard orientation:                         
 ---------------------------------------------------------------------
 Center     Atomic      Atomic             Coordinates (Angstroms)
 Number     Number       Type             X           Y           Z
 ---------------------------------------------------------------------
      1         26           0       -0.057891    0.201769   -0.320499
      2          7           0       -1.329160    1.746073   -0.488185
      3          7           0        1.468912    1.488464   -0.505567
      4          7           0        1.214389   -1.319241   -0.565679
      5          7           0       -1.600833   -1.057085   -0.490453
      6          6           0       -2.692469    1.687891   -0.495387
      7          6           0       -3.266126    3.009679   -0.610115
      8          6           0       -2.218932    3.872458   -0.694261
      9          6           0       -1.021082    3.066875   -0.613892
     10          6           0        1.413706    2.848482   -0.557430
     11          6           0        2.739768    3.419447   -0.624700
     12          6           0        3.607124    2.373416   -0.583918
     13          6           0        2.795958    1.177609   -0.529760
     14          6           0        2.573499   -1.261888   -0.568510
     15          6           0        3.147635   -2.591444   -0.622388
     16          6           0        2.088357   -3.459214   -0.637688
     17          6           0        0.899457   -2.647072   -0.604412
     18          6           0       -1.541154   -2.417577   -0.505623
     19          6           0       -2.865829   -2.994452   -0.392325
     20          6           0       -3.730534   -1.936693   -0.292345
     21          6           0       -2.923624   -0.747524   -0.363109
     22          6           0       -3.443419    0.535206   -0.388912
     23          1           0       -4.517078    0.640922   -0.353976
     24          6           0        0.254462    3.596224   -0.604470
     25          1           0        0.352036    4.668599   -0.673936
     26          6           0        3.320739   -0.099931   -0.541766
     27          1           0        4.395599   -0.194206   -0.565954
     28          6           0       -0.383080   -3.163248   -0.602834
     29          1           0       -0.485006   -4.236356   -0.654365
     30          6           0       -4.729017    3.291055   -0.651979
     31          1           0       -5.215554    2.941577    0.259198
     32          1           0       -5.191515    2.782993   -1.498295
     33          1           0       -4.914181    4.357758   -0.750370
     34          6           0       -2.224601    5.354783   -0.844735
     35          1           0       -1.692345    5.647988   -1.749568
     36          1           0       -1.733536    5.829102    0.005422
     37          1           0       -3.241670    5.733682   -0.907892
     38          6           0       -5.204739   -1.957974   -0.083289
     39          1           0       -5.733230   -1.814631   -1.027115
     40          1           0       -5.510155   -1.164334    0.597433
     41          1           0       -5.508093   -2.914684    0.337122
     42          6           0       -3.149355   -4.412661   -0.365290
     43          1           0       -2.386215   -5.034104    0.088807
     44          6           0       -4.243740   -4.989874   -0.850428
     45          1           0       -5.010754   -4.430414   -1.356538
     46          1           0       -4.394417   -6.054650   -0.784808
     47          6           0        2.111037   -4.947567   -0.627812
     48          1           0        1.945893   -5.344903   -1.630519
     49          1           0        1.331807   -5.341199    0.023100
     50          1           0        3.075466   -5.303493   -0.271302
     51          6           0        4.566125   -2.876239   -0.631493
     52          1           0        5.186689   -2.187060   -0.070090
     53          6           0        5.144079   -3.888623   -1.269379
     54          1           0        4.584671   -4.575062   -1.880452
     55          1           0        6.208388   -4.049747   -1.222448
     56          6           0        5.096653    2.378053   -0.624540
     57          1           0        5.457488    1.866866   -1.517209
     58          1           0        5.505584    1.866613    0.247009
     59          1           0        5.479382    3.395478   -0.635077
     60          6           0        3.022095    4.880086   -0.706978
     61          1           0        4.092695    5.065143   -0.750851
     62          1           0        2.618041    5.398450    0.163461
     63          1           0        2.563671    5.308187   -1.598811
     64          6           0        1.452431   -0.108567    5.046993
     65          1           0        1.132417   -0.981493    5.615591
     66          1           0        1.316718    0.773765    5.672062
     67          1           0        2.507580   -0.212245    4.815148
     68          7           0       -0.685396    0.167364    3.774154
     69          1           0       -1.280401    0.209929    4.585223
     70          6           0        0.675691    0.013794    3.787697
     71          6           0       -1.077445    0.247867    2.482426
     72          1           0       -2.094545    0.371204    2.168970
     73          7           0       -0.046137    0.154160    1.673588
     74          6           0        1.052194    0.008574    2.475176
     75          1           0        2.032146   -0.089524    2.053823
 ---------------------------------------------------------------------
 Rotational constants (GHZ):           0.0942919           0.0922232           0.0593832
 General basis read from cards:  (5D, 7F)
 There are   704 symmetry adapted cartesian basis functions of A   symmetry.
 There are   661 symmetry adapted basis functions of A   symmetry.
   661 basis functions,  1342 primitive gaussians,   704 cartesian basis functions
   153 alpha electrons      152 beta electrons
       nuclear repulsion energy      5565.9106360842 Hartrees.
 NAtoms=   75 NActive=   75 NUniq=   75 SFac= 1.00D+00 NAtFMM=   60 NAOKFM=T Big=T
 Integral buffers will be    131072 words long.
 Raffenetti 2 integral format.
 Two-electron integral symmetry is turned on.
 R6APFD:  NTU= -4 IXU= 1 FactS= 1.050
 Nuclear repulsion after empirical dispersion term =     5565.7781514237 Hartrees.
 One-electron integrals computed using PRISM.
 NBasis=   661 RedAO= T EigKep=  2.52D-04  NBF=   661
 NBsUse=   661 1.00D-06 EigRej= -1.00D+00 NBFU=   661
 ExpMin= 4.20D-02 ExpMax= 3.01D+05 ExpMxC= 2.91D+03 IAcc=3 IRadAn=         5 AccDes= 0.00D+00
 Harris functional with IExCor= 3731 and IRadAn=       5 diagonalized for initial guess.
 HarFok:  IExCor= 3731 AccDes= 0.00D+00 IRadAn=         5 IDoV= 1 UseB2=F ITyADJ=14
 ICtDFT=  3500011 ScaDFX=  1.000000  1.000000  1.000000  1.000000
 FoFCou: FMM=F IPFlag=           0 FMFlag=      100000 FMFlg1=        2001
         NFxFlg=           0 DoJE=T BraDBF=F KetDBF=T FulRan=T
         wScrn=  0.000000 ICntrl=       500 IOpCl=  0 I1Cent=   200000004 NGrid=           0
         NMat0=    1 NMatS0=      1 NMatT0=    0 NMatD0=    1 NMtDS0=    0 NMtDT0=    0
 Petite list used in FoFCou.
 Initial guess <Sx>= 0.0000 <Sy>= 0.0000 <Sz>= 0.5000 <S**2>= 0.7500 S= 0.5000
 Requested convergence on RMS density matrix=1.00D-08 within 999 cycles.
 Requested convergence on MAX density matrix=1.00D-06.
 Requested convergence on             energy=1.00D-06.
 No special actions if energy rises.
 EnCoef did   100 forward-backward iterations
 EnCoef did   100 forward-backward iterations
 EnCoef did   100 forward-backward iterations
 EnCoef did   100 forward-backward iterations
 EnCoef did     3 forward-backward iterations
 EnCoef did     7 forward-backward iterations
 Restarting incremental Fock formation.
 Restarting incremental Fock formation.
 Restarting incremental Fock formation.
 SCF Done:  E(UAPFD) =  -2906.83413002     A.U. after   75 cycles
            NFock= 75  Conv=0.28D-08     -V/T= 2.0038
 <Sx>= 0.0000 <Sy>= 0.0000 <Sz>= 0.5000 <S**2>= 1.0919 S= 0.6584
 <L.S>=  0.00000000000    
 Annihilation of the first spin contaminant:
 S**2 before annihilation     1.0919,   after     0.7605

 **********************************************************************

            Population analysis using the SCF Density.

 **********************************************************************

 Orbital symmetries:
 Alpha Orbitals:
       Occupied  (A) (A) (A) (A) (A) (A) (A) (A) (A) (A) (A) (A)
                 (A) (A) (A) (A) (A) (A) (A) (A) (A) (A) (A) (A)
                 (A) (A) (A) (A) (A) (A) (A) (A) (A) (A) (A) (A)
                 (A) (A) (A) (A) (A) (A) (A) (A) (A) (A) (A) (A)
                 (A) (A) (A) (A) (A) (A) (A) (A) (A) (A) (A) (A)
                 (A) (A) (A) (A) (A) (A) (A) (A) (A) (A) (A) (A)
                 (A) (A) (A) (A) (A) (A) (A) (A) (A) (A) (A) (A)
                 (A) (A) (A) (A) (A) (A) (A) (A) (A) (A) (A) (A)
                 (A) (A) (A) (A) (A) (A) (A) (A) (A) (A) (A) (A)
                 (A) (A) (A) (A) (A) (A) (A) (A) (A) (A) (A) (A)
                 (A) (A) (A) (A) (A) (A) (A) (A) (A) (A) (A) (A)
                 (A) (A) (A) (A) (A) (A) (A) (A) (A) (A) (A) (A)
                 (A) (A) (A) (A) (A) (A) (A) (A) (A)
       Virtual   (A) (A) (A) (A) (A) (A) (A) (A) (A) (A) (A) (A)
                 (A) (A) (A) (A) (A) (A) (A) (A) (A) (A) (A) (A)
                 (A) (A) (A) (A) (A) (A) (A) (A) (A) (A) (A) (A)
                 (A) (A) (A) (A) (A) (A) (A) (A) (A) (A) (A) (A)
                 (A) (A) (A) (A) (A) (A) (A) (A) (A) (A) (A) (A)
                 (A) (A) (A) (A) (A) (A) (A) (A) (A) (A) (A) (A)
                 (A) (A) (A) (A) (A) (A) (A) (A) (A) (A) (A) (A)
                 (A) (A) (A) (A) (A) (A) (A) (A) (A) (A) (A) (A)
                 (A) (A) (A) (A) (A) (A) (A) (A) (A) (A) (A) (A)
                 (A) (A) (A) (A) (A) (A) (A) (A) (A) (A) (A) (A)
                 (A) (A) (A) (A) (A) (A) (A) (A) (A) (A) (A) (A)
                 (A) (A) (A) (A) (A) (A) (A) (A) (A) (A) (A) (A)
                 (A) (A) (A) (A) (A) (A) (A) (A) (A) (A) (A) (A)
                 (A) (A) (A) (A) (A) (A) (A) (A) (A) (A) (A) (A)
                 (A) (A) (A) (A) (A) (A) (A) (A) (A) (A) (A) (A)
                 (A) (A) (A) (A) (A) (A) (A) (A) (A) (A) (A) (A)
                 (A) (A) (A) (A) (A) (A) (A) (A) (A) (A) (A) (A)
                 (A) (A) (A) (A) (A) (A) (A) (A) (A) (A) (A) (A)
                 (A) (A) (A) (A) (A) (A) (A) (A) (A) (A) (A) (A)
                 (A) (A) (A) (A) (A) (A) (A) (A) (A) (A) (A) (A)
                 (A) (A) (A) (A) (A) (A) (A) (A) (A) (A) (A) (A)
                 (A) (A) (A) (A) (A) (A) (A) (A) (A) (A) (A) (A)
                 (A) (A) (A) (A) (A) (A) (A) (A) (A) (A) (A) (A)
                 (A) (A) (A) (A) (A) (A) (A) (A) (A) (A) (A) (A)
                 (A) (A) (A) (A) (A) (A) (A) (A) (A) (A) (A) (A)
                 (A) (A) (A) (A) (A) (A) (A) (A) (A) (A) (A) (A)
                 (A) (A) (A) (A) (A) (A) (A) (A) (A) (A) (A) (A)
                 (A) (A) (A) (A) (A) (A) (A) (A) (A) (A) (A) (A)
                 (A) (A) (A) (A) (A) (A) (A) (A) (A) (A) (A) (A)
                 (A) (A) (A) (A) (A) (A) (A) (A) (A) (A) (A) (A)
                 (A) (A) (A) (A) (A) (A) (A) (A) (A) (A) (A) (A)
                 (A) (A) (A) (A) (A) (A) (A) (A) (A) (A) (A) (A)
                 (A) (A) (A) (A) (A) (A) (A) (A) (A) (A) (A) (A)
                 (A) (A) (A) (A) (A) (A) (A) (A) (A) (A) (A) (A)
                 (A) (A) (A) (A) (A) (A) (A) (A) (A) (A) (A) (A)
                 (A) (A) (A) (A) (A) (A) (A) (A) (A) (A) (A) (A)
                 (A) (A) (A) (A) (A) (A) (A) (A) (A) (A) (A) (A)
                 (A) (A) (A) (A) (A) (A) (A) (A) (A) (A) (A) (A)
                 (A) (A) (A) (A) (A) (A) (A) (A) (A) (A) (A) (A)
                 (A) (A) (A) (A) (A) (A) (A) (A) (A) (A) (A) (A)
                 (A) (A) (A) (A) (A) (A) (A) (A) (A) (A) (A) (A)
                 (A) (A) (A) (A) (A) (A) (A) (A) (A) (A) (A) (A)
                 (A) (A) (A) (A)
 Beta  Orbitals:
       Occupied  (A) (A) (A) (A) (A) (A) (A) (A) (A) (A) (A) (A)
                 (A) (A) (A) (A) (A) (A) (A) (A) (A) (A) (A) (A)
                 (A) (A) (A) (A) (A) (A) (A) (A) (A) (A) (A) (A)
                 (A) (A) (A) (A) (A) (A) (A) (A) (A) (A) (A) (A)
                 (A) (A) (A) (A) (A) (A) (A) (A) (A) (A) (A) (A)
                 (A) (A) (A) (A) (A) (A) (A) (A) (A) (A) (A) (A)
                 (A) (A) (A) (A) (A) (A) (A) (A) (A) (A) (A) (A)
                 (A) (A) (A) (A) (A) (A) (A) (A) (A) (A) (A) (A)
                 (A) (A) (A) (A) (A) (A) (A) (A) (A) (A) (A) (A)
                 (A) (A) (A) (A) (A) (A) (A) (A) (A) (A) (A) (A)
                 (A) (A) (A) (A) (A) (A) (A) (A) (A) (A) (A) (A)
                 (A) (A) (A) (A) (A) (A) (A) (A) (A) (A) (A) (A)
                 (A) (A) (A) (A) (A) (A) (A) (A)
       Virtual   (A) (A) (A) (A) (A) (A) (A) (A) (A) (A) (A) (A)
                 (A) (A) (A) (A) (A) (A) (A) (A) (A) (A) (A) (A)
                 (A) (A) (A) (A) (A) (A) (A) (A) (A) (A) (A) (A)
                 (A) (A) (A) (A) (A) (A) (A) (A) (A) (A) (A) (A)
                 (A) (A) (A) (A) (A) (A) (A) (A) (A) (A) (A) (A)
                 (A) (A) (A) (A) (A) (A) (A) (A) (A) (A) (A) (A)
                 (A) (A) (A) (A) (A) (A) (A) (A) (A) (A) (A) (A)
                 (A) (A) (A) (A) (A) (A) (A) (A) (A) (A) (A) (A)
                 (A) (A) (A) (A) (A) (A) (A) (A) (A) (A) (A) (A)
                 (A) (A) (A) (A) (A) (A) (A) (A) (A) (A) (A) (A)
                 (A) (A) (A) (A) (A) (A) (A) (A) (A) (A) (A) (A)
                 (A) (A) (A) (A) (A) (A) (A) (A) (A) (A) (A) (A)
                 (A) (A) (A) (A) (A) (A) (A) (A) (A) (A) (A) (A)
                 (A) (A) (A) (A) (A) (A) (A) (A) (A) (A) (A) (A)
                 (A) (A) (A) (A) (A) (A) (A) (A) (A) (A) (A) (A)
                 (A) (A) (A) (A) (A) (A) (A) (A) (A) (A) (A) (A)
                 (A) (A) (A) (A) (A) (A) (A) (A) (A) (A) (A) (A)
                 (A) (A) (A) (A) (A) (A) (A) (A) (A) (A) (A) (A)
                 (A) (A) (A) (A) (A) (A) (A) (A) (A) (A) (A) (A)
                 (A) (A) (A) (A) (A) (A) (A) (A) (A) (A) (A) (A)
                 (A) (A) (A) (A) (A) (A) (A) (A) (A) (A) (A) (A)
                 (A) (A) (A) (A) (A) (A) (A) (A) (A) (A) (A) (A)
                 (A) (A) (A) (A) (A) (A) (A) (A) (A) (A) (A) (A)
                 (A) (A) (A) (A) (A) (A) (A) (A) (A) (A) (A) (A)
                 (A) (A) (A) (A) (A) (A) (A) (A) (A) (A) (A) (A)
                 (A) (A) (A) (A) (A) (A) (A) (A) (A) (A) (A) (A)
                 (A) (A) (A) (A) (A) (A) (A) (A) (A) (A) (A) (A)
                 (A) (A) (A) (A) (A) (A) (A) (A) (A) (A) (A) (A)
                 (A) (A) (A) (A) (A) (A) (A) (A) (A) (A) (A) (A)
                 (A) (A) (A) (A) (A) (A) (A) (A) (A) (A) (A) (A)
                 (A) (A) (A) (A) (A) (A) (A) (A) (A) (A) (A) (A)
                 (A) (A) (A) (A) (A) (A) (A) (A) (A) (A) (A) (A)
                 (A) (A) (A) (A) (A) (A) (A) (A) (A) (A) (A) (A)
                 (A) (A) (A) (A) (A) (A) (A) (A) (A) (A) (A) (A)
                 (A) (A) (A) (A) (A) (A) (A) (A) (A) (A) (A) (A)
                 (A) (A) (A) (A) (A) (A) (A) (A) (A) (A) (A) (A)
                 (A) (A) (A) (A) (A) (A) (A) (A) (A) (A) (A) (A)
                 (A) (A) (A) (A) (A) (A) (A) (A) (A) (A) (A) (A)
                 (A) (A) (A) (A) (A) (A) (A) (A) (A) (A) (A) (A)
                 (A) (A) (A) (A) (A) (A) (A) (A) (A) (A) (A) (A)
                 (A) (A) (A) (A) (A) (A) (A) (A) (A) (A) (A) (A)
                 (A) (A) (A) (A) (A) (A) (A) (A) (A) (A) (A) (A)
                 (A) (A) (A) (A) (A)
 The electronic state is 2-A.
 Alpha  occ. eigenvalues -- -256.38025 -30.24987 -26.08988 -26.08753 -26.08024
 Alpha  occ. eigenvalues --  -14.54738 -14.51648 -14.48181 -14.48167 -14.48128
 Alpha  occ. eigenvalues --  -14.48060 -10.38943 -10.36050 -10.33875 -10.33871
 Alpha  occ. eigenvalues --  -10.33765 -10.33706 -10.33685 -10.33683 -10.33665
 Alpha  occ. eigenvalues --  -10.33635 -10.33629 -10.31021 -10.31011 -10.30884
 Alpha  occ. eigenvalues --  -10.30843 -10.30758 -10.30727 -10.30578 -10.30491
 Alpha  occ. eigenvalues --  -10.30432 -10.30359 -10.30355 -10.30349 -10.30294
 Alpha  occ. eigenvalues --  -10.29532 -10.29509 -10.28516 -10.28419 -10.28394
 Alpha  occ. eigenvalues --  -10.28361 -10.28322 -10.28194 -10.28169 -10.28093
 Alpha  occ. eigenvalues --   -3.64328  -2.41578  -2.40494  -2.39350  -1.17513
 Alpha  occ. eigenvalues --   -1.09291  -1.08288  -1.08249  -1.07278  -1.03333
 Alpha  occ. eigenvalues --   -0.93889  -0.92397  -0.92115  -0.91591  -0.91362
 Alpha  occ. eigenvalues --   -0.91227  -0.91063  -0.90979  -0.86928  -0.85652
 Alpha  occ. eigenvalues --   -0.85608  -0.84495  -0.83094  -0.82782  -0.81407
 Alpha  occ. eigenvalues --   -0.80438  -0.78764  -0.78569  -0.78308  -0.76557
 Alpha  occ. eigenvalues --   -0.75420  -0.75393  -0.73013  -0.70855  -0.70230
 Alpha  occ. eigenvalues --   -0.69060  -0.68556  -0.67515  -0.65351  -0.64672
 Alpha  occ. eigenvalues --   -0.63821  -0.63470  -0.62030  -0.62016  -0.61615
 Alpha  occ. eigenvalues --   -0.59547  -0.59415  -0.58649  -0.58488  -0.58246
 Alpha  occ. eigenvalues --   -0.56207  -0.55437  -0.55075  -0.54895  -0.54455
 Alpha  occ. eigenvalues --   -0.54217  -0.54090  -0.53982  -0.53656  -0.53502
 Alpha  occ. eigenvalues --   -0.53156  -0.52815  -0.52588  -0.52421  -0.52106
 Alpha  occ. eigenvalues --   -0.51969  -0.50788  -0.50709  -0.50643  -0.50566
 Alpha  occ. eigenvalues --   -0.50437  -0.50267  -0.50078  -0.49876  -0.49805
 Alpha  occ. eigenvalues --   -0.49301  -0.48763  -0.48592  -0.48426  -0.48323
 Alpha  occ. eigenvalues --   -0.47862  -0.47796  -0.47507  -0.46845  -0.46420
 Alpha  occ. eigenvalues --   -0.46106  -0.45802  -0.44982  -0.44456  -0.44362
 Alpha  occ. eigenvalues --   -0.43847  -0.43263  -0.42691  -0.42516  -0.41775
 Alpha  occ. eigenvalues --   -0.41049  -0.40148  -0.39192  -0.38955  -0.37321
 Alpha  occ. eigenvalues --   -0.37189  -0.35185  -0.34307  -0.33406  -0.32314
 Alpha  occ. eigenvalues --   -0.32093  -0.30284  -0.28916
 Alpha virt. eigenvalues --   -0.21765  -0.17551  -0.17385  -0.15754  -0.11698
 Alpha virt. eigenvalues --   -0.09525  -0.08062  -0.06821  -0.05432  -0.04838
 Alpha virt. eigenvalues --   -0.02369  -0.02002  -0.01604  -0.01065   0.00714
 Alpha virt. eigenvalues --    0.01111   0.01711   0.02302   0.02781   0.03117
 Alpha virt. eigenvalues --    0.03719   0.03978   0.04177   0.04680   0.04946
 Alpha virt. eigenvalues --    0.04998   0.05521   0.05546   0.06008   0.06256
 Alpha virt. eigenvalues --    0.06831   0.07358   0.07554   0.07800   0.07917
 Alpha virt. eigenvalues --    0.08278   0.08465   0.08786   0.09049   0.09368
 Alpha virt. eigenvalues --    0.09617   0.09884   0.10077   0.10472   0.10768
 Alpha virt. eigenvalues --    0.11415   0.11724   0.11949   0.12100   0.12235
 Alpha virt. eigenvalues --    0.12523   0.12855   0.13228   0.13682   0.14243
 Alpha virt. eigenvalues --    0.14749   0.15117   0.15314   0.15642   0.15951
 Alpha virt. eigenvalues --    0.16423   0.16635   0.17076   0.17764   0.17890
 Alpha virt. eigenvalues --    0.19343   0.19806   0.19969   0.20530   0.21456
 Alpha virt. eigenvalues --    0.21796   0.22893   0.23262   0.24684   0.24875
 Alpha virt. eigenvalues --    0.25460   0.25796   0.26524   0.26905   0.27030
 Alpha virt. eigenvalues --    0.28304   0.29966   0.30667   0.30906   0.31836
 Alpha virt. eigenvalues --    0.33018   0.33712   0.33796   0.34500   0.34992
 Alpha virt. eigenvalues --    0.37437   0.37527   0.38020   0.38539   0.39044
 Alpha virt. eigenvalues --    0.39809   0.40062   0.40284   0.40665   0.41467
 Alpha virt. eigenvalues --    0.41786   0.42225   0.42330   0.42474   0.43173
 Alpha virt. eigenvalues --    0.43276   0.43578   0.43824   0.44636   0.44817
 Alpha virt. eigenvalues --    0.45126   0.45910   0.46143   0.46738   0.47241
 Alpha virt. eigenvalues --    0.47467   0.47684   0.48181   0.48438   0.48790
 Alpha virt. eigenvalues --    0.49453   0.49816   0.50204   0.50488   0.50840
 Alpha virt. eigenvalues --    0.51139   0.51986   0.52271   0.52709   0.53186
 Alpha virt. eigenvalues --    0.53717   0.54133   0.54503   0.54991   0.55222
 Alpha virt. eigenvalues --    0.55497   0.55804   0.56376   0.56747   0.57119
 Alpha virt. eigenvalues --    0.57175   0.57380   0.57698   0.58089   0.58432
 Alpha virt. eigenvalues --    0.59759   0.59905   0.60057   0.60404   0.61123
 Alpha virt. eigenvalues --    0.61552   0.62140   0.62660   0.62880   0.63346
 Alpha virt. eigenvalues --    0.64099   0.64736   0.65077   0.65602   0.66449
 Alpha virt. eigenvalues --    0.66725   0.66891   0.67634   0.67803   0.67998
 Alpha virt. eigenvalues --    0.68463   0.68609   0.68960   0.69345   0.69548
 Alpha virt. eigenvalues --    0.69737   0.70198   0.70653   0.71435   0.71616
 Alpha virt. eigenvalues --    0.72831   0.73245   0.73523   0.73935   0.74424
 Alpha virt. eigenvalues --    0.75929   0.76518   0.77372   0.77460   0.77556
 Alpha virt. eigenvalues --    0.77974   0.78294   0.78693   0.78921   0.79020
 Alpha virt. eigenvalues --    0.79693   0.80175   0.81193   0.81439   0.81546
 Alpha virt. eigenvalues --    0.82470   0.82527   0.82810   0.83111   0.83203
 Alpha virt. eigenvalues --    0.83743   0.83815   0.84027   0.84394   0.84797
 Alpha virt. eigenvalues --    0.85063   0.85275   0.86033   0.86340   0.86737
 Alpha virt. eigenvalues --    0.87268   0.87685   0.87804   0.88914   0.89437
 Alpha virt. eigenvalues --    0.89658   0.89912   0.90404   0.90871   0.91033
 Alpha virt. eigenvalues --    0.91394   0.92015   0.92304   0.92943   0.93563
 Alpha virt. eigenvalues --    0.93612   0.94167   0.94512   0.95055   0.95454
 Alpha virt. eigenvalues --    0.96730   0.96970   0.97369   0.97678   0.98658
 Alpha virt. eigenvalues --    0.99061   1.00925   1.01453   1.02652   1.03372
 Alpha virt. eigenvalues --    1.04695   1.05205   1.06416   1.06833   1.07319
 Alpha virt. eigenvalues --    1.07718   1.08310   1.08670   1.09421   1.09852
 Alpha virt. eigenvalues --    1.10143   1.10717   1.10857   1.11327   1.11840
 Alpha virt. eigenvalues --    1.12304   1.13200   1.14279   1.14666   1.15315
 Alpha virt. eigenvalues --    1.16389   1.17652   1.18343   1.19014   1.19954
 Alpha virt. eigenvalues --    1.20093   1.20854   1.21187   1.21942   1.22892
 Alpha virt. eigenvalues --    1.23626   1.23898   1.25077   1.25697   1.26279
 Alpha virt. eigenvalues --    1.26770   1.27228   1.27642   1.27731   1.27894
 Alpha virt. eigenvalues --    1.28529   1.28746   1.29054   1.30065   1.30605
 Alpha virt. eigenvalues --    1.31197   1.32159   1.33150   1.33776   1.33792
 Alpha virt. eigenvalues --    1.35921   1.37085   1.37458   1.38182   1.38391
 Alpha virt. eigenvalues --    1.39560   1.41154   1.41239   1.43579   1.43962
 Alpha virt. eigenvalues --    1.44317   1.44835   1.45749   1.46109   1.46690
 Alpha virt. eigenvalues --    1.48058   1.49579   1.49984   1.50554   1.51566
 Alpha virt. eigenvalues --    1.52048   1.52801   1.54056   1.55588   1.56393
 Alpha virt. eigenvalues --    1.57006   1.57988   1.60087   1.60122   1.61263
 Alpha virt. eigenvalues --    1.61747   1.63058   1.64810   1.67901   1.68606
 Alpha virt. eigenvalues --    1.69067   1.69481   1.69864   1.70279   1.70542
 Alpha virt. eigenvalues --    1.70764   1.71685   1.72050   1.72339   1.72776
 Alpha virt. eigenvalues --    1.73421   1.73580   1.74696   1.74800   1.75150
 Alpha virt. eigenvalues --    1.75770   1.77063   1.77400   1.77787   1.78282
 Alpha virt. eigenvalues --    1.79319   1.79670   1.79963   1.80540   1.81421
 Alpha virt. eigenvalues --    1.82108   1.82323   1.83244   1.83724   1.83879
 Alpha virt. eigenvalues --    1.84942   1.85357   1.85948   1.87609   1.89051
 Alpha virt. eigenvalues --    1.90057   1.90380   1.90575   1.90971   1.91106
 Alpha virt. eigenvalues --    1.91760   1.92638   1.93835   1.94673   1.94841
 Alpha virt. eigenvalues --    1.95212   1.95710   1.96406   1.96984   1.98176
 Alpha virt. eigenvalues --    1.98888   1.99566   2.00529   2.01260   2.02212
 Alpha virt. eigenvalues --    2.03068   2.03638   2.04067   2.05574   2.05972
 Alpha virt. eigenvalues --    2.06274   2.06748   2.07479   2.08485   2.09304
 Alpha virt. eigenvalues --    2.09851   2.10181   2.11065   2.12599   2.13162
 Alpha virt. eigenvalues --    2.13530   2.13768   2.14524   2.14886   2.15637
 Alpha virt. eigenvalues --    2.15972   2.16841   2.17123   2.17134   2.17931
 Alpha virt. eigenvalues --    2.18506   2.18944   2.19622   2.20083   2.20362
 Alpha virt. eigenvalues --    2.20725   2.21129   2.21735   2.22177   2.23187
 Alpha virt. eigenvalues --    2.24571   2.24682   2.25398   2.26311   2.26388
 Alpha virt. eigenvalues --    2.27291   2.27517   2.27658   2.28019   2.28721
 Alpha virt. eigenvalues --    2.30268   2.30777   2.31055   2.31446   2.31947
 Alpha virt. eigenvalues --    2.33037   2.33735   2.34170   2.34537   2.35057
 Alpha virt. eigenvalues --    2.35470   2.36853   2.37781   2.39215   2.40869
 Alpha virt. eigenvalues --    2.42252   2.42339   2.42665   2.43233   2.43323
 Alpha virt. eigenvalues --    2.44838   2.45421   2.46115   2.46458   2.47141
 Alpha virt. eigenvalues --    2.48979   2.50106   2.50583   2.50714   2.52692
 Alpha virt. eigenvalues --    2.55236   2.56296   2.56702   2.57991   2.58368
 Alpha virt. eigenvalues --    2.59509   2.60186   2.61330   2.62597   2.63497
 Alpha virt. eigenvalues --    2.65575   2.67670   2.67954   2.69724   2.70423
 Alpha virt. eigenvalues --    2.71346   2.76097   2.76924   2.77535   2.78616
 Alpha virt. eigenvalues --    2.80367   2.81292   2.82402   2.84561   2.86519
 Alpha virt. eigenvalues --    2.86704   2.87726   2.88723   2.89174   2.89427
 Alpha virt. eigenvalues --    2.90620   2.94213   2.94704   2.95333   3.02078
 Alpha virt. eigenvalues --    3.03719   3.04159   3.10230   3.12961   3.13203
 Alpha virt. eigenvalues --    3.19811   3.20050   3.28066   3.29321   3.29997
 Alpha virt. eigenvalues --    3.31288   3.35815   3.36104   3.45337   3.47288
 Alpha virt. eigenvalues --    3.73524   3.91092   4.04433
  Beta  occ. eigenvalues -- -256.37984 -30.22523 -26.06993 -26.06581 -26.06023
  Beta  occ. eigenvalues --  -14.54745 -14.51828 -14.48303 -14.48288 -14.48251
  Beta  occ. eigenvalues --  -14.48180 -10.38940 -10.36056 -10.33849 -10.33846
  Beta  occ. eigenvalues --  -10.33745 -10.33674 -10.33662 -10.33658 -10.33632
  Beta  occ. eigenvalues --  -10.33629 -10.33607 -10.31074 -10.31012 -10.30941
  Beta  occ. eigenvalues --  -10.30899 -10.30784 -10.30735 -10.30582 -10.30468
  Beta  occ. eigenvalues --  -10.30408 -10.30362 -10.30352 -10.30331 -10.30296
  Beta  occ. eigenvalues --  -10.29540 -10.29510 -10.28517 -10.28421 -10.28395
  Beta  occ. eigenvalues --  -10.28362 -10.28323 -10.28181 -10.28169 -10.28094
  Beta  occ. eigenvalues --   -3.58310  -2.34985  -2.33987  -2.33069  -1.17585
  Beta  occ. eigenvalues --   -1.09387  -1.08383  -1.08345  -1.07372  -1.03472
  Beta  occ. eigenvalues --   -0.93935  -0.92410  -0.92127  -0.91596  -0.91386
  Beta  occ. eigenvalues --   -0.91246  -0.91115  -0.91042  -0.86923  -0.85741
  Beta  occ. eigenvalues --   -0.85653  -0.84498  -0.83103  -0.82801  -0.81418
  Beta  occ. eigenvalues --   -0.80455  -0.78767  -0.78591  -0.78337  -0.76656
  Beta  occ. eigenvalues --   -0.75445  -0.75392  -0.73037  -0.70858  -0.70238
  Beta  occ. eigenvalues --   -0.69059  -0.68596  -0.67538  -0.65358  -0.64694
  Beta  occ. eigenvalues --   -0.63827  -0.63473  -0.62066  -0.62051  -0.61639
  Beta  occ. eigenvalues --   -0.59588  -0.59391  -0.58677  -0.58503  -0.58249
  Beta  occ. eigenvalues --   -0.56246  -0.55471  -0.55081  -0.54917  -0.54421
  Beta  occ. eigenvalues --   -0.54198  -0.54127  -0.53961  -0.53680  -0.53505
  Beta  occ. eigenvalues --   -0.53164  -0.52732  -0.52593  -0.52431  -0.52102
  Beta  occ. eigenvalues --   -0.52032  -0.50761  -0.50655  -0.50596  -0.50501
  Beta  occ. eigenvalues --   -0.50449  -0.50212  -0.49962  -0.49861  -0.49699
  Beta  occ. eigenvalues --   -0.49256  -0.48886  -0.48676  -0.48416  -0.48267
  Beta  occ. eigenvalues --   -0.47859  -0.47651  -0.47236  -0.46763  -0.46454
  Beta  occ. eigenvalues --   -0.45902  -0.44990  -0.44554  -0.44062  -0.43853
  Beta  occ. eigenvalues --   -0.43260  -0.42644  -0.42404  -0.42142  -0.39937
  Beta  occ. eigenvalues --   -0.39307  -0.38450  -0.37927  -0.37769  -0.36794
  Beta  occ. eigenvalues --   -0.35154  -0.34103  -0.33857  -0.32375  -0.32041
  Beta  occ. eigenvalues --   -0.30269  -0.28705
  Beta virt. eigenvalues --   -0.20011  -0.17576  -0.17270  -0.16231  -0.12778
  Beta virt. eigenvalues --   -0.11725  -0.09556  -0.07962  -0.06822  -0.05456
  Beta virt. eigenvalues --   -0.04885  -0.02297  -0.01729  -0.01447  -0.00991
  Beta virt. eigenvalues --    0.00817   0.01148   0.01700   0.02297   0.02807
  Beta virt. eigenvalues --    0.03119   0.03721   0.04005   0.04171   0.04686
  Beta virt. eigenvalues --    0.04933   0.04992   0.05505   0.05542   0.06045
  Beta virt. eigenvalues --    0.06258   0.06840   0.07360   0.07572   0.07795
  Beta virt. eigenvalues --    0.07924   0.08297   0.08477   0.08808   0.09048
  Beta virt. eigenvalues --    0.09380   0.09647   0.09911   0.10094   0.10521
  Beta virt. eigenvalues --    0.10803   0.11434   0.11734   0.11981   0.12155
  Beta virt. eigenvalues --    0.12268   0.12723   0.12943   0.13248   0.13714
  Beta virt. eigenvalues --    0.14341   0.14785   0.15189   0.15329   0.15794
  Beta virt. eigenvalues --    0.16003   0.16463   0.16663   0.17173   0.17783
  Beta virt. eigenvalues --    0.17910   0.19407   0.19984   0.20166   0.20529
  Beta virt. eigenvalues --    0.21556   0.22020   0.22935   0.23291   0.24742
  Beta virt. eigenvalues --    0.24941   0.25496   0.25842   0.26544   0.26977
  Beta virt. eigenvalues --    0.27049   0.28346   0.29992   0.30839   0.30970
  Beta virt. eigenvalues --    0.31929   0.33005   0.33701   0.33789   0.34551
  Beta virt. eigenvalues --    0.35046   0.37505   0.37685   0.38074   0.38545
  Beta virt. eigenvalues --    0.39071   0.39840   0.40092   0.40313   0.40748
  Beta virt. eigenvalues --    0.41495   0.41837   0.42294   0.42366   0.42524
  Beta virt. eigenvalues --    0.43194   0.43281   0.43613   0.43854   0.44677
  Beta virt. eigenvalues --    0.45057   0.45147   0.45961   0.46233   0.46789
  Beta virt. eigenvalues --    0.47229   0.47484   0.47651   0.48205   0.48393
  Beta virt. eigenvalues --    0.48785   0.49526   0.49802   0.50221   0.50505
  Beta virt. eigenvalues --    0.50840   0.51144   0.51991   0.52277   0.52717
  Beta virt. eigenvalues --    0.53171   0.53781   0.54123   0.54570   0.55000
  Beta virt. eigenvalues --    0.55274   0.55499   0.55851   0.56372   0.56692
  Beta virt. eigenvalues --    0.57147   0.57218   0.57404   0.57696   0.58105
  Beta virt. eigenvalues --    0.58468   0.59792   0.59988   0.60078   0.60518
  Beta virt. eigenvalues --    0.61256   0.61690   0.62152   0.62709   0.62978
  Beta virt. eigenvalues --    0.63445   0.64106   0.64820   0.65101   0.65611
  Beta virt. eigenvalues --    0.66470   0.66733   0.66906   0.67674   0.67898
  Beta virt. eigenvalues --    0.68014   0.68486   0.68684   0.68954   0.69371
  Beta virt. eigenvalues --    0.69651   0.69917   0.70228   0.70898   0.71458
  Beta virt. eigenvalues --    0.71795   0.72890   0.73308   0.73601   0.74027
  Beta virt. eigenvalues --    0.74589   0.75942   0.76570   0.77384   0.77456
  Beta virt. eigenvalues --    0.77564   0.77993   0.78353   0.78725   0.78919
  Beta virt. eigenvalues --    0.79085   0.79842   0.80197   0.81234   0.81535
  Beta virt. eigenvalues --    0.81576   0.82475   0.82545   0.82819   0.83115
  Beta virt. eigenvalues --    0.83206   0.83722   0.83835   0.84028   0.84377
  Beta virt. eigenvalues --    0.84852   0.85091   0.85241   0.86022   0.86346
  Beta virt. eigenvalues --    0.86745   0.87259   0.87711   0.87812   0.88923
  Beta virt. eigenvalues --    0.89576   0.89727   0.89930   0.90422   0.90891
  Beta virt. eigenvalues --    0.91073   0.91574   0.92021   0.92337   0.92950
  Beta virt. eigenvalues --    0.93580   0.93846   0.94301   0.94515   0.95042
  Beta virt. eigenvalues --    0.95501   0.96778   0.96958   0.97371   0.97691
  Beta virt. eigenvalues --    0.98736   0.99217   1.00937   1.01485   1.03073
  Beta virt. eigenvalues --    1.03504   1.04691   1.05177   1.06527   1.07001
  Beta virt. eigenvalues --    1.07379   1.07831   1.08329   1.08711   1.09442
  Beta virt. eigenvalues --    1.09881   1.10146   1.10750   1.10863   1.11378
  Beta virt. eigenvalues --    1.11844   1.12613   1.13211   1.14321   1.14683
  Beta virt. eigenvalues --    1.15354   1.16456   1.17640   1.18341   1.19039
  Beta virt. eigenvalues --    1.19959   1.20069   1.20889   1.21201   1.21936
  Beta virt. eigenvalues --    1.22894   1.23641   1.23932   1.25090   1.25721
  Beta virt. eigenvalues --    1.26287   1.26781   1.27219   1.27652   1.27746
  Beta virt. eigenvalues --    1.27913   1.28536   1.28750   1.29053   1.30103
  Beta virt. eigenvalues --    1.30727   1.31159   1.32218   1.33104   1.33749
  Beta virt. eigenvalues --    1.33772   1.35909   1.37082   1.37460   1.38170
  Beta virt. eigenvalues --    1.38397   1.39603   1.41163   1.41241   1.43567
  Beta virt. eigenvalues --    1.43979   1.44326   1.44825   1.45756   1.46162
  Beta virt. eigenvalues --    1.46770   1.48165   1.49565   1.50168   1.50559
  Beta virt. eigenvalues --    1.51623   1.52147   1.52992   1.54087   1.55679
  Beta virt. eigenvalues --    1.56418   1.57084   1.58079   1.60102   1.60144
  Beta virt. eigenvalues --    1.61256   1.61748   1.63053   1.64808   1.67961
  Beta virt. eigenvalues --    1.68688   1.69114   1.69461   1.69926   1.70301
  Beta virt. eigenvalues --    1.70537   1.70779   1.71676   1.72039   1.72355
  Beta virt. eigenvalues --    1.72801   1.73427   1.73580   1.74684   1.74766
  Beta virt. eigenvalues --    1.75196   1.75734   1.77069   1.77378   1.77765
  Beta virt. eigenvalues --    1.78246   1.79304   1.79748   1.80000   1.80598
  Beta virt. eigenvalues --    1.81434   1.82095   1.82380   1.83235   1.83767
  Beta virt. eigenvalues --    1.83931   1.84976   1.85350   1.85955   1.88019
  Beta virt. eigenvalues --    1.89265   1.90069   1.90397   1.90651   1.90963
  Beta virt. eigenvalues --    1.91156   1.91818   1.92696   1.93854   1.94670
  Beta virt. eigenvalues --    1.94906   1.95211   1.95746   1.96384   1.96969
  Beta virt. eigenvalues --    1.98168   1.98878   1.99548   2.00612   2.01340
  Beta virt. eigenvalues --    2.02216   2.03088   2.03681   2.04036   2.05608
  Beta virt. eigenvalues --    2.06007   2.06312   2.06825   2.07984   2.08561
  Beta virt. eigenvalues --    2.09326   2.09866   2.10195   2.11200   2.12779
  Beta virt. eigenvalues --    2.13251   2.13639   2.14364   2.14710   2.15379
  Beta virt. eigenvalues --    2.15658   2.16136   2.16864   2.17165   2.17355
  Beta virt. eigenvalues --    2.17984   2.18632   2.19132   2.19679   2.20071
  Beta virt. eigenvalues --    2.20437   2.20759   2.21353   2.21826   2.22182
  Beta virt. eigenvalues --    2.23223   2.24601   2.24749   2.25440   2.26317
  Beta virt. eigenvalues --    2.26395   2.27300   2.27479   2.27657   2.28028
  Beta virt. eigenvalues --    2.28747   2.30260   2.30769   2.31090   2.31423
  Beta virt. eigenvalues --    2.31970   2.33094   2.33777   2.34185   2.34541
  Beta virt. eigenvalues --    2.35139   2.35562   2.36891   2.37770   2.39389
  Beta virt. eigenvalues --    2.40953   2.42230   2.42321   2.42690   2.43291
  Beta virt. eigenvalues --    2.43360   2.44850   2.45411   2.46105   2.46483
  Beta virt. eigenvalues --    2.47150   2.49006   2.50128   2.50620   2.50715
  Beta virt. eigenvalues --    2.52712   2.55212   2.56277   2.56637   2.57940
  Beta virt. eigenvalues --    2.58393   2.59443   2.60112   2.61288   2.62587
  Beta virt. eigenvalues --    2.63519   2.65541   2.67664   2.67937   2.69720
  Beta virt. eigenvalues --    2.70423   2.71329   2.76035   2.76918   2.77485
  Beta virt. eigenvalues --    2.78579   2.80379   2.81277   2.82441   2.84542
  Beta virt. eigenvalues --    2.86494   2.86679   2.87830   2.88709   2.89166
  Beta virt. eigenvalues --    2.89411   2.90665   2.94270   2.94696   2.95327
  Beta virt. eigenvalues --    3.02072   3.03734   3.04167   3.10219   3.13002
  Beta virt. eigenvalues --    3.13237   3.19818   3.20056   3.28098   3.29335
  Beta virt. eigenvalues --    3.30122   3.33666   3.35833   3.36090   3.47012
  Beta virt. eigenvalues --    3.55860   3.75862   3.93213   4.06587
          Condensed to atoms (all electrons):
          Atomic-Atomic Spin Densities.
 Mulliken charges and spin densities:
               1          2
     1  Fe   0.907414   1.266922
     2  N   -0.690209  -0.060595
     3  N   -0.690343  -0.059937
     4  N   -0.697412  -0.060752
     5  N   -0.685823  -0.060547
     6  C    0.316830   0.012857
     7  C    0.045137   0.017742
     8  C    0.039520  -0.003996
     9  C    0.334929   0.024759
    10  C    0.334968   0.025345
    11  C    0.041738  -0.003831
    12  C    0.045060   0.018104
    13  C    0.320327   0.013429
    14  C    0.320737   0.013608
    15  C    0.011741   0.017191
    16  C    0.044232  -0.003808
    17  C    0.331177   0.021489
    18  C    0.332315   0.022526
    19  C    0.009854  -0.002483
    20  C    0.045253   0.015707
    21  C    0.299326   0.012222
    22  C   -0.301157  -0.039970
    23  H    0.196634   0.001920
    24  C   -0.290109  -0.043472
    25  H    0.196798   0.002047
    26  C   -0.294419  -0.042143
    27  H    0.197258   0.001992
    28  C   -0.282116  -0.042376
    29  H    0.198516   0.002081
    30  C   -0.611807  -0.001442
    31  H    0.197862   0.000931
    32  H    0.210309   0.000911
    33  H    0.206305  -0.000052
    34  C   -0.612751  -0.000365
    35  H    0.208705   0.000116
    36  H    0.202504   0.000146
    37  H    0.204923  -0.000179
    38  C   -0.614405  -0.001298
    39  H    0.212027   0.001042
    40  H    0.188696   0.000522
    41  H    0.213058   0.000021
    42  C   -0.154216  -0.000259
    43  H    0.177278   0.000037
    44  C   -0.388093  -0.000191
    45  H    0.190681   0.000003
    46  H    0.194924   0.000010
    47  C   -0.614340  -0.000338
    48  H    0.212030   0.000135
    49  H    0.193118   0.000148
    50  H    0.211688  -0.000249
    51  C   -0.154779  -0.005992
    52  H    0.176167   0.000552
    53  C   -0.386378   0.009644
    54  H    0.192316  -0.000467
    55  H    0.194871  -0.000443
    56  C   -0.612725  -0.001460
    57  H    0.211637   0.000955
    58  H    0.199104   0.000921
    59  H    0.205857  -0.000053
    60  C   -0.612607  -0.000378
    61  H    0.205112  -0.000164
    62  H    0.203157   0.000166
    63  H    0.207402   0.000110
    64  C   -0.602529  -0.000194
    65  H    0.216914  -0.000096
    66  H    0.216278  -0.000078
    67  H    0.222703  -0.000058
    68  N   -0.629412  -0.001637
    69  H    0.390070  -0.000307
    70  C    0.285156  -0.002455
    71  C    0.263021   0.002953
    72  H    0.234761  -0.000062
    73  N   -0.465457  -0.070178
    74  C   -0.040688   0.003214
    75  H    0.213376  -0.000173
 Sum of Mulliken charges =   1.00000   1.00000
 Mulliken charges and spin densities with hydrogens summed into heavy atoms:
               1          2
     1  Fe   0.907414   1.266922
     2  N   -0.690209  -0.060595
     3  N   -0.690343  -0.059937
     4  N   -0.697412  -0.060752
     5  N   -0.685823  -0.060547
     6  C    0.316830   0.012857
     7  C    0.045137   0.017742
     8  C    0.039520  -0.003996
     9  C    0.334929   0.024759
    10  C    0.334968   0.025345
    11  C    0.041738  -0.003831
    12  C    0.045060   0.018104
    13  C    0.320327   0.013429
    14  C    0.320737   0.013608
    15  C    0.011741   0.017191
    16  C    0.044232  -0.003808
    17  C    0.331177   0.021489
    18  C    0.332315   0.022526
    19  C    0.009854  -0.002483
    20  C    0.045253   0.015707
    21  C    0.299326   0.012222
    22  C   -0.104523  -0.038050
    24  C   -0.093311  -0.041424
    26  C   -0.097161  -0.040151
    28  C   -0.083600  -0.040295
    30  C    0.002670   0.000348
    34  C    0.003381  -0.000283
    38  C   -0.000624   0.000287
    42  C    0.023061  -0.000222
    44  C   -0.002488  -0.000179
    47  C    0.002496  -0.000303
    51  C    0.021389  -0.005440
    53  C    0.000809   0.008734
    56  C    0.003874   0.000363
    60  C    0.003065  -0.000266
    64  C    0.053366  -0.000425
    68  N   -0.239342  -0.001944
    70  C    0.285156  -0.002455
    71  C    0.497783   0.002891
    73  N   -0.465457  -0.070178
    74  C    0.172687   0.003041
 Electronic spatial extent (au):  <R**2>=          19743.0202
 Charge=              1.0000 electrons
 Dipole moment (field-independent basis, Debye):
    X=             -0.8108    Y=              1.0518    Z=              6.1919  Tot=              6.3328
 Quadrupole moment (field-independent basis, Debye-Ang):
   XX=           -169.4553   YY=           -177.7011   ZZ=           -204.7220
   XY=             -1.1966   XZ=             -3.3186   YZ=              0.5431
 Traceless Quadrupole moment (field-independent basis, Debye-Ang):
   XX=             14.5042   YY=              6.2584   ZZ=            -20.7626
   XY=             -1.1966   XZ=             -3.3186   YZ=              0.5431
 Octapole moment (field-independent basis, Debye-Ang**2):
  XXX=              1.5297  YYY=             17.7726  ZZZ=            216.5012  XYY=             -7.1661
  XXY=             -7.5938  XXZ=            -20.7211  XZZ=            -11.0486  YZZ=             10.7398
  YYZ=            -61.7963  XYZ=              3.6044
 Hexadecapole moment (field-independent basis, Debye-Ang**3):
 XXXX=         -10149.8645 YYYY=          -9874.4547 ZZZZ=          -2318.3001 XXXY=            -24.3358
 XXXZ=              8.5747 YYYX=             39.0370 YYYZ=              6.4394 ZZZX=            -37.3023
 ZZZY=              7.8711 XXYY=          -3139.3449 XXZZ=          -2446.5839 YYZZ=          -2483.8802
 XXYZ=             70.2295 YYXZ=            -36.1724 ZZXY=            -36.5445
 N-N= 5.565778151424D+03 E-N=-1.792515077423D+04  KE= 2.895899556205D+03
                          Isotropic Fermi Contact Couplings
        Atom                 a.u.       MegaHertz       Gauss      10(-4) cm-1
     1  Fe(57)             0.16100      23.35079       8.33214       7.78899
     2  N(14)             -0.03308     -10.68831      -3.81385      -3.56524
     3  N(14)             -0.03132     -10.12046      -3.61123      -3.37582
     4  N(14)             -0.03188     -10.30202      -3.67602      -3.43639
     5  N(14)             -0.03159     -10.20578      -3.64168      -3.40428
     6  C(13)              0.00314       3.52996       1.25958       1.17747
     7  C(13)              0.00202       2.27276       0.81098       0.75811
     8  C(13)             -0.00177      -1.98816      -0.70943      -0.66318
     9  C(13)              0.00226       2.53770       0.90551       0.84649
    10  C(13)              0.00257       2.88581       1.02973       0.96260
    11  C(13)             -0.00164      -1.84471      -0.65824      -0.61533
    12  C(13)              0.00207       2.32222       0.82863       0.77461
    13  C(13)              0.00322       3.61707       1.29066       1.20652
    14  C(13)              0.00337       3.78428       1.35032       1.26230
    15  C(13)              0.00190       2.13269       0.76100       0.71139
    16  C(13)             -0.00173      -1.93927      -0.69198      -0.64687
    17  C(13)              0.00192       2.15682       0.76961       0.71944
    18  C(13)              0.00243       2.73105       0.97451       0.91098
    19  C(13)             -0.00156      -1.75094      -0.62478      -0.58405
    20  C(13)              0.00173       1.94280       0.69324       0.64805
    21  C(13)              0.00294       3.30772       1.18028       1.10334
    22  C(13)             -0.00538      -6.05325      -2.15995      -2.01915
    23  H(1)               0.00065       2.90266       1.03574       0.96822
    24  C(13)             -0.00599      -6.73547      -2.40338      -2.24671
    25  H(1)               0.00070       3.11047       1.10989       1.03754
    26  C(13)             -0.00576      -6.47274      -2.30963      -2.15907
    27  H(1)               0.00068       3.01855       1.07709       1.00688
    28  C(13)             -0.00582      -6.54324      -2.33479      -2.18259
    29  H(1)               0.00069       3.10432       1.10770       1.03549
    30  C(13)             -0.00052      -0.58246      -0.20783      -0.19429
    31  H(1)               0.00046       2.06129       0.73552       0.68757
    32  H(1)               0.00044       1.95296       0.69686       0.65144
    33  H(1)              -0.00002      -0.10079      -0.03596      -0.03362
    34  C(13)             -0.00022      -0.24294      -0.08669      -0.08104
    35  H(1)               0.00002       0.07492       0.02673       0.02499
    36  H(1)               0.00004       0.17306       0.06175       0.05773
    37  H(1)              -0.00008      -0.35740      -0.12753      -0.11922
    38  C(13)             -0.00045      -0.50590      -0.18052      -0.16875
    39  H(1)               0.00053       2.35583       0.84062       0.78582
    40  H(1)               0.00024       1.07813       0.38470       0.35962
    41  H(1)               0.00002       0.10209       0.03643       0.03405
    42  C(13)             -0.00014      -0.16275      -0.05807      -0.05429
    43  H(1)               0.00002       0.07323       0.02613       0.02443
    44  C(13)              0.00002       0.02470       0.00881       0.00824
    45  H(1)               0.00000       0.01247       0.00445       0.00416
    46  H(1)              -0.00001      -0.02592      -0.00925      -0.00865
    47  C(13)             -0.00017      -0.18764      -0.06696      -0.06259
    48  H(1)               0.00005       0.20157       0.07193       0.06724
    49  H(1)               0.00005       0.22056       0.07870       0.07357
    50  H(1)              -0.00009      -0.42423      -0.15138      -0.14151
    51  C(13)             -0.00112      -1.25399      -0.44745      -0.41829
    52  H(1)               0.00022       0.98405       0.35113       0.32824
    53  C(13)              0.00149       1.67772       0.59865       0.55963
    54  H(1)              -0.00015      -0.65355      -0.23320      -0.21800
    55  H(1)              -0.00014      -0.62567      -0.22326      -0.20870
    56  C(13)             -0.00053      -0.59101      -0.21089      -0.19714
    57  H(1)               0.00047       2.09503       0.74756       0.69883
    58  H(1)               0.00046       2.03849       0.72738       0.67997
    59  H(1)              -0.00002      -0.10114      -0.03609      -0.03374
    60  C(13)             -0.00021      -0.24160      -0.08621      -0.08059
    61  H(1)              -0.00008      -0.33537      -0.11967      -0.11187
    62  H(1)               0.00004       0.19054       0.06799       0.06356
    63  H(1)               0.00002       0.08284       0.02956       0.02763
    64  C(13)             -0.00001      -0.00804      -0.00287      -0.00268
    65  H(1)              -0.00005      -0.23118      -0.08249      -0.07711
    66  H(1)              -0.00004      -0.18816      -0.06714      -0.06276
    67  H(1)              -0.00003      -0.15462      -0.05517      -0.05158
    68  N(14)             -0.00386      -1.24657      -0.44481      -0.41581
    69  H(1)              -0.00016      -0.70663      -0.25214      -0.23571
    70  C(13)             -0.00255      -2.86366      -1.02183      -0.95522
    71  C(13)             -0.00183      -2.05382      -0.73285      -0.68508
    72  H(1)              -0.00025      -1.11995      -0.39963      -0.37358
    73  N(14)             -0.08499     -27.45930      -9.79816      -9.15944
    74  C(13)              0.00129       1.44474       0.51552       0.48191
    75  H(1)              -0.00034      -1.52321      -0.54352      -0.50809
 --------------------------------------------------------
       Center         ----  Spin Dipole Couplings  ----
                      3XX-RR        3YY-RR        3ZZ-RR
 --------------------------------------------------------
     1   Atom       -0.715227     -0.059496      0.774724
     2   Atom        0.035069      0.031446     -0.066515
     3   Atom        0.034998      0.028192     -0.063190
     4   Atom        0.035044      0.025796     -0.060840
     5   Atom        0.027338      0.025537     -0.052876
     6   Atom        0.002578     -0.006192      0.003615
     7   Atom       -0.008412     -0.009970      0.018382
     8   Atom       -0.002556      0.001554      0.001002
     9   Atom       -0.013377     -0.008450      0.021827
    10   Atom       -0.011181     -0.010772      0.021952
    11   Atom       -0.002235      0.001239      0.000996
    12   Atom       -0.007812     -0.011068      0.018879
    13   Atom        0.005236     -0.009365      0.004129
    14   Atom        0.002564     -0.006827      0.004263
    15   Atom       -0.008066     -0.009604      0.017670
    16   Atom       -0.002605      0.001784      0.000821
    17   Atom       -0.011977     -0.006014      0.017991
    18   Atom       -0.009395     -0.008900      0.018294
    19   Atom       -0.002479      0.000799      0.001680
    20   Atom       -0.005830     -0.009887      0.015716
    21   Atom        0.005630     -0.008684      0.003054
    22   Atom        0.025533      0.014416     -0.039949
    23   Atom        0.000784      0.000931     -0.001716
    24   Atom        0.015683      0.026350     -0.042032
    25   Atom        0.000852      0.000842     -0.001693
    26   Atom        0.026952      0.015596     -0.042548
    27   Atom        0.000661      0.001046     -0.001707
    28   Atom        0.015312      0.026320     -0.041632
    29   Atom        0.000784      0.000890     -0.001673
    30   Atom        0.001104     -0.000626     -0.000478
    31   Atom        0.001200     -0.000508     -0.000691
    32   Atom        0.001187     -0.000515     -0.000672
    33   Atom        0.000547      0.000090     -0.000637
    34   Atom       -0.000350      0.001004     -0.000653
    35   Atom       -0.000608      0.001222     -0.000613
    36   Atom       -0.000617      0.001310     -0.000693
    37   Atom       -0.000353      0.000916     -0.000563
    38   Atom        0.001474     -0.000931     -0.000543
    39   Atom        0.001264     -0.000659     -0.000605
    40   Atom        0.001450     -0.000711     -0.000739
    41   Atom        0.000903     -0.000276     -0.000627
    42   Atom       -0.000074      0.000757     -0.000683
    43   Atom       -0.000538      0.001219     -0.000681
    44   Atom        0.000224      0.000505     -0.000729
    45   Atom        0.000251      0.000276     -0.000527
    46   Atom       -0.000042      0.000378     -0.000336
    47   Atom       -0.000285      0.001013     -0.000727
    48   Atom       -0.000473      0.001060     -0.000587
    49   Atom       -0.000684      0.001382     -0.000698
    50   Atom       -0.000285      0.000898     -0.000613
    51   Atom        0.003160     -0.000277     -0.002883
    52   Atom        0.001308     -0.000475     -0.000833
    53   Atom       -0.004038      0.001479      0.002559
    54   Atom       -0.000035      0.000438     -0.000403
    55   Atom        0.000998     -0.000410     -0.000588
    56   Atom        0.001437     -0.000973     -0.000464
    57   Atom        0.001343     -0.000706     -0.000637
    58   Atom        0.001448     -0.000719     -0.000728
    59   Atom        0.000919     -0.000272     -0.000647
    60   Atom       -0.000149      0.000848     -0.000699
    61   Atom       -0.000061      0.000638     -0.000578
    62   Atom       -0.000425      0.001130     -0.000705
    63   Atom       -0.000404      0.001024     -0.000619
    64   Atom       -0.000429     -0.000479      0.000908
    65   Atom       -0.000509     -0.000565      0.001075
    66   Atom       -0.000482     -0.000610      0.001092
    67   Atom       -0.000423     -0.000677      0.001100
    68   Atom       -0.000248      0.001028     -0.000781
    69   Atom       -0.001062     -0.000837      0.001899
    70   Atom       -0.000489     -0.001091      0.001580
    71   Atom       -0.007695     -0.002824      0.010519
    72   Atom        0.000173     -0.004302      0.004129
    73   Atom        0.044024      0.028883     -0.072907
    74   Atom       -0.004586     -0.004121      0.008707
    75   Atom        0.000701     -0.004549      0.003847
 --------------------------------------------------------
                        XY            XZ            YZ
 --------------------------------------------------------
     1   Atom        0.101802      0.117270      0.007498
     2   Atom        0.000200     -0.020112      0.033000
     3   Atom       -0.000971      0.025787      0.031351
     4   Atom        0.001146      0.021723     -0.038353
     5   Atom       -0.006927     -0.038303     -0.036333
     6   Atom       -0.008464     -0.000588      0.000936
     7   Atom       -0.002234      0.000774      0.001786
     8   Atom       -0.000294      0.000939     -0.000765
     9   Atom       -0.006910     -0.000366      0.000731
    10   Atom        0.007441     -0.000605     -0.000006
    11   Atom        0.001176     -0.001405     -0.000685
    12   Atom        0.001842     -0.000615      0.000026
    13   Atom        0.006264     -0.000083     -0.000493
    14   Atom       -0.008343     -0.000217      0.000189
    15   Atom       -0.002299     -0.000887      0.000803
    16   Atom       -0.000486     -0.002017      0.001433
    17   Atom       -0.006978     -0.000867      0.002678
    18   Atom        0.007928      0.004018      0.003518
    19   Atom        0.001301      0.002578      0.001272
    20   Atom        0.001935      0.004578      0.001187
    21   Atom        0.006081      0.000406      0.000668
    22   Atom       -0.001407     -0.004645     -0.003019
    23   Atom        0.000009      0.000076     -0.000188
    24   Atom        0.001026      0.001813     -0.003103
    25   Atom       -0.000014      0.000104      0.000130
    26   Atom       -0.001092      0.001528      0.001183
    27   Atom        0.000021     -0.000233      0.000073
    28   Atom        0.001137     -0.001708      0.002797
    29   Atom       -0.000000     -0.000103     -0.000074
    30   Atom       -0.001063      0.000197     -0.000076
    31   Atom       -0.000708     -0.000350      0.000028
    32   Atom       -0.000663      0.000446     -0.000049
    33   Atom       -0.001031      0.000094     -0.000058
    34   Atom       -0.000469      0.000113     -0.000421
    35   Atom       -0.000413      0.000088     -0.000401
    36   Atom       -0.000383     -0.000044      0.000110
    37   Atom       -0.000691      0.000044     -0.000145
    38   Atom        0.000699      0.000055     -0.000018
    39   Atom        0.000474      0.000294      0.000017
    40   Atom        0.000223     -0.000426      0.000025
    41   Atom        0.000876     -0.000247     -0.000119
    42   Atom        0.000819     -0.000038      0.000394
    43   Atom        0.000619     -0.000040     -0.000118
    44   Atom        0.000968     -0.000057     -0.000499
    45   Atom        0.000729      0.000126      0.000210
    46   Atom        0.000428      0.000034      0.000078
    47   Atom       -0.000593     -0.000058      0.000399
    48   Atom       -0.000446     -0.000085      0.000328
    49   Atom       -0.000300      0.000015     -0.000110
    50   Atom       -0.000663     -0.000055     -0.000068
    51   Atom       -0.001687      0.000075      0.003209
    52   Atom       -0.000799      0.000007      0.000046
    53   Atom       -0.000445     -0.000445     -0.006807
    54   Atom       -0.000266      0.000041      0.000410
    55   Atom       -0.000579     -0.000087     -0.000217
    56   Atom        0.000683     -0.000248     -0.000071
    57   Atom        0.000323     -0.000479      0.000031
    58   Atom        0.000313      0.000329     -0.000055
    59   Atom        0.000887     -0.000072     -0.000029
    60   Atom        0.000708     -0.000178     -0.000371
    61   Atom        0.000884     -0.000050     -0.000097
    62   Atom        0.000719      0.000076      0.000151
    63   Atom        0.000701     -0.000142     -0.000342
    64   Atom       -0.000013      0.000434     -0.000069
    65   Atom       -0.000080      0.000297     -0.000287
    66   Atom        0.000039      0.000341      0.000120
    67   Atom       -0.000051      0.000830     -0.000139
    68   Atom        0.000349     -0.001972      0.000884
    69   Atom        0.000057     -0.000523     -0.000006
    70   Atom       -0.000134      0.001508     -0.000069
    71   Atom        0.000162     -0.003990      0.000603
    72   Atom       -0.000376     -0.006966      0.000581
    73   Atom       -0.001657     -0.004645      0.001120
    74   Atom       -0.000005      0.005536     -0.000825
    75   Atom       -0.000796      0.007522     -0.001077
 --------------------------------------------------------


 ---------------------------------------------------------------------------------
              Anisotropic Spin Dipole Couplings in Principal Axis System
 ---------------------------------------------------------------------------------

       Atom             a.u.   MegaHertz   Gauss  10(-4) cm-1        Axes

              Baa    -0.7394   -12.801    -4.568    -4.270  0.9863 -0.1468 -0.0757
     1 Fe(57) Bbb    -0.0448    -0.776    -0.277    -0.259  0.1450  0.9890 -0.0298
              Bcc     0.7842    13.576     4.844     4.529  0.0792  0.0184  0.9967
 
              Baa    -0.0798    -3.079    -1.099    -1.027  0.1659 -0.2806  0.9454
     2 N(14)  Bbb     0.0341     1.315     0.469     0.439  0.7870  0.6153  0.0445
              Bcc     0.0458     1.765     0.630     0.589 -0.5942  0.7366  0.3230
 
              Baa    -0.0784    -3.024    -1.079    -1.009 -0.2153 -0.2773  0.9363
     3 N(14)  Bbb     0.0325     1.254     0.448     0.418 -0.6192  0.7802  0.0887
              Bcc     0.0459     1.769     0.631     0.590  0.7551  0.5607  0.3397
 
              Baa    -0.0792    -3.053    -1.089    -1.018 -0.1791  0.3394  0.9234
     4 N(14)  Bbb     0.0330     1.273     0.454     0.425  0.7342  0.6709 -0.1042
              Bcc     0.0461     1.780     0.635     0.594 -0.6549  0.6593 -0.3693
 
              Baa    -0.0807    -3.112    -1.110    -1.038  0.3345  0.3245  0.8848
     5 N(14)  Bbb     0.0332     1.281     0.457     0.427 -0.6372  0.7696 -0.0413
              Bcc     0.0475     1.830     0.653     0.611  0.6943  0.5500 -0.4642
 
              Baa    -0.0114    -1.524    -0.544    -0.508  0.5179  0.8548 -0.0331
     6 C(13)  Bbb     0.0034     0.457     0.163     0.152  0.2076 -0.0880  0.9743
              Bcc     0.0080     1.067     0.381     0.356  0.8299 -0.5114 -0.2230
 
              Baa    -0.0117    -1.567    -0.559    -0.523  0.5737  0.8166 -0.0633
     7 C(13)  Bbb    -0.0068    -0.917    -0.327    -0.306  0.8187 -0.5740  0.0155
              Bcc     0.0185     2.484     0.886     0.828  0.0236  0.0607  0.9979
 
              Baa    -0.0028    -0.375    -0.134    -0.125  0.9715  0.0243 -0.2356
     8 C(13)  Bbb     0.0006     0.076     0.027     0.025  0.1671  0.6345  0.7546
              Bcc     0.0022     0.299     0.107     0.100 -0.1678  0.7725 -0.6124
 
              Baa    -0.0182    -2.449    -0.874    -0.817  0.8172  0.5764 -0.0031
     9 C(13)  Bbb    -0.0036    -0.484    -0.173    -0.161 -0.5762  0.8167 -0.0318
              Bcc     0.0219     2.932     1.046     0.978 -0.0158  0.0277  0.9995
 
              Baa    -0.0184    -2.472    -0.882    -0.825  0.7169 -0.6971  0.0107
    10 C(13)  Bbb    -0.0035    -0.475    -0.169    -0.158  0.6969  0.7170  0.0167
              Bcc     0.0220     2.947     1.052     0.983 -0.0193 -0.0046  0.9998
 
              Baa    -0.0029    -0.396    -0.141    -0.132  0.9315 -0.2134  0.2946
    11 C(13)  Bbb     0.0004     0.059     0.021     0.020 -0.0631  0.7026  0.7087
              Bcc     0.0025     0.336     0.120     0.112  0.3583  0.6788 -0.6410
 
              Baa    -0.0119    -1.597    -0.570    -0.533 -0.4118  0.9112 -0.0090
    12 C(13)  Bbb    -0.0070    -0.938    -0.335    -0.313  0.9110  0.4119  0.0212
              Bcc     0.0189     2.535     0.905     0.846 -0.0231 -0.0005  0.9997
 
              Baa    -0.0117    -1.569    -0.560    -0.524 -0.3467  0.9376  0.0274
    13 C(13)  Bbb     0.0041     0.553     0.197     0.185  0.0772 -0.0006  0.9970
              Bcc     0.0076     1.016     0.363     0.339  0.9348  0.3478 -0.0722
 
              Baa    -0.0117    -1.571    -0.560    -0.524  0.5047  0.8633 -0.0034
    14 C(13)  Bbb     0.0042     0.569     0.203     0.190  0.0776 -0.0415  0.9961
              Bcc     0.0075     1.002     0.358     0.334  0.8598 -0.5030 -0.0880
 
              Baa    -0.0113    -1.511    -0.539    -0.504  0.5833  0.8122 -0.0047
    15 C(13)  Bbb    -0.0065    -0.868    -0.310    -0.290  0.8114 -0.5825  0.0492
              Bcc     0.0177     2.379     0.849     0.794 -0.0372  0.0325  0.9988
 
              Baa    -0.0035    -0.476    -0.170    -0.159  0.9031 -0.0328  0.4282
    16 C(13)  Bbb     0.0003     0.036     0.013     0.012  0.3255  0.7025 -0.6329
              Bcc     0.0033     0.440     0.157     0.147 -0.2801  0.7109  0.6451
 
              Baa    -0.0166    -2.228    -0.795    -0.743  0.8322  0.5541 -0.0220
    17 C(13)  Bbb    -0.0018    -0.239    -0.085    -0.080 -0.5516  0.8230 -0.1357
              Bcc     0.0184     2.466     0.880     0.823 -0.0570  0.1250  0.9905
 
              Baa    -0.0171    -2.293    -0.818    -0.765  0.7210 -0.6928 -0.0130
    18 C(13)  Bbb    -0.0026    -0.345    -0.123    -0.115  0.6691  0.7010 -0.2470
              Bcc     0.0197     2.638     0.941     0.880  0.1802  0.1694  0.9689
 
              Baa    -0.0038    -0.511    -0.182    -0.170  0.9078 -0.1482 -0.3923
    19 C(13)  Bbb    -0.0001    -0.010    -0.003    -0.003 -0.0789  0.8584 -0.5069
              Bcc     0.0039     0.520     0.186     0.174  0.4118  0.4911  0.7676
 
              Baa    -0.0107    -1.433    -0.511    -0.478 -0.3922  0.9195  0.0267
    20 C(13)  Bbb    -0.0061    -0.813    -0.290    -0.271  0.8972  0.3887 -0.2098
              Bcc     0.0167     2.246     0.802     0.749  0.2033  0.0583  0.9774
 
              Baa    -0.0109    -1.467    -0.524    -0.489 -0.3436  0.9385 -0.0348
    21 C(13)  Bbb     0.0030     0.402     0.143     0.134 -0.1288 -0.0104  0.9916
              Bcc     0.0079     1.066     0.380     0.355  0.9302  0.3452  0.1244
 
              Baa    -0.0405    -5.428    -1.937    -1.811  0.0713  0.0566  0.9958
    22 C(13)  Bbb     0.0145     1.941     0.693     0.648  0.0996  0.9930 -0.0636
              Bcc     0.0260     3.487     1.244     1.163  0.9925 -0.1037 -0.0652
 
              Baa    -0.0017    -0.924    -0.330    -0.308 -0.0304  0.0706  0.9970
    23 H(1)   Bbb     0.0008     0.420     0.150     0.140  0.9993 -0.0206  0.0319
              Bcc     0.0009     0.504     0.180     0.168  0.0228  0.9973 -0.0700
 
              Baa    -0.0422    -5.667    -2.022    -1.890 -0.0321  0.0457  0.9984
    24 C(13)  Bbb     0.0157     2.101     0.750     0.701  0.9957 -0.0852  0.0359
              Bcc     0.0266     3.566     1.272     1.189  0.0867  0.9953 -0.0427
 
              Baa    -0.0017    -0.909    -0.324    -0.303 -0.0408 -0.0511  0.9979
    25 H(1)   Bbb     0.0008     0.449     0.160     0.150  0.5509  0.8320  0.0651
              Bcc     0.0009     0.460     0.164     0.153  0.8336 -0.5524  0.0057
 
              Baa    -0.0426    -5.717    -2.040    -1.907 -0.0223 -0.0207  0.9995
    26 C(13)  Bbb     0.0155     2.083     0.743     0.695  0.0920  0.9955  0.0227
              Bcc     0.0271     3.634     1.297     1.212  0.9955 -0.0925  0.0203
 
              Baa    -0.0017    -0.924    -0.330    -0.308  0.0971 -0.0270  0.9949
    27 H(1)   Bbb     0.0007     0.365     0.130     0.122  0.9945 -0.0374 -0.0981
              Bcc     0.0010     0.560     0.200     0.187  0.0398  0.9989  0.0232
 
              Baa    -0.0418    -5.609    -2.002    -1.871  0.0307 -0.0415  0.9987
    28 C(13)  Bbb     0.0153     2.048     0.731     0.683  0.9950 -0.0936 -0.0345
              Bcc     0.0265     3.561     1.271     1.188  0.0949  0.9947  0.0384
 
              Baa    -0.0017    -0.896    -0.320    -0.299  0.0416  0.0287  0.9987
    29 H(1)   Bbb     0.0008     0.420     0.150     0.140  0.9988 -0.0256 -0.0409
              Bcc     0.0009     0.476     0.170     0.159  0.0244  0.9993 -0.0298
 
              Baa    -0.0011    -0.152    -0.054    -0.051  0.4310  0.9020 -0.0253
    30 C(13)  Bbb    -0.0005    -0.067    -0.024    -0.022 -0.0789  0.0656  0.9947
              Bcc     0.0016     0.219     0.078     0.073  0.8989 -0.4268  0.0995
 
              Baa    -0.0008    -0.451    -0.161    -0.150  0.3439  0.6669  0.6610
    31 H(1)   Bbb    -0.0007    -0.353    -0.126    -0.118 -0.1159 -0.6684  0.7347
              Bcc     0.0015     0.804     0.287     0.268  0.9318 -0.3293 -0.1526
 
              Baa    -0.0008    -0.453    -0.162    -0.151 -0.3519 -0.5919  0.7251
    32 H(1)   Bbb    -0.0007    -0.349    -0.125    -0.117  0.1079  0.7439  0.6596
              Bcc     0.0015     0.802     0.286     0.268  0.9298 -0.3103  0.1979
 
              Baa    -0.0007    -0.394    -0.141    -0.132  0.6254  0.7676 -0.1401
    33 H(1)   Bbb    -0.0006    -0.342    -0.122    -0.114  0.0457  0.1432  0.9886
              Bcc     0.0014     0.737     0.263     0.246  0.7790 -0.6247  0.0545
 
              Baa    -0.0008    -0.101    -0.036    -0.034 -0.0031  0.2322  0.9727
    34 C(13)  Bbb    -0.0005    -0.067    -0.024    -0.022  0.9574  0.2814 -0.0641
              Bcc     0.0012     0.168     0.060     0.056 -0.2886  0.9311 -0.2232
 
              Baa    -0.0007    -0.373    -0.133    -0.124  0.7125  0.0068 -0.7017
    35 H(1)   Bbb    -0.0007    -0.371    -0.132    -0.124  0.6707  0.2875  0.6838
              Bcc     0.0014     0.744     0.265     0.248 -0.2064  0.9578 -0.2002
 
              Baa    -0.0007    -0.383    -0.137    -0.128  0.6268  0.0762  0.7755
    36 H(1)   Bbb    -0.0007    -0.359    -0.128    -0.120  0.7561  0.1811 -0.6289
              Bcc     0.0014     0.742     0.265     0.247 -0.1884  0.9805  0.0559
 
              Baa    -0.0007    -0.353    -0.126    -0.118  0.8893  0.4085  0.2056
    37 H(1)   Bbb    -0.0006    -0.305    -0.109    -0.102 -0.2218 -0.0080  0.9751
              Bcc     0.0012     0.658     0.235     0.219 -0.4000  0.9127 -0.0835
 
              Baa    -0.0011    -0.150    -0.054    -0.050 -0.2609  0.9638  0.0550
    38 C(13)  Bbb    -0.0005    -0.073    -0.026    -0.024 -0.0070 -0.0588  0.9982
              Bcc     0.0017     0.223     0.080     0.074  0.9653  0.2600  0.0221
 
              Baa    -0.0008    -0.420    -0.150    -0.140 -0.2572  0.9089  0.3282
    39 H(1)   Bbb    -0.0006    -0.336    -0.120    -0.112 -0.0563 -0.3531  0.9339
              Bcc     0.0014     0.756     0.270     0.252  0.9647  0.2217  0.1420
 
              Baa    -0.0009    -0.455    -0.162    -0.152  0.2044 -0.4689  0.8593
    40 H(1)   Bbb    -0.0007    -0.372    -0.133    -0.124  0.0035  0.8782  0.4783
              Bcc     0.0016     0.827     0.295     0.276  0.9789  0.0947 -0.1811
 
              Baa    -0.0007    -0.397    -0.142    -0.132 -0.4814  0.8650 -0.1415
    41 H(1)   Bbb    -0.0007    -0.353    -0.126    -0.118  0.0497  0.1882  0.9809
              Bcc     0.0014     0.750     0.268     0.250  0.8751  0.4652 -0.1336
 
              Baa    -0.0009    -0.121    -0.043    -0.040  0.4378 -0.4062  0.8021
    42 C(13)  Bbb    -0.0004    -0.055    -0.020    -0.018  0.7477 -0.3309 -0.5757
              Bcc     0.0013     0.176     0.063     0.059  0.4993  0.8517  0.1589
 
              Baa    -0.0007    -0.392    -0.140    -0.131  0.9529 -0.2990  0.0505
    43 H(1)   Bbb    -0.0007    -0.367    -0.131    -0.122 -0.0304  0.0715  0.9970
              Bcc     0.0014     0.759     0.271     0.253  0.3017  0.9516 -0.0590
 
              Baa    -0.0010    -0.135    -0.048    -0.045 -0.3454  0.4862  0.8027
    44 C(13)  Bbb    -0.0004    -0.056    -0.020    -0.019  0.7031 -0.4324  0.5645
              Bcc     0.0014     0.191     0.068     0.064  0.6216  0.7593 -0.1925
 
              Baa    -0.0006    -0.315    -0.112    -0.105  0.2031 -0.3891  0.8985
    45 H(1)   Bbb    -0.0004    -0.234    -0.084    -0.078  0.6962 -0.5880 -0.4119
              Bcc     0.0010     0.549     0.196     0.183  0.6886  0.7092  0.1515
 
              Baa    -0.0003    -0.185    -0.066    -0.062  0.2142 -0.2288  0.9496
    46 H(1)   Bbb    -0.0003    -0.163    -0.058    -0.054  0.8231 -0.4812 -0.3015
              Bcc     0.0007     0.348     0.124     0.116  0.5259  0.8463  0.0853
 
              Baa    -0.0008    -0.111    -0.040    -0.037 -0.1900 -0.2660  0.9451
    47 C(13)  Bbb    -0.0005    -0.066    -0.023    -0.022  0.9186  0.2916  0.2668
              Bcc     0.0013     0.177     0.063     0.059 -0.3466  0.9188  0.1890
 
              Baa    -0.0007    -0.347    -0.124    -0.116 -0.0080 -0.1902  0.9817
    48 H(1)   Bbb    -0.0006    -0.316    -0.113    -0.106  0.9668  0.2494  0.0562
              Bcc     0.0012     0.663     0.237     0.221 -0.2556  0.9495  0.1818
 
              Baa    -0.0007    -0.388    -0.138    -0.129  0.9897  0.1418  0.0221
    49 H(1)   Bbb    -0.0007    -0.375    -0.134    -0.125 -0.0293  0.0486  0.9984
              Bcc     0.0014     0.763     0.272     0.255 -0.1405  0.9887 -0.0523
 
              Baa    -0.0007    -0.361    -0.129    -0.121  0.5703  0.2733  0.7746
    50 H(1)   Bbb    -0.0005    -0.277    -0.099    -0.092  0.7129  0.3037 -0.6321
              Bcc     0.0012     0.638     0.228     0.213 -0.4079  0.9127 -0.0216
 
              Baa    -0.0052    -0.694    -0.247    -0.231 -0.1234 -0.5737  0.8097
    51 C(13)  Bbb     0.0011     0.143     0.051     0.048  0.5135  0.6613  0.5469
              Bcc     0.0041     0.550     0.196     0.184  0.8492 -0.4833 -0.2130
 
              Baa    -0.0009    -0.459    -0.164    -0.153 -0.1756 -0.4691  0.8655
    52 H(1)   Bbb    -0.0008    -0.402    -0.144    -0.134  0.3114  0.8076  0.5009
              Bcc     0.0016     0.861     0.307     0.287  0.9339 -0.3574 -0.0043
 
              Baa    -0.0052    -0.693    -0.247    -0.231  0.4883  0.6404  0.5928
    53 C(13)  Bbb    -0.0037    -0.495    -0.176    -0.165  0.8726 -0.3599 -0.3301
              Bcc     0.0088     1.187     0.424     0.396 -0.0019 -0.6785  0.7346
 
              Baa    -0.0006    -0.323    -0.115    -0.108 -0.2531 -0.4091  0.8767
    54 H(1)   Bbb    -0.0001    -0.040    -0.014    -0.013  0.9153  0.1923  0.3539
              Bcc     0.0007     0.363     0.130     0.121 -0.3134  0.8920  0.3258
 
              Baa    -0.0008    -0.447    -0.159    -0.149  0.2488  0.6848  0.6849
    55 H(1)   Bbb    -0.0004    -0.196    -0.070    -0.066 -0.2273 -0.6461  0.7286
              Bcc     0.0012     0.643     0.230     0.215  0.9415 -0.3370 -0.0051
 
              Baa    -0.0012    -0.155    -0.055    -0.052 -0.2544  0.9671  0.0076
    56 C(13)  Bbb    -0.0005    -0.066    -0.024    -0.022  0.1190  0.0235  0.9926
              Bcc     0.0016     0.221     0.079     0.074  0.9598  0.2534 -0.1210
 
              Baa    -0.0008    -0.453    -0.162    -0.151 -0.2489  0.7035 -0.6656
    57 H(1)   Bbb    -0.0006    -0.345    -0.123    -0.115  0.0588  0.6970  0.7147
              Bcc     0.0015     0.798     0.285     0.266  0.9667  0.1388 -0.2149
 
              Baa    -0.0009    -0.463    -0.165    -0.154 -0.1922  0.6699  0.7172
    58 H(1)   Bbb    -0.0007    -0.357    -0.127    -0.119 -0.0019  0.7305 -0.6829
              Bcc     0.0015     0.820     0.293     0.273  0.9814  0.1326  0.1392
 
              Baa    -0.0007    -0.398    -0.142    -0.133 -0.4715  0.8777 -0.0862
    59 H(1)   Bbb    -0.0006    -0.346    -0.124    -0.116 -0.0075  0.0937  0.9956
              Bcc     0.0014     0.744     0.266     0.248  0.8819  0.4700 -0.0376
 
              Baa    -0.0008    -0.105    -0.038    -0.035  0.0519  0.1999  0.9784
    60 C(13)  Bbb    -0.0005    -0.069    -0.025    -0.023  0.8915 -0.4508  0.0448
              Bcc     0.0013     0.174     0.062     0.058  0.4500  0.8700 -0.2016
 
              Baa    -0.0007    -0.354    -0.126    -0.118  0.8098 -0.5622 -0.1676
    61 H(1)   Bbb    -0.0006    -0.310    -0.111    -0.104  0.1718 -0.0460  0.9841
              Bcc     0.0012     0.665     0.237     0.222  0.5609  0.8257 -0.0593
 
              Baa    -0.0007    -0.389    -0.139    -0.130 -0.5535  0.1476  0.8196
    62 H(1)   Bbb    -0.0007    -0.372    -0.133    -0.124  0.7490 -0.3420  0.5674
              Bcc     0.0014     0.760     0.271     0.254  0.3640  0.9280  0.0788
 
              Baa    -0.0007    -0.369    -0.132    -0.123  0.8579 -0.2626  0.4416
    63 H(1)   Bbb    -0.0007    -0.367    -0.131    -0.122 -0.3541  0.3207  0.8785
              Bcc     0.0014     0.736     0.263     0.245  0.3723  0.9101 -0.1822
 
              Baa    -0.0006    -0.075    -0.027    -0.025  0.9532 -0.0963 -0.2867
    64 C(13)  Bbb    -0.0005    -0.065    -0.023    -0.022  0.1054  0.9943  0.0165
              Bcc     0.0010     0.140     0.050     0.047  0.2835 -0.0459  0.9579
 
              Baa    -0.0006    -0.335    -0.119    -0.112  0.4107  0.9081  0.0816
    65 H(1)   Bbb    -0.0006    -0.294    -0.105    -0.098  0.8941 -0.3836 -0.2312
              Bcc     0.0012     0.629     0.224     0.210  0.1787 -0.1679  0.9695
 
              Baa    -0.0006    -0.332    -0.118    -0.111 -0.2111  0.9771 -0.0266
    66 H(1)   Bbb    -0.0006    -0.294    -0.105    -0.098  0.9561  0.2008 -0.2134
              Bcc     0.0012     0.625     0.223     0.209  0.2031  0.0705  0.9766
 
              Baa    -0.0008    -0.421    -0.150    -0.140  0.9095 -0.0883 -0.4062
    67 H(1)   Bbb    -0.0007    -0.366    -0.131    -0.122  0.1085  0.9937  0.0268
              Bcc     0.0015     0.787     0.281     0.262  0.4013 -0.0684  0.9134
 
              Baa    -0.0027    -0.105    -0.037    -0.035  0.6264 -0.2337  0.7437
    68 N(14)  Bbb     0.0010     0.040     0.014     0.013  0.5610  0.7975 -0.2219
              Bcc     0.0017     0.065     0.023     0.022 -0.5412  0.5562  0.6306
 
              Baa    -0.0012    -0.619    -0.221    -0.207  0.9717 -0.1684  0.1657
    69 H(1)   Bbb    -0.0008    -0.442    -0.158    -0.147  0.1651  0.9857  0.0337
              Bcc     0.0020     1.061     0.379     0.354 -0.1690 -0.0054  0.9856
 
              Baa    -0.0013    -0.177    -0.063    -0.059  0.8296  0.3641 -0.4233
    70 C(13)  Bbb    -0.0011    -0.142    -0.051    -0.048 -0.3067  0.9307  0.1994
              Bcc     0.0024     0.319     0.114     0.106  0.4666 -0.0356  0.8838
 
              Baa    -0.0085    -1.147    -0.409    -0.382  0.9773 -0.0494  0.2061
    71 C(13)  Bbb    -0.0028    -0.380    -0.136    -0.127  0.0564  0.9980 -0.0282
              Bcc     0.0114     1.527     0.545     0.509 -0.2043  0.0392  0.9781
 
              Baa    -0.0051    -2.718    -0.970    -0.907  0.7942 -0.0660  0.6040
    72 H(1)   Bbb    -0.0043    -2.312    -0.825    -0.771  0.0829  0.9966 -0.0002
              Bcc     0.0094     5.030     1.795     1.678 -0.6020  0.0503  0.7970
 
              Baa    -0.0731    -2.819    -1.006    -0.940  0.0395 -0.0103  0.9992
    73 N(14)  Bbb     0.0287     1.107     0.395     0.369  0.1093  0.9940  0.0060
              Bcc     0.0444     1.712     0.611     0.571  0.9932 -0.1090 -0.0404
 
              Baa    -0.0066    -0.888    -0.317    -0.296  0.9328 -0.1113 -0.3429
    74 C(13)  Bbb    -0.0041    -0.554    -0.198    -0.185  0.1224  0.9924  0.0109
              Bcc     0.0108     1.443     0.515     0.481  0.3391 -0.0522  0.9393
 
              Baa    -0.0054    -2.889    -1.031    -0.964  0.7690 -0.0815 -0.6340
    75 H(1)   Bbb    -0.0047    -2.490    -0.888    -0.830  0.1207  0.9925  0.0188
              Bcc     0.0101     5.379     1.919     1.794  0.6277 -0.0910  0.7731
 

 ---------------------------------------------------------------------------------

 Unable to Open any file for archive entry.
 1\1\GINC-BGN1023\SP\UAPFD\Gen\C34H34Fe1N6(1+,2)\BECSLEIP\10-Sep-2024\0
 \\# apfd/gen scf=maxcycle=999 geom=check\\2xlh_III_D\\1,2\Fe,0,-22.976
 4373207,25.4014527608,8.394696911\N,0,-24.3526989317,25.4458248293,9.8
 55194905\N,0,-24.4586931818,25.2218446334,7.0561826393\N,0,-21.6535292
 59,24.9483660169,6.9674942139\N,0,-21.5455995777,25.2313783632,9.77963
 17634\C,0,-24.1205221834,25.5242859372,11.197575098\C,0,-25.3624716306
 ,25.5567878258,11.9364089919\C,0,-26.3564685764,25.4745279675,11.01267
 42969\C,0,-25.70776313,25.4088603897,9.7222723233\C,0,-25.8004681876,2
 5.2856221434,7.2819251233\C,0,-26.5404533673,25.1776869482,6.045099341
 6\C,0,-25.6143723477,25.0748223562,5.0551783565\C,0,-24.3235234787,25.
 0842623918,5.7067127536\C,0,-21.8850804744,24.8601393478,5.6299304481\
 C,0,-20.6478370482,24.6593026377,4.9025054334\C,0,-19.6546211998,24.64
 30639046,5.8451544346\C,0,-20.3026546907,24.8216861548,7.1188542461\C,
 0,-20.2088315169,25.1006068318,9.5545074625\C,0,-19.4598142938,25.2537
 352878,10.7857306163\C,0,-20.3875431215,25.4973627484,11.7637541156\C,
 0,-21.6724946666,25.4711469266,11.1168784874\C,0,-22.8762329414,25.585
 2983803,11.7908450931\H,0,-22.8402878417,25.699914784,12.8635567859\C,
 0,-26.3944913598,25.3771209429,8.5244799102\H,0,-27.4726998179,25.3896
 407857,8.5650321934\C,0,-23.1283221463,24.932608977,5.0313297093\H,0,-
 23.1749519028,24.8295398974,3.9580171941\C,0,-19.6272516896,24.8659095
 595,8.3243480755\H,0,-18.556605173,24.7332977158,8.2972239339\C,0,-25.
 455861345,25.6352698121,13.4217016044\H,0,-24.9810947967,26.5449182759
 ,13.7907991633\H,0,-24.9558328859,24.7826256896,13.8813224124\H,0,-26.
 4942479844,25.637308445,13.7435253398\C,0,-27.8327800524,25.4470041761
 ,11.2119416926\H,0,-28.2573022268,24.5360115264,10.7902053765\H,0,-28.
 3028261643,26.2988024286,10.7196133489\H,0,-28.0814586973,25.482758394
 9,12.2697046692\C,0,-20.1618033907,25.8012573123,13.2039367713\H,0,-20
 .3046729929,24.9095200326,13.8163498062\H,0,-20.8577148079,26.56360486
 ,13.5518700831\H,0,-19.1458923491,26.1608657745,13.3545007222\C,0,-18.
 0187821896,25.1829514425,10.8898986042\H,0,-17.4690172105,25.532872483
 6,10.0238198365\C,0,-17.3427709686,24.7256891161,11.9387696357\H,0,-17
 .8345386983,24.3192118813,12.8050226196\H,0,-16.265536419,24.713490426
 7,11.9519888394\C,0,-18.1848120583,24.5291516054,5.6390177408\H,0,-17.
 8439319972,23.5103662943,5.829925562\H,0,-17.6477994599,25.1957716918,
 6.3121202627\H,0,-17.9306440469,24.7904894959,4.6138314605\C,0,-20.549
 0865754,24.5328004818,3.4646066005\H,0,-21.2693807651,25.1065154206,2.
 8925342031\C,0,-19.6687188899,23.7770132046,2.8168515666\H,0,-18.96262
 32075,23.1500750576,3.3325292757\H,0,-19.6426785692,23.7398758885,1.74
 03477938\C,0,-25.8133068805,24.9360376089,3.5849623588\H,0,-25.4193593
 836,23.9824482804,3.2330472815\H,0,-25.2963064862,25.7336006441,3.0511
 112191\H,0,-26.8694971699,24.983735634,3.3321157355\C,0,-28.027333848,
 25.1971006279,5.9515395643\H,0,-28.3511183533,25.097679487,4.918275186
 \H,0,-28.4244507584,26.1320398452,6.3487941432\H,0,-28.4570338365,24.3
 758049346,6.5256651392\C,0,-22.4711415496,30.6133255939,6.4534581484\H
 ,0,-21.5251193995,31.128278884,6.6195229558\H,0,-23.2806438333,31.3163
 615517,6.6486092163\H,0,-22.5211206718,30.3042940913,5.4143029061\N,0,
 -22.5624263674,29.5120161589,8.6996428223\H,0,-22.4687778525,30.361504
 1344,9.2318781147\C,0,-22.584428493,29.422618174,7.33294974\C,0,-22.68
 61118275,28.2601120149,9.1958102523\H,0,-22.7003319675,28.0259788386,1
 0.2412471914\N,0,-22.7850731954,27.3797111001,8.225399125\C,0,-22.7235
 985349,28.0920344534,7.0596866792\H,0,-22.7832897852,27.5999992786,6.1
 10052373\\Version=ES64L-G16RevC.02\State=2-A\HF=-2906.83413\S2=1.09185
 7\S2-1=0.\S2A=0.760535\RMSD=2.776e-09\Dipole=-0.1901592,2.4776238,0.18
 10509\Quadrupole=4.4086498,-14.7846552,10.3760054,-1.5247885,0.2230059
 ,4.4648497\PG=C01 [X(C34H34Fe1N6)]\\@
 The archive entry for this job was punched.


 Spring appears, and we are once more children.
                                  -- Anonymous
 Job cpu time:       0 days  3 hours 52 minutes 10.7 seconds.
 Elapsed time:       0 days  0 hours  3 minutes 59.0 seconds.
 File lengths (MBytes):  RWF=    408 Int=      0 D2E=      0 Chk=    150 Scr=      1
 Normal termination of Gaussian 16 at Tue Sep 10 13:01:31 2024.
e:       0 days  4 hours  5 minutes  2.2 seconds.
 Elapsed time:       0 days  0 hours  4 minutes 19.1 seconds.
 File lengths (MBytes):  RWF=    408 Int=      0 D2E=      0 Chk=    150 Scr=      1
 Normal termination of Gaussian 16 at Tue Sep 10 13:01:29 2024.
