 Entering Gaussian System, Link 0=g16
 Input=2xlh05.com
 Output=2xlh05.log
 Initial command:
 /sw/chem/gaussian/g16_C02/a100/g16/l1.exe "/local/becsleip_8011410/Gau-4159132.inp" -scrdir="/local/becsleip_8011410/"
 Entering Link 1 = /sw/chem/gaussian/g16_C02/a100/g16/l1.exe PID=   4159133.
  
 Copyright (c) 1988-2021, Gaussian, Inc.  All Rights Reserved.
  
 This is part of the Gaussian(R) 16 program.  It is based on
 the Gaussian(R) 09 system (copyright 2009, Gaussian, Inc.),
 the Gaussian(R) 03 system (copyright 2003, Gaussian, Inc.),
 the Gaussian(R) 98 system (copyright 1998, Gaussian, Inc.),
 the Gaussian(R) 94 system (copyright 1995, Gaussian, Inc.),
 the Gaussian 92(TM) system (copyright 1992, Gaussian, Inc.),
 the Gaussian 90(TM) system (copyright 1990, Gaussian, Inc.),
 the Gaussian 88(TM) system (copyright 1988, Gaussian, Inc.),
 the Gaussian 86(TM) system (copyright 1986, Carnegie Mellon
 University), and the Gaussian 82(TM) system (copyright 1983,
 Carnegie Mellon University). Gaussian is a federally registered
 trademark of Gaussian, Inc.
  
 This software contains proprietary and confidential information,
 including trade secrets, belonging to Gaussian, Inc.
  
 This software is provided under written license and may be
 used, copied, transmitted, or stored only in accord with that
 written license.
  
 The following legend is applicable only to US Government
 contracts under FAR:
  
                    RESTRICTED RIGHTS LEGEND
  
 Use, reproduction and disclosure by the US Government is
 subject to restrictions as set forth in subparagraphs (a)
 and (c) of the Commercial Computer Software - Restricted
 Rights clause in FAR 52.227-19.
  
 Gaussian, Inc.
 340 Quinnipiac St., Bldg. 40, Wallingford CT 06492
  
  
 ---------------------------------------------------------------
 Warning -- This program may not be used in any manner that
 competes with the business of Gaussian, Inc. or will provide
 assistance to any competitor of Gaussian, Inc.  The licensee
 of this program is prohibited from giving any competitor of
 Gaussian, Inc. access to this program.  By using this program,
 the user acknowledges that Gaussian, Inc. is engaged in the
 business of creating and licensing software in the field of
 computational chemistry and represents and warrants to the
 licensee that it is not a competitor of Gaussian, Inc. and that
 it will not use this program in any manner prohibited above.
 ---------------------------------------------------------------
  

 Cite this work as:
 Gaussian 16, Revision C.02,
 M. J. Frisch, G. W. Trucks, H. B. Schlegel, G. E. Scuseria, 
 M. A. Robb, J. R. Cheeseman, G. Scalmani, V. Barone, 
 G. A. Petersson, H. Nakatsuji, X. Li, M. Caricato, A. V. Marenich, 
 J. Bloino, B. G. Janesko, R. Gomperts, B. Mennucci, H. P. Hratchian, 
 J. V. Ortiz, A. F. Izmaylov, J. L. Sonnenberg, D. Williams-Young, 
 F. Ding, F. Lipparini, F. Egidi, J. Goings, B. Peng, A. Petrone, 
 T. Henderson, D. Ranasinghe, V. G. Zakrzewski, J. Gao, N. Rega, 
 G. Zheng, W. Liang, M. Hada, M. Ehara, K. Toyota, R. Fukuda, 
 J. Hasegawa, M. Ishida, T. Nakajima, Y. Honda, O. Kitao, H. Nakai, 
 T. Vreven, K. Throssell, J. A. Montgomery, Jr., J. E. Peralta, 
 F. Ogliaro, M. J. Bearpark, J. J. Heyd, E. N. Brothers, K. N. Kudin, 
 V. N. Staroverov, T. A. Keith, R. Kobayashi, J. Normand, 
 K. Raghavachari, A. P. Rendell, J. C. Burant, S. S. Iyengar, 
 J. Tomasi, M. Cossi, J. M. Millam, M. Klene, C. Adamo, R. Cammi, 
 J. W. Ochterski, R. L. Martin, K. Morokuma, O. Farkas, 
 J. B. Foresman, and D. J. Fox, Gaussian, Inc., Wallingford CT, 2019.
 
 ******************************************
 Gaussian 16:  ES64L-G16RevC.02  7-Dec-2021
                10-Sep-2024 
 ******************************************
 %mem=16GB
 %CPU=0-71
 SetSPE:  set environment variable "OMP_PROC_BIND" = "true"
 SetSPE:  set environment variable "OMP_PLACES" = "{0},{1},{2},{3},{4},{5},{6},{7},{8},{9},{10},{11},{12},{13},{14},{15},{16},{17},{18},{19},{20},{21},{22},{23},{24},{25},{26},{27},{28},{29},{30},{31},{32},{33},{34},{35},{36},{37},{38},{39},{40},{41},{42},{43},{44},{45},{46},{47},{48},{49},{50},{51},{52},{53},{54},{55},{56},{57},{58},{59},{60},{61},{62},{63},{64},{65},{66},{67},{68},{69},{70},{71}"
 Will use up to   72 processors via shared memory.
 %gpucpu=0,1,2,3=0,1,2,3
 Will use    4 GPUs:
 Thread  CPU   GPU
      0    0     0
      1    1     1
      2    2     2
      3    3     3
      4    4    -1
      5    5    -1
      6    6    -1
      7    7    -1
      8    8    -1
      9    9    -1
     10   10    -1
     11   11    -1
     12   12    -1
     13   13    -1
     14   14    -1
     15   15    -1
     16   16    -1
     17   17    -1
     18   18    -1
     19   19    -1
     20   20    -1
     21   21    -1
     22   22    -1
     23   23    -1
     24   24    -1
     25   25    -1
     26   26    -1
     27   27    -1
     28   28    -1
     29   29    -1
     30   30    -1
     31   31    -1
     32   32    -1
     33   33    -1
     34   34    -1
     35   35    -1
     36   36    -1
     37   37    -1
     38   38    -1
     39   39    -1
     40   40    -1
     41   41    -1
     42   42    -1
     43   43    -1
     44   44    -1
     45   45    -1
     46   46    -1
     47   47    -1
     48   48    -1
     49   49    -1
     50   50    -1
     51   51    -1
     52   52    -1
     53   53    -1
     54   54    -1
     55   55    -1
     56   56    -1
     57   57    -1
     58   58    -1
     59   59    -1
     60   60    -1
     61   61    -1
     62   62    -1
     63   63    -1
     64   64    -1
     65   65    -1
     66   66    -1
     67   67    -1
     68   68    -1
     69   69    -1
     70   70    -1
     71   71    -1
 SetGPE:  set environment variable "OMP_PROC_BIND" = "true"
 SetGPE:  set environment variable "OMP_PLACES" = "{0},{1},{2},{3},{4},{5},{6},{7},{8},{9},{10},{11},{12},{13},{14},{15},{16},{17},{18},{19},{20},{21},{22},{23},{24},{25},{26},{27},{28},{29},{30},{31},{32},{33},{34},{35},{36},{37},{38},{39},{40},{41},{42},{43},{44},{45},{46},{47},{48},{49},{50},{51},{52},{53},{54},{55},{56},{57},{58},{59},{60},{61},{62},{63},{64},{65},{66},{67},{68},{69},{70},{71}"
 %oldchk=2xlh_II_Sre.chk
 %chk=2xlh_II_Qn.chk
 Properties for Device   0
 Minimum vector length:                              32
 Maximum vector length:                            1024
 Number of SMPs:                                    108
 Maximum number of threads per SMP:                2048
 Number of ASync Engines:                             5
 Memory:                                           9207742464
 Properties for Device   1
 Minimum vector length:                              32
 Maximum vector length:                            1024
 Number of SMPs:                                    108
 Maximum number of threads per SMP:                2048
 Number of ASync Engines:                             5
 Memory:                                           9207742464
 Properties for Device   2
 Minimum vector length:                              32
 Maximum vector length:                            1024
 Number of SMPs:                                    108
 Maximum number of threads per SMP:                2048
 Number of ASync Engines:                             5
 Memory:                                           9207742464
 Properties for Device   3
 Minimum vector length:                              32
 Maximum vector length:                            1024
 Number of SMPs:                                    108
 Maximum number of threads per SMP:                2048
 Number of ASync Engines:                             5
 Memory:                                           9207742464
   8286968217 words of memory will be used on each GPU.
 Copying data from "2xlh_II_Sre.chk" to current chk file "2xlh_II_Qn.chk"
 IOpt=  2 FromEx=T IUOpen= 4 IOptOp= 5 NList=   0 IFRang= 0 IUIn= 4 IUOut= 2.
 --------------------------------------------------------------
 # apfd/def2TZVP guess=read scf=maxcycle=999 geom=check pop=nbo
 --------------------------------------------------------------
 1/29=2,38=1,172=1/1;
 2/12=2,40=1/2;
 3/5=44,7=101,11=2,14=-4,25=1,30=1,74=-44,116=-2/1,2,3;
 4/5=1/1;
 5/5=2,7=999,38=6/2;
 6/7=2,8=2,9=2,10=2,28=1,40=1/1,7;
 99/5=1,9=1/99;
 ---------
 2xlh_II_Q
 ---------
 Structure from the checkpoint file:  "2xlh_II_Qn.chk"
 Charge =  0 Multiplicity = 5
 Z-Matrix found in chk file.
 Fe,0,-22.9764373207,25.4014527608,8.394696911
 N,0,-24.3526989317,25.4458248293,9.855194905
 N,0,-24.4586931818,25.2218446334,7.0561826393
 N,0,-21.653529259,24.9483660169,6.9674942139
 N,0,-21.5455995777,25.2313783632,9.7796317634
 C,0,-24.1205221834,25.5242859372,11.197575098
 C,0,-25.3624716306,25.5567878258,11.9364089919
 C,0,-26.3564685764,25.4745279675,11.0126742969
 C,0,-25.70776313,25.4088603897,9.7222723233
 C,0,-25.8004681876,25.2856221434,7.2819251233
 C,0,-26.5404533673,25.1776869482,6.0450993416
 C,0,-25.6143723477,25.0748223562,5.0551783565
 C,0,-24.3235234787,25.0842623918,5.7067127536
 C,0,-21.8850804744,24.8601393478,5.6299304481
 C,0,-20.6478370482,24.6593026377,4.9025054334
 C,0,-19.6546211998,24.6430639046,5.8451544346
 C,0,-20.3026546907,24.8216861548,7.1188542461
 C,0,-20.2088315169,25.1006068318,9.5545074625
 C,0,-19.4598142938,25.2537352878,10.7857306163
 C,0,-20.3875431215,25.4973627484,11.7637541156
 C,0,-21.6724946666,25.4711469266,11.1168784874
 C,0,-22.8762329414,25.5852983803,11.7908450931
 H,0,-22.8402878417,25.699914784,12.8635567859
 C,0,-26.3944913598,25.3771209429,8.5244799102
 H,0,-27.4726998179,25.3896407857,8.5650321934
 C,0,-23.1283221463,24.932608977,5.0313297093
 H,0,-23.1749519028,24.8295398974,3.9580171941
 C,0,-19.6272516896,24.8659095595,8.3243480755
 H,0,-18.556605173,24.7332977158,8.2972239339
 C,0,-25.455861345,25.6352698121,13.4217016044
 H,0,-24.9810947967,26.5449182759,13.7907991633
 H,0,-24.9558328859,24.7826256896,13.8813224124
 H,0,-26.4942479844,25.637308445,13.7435253398
 C,0,-27.8327800524,25.4470041761,11.2119416926
 H,0,-28.2573022268,24.5360115264,10.7902053765
 H,0,-28.3028261643,26.2988024286,10.7196133489
 H,0,-28.0814586973,25.4827583949,12.2697046692
 C,0,-20.1618033907,25.8012573123,13.2039367713
 H,0,-20.3046729929,24.9095200326,13.8163498062
 H,0,-20.8577148079,26.56360486,13.5518700831
 H,0,-19.1458923491,26.1608657745,13.3545007222
 C,0,-18.0187821896,25.1829514425,10.8898986042
 H,0,-17.4690172105,25.5328724836,10.0238198365
 C,0,-17.3427709686,24.7256891161,11.9387696357
 H,0,-17.8345386983,24.3192118813,12.8050226196
 H,0,-16.265536419,24.7134904267,11.9519888394
 C,0,-18.1848120583,24.5291516054,5.6390177408
 H,0,-17.8439319972,23.5103662943,5.829925562
 H,0,-17.6477994599,25.1957716918,6.3121202627
 H,0,-17.9306440469,24.7904894959,4.6138314605
 C,0,-20.5490865754,24.5328004818,3.4646066005
 H,0,-21.2693807651,25.1065154206,2.8925342031
 C,0,-19.6687188899,23.7770132046,2.8168515666
 H,0,-18.9626232075,23.1500750576,3.3325292757
 H,0,-19.6426785692,23.7398758885,1.7403477938
 C,0,-25.8133068805,24.9360376089,3.5849623588
 H,0,-25.4193593836,23.9824482804,3.2330472815
 H,0,-25.2963064862,25.7336006441,3.0511112191
 H,0,-26.8694971699,24.983735634,3.3321157355
 C,0,-28.027333848,25.1971006279,5.9515395643
 H,0,-28.3511183533,25.097679487,4.918275186
 H,0,-28.4244507584,26.1320398452,6.3487941432
 H,0,-28.4570338365,24.3758049346,6.5256651392
 C,0,-22.4711415496,30.6133255939,6.4534581484
 H,0,-21.5251193995,31.128278884,6.6195229558
 H,0,-23.2806438333,31.3163615517,6.6486092163
 H,0,-22.5211206718,30.3042940913,5.4143029061
 N,0,-22.5624263674,29.5120161589,8.6996428223
 H,0,-22.4687778525,30.3615041344,9.2318781147
 C,0,-22.584428493,29.422618174,7.33294974
 C,0,-22.6861118275,28.2601120149,9.1958102523
 H,0,-22.7003319675,28.0259788386,10.2412471914
 N,0,-22.7850731954,27.3797111001,8.225399125
 C,0,-22.7235985349,28.0920344534,7.0596866792
 H,0,-22.7832897852,27.5999992786,6.110052373
 Recover connectivity data from disk.
 Stoichiometry    C34H34FeN6(5)
 Framework group  C1[X(C34H34FeN6)]
 Deg. of freedom   219
 Full point group                 C1      NOp   1
 Largest Abelian subgroup         C1      NOp   1
 Largest concise Abelian subgroup C1      NOp   1
                         Standard orientation:                         
 ---------------------------------------------------------------------
 Center     Atomic      Atomic             Coordinates (Angstroms)
 Number     Number       Type             X           Y           Z
 ---------------------------------------------------------------------
      1         26           0       -0.057891    0.201769   -0.320499
      2          7           0       -1.329160    1.746073   -0.488185
      3          7           0        1.468912    1.488464   -0.505567
      4          7           0        1.214389   -1.319241   -0.565679
      5          7           0       -1.600833   -1.057085   -0.490453
      6          6           0       -2.692469    1.687891   -0.495387
      7          6           0       -3.266126    3.009679   -0.610115
      8          6           0       -2.218932    3.872458   -0.694261
      9          6           0       -1.021082    3.066875   -0.613892
     10          6           0        1.413706    2.848482   -0.557430
     11          6           0        2.739768    3.419447   -0.624700
     12          6           0        3.607124    2.373416   -0.583918
     13          6           0        2.795958    1.177609   -0.529760
     14          6           0        2.573499   -1.261888   -0.568510
     15          6           0        3.147635   -2.591444   -0.622388
     16          6           0        2.088357   -3.459214   -0.637688
     17          6           0        0.899457   -2.647072   -0.604412
     18          6           0       -1.541154   -2.417577   -0.505623
     19          6           0       -2.865829   -2.994452   -0.392325
     20          6           0       -3.730534   -1.936693   -0.292345
     21          6           0       -2.923624   -0.747524   -0.363109
     22          6           0       -3.443419    0.535206   -0.388912
     23          1           0       -4.517078    0.640922   -0.353976
     24          6           0        0.254462    3.596224   -0.604470
     25          1           0        0.352036    4.668599   -0.673936
     26          6           0        3.320739   -0.099931   -0.541766
     27          1           0        4.395599   -0.194206   -0.565954
     28          6           0       -0.383080   -3.163248   -0.602834
     29          1           0       -0.485006   -4.236356   -0.654365
     30          6           0       -4.729017    3.291055   -0.651979
     31          1           0       -5.215554    2.941577    0.259198
     32          1           0       -5.191515    2.782993   -1.498295
     33          1           0       -4.914181    4.357758   -0.750370
     34          6           0       -2.224601    5.354783   -0.844735
     35          1           0       -1.692345    5.647988   -1.749568
     36          1           0       -1.733536    5.829102    0.005422
     37          1           0       -3.241670    5.733682   -0.907892
     38          6           0       -5.204739   -1.957974   -0.083289
     39          1           0       -5.733230   -1.814631   -1.027115
     40          1           0       -5.510155   -1.164334    0.597433
     41          1           0       -5.508093   -2.914684    0.337122
     42          6           0       -3.149355   -4.412661   -0.365290
     43          1           0       -2.386215   -5.034104    0.088807
     44          6           0       -4.243740   -4.989874   -0.850428
     45          1           0       -5.010754   -4.430414   -1.356538
     46          1           0       -4.394417   -6.054650   -0.784808
     47          6           0        2.111037   -4.947567   -0.627812
     48          1           0        1.945893   -5.344903   -1.630519
     49          1           0        1.331807   -5.341199    0.023100
     50          1           0        3.075466   -5.303493   -0.271302
     51          6           0        4.566125   -2.876239   -0.631493
     52          1           0        5.186689   -2.187060   -0.070090
     53          6           0        5.144079   -3.888623   -1.269379
     54          1           0        4.584671   -4.575062   -1.880452
     55          1           0        6.208388   -4.049747   -1.222448
     56          6           0        5.096653    2.378053   -0.624540
     57          1           0        5.457488    1.866866   -1.517209
     58          1           0        5.505584    1.866613    0.247009
     59          1           0        5.479382    3.395478   -0.635077
     60          6           0        3.022095    4.880086   -0.706978
     61          1           0        4.092695    5.065143   -0.750851
     62          1           0        2.618041    5.398450    0.163461
     63          1           0        2.563671    5.308187   -1.598811
     64          6           0        1.452431   -0.108567    5.046993
     65          1           0        1.132417   -0.981493    5.615591
     66          1           0        1.316718    0.773765    5.672062
     67          1           0        2.507580   -0.212245    4.815148
     68          7           0       -0.685396    0.167364    3.774154
     69          1           0       -1.280401    0.209929    4.585223
     70          6           0        0.675691    0.013794    3.787697
     71          6           0       -1.077445    0.247867    2.482426
     72          1           0       -2.094545    0.371204    2.168970
     73          7           0       -0.046137    0.154160    1.673588
     74          6           0        1.052194    0.008574    2.475176
     75          1           0        2.032146   -0.089524    2.053823
 ---------------------------------------------------------------------
 Rotational constants (GHZ):           0.0942919           0.0922232           0.0593832
 Standard basis: def2TZVP (5D, 7F)
 There are  1696 symmetry adapted cartesian basis functions of A   symmetry.
 There are  1489 symmetry adapted basis functions of A   symmetry.
  1489 basis functions,  2414 primitive gaussians,  1696 cartesian basis functions
   155 alpha electrons      151 beta electrons
       nuclear repulsion energy      5565.9106360842 Hartrees.
 NAtoms=   75 NActive=   75 NUniq=   75 SFac= 1.00D+00 NAtFMM=   60 NAOKFM=T Big=T
 Integral buffers will be    131072 words long.
 Raffenetti 2 integral format.
 Two-electron integral symmetry is turned on.
 R6APFD:  NTU= -4 IXU= 1 FactS= 1.050
 Nuclear repulsion after empirical dispersion term =     5565.7781514237 Hartrees.
 One-electron integrals computed using PRISM.
   1 Symmetry operations used in ECPInt.
 ECPInt:  NShTT=  174936 NPrTT=  542361 LenC2=  137234 LenP2D=  281733.
 LDataN:  DoStor=T MaxTD1= 6 Len=  172
 Number of processors reduced to  24 by ecpmxn.
 NBasis=  1489 RedAO= T EigKep=  3.17D-06  NBF=  1489
 NBsUse=  1489 1.00D-06 EigRej= -1.00D+00 NBFU=  1489
 Initial guess from the checkpoint file:  "2xlh_II_Qn.chk"
 B after Tr=     0.000000   -0.000000    0.000000
         Rot=    1.000000    0.000000    0.000000    0.000000 Ang=   0.00 deg.
 Initial guess <Sx>= 0.0000 <Sy>= 0.0000 <Sz>= 2.0000 <S**2>= 6.0966 S= 2.0192
 Requested convergence on RMS density matrix=1.00D-08 within 999 cycles.
 Requested convergence on MAX density matrix=1.00D-06.
 Requested convergence on             energy=1.00D-06.
 No special actions if energy rises.
 Restarting incremental Fock formation.
 Restarting incremental Fock formation.
 Restarting incremental Fock formation.
 Restarting incremental Fock formation.
 Restarting incremental Fock formation.
 Restarting incremental Fock formation.
 Restarting incremental Fock formation.
 Restarting incremental Fock formation.
 Restarting incremental Fock formation.
 Restarting incremental Fock formation.
 Restarting incremental Fock formation.
 Restarting incremental Fock formation.
 Restarting incremental Fock formation.
 Restarting incremental Fock formation.
 Restarting incremental Fock formation.
 Restarting incremental Fock formation.
 Restarting incremental Fock formation.
 Restarting incremental Fock formation.
 Restarting incremental Fock formation.
 Restarting incremental Fock formation.
 Restarting incremental Fock formation.
                         the SCF Density.

 **********************************************************************

 Orbital symmetries:
 Alpha Orbitals:
       Occupied  (A) (A) (A) (A) (A) (A) (A) (A) (A) (A) (A) (A)
                 (A) (A) (A) (A) (A) (A) (A) (A) (A) (A) (A) (A)
                 (A) (A) (A) (A) (A) (A) (A) (A) (A) (A) (A) (A)
                 (A) (A) (A) (A) (A) (A) (A) (A) (A) (A) (A) (A)
                 (A) (A) (A) (A) (A) (A) (A) (A) (A) (A) (A) (A)
                 (A) (A) (A) (A) (A) (A) (A) (A) (A) (A) (A) (A)
                 (A) (A) (A) (A) (A) (A) (A) (A) (A) (A) (A) (A)
                 (A) (A) (A) (A) (A) (A) (A) (A) (A) (A) (A) (A)
                 (A) (A) (A) (A) (A) (A) (A) (A) (A) (A) (A) (A)
                 (A) (A) (A) (A) (A) (A) (A) (A) (A) (A) (A) (A)
                 (A) (A) (A) (A) (A) (A) (A) (A) (A) (A) (A) (A)
                 (A) (A) (A) (A) (A) (A) (A) (A) (A) (A) (A) (A)
                 (A) (A) (A) (A) (A) (A) (A) (A) (A) (A) (A)
       Virtual   (A) (A) (A) (A) (A) (A) (A) (A) (A) (A) (A) (A)
                 (A) (A) (A) (A) (A) (A) (A) (A) (A) (A) (A) (A)
                 (A) (A) (A) (A) (A) (A) (A) (A) (A) (A) (A) (A)
                 (A) (A) (A) (A) (A) (A) (A) (A) (A) (A) (A) (A)
                 (A) (A) (A) (A) (A) (A) (A) (A) (A) (A) (A) (A)
                 (A) (A) (A) (A) (A) (A) (A) (A) (A) (A) (A) (A)
                 (A) (A) (A) (A) (A) (A) (A) (A) (A) (A) (A) (A)
                 (A) (A) (A) (A) (A) (A) (A) (A) (A) (A) (A) (A)
                 (A) (A) (A) (A) (A) (A) (A) (A) (A) (A) (A) (A)
                 (A) (A) (A) (A) (A) (A) (A) (A) (A) (A) (A) (A)
                 (A) (A) (A) (A) (A) (A) (A) (A) (A) (A) (A) (A)
                 (A) (A) (A) (A) (A) (A) (A) (A) (A) (A) (A) (A)
                 (A) (A) (A) (A) (A) (A) (A) (A) (A) (A) (A) (A)
                 (A) (A) (A) (A) (A) (A) (A) (A) (A) (A) (A) (A)
                 (A) (A) (A) (A) (A) (A) (A) (A) (A) (A) (A) (A)
                 (A) (A) (A) (A) (A) (A) (A) (A) (A) (A) (A) (A)
                 (A) (A) (A) (A) (A) (A) (A) (A) (A) (A) (A) (A)
                 (A) (A) (A) (A) (A) (A) (A) (A) (A) (A) (A) (A)
                 (A) (A) (A) (A) (A) (A) (A) (A) (A) (A) (A) (A)
                 (A) (A) (A) (A) (A) (A) (A) (A) (A) (A) (A) (A)
                 (A) (A) (A) (A) (A) (A) (A) (A) (A) (A) (A) (A)
                 (A) (A) (A) (A) (A) (A) (A) (A) (A) (A) (A) (A)
                 (A) (A) (A) (A) (A) (A) (A) (A) (A) (A) (A) (A)
                 (A) (A) (A) (A) (A) (A) (A) (A) (A) (A) (A) (A)
                 (A) (A) (A) (A) (A) (A) (A) (A) (A) (A) (A) (A)
                 (A) (A) (A) (A) (A) (A) (A) (A) (A) (A) (A) (A)
                 (A) (A) (A) (A) (A) (A) (A) (A) (A) (A) (A) (A)
                 (A) (A) (A) (A) (A) (A) (A) (A) (A) (A) (A) (A)
                 (A) (A) (A) (A) (A) (A) (A) (A) (A) (A) (A) (A)
                 (A) (A) (A) (A) (A) (A) (A) (A) (A) (A) (A) (A)
                 (A) (A) (A) (A) (A) (A) (A) (A) (A) (A) (A) (A)
                 (A) (A) (A) (A) (A) (A) (A) (A) (A) (A) (A) (A)
                 (A) (A) (A) (A) (A) (A) (A) (A) (A) (A) (A) (A)
                 (A) (A) (A) (A) (A) (A) (A) (A) (A) (A) (A) (A)
                 (A) (A) (A) (A) (A) (A) (A) (A) (A) (A) (A) (A)
                 (A) (A) (A) (A) (A) (A) (A) (A) (A) (A) (A) (A)
                 (A) (A) (A) (A) (A) (A) (A) (A) (A) (A) (A) (A)
                 (A) (A) (A) (A) (A) (A) (A) (A) (A) (A) (A) (A)
                 (A) (A) (A) (A) (A) (A) (A) (A) (A) (A) (A) (A)
                 (A) (A) (A) (A) (A) (A) (A) (A) (A) (A) (A) (A)
                 (A) (A) (A) (A) (A) (A) (A) (A) (A) (A) (A) (A)
                 (A) (A) (A) (A) (A) (A) (A) (A) (A) (A) (A) (A)
                 (A) (A) (A) (A) (A) (A) (A) (A) (A) (A) (A) (A)
                 (A) (A) (A) (A) (A) (A) (A) (A) (A) (A) (A) (A)
                 (A) (A) (A) (A) (A) (A) (A) (A) (A) (A) (A) (A)
                 (A) (A) (A) (A) (A) (A) (A) (A) (A) (A) (A) (A)
                 (A) (A) (A) (A) (A) (A) (A) (A) (A) (A) (A) (A)
                 (A) (A) (A) (A) (A) (A) (A) (A) (A) (A) (A) (A)
                 (A) (A) (A) (A) (A) (A) (A) (A) (A) (A) (A) (A)
                 (A) (A) (A) (A) (A) (A) (A) (A) (A) (A) (A) (A)
                 (A) (A) (A) (A) (A) (A) (A) (A) (A) (A) (A) (A)
                 (A) (A) (A) (A) (A) (A) (A) (A) (A) (A) (A) (A)
                 (A) (A) (A) (A) (A) (A) (A) (A) (A) (A) (A) (A)
                 (A) (A) (A) (A) (A) (A) (A) (A) (A) (A) (A) (A)
                 (A) (A) (A) (A) (A) (A) (A) (A) (A) (A) (A) (A)
                 (A) (A) (A) (A) (A) (A) (A) (A) (A) (A) (A) (A)
                 (A) (A) (A) (A) (A) (A) (A) (A) (A) (A) (A) (A)
                 (A) (A) (A) (A) (A) (A) (A) (A) (A) (A) (A) (A)
                 (A) (A) (A) (A) (A) (A) (A) (A) (A) (A) (A) (A)
                 (A) (A) (A) (A) (A) (A) (A) (A) (A) (A) (A) (A)
                 (A) (A) (A) (A) (A) (A) (A) (A) (A) (A) (A) (A)
                 (A) (A) (A) (A) (A) (A) (A) (A) (A) (A) (A) (A)
                 (A) (A) (A) (A) (A) (A) (A) (A) (A) (A) (A) (A)
                 (A) (A) (A) (A) (A) (A) (A) (A) (A) (A) (A) (A)
                 (A) (A) (A) (A) (A) (A) (A) (A) (A) (A) (A) (A)
                 (A) (A) (A) (A) (A) (A) (A) (A) (A) (A) (A) (A)
                 (A) (A) (A) (A) (A) (A) (A) (A) (A) (A) (A) (A)
                 (A) (A) (A) (A) (A) (A) (A) (A) (A) (A) (A) (A)
                 (A) (A) (A) (A) (A) (A) (A) (A) (A) (A) (A) (A)
                 (A) (A) (A) (A) (A) (A) (A) (A) (A) (A) (A) (A)
                 (A) (A) (A) (A) (A) (A) (A) (A) (A) (A) (A) (A)
                 (A) (A) (A) (A) (A) (A) (A) (A) (A) (A) (A) (A)
                 (A) (A) (A) (A) (A) (A) (A) (A) (A) (A) (A) (A)
                 (A) (A) (A) (A) (A) (A) (A) (A) (A) (A) (A) (A)
                 (A) (A) (A) (A) (A) (A) (A) (A) (A) (A) (A) (A)
                 (A) (A) (A) (A) (A) (A) (A) (A) (A) (A) (A) (A)
                 (A) (A) (A) (A) (A) (A) (A) (A) (A) (A) (A) (A)
                 (A) (A) (A) (A) (A) (A) (A) (A) (A) (A) (A) (A)
                 (A) (A) (A) (A) (A) (A) (A) (A) (A) (A) (A) (A)
                 (A) (A) (A) (A) (A) (A) (A) (A) (A) (A) (A) (A)
                 (A) (A) (A) (A) (A) (A) (A) (A) (A) (A) (A) (A)
                 (A) (A) (A) (A) (A) (A) (A) (A) (A) (A) (A) (A)
                 (A) (A) (A) (A) (A) (A) (A) (A) (A) (A) (A) (A)
                 (A) (A) (A) (A) (A) (A) (A) (A) (A) (A) (A) (A)
                 (A) (A) (A) (A) (A) (A) (A) (A) (A) (A) (A) (A)
                 (A) (A) (A) (A) (A) (A) (A) (A) (A) (A) (A) (A)
                 (A) (A) (A) (A) (A) (A) (A) (A) (A) (A) (A) (A)
                 (A) (A) (A) (A) (A) (A) (A) (A) (A) (A) (A) (A)
                 (A) (A) (A) (A) (A) (A) (A) (A) (A) (A) (A) (A)
                 (A) (A) (A) (A) (A) (A) (A) (A) (A) (A) (A) (A)
                 (A) (A) (A) (A) (A) (A) (A) (A) (A) (A) (A) (A)
                 (A) (A) (A) (A) (A) (A) (A) (A) (A) (A) (A) (A)
                 (A) (A) (A) (A) (A) (A) (A) (A) (A) (A) (A) (A)
                 (A) (A) (A) (A) (A) (A) (A) (A) (A) (A) (A) (A)
                 (A) (A) (A) (A) (A) (A) (A) (A) (A) (A) (A) (A)
                 (A) (A) (A) (A) (A) (A) (A) (A) (A) (A) (A) (A)
                 (A) (A) (A) (A) (A) (A) (A) (A) (A) (A) (A) (A)
                 (A) (A) (A) (A) (A) (A) (A) (A) (A) (A) (A) (A)
                 (A) (A) (A) (A) (A) (A) (A) (A) (A) (A) (A) (A)
                 (A) (A) (A) (A) (A) (A) (A) (A) (A) (A) (A) (A)
                 (A) (A) (A) (A) (A) (A) (A) (A) (A) (A) (A) (A)
                 (A) (A) (A) (A) (A) (A) (A) (A) (A) (A) (A) (A)
                 (A) (A) (A) (A) (A) (A) (A) (A) (A) (A) (A) (A)
                 (A) (A) (A) (A) (A) (A) (A) (A) (A) (A) (A) (A)
                 (A) (A) (A) (A) (A) (A) (A) (A) (A) (A) (A) (A)
                 (A) (A) (A) (A) (A) (A) (A) (A) (A) (A) (A) (A)
                 (A) (A) (A) (A) (A) (A) (A) (A) (A) (A) (A) (A)
                 (A) (A) (A) (A) (A) (A) (A) (A) (A) (A) (A) (A)
                 (A) (A) (A) (A) (A) (A) (A) (A) (A) (A) (A) (A)
                 (A) (A) (A) (A) (A) (A) (A) (A) (A) (A) (A) (A)
                 (A) (A) (A) (A) (A) (A) (A) (A) (A) (A) (A) (A)
                 (A) (A)
 Beta  Orbitals:
       Occupied  (A) (A) (A) (A) (A) (A) (A) (A) (A) (A) (A) (A)
                 (A) (A) (A) (A) (A) (A) (A) (A) (A) (A) (A) (A)
                 (A) (A) (A) (A) (A) (A) (A) (A) (A) (A) (A) (A)
                 (A) (A) (A) (A) (A) (A) (A) (A) (A) (A) (A) (A)
                 (A) (A) (A) (A) (A) (A) (A) (A) (A) (A) (A) (A)
                 (A) (A) (A) (A) (A) (A) (A) (A) (A) (A) (A) (A)
                 (A) (A) (A) (A) (A) (A) (A) (A) (A) (A) (A) (A)
                 (A) (A) (A) (A) (A) (A) (A) (A) (A) (A) (A) (A)
                 (A) (A) (A) (A) (A) (A) (A) (A) (A) (A) (A) (A)
                 (A) (A) (A) (A) (A) (A) (A) (A) (A) (A) (A) (A)
                 (A) (A) (A) (A) (A) (A) (A) (A) (A) (A) (A) (A)
                 (A) (A) (A) (A) (A) (A) (A) (A) (A) (A) (A) (A)
                 (A) (A) (A) (A) (A) (A) (A)
       Virtual   (A) (A) (A) (A) (A) (A) (A) (A) (A) (A) (A) (A)
                 (A) (A) (A) (A) (A) (A) (A) (A) (A) (A) (A) (A)
                 (A) (A) (A) (A) (A) (A) (A) (A) (A) (A) (A) (A)
                 (A) (A) (A) (A) (A) (A) (A) (A) (A) (A) (A) (A)
                 (A) (A) (A) (A) (A) (A) (A) (A) (A) (A) (A) (A)
                 (A) (A) (A) (A) (A) (A) (A) (A) (A) (A) (A) (A)
                 (A) (A) (A) (A) (A) (A) (A) (A) (A) (A) (A) (A)
                 (A) (A) (A) (A) (A) (A) (A) (A) (A) (A) (A) (A)
                 (A) (A) (A) (A) (A) (A) (A) (A) (A) (A) (A) (A)
                 (A) (A) (A) (A) (A) (A) (A) (A) (A) (A) (A) (A)
                 (A) (A) (A) (A) (A) (A) (A) (A) (A) (A) (A) (A)
                 (A) (A) (A) (A) (A) (A) (A) (A) (A) (A) (A) (A)
                 (A) (A) (A) (A) (A) (A) (A) (A) (A) (A) (A) (A)
                 (A) (A) (A) (A) (A) (A) (A) (A) (A) (A) (A) (A)
                 (A) (A) (A) (A) (A) (A) (A) (A) (A) (A) (A) (A)
                 (A) (A) (A) (A) (A) (A) (A) (A) (A) (A) (A) (A)
                 (A) (A) (A) (A) (A) (A) (A) (A) (A) (A) (A) (A)
                 (A) (A) (A) (A) (A) (A) (A) (A) (A) (A) (A) (A)
                 (A) (A) (A) (A) (A) (A) (A) (A) (A) (A) (A) (A)
                 (A) (A) (A) (A) (A) (A) (A) (A) (A) (A) (A) (A)
                 (A) (A) (A) (A) (A) (A) (A) (A) (A) (A) (A) (A)
                 (A) (A) (A) (A) (A) (A) (A) (A) (A) (A) (A) (A)
                 (A) (A) (A) (A) (A) (A) (A) (A) (A) (A) (A) (A)
                 (A) (A) (A) (A) (A) (A) (A) (A) (A) (A) (A) (A)
                 (A) (A) (A) (A) (A) (A) (A) (A) (A) (A) (A) (A)
                 (A) (A) (A) (A) (A) (A) (A) (A) (A) (A) (A) (A)
                 (A) (A) (A) (A) (A) (A) (A) (A) (A) (A) (A) (A)
                 (A) (A) (A) (A) (A) (A) (A) (A) (A) (A) (A) (A)
                 (A) (A) (A) (A) (A) (A) (A) (A) (A) (A) (A) (A)
                 (A) (A) (A) (A) (A) (A) (A) (A) (A) (A) (A) (A)
                 (A) (A) (A) (A) (A) (A) (A) (A) (A) (A) (A) (A)
                 (A) (A) (A) (A) (A) (A) (A) (A) (A) (A) (A) (A)
                 (A) (A) (A) (A) (A) (A) (A) (A) (A) (A) (A) (A)
                 (A) (A) (A) (A) (A) (A) (A) (A) (A) (A) (A) (A)
                 (A) (A) (A) (A) (A) (A) (A) (A) (A) (A) (A) (A)
                 (A) (A) (A) (A) (A) (A) (A) (A) (A) (A) (A) (A)
                 (A) (A) (A) (A) (A) (A) (A) (A) (A) (A) (A) (A)
                 (A) (A) (A) (A) (A) (A) (A) (A) (A) (A) (A) (A)
                 (A) (A) (A) (A) (A) (A) (A) (A) (A) (A) (A) (A)
                 (A) (A) (A) (A) (A) (A) (A) (A) (A) (A) (A) (A)
                 (A) (A) (A) (A) (A) (A) (A) (A) (A) (A) (A) (A)
                 (A) (A) (A) (A) (A) (A) (A) (A) (A) (A) (A) (A)
                 (A) (A) (A) (A) (A) (A) (A) (A) (A) (A) (A) (A)
                 (A) (A) (A) (A) (A) (A) (A) (A) (A) (A) (A) (A)
                 (A) (A) (A) (A) (A) (A) (A) (A) (A) (A) (A) (A)
                 (A) (A) (A) (A) (A) (A) (A) (A) (A) (A) (A) (A)
                 (A) (A) (A) (A) (A) (A) (A) (A) (A) (A) (A) (A)
                 (A) (A) (A) (A) (A) (A) (A) (A) (A) (A) (A) (A)
                 (A) (A) (A) (A) (A) (A) (A) (A) (A) (A) (A) (A)
                 (A) (A) (A) (A) (A) (A) (A) (A) (A) (A) (A) (A)
                 (A) (A) (A) (A) (A) (A) (A) (A) (A) (A) (A) (A)
                 (A) (A) (A) (A) (A) (A) (A) (A) (A) (A) (A) (A)
                 (A) (A) (A) (A) (A) (A) (A) (A) (A) (A) (A) (A)
                 (A) (A) (A) (A) (A) (A) (A) (A) (A) (A) (A) (A)
                 (A) (A) (A) (A) (A) (A) (A) (A) (A) (A) (A) (A)
                 (A) (A) (A) (A) (A) (A) (A) (A) (A) (A) (A) (A)
                 (A) (A) (A) (A) (A) (A) (A) (A) (A) (A) (A) (A)
                 (A) (A) (A) (A) (A) (A) (A) (A) (A) (A) (A) (A)
                 (A) (A) (A) (A) (A) (A) (A) (A) (A) (A) (A) (A)
                 (A) (A) (A) (A) (A) (A) (A) (A) (A) (A) (A) (A)
                 (A) (A) (A) (A) (A) (A) (A) (A) (A) (A) (A) (A)
                 (A) (A) (A) (A) (A) (A) (A) (A) (A) (A) (A) (A)
                 (A) (A) (A) (A) (A) (A) (A) (A) (A) (A) (A) (A)
                 (A) (A) (A) (A) (A) (A) (A) (A) (A) (A) (A) (A)
                 (A) (A) (A) (A) (A) (A) (A) (A) (A) (A) (A) (A)
                 (A) (A) (A) (A) (A) (A) (A) (A) (A) (A) (A) (A)
                 (A) (A) (A) (A) (A) (A) (A) (A) (A) (A) (A) (A)
                 (A) (A) (A) (A) (A) (A) (A) (A) (A) (A) (A) (A)
                 (A) (A) (A) (A) (A) (A) (A) (A) (A) (A) (A) (A)
                 (A) (A) (A) (A) (A) (A) (A) (A) (A) (A) (A) (A)
                 (A) (A) (A) (A) (A) (A) (A) (A) (A) (A) (A) (A)
                 (A) (A) (A) (A) (A) (A) (A) (A) (A) (A) (A) (A)
                 (A) (A) (A) (A) (A) (A) (A) (A) (A) (A) (A) (A)
                 (A) (A) (A) (A) (A) (A) (A) (A) (A) (A) (A) (A)
                 (A) (A) (A) (A) (A) (A) (A) (A) (A) (A) (A) (A)
                 (A) (A) (A) (A) (A) (A) (A) (A) (A) (A) (A) (A)
                 (A) (A) (A) (A) (A) (A) (A) (A) (A) (A) (A) (A)
                 (A) (A) (A) (A) (A) (A) (A) (A) (A) (A) (A) (A)
                 (A) (A) (A) (A) (A) (A) (A) (A) (A) (A) (A) (A)
                 (A) (A) (A) (A) (A) (A) (A) (A) (A) (A) (A) (A)
                 (A) (A) (A) (A) (A) (A) (A) (A) (A) (A) (A) (A)
                 (A) (A) (A) (A) (A) (A) (A) (A) (A) (A) (A) (A)
                 (A) (A) (A) (A) (A) (A) (A) (A) (A) (A) (A) (A)
                 (A) (A) (A) (A) (A) (A) (A) (A) (A) (A) (A) (A)
                 (A) (A) (A) (A) (A) (A) (A) (A) (A) (A) (A) (A)
                 (A) (A) (A) (A) (A) (A) (A) (A) (A) (A) (A) (A)
                 (A) (A) (A) (A) (A) (A) (A) (A) (A) (A) (A) (A)
                 (A) (A) (A) (A) (A) (A) (A) (A) (A) (A) (A) (A)
                 (A) (A) (A) (A) (A) (A) (A) (A) (A) (A) (A) (A)
                 (A) (A) (A) (A) (A) (A) (A) (A) (A) (A) (A) (A)
                 (A) (A) (A) (A) (A) (A) (A) (A) (A) (A) (A) (A)
                 (A) (A) (A) (A) (A) (A) (A) (A) (A) (A) (A) (A)
                 (A) (A) (A) (A) (A) (A) (A) (A) (A) (A) (A) (A)
                 (A) (A) (A) (A) (A) (A) (A) (A) (A) (A) (A) (A)
                 (A) (A) (A) (A) (A) (A) (A) (A) (A) (A) (A) (A)
                 (A) (A) (A) (A) (A) (A) (A) (A) (A) (A) (A) (A)
                 (A) (A) (A) (A) (A) (A) (A) (A) (A) (A) (A) (A)
                 (A) (A) (A) (A) (A) (A) (A) (A) (A) (A) (A) (A)
                 (A) (A) (A) (A) (A) (A) (A) (A) (A) (A) (A) (A)
                 (A) (A) (A) (A) (A) (A) (A) (A) (A) (A) (A) (A)
                 (A) (A) (A) (A) (A) (A) (A) (A) (A) (A) (A) (A)
                 (A) (A) (A) (A) (A) (A) (A) (A) (A) (A) (A) (A)
                 (A) (A) (A) (A) (A) (A) (A) (A) (A) (A) (A) (A)
                 (A) (A) (A) (A) (A) (A) (A) (A) (A) (A) (A) (A)
                 (A) (A) (A) (A) (A) (A) (A) (A) (A) (A) (A) (A)
                 (A) (A) (A) (A) (A) (A) (A) (A) (A) (A) (A) (A)
                 (A) (A) (A) (A) (A) (A) (A) (A) (A) (A) (A) (A)
                 (A) (A) (A) (A) (A) (A) (A) (A) (A) (A) (A) (A)
                 (A) (A) (A) (A) (A) (A) (A) (A) (A) (A) (A) (A)
                 (A) (A) (A) (A) (A) (A) (A) (A) (A) (A) (A) (A)
                 (A) (A) (A) (A) (A) (A) (A) (A) (A) (A) (A) (A)
                 (A) (A) (A) (A) (A) (A)
 The electronic state is 5-A.
 Alpha  occ. eigenvalues -- -256.19232 -30.08377 -25.93020 -25.90997 -25.90614
 Alpha  occ. eigenvalues --  -14.42296 -14.36225 -14.32947 -14.32946 -14.32808
 Alpha  occ. eigenvalues --  -14.32719 -10.26116 -10.24279 -10.21509 -10.21427
 Alpha  occ. eigenvalues --  -10.21346 -10.21270 -10.21223 -10.21210 -10.21108
 Alpha  occ. eigenvalues --  -10.21066 -10.21039 -10.20914 -10.19768 -10.19642
 Alpha  occ. eigenvalues --  -10.19201 -10.19193 -10.19006 -10.18930 -10.18863
 Alpha  occ. eigenvalues --  -10.18841 -10.18807 -10.18723 -10.18668 -10.18662
 Alpha  occ. eigenvalues --  -10.18650 -10.18639 -10.18627 -10.18581 -10.18500
 Alpha  occ. eigenvalues --  -10.18495 -10.18431 -10.18365 -10.18328 -10.18218
 Alpha  occ. eigenvalues --   -3.53891  -2.33828  -2.29323  -2.28822  -1.05817
 Alpha  occ. eigenvalues --   -0.97158  -0.96216  -0.96093  -0.95155  -0.91483
 Alpha  occ. eigenvalues --   -0.82491  -0.82097  -0.81783  -0.80985  -0.80782
 Alpha  occ. eigenvalues --   -0.80591  -0.79821  -0.79725  -0.76926  -0.75884
 Alpha  occ. eigenvalues --   -0.74479  -0.74171  -0.73288  -0.72329  -0.71207
 Alpha  occ. eigenvalues --   -0.70370  -0.68529  -0.68142  -0.68003  -0.65215
 Alpha  occ. eigenvalues --   -0.64317  -0.64264  -0.61889  -0.60829  -0.60222
 Alpha  occ. eigenvalues --   -0.58096  -0.56879  -0.56487  -0.54678  -0.53893
 Alpha  occ. eigenvalues --   -0.53565  -0.53034  -0.51315  -0.51266  -0.50741
 Alpha  occ. eigenvalues --   -0.49259  -0.48422  -0.48082  -0.48019  -0.47777
 Alpha  occ. eigenvalues --   -0.45531  -0.45019  -0.44937  -0.44711  -0.44312
 Alpha  occ. eigenvalues --   -0.43977  -0.43817  -0.43680  -0.43448  -0.43355
 Alpha  occ. eigenvalues --   -0.43200  -0.42937  -0.42908  -0.42558  -0.42315
 Alpha  occ. eigenvalues --   -0.41926  -0.41638  -0.41406  -0.40955  -0.40637
 Alpha  occ. eigenvalues --   -0.40316  -0.40239  -0.39827  -0.39618  -0.39526
 Alpha  occ. eigenvalues --   -0.39060  -0.38799  -0.38687  -0.38474  -0.38192
 Alpha  occ. eigenvalues --   -0.37881  -0.37333  -0.37162  -0.36756  -0.36409
 Alpha  occ. eigenvalues --   -0.36038  -0.34798  -0.34720  -0.33969  -0.33655
 Alpha  occ. eigenvalues --   -0.33601  -0.32291  -0.31999  -0.31261  -0.31101
 Alpha  occ. eigenvalues --   -0.30601  -0.30032  -0.29121  -0.27474  -0.26618
 Alpha  occ. eigenvalues --   -0.26356  -0.25165  -0.24438  -0.22640  -0.22241
 Alpha  occ. eigenvalues --   -0.21860  -0.21436  -0.18256  -0.17924  -0.16504
 Alpha virt. eigenvalues --   -0.06987  -0.06840  -0.02083   0.00387   0.00835
 Alpha virt. eigenvalues --    0.02089   0.02317   0.03901   0.04392   0.04649
 Alpha virt. eigenvalues --    0.05393   0.05536   0.05766   0.06073   0.06807
 Alpha virt. eigenvalues --    0.07008   0.07661   0.07929   0.08240   0.08858
 Alpha virt. eigenvalues --    0.09264   0.09380   0.09651   0.09896   0.10691
 Alpha virt. eigenvalues --    0.10736   0.10992   0.11325   0.11398   0.11668
 Alpha virt. eigenvalues --    0.11872   0.12029   0.12353   0.12566   0.12891
 Alpha virt. eigenvalues --    0.13056   0.13123   0.13496   0.13793   0.14037
 Alpha virt. eigenvalues --    0.14166   0.14397   0.14741   0.14804   0.15277
 Alpha virt. eigenvalues --    0.15505   0.15580   0.15671   0.15922   0.16003
 Alpha virt. eigenvalues --    0.16094   0.16440   0.16706   0.17169   0.17305
 Alpha virt. eigenvalues --    0.17528   0.17784   0.17893   0.18320   0.18724
 Alpha virt. eigenvalues --    0.19137   0.19296   0.19571   0.19708   0.19959
 Alpha virt. eigenvalues --    0.20229   0.20587   0.20889   0.20953   0.21205
 Alpha virt. eigenvalues --    0.21716   0.22114   0.22341   0.22433   0.22595
 Alpha virt. eigenvalues --    0.22933   0.23355   0.23513   0.24249   0.24286
 Alpha virt. eigenvalues --    0.24872   0.25427   0.25463   0.25712   0.25889
 Alpha virt. eigenvalues --    0.26159   0.26580   0.26849   0.26903   0.27139
 Alpha virt. eigenvalues --    0.27454   0.27604   0.27852   0.28394   0.28555
 Alpha virt. eigenvalues --    0.28826   0.29118   0.29337   0.29773   0.29905
 Alpha virt. eigenvalues --    0.30094   0.30412   0.30622   0.30733   0.31112
 Alpha virt. eigenvalues --    0.31525   0.31917   0.32126   0.32162   0.32752
 Alpha virt. eigenvalues --    0.33036   0.33161   0.33329   0.33750   0.34161
 Alpha virt. eigenvalues --    0.34305   0.34633   0.34833   0.35243   0.35441
 Alpha virt. eigenvalues --    0.35728   0.36125   0.36787   0.36812   0.37018
 Alpha virt. eigenvalues --    0.37195   0.37720   0.37952   0.38053   0.38293
 Alpha virt. eigenvalues --    0.38614   0.38746   0.38956   0.39438   0.39525
 Alpha virt. eigenvalues --    0.39779   0.40047   0.40193   0.40360   0.40697
 Alpha virt. eigenvalues --    0.40848   0.41099   0.41569   0.41616   0.41731
 Alpha virt. eigenvalues --    0.41837   0.42121   0.42203   0.42471   0.42717
 Alpha virt. eigenvalues --    0.42812   0.43118   0.43496   0.43674   0.43922
 Alpha virt. eigenvalues --    0.44020   0.44295   0.44572   0.44965   0.45000
 Alpha virt. eigenvalues --    0.45277   0.45359   0.45764   0.46073   0.46319
 Alpha virt. eigenvalues --    0.46657   0.46763   0.46843   0.47110   0.47398
 Alpha virt. eigenvalues --    0.47574   0.47774   0.47909   0.48227   0.48396
 Alpha virt. eigenvalues --    0.48622   0.48768   0.48899   0.49225   0.49450
 Alpha virt. eigenvalues --    0.49652   0.49765   0.50031   0.50255   0.50464
 Alpha virt. eigenvalues --    0.51029   0.51131   0.51488   0.51537   0.51693
 Alpha virt. eigenvalues --    0.52267   0.52390   0.52494   0.52651   0.52764
 Alpha virt. eigenvalues --    0.52897   0.53396   0.53519   0.53696   0.54156
 Alpha virt. eigenvalues --    0.54307   0.54362   0.54718   0.55345   0.55786
 Alpha virt. eigenvalues --    0.55949   0.56041   0.56354   0.56583   0.56780
 Alpha virt. eigenvalues --    0.57205   0.57708   0.57817   0.58185   0.58322
 Alpha virt. eigenvalues --    0.58685   0.58931   0.59232   0.59596   0.60156
 Alpha virt. eigenvalues --    0.60468   0.60802   0.60853   0.61192   0.61484
 Alpha virt. eigenvalues --    0.61960   0.62056   0.62527   0.62815   0.63480
 Alpha virt. eigenvalues --    0.63731   0.63997   0.64205   0.64529   0.64735
 Alpha virt. eigenvalues --    0.65031   0.65352   0.65806   0.66026   0.66215
 Alpha virt. eigenvalues --    0.66409   0.66895   0.67252   0.67659   0.67863
 Alpha virt. eigenvalues --    0.68226   0.68283   0.68726   0.69110   0.69646
 Alpha virt. eigenvalues --    0.70113   0.70626   0.70736   0.70971   0.71301
 Alpha virt. eigenvalues --    0.71684   0.71699   0.72203   0.72570   0.72946
 Alpha virt. eigenvalues --    0.73381   0.73620   0.73826   0.74000   0.74158
 Alpha virt. eigenvalues --    0.74399   0.74862   0.75314   0.75328   0.75533
 Alpha virt. eigenvalues --    0.76021   0.76459   0.76733   0.77221   0.77481
 Alpha virt. eigenvalues --    0.78008   0.78228   0.78496   0.78822   0.79383
 Alpha virt. eigenvalues --    0.79508   0.80020   0.80229   0.80530   0.81132
 Alpha virt. eigenvalues --    0.81230   0.81386   0.82003   0.82513   0.82917
 Alpha virt. eigenvalues --    0.83305   0.83897   0.84364   0.84582   0.84810
 Alpha virt. eigenvalues --    0.85079   0.85430   0.85703   0.86340   0.87105
 Alpha virt. eigenvalues --    0.87393   0.87805   0.88283   0.88640   0.88811
 Alpha virt. eigenvalues --    0.89051   0.89386   0.89904   0.90214   0.90644
 Alpha virt. eigenvalues --    0.91352   0.91484   0.91730   0.92337   0.92508
 Alpha virt. eigenvalues --    0.92968   0.93377   0.93739   0.94082   0.94161
 Alpha virt. eigenvalues --    0.94817   0.95048   0.95249   0.95719   0.96527
 Alpha virt. eigenvalues --    0.96673   0.97440   0.97793   0.98218   0.98317
 Alpha virt. eigenvalues --    0.98659   0.98900   0.99258   0.99512   1.00470
 Alpha virt. eigenvalues --    1.00800   1.00909   1.01180   1.01601   1.01862
 Alpha virt. eigenvalues --    1.01946   1.02116   1.02707   1.02950   1.03001
 Alpha virt. eigenvalues --    1.03298   1.04046   1.04343   1.04553   1.04715
 Alpha virt. eigenvalues --    1.05295   1.05316   1.05731   1.05841   1.06326
 Alpha virt. eigenvalues --    1.06463   1.07312   1.07604   1.08467   1.08651
 Alpha virt. eigenvalues --    1.08690   1.08989   1.09302   1.09665   1.10639
 Alpha virt. eigenvalues --    1.11001   1.11818   1.12259   1.12524   1.12880
 Alpha virt. eigenvalues --    1.13333   1.13933   1.14173   1.14626   1.15222
 Alpha virt. eigenvalues --    1.15814   1.15928   1.16367   1.17078   1.17358
 Alpha virt. eigenvalues --    1.17611   1.18066   1.18287   1.18864   1.19110
 Alpha virt. eigenvalues --    1.19735   1.20130   1.20542   1.20765   1.21152
 Alpha virt. eigenvalues --    1.21315   1.21904   1.22363   1.23298   1.23324
 Alpha virt. eigenvalues --    1.23602   1.24420   1.25068   1.25768   1.26137
 Alpha virt. eigenvalues --    1.26606   1.26791   1.27434   1.28065   1.28133
 Alpha virt. eigenvalues --    1.28523   1.28827   1.29090   1.29255   1.29355
 Alpha virt. eigenvalues --    1.29645   1.30040   1.30364   1.30678   1.31026
 Alpha virt. eigenvalues --    1.31658   1.31689   1.32084   1.32399   1.33117
 Alpha virt. eigenvalues --    1.34400   1.35395   1.35686   1.36642   1.37362
 Alpha virt. eigenvalues --    1.37777   1.38640   1.38813   1.39141   1.39976
 Alpha virt. eigenvalues --    1.40455   1.40821   1.41212   1.41475   1.42227
 Alpha virt. eigenvalues --    1.42848   1.43315   1.44221   1.44774   1.45320
 Alpha virt. eigenvalues --    1.45640   1.45749   1.46762   1.47062   1.47401
 Alpha virt. eigenvalues --    1.47755   1.48034   1.48297   1.48840   1.48995
 Alpha virt. eigenvalues --    1.49781   1.49990   1.50471   1.50576   1.50832
 Alpha virt. eigenvalues --    1.50941   1.51052   1.51326   1.51694   1.51844
 Alpha virt. eigenvalues --    1.52126   1.52442   1.52745   1.53187   1.53245
 Alpha virt. eigenvalues --    1.53682   1.53729   1.53947   1.54302   1.54409
 Alpha virt. eigenvalues --    1.54774   1.55024   1.55439   1.55511   1.55807
 Alpha virt. eigenvalues --    1.56161   1.56291   1.56683   1.57327   1.57500
 Alpha virt. eigenvalues --    1.57678   1.58017   1.58069   1.58365   1.58930
 Alpha virt. eigenvalues --    1.59173   1.59485   1.59615   1.59920   1.60096
 Alpha virt. eigenvalues --    1.60932   1.60995   1.61385   1.61874   1.62057
 Alpha virt. eigenvalues --    1.62134   1.62895   1.63027   1.63252   1.63754
 Alpha virt. eigenvalues --    1.63994   1.64216   1.64624   1.65008   1.65042
 Alpha virt. eigenvalues --    1.65483   1.65533   1.66107   1.66260   1.66677
 Alpha virt. eigenvalues --    1.67238   1.67536   1.67633   1.68167   1.68281
 Alpha virt. eigenvalues --    1.68512   1.69206   1.69688   1.70033   1.70294
 Alpha virt. eigenvalues --    1.70494   1.71156   1.71458   1.71915   1.72316
 Alpha virt. eigenvalues --    1.72738   1.73115   1.73477   1.73764   1.74660
 Alpha virt. eigenvalues --    1.74925   1.75511   1.76781   1.77608   1.77945
 Alpha virt. eigenvalues --    1.78336   1.78883   1.79754   1.80450   1.81009
 Alpha virt. eigenvalues --    1.81239   1.81451   1.81781   1.81893   1.82838
 Alpha virt. eigenvalues --    1.83097   1.83980   1.84508   1.84710   1.85402
 Alpha virt. eigenvalues --    1.85948   1.86354   1.86734   1.86971   1.87246
 Alpha virt. eigenvalues --    1.87679   1.88004   1.88106   1.88604   1.89306
 Alpha virt. eigenvalues --    1.89954   1.90161   1.90598   1.91237   1.91432
 Alpha virt. eigenvalues --    1.92359   1.93173   1.93582   1.94120   1.94380
 Alpha virt. eigenvalues --    1.94933   1.95368   1.96031   1.96754   1.97307
 Alpha virt. eigenvalues --    1.97743   1.98036   1.98461   1.98760   1.99807
 Alpha virt. eigenvalues --    1.99849   2.00629   2.00707   2.01017   2.01798
 Alpha virt. eigenvalues --    2.02006   2.02540   2.02929   2.03134   2.03726
 Alpha virt. eigenvalues --    2.04536   2.05080   2.05507   2.05757   2.06058
 Alpha virt. eigenvalues --    2.07586   2.07763   2.08121   2.08756   2.09364
 Alpha virt. eigenvalues --    2.09438   2.09844   2.10409   2.10569   2.11221
 Alpha virt. eigenvalues --    2.11421   2.11930   2.12709   2.12800   2.13676
 Alpha virt. eigenvalues --    2.13862   2.14262   2.14792   2.15129   2.15818
 Alpha virt. eigenvalues --    2.16421   2.16446   2.16748   2.17754   2.17945
 Alpha virt. eigenvalues --    2.18646   2.19206   2.19278   2.19495   2.19910
 Alpha virt. eigenvalues --    2.20082   2.21008   2.21860   2.22187   2.22459
 Alpha virt. eigenvalues --    2.23420   2.24137   2.24303   2.24915   2.25485
 Alpha virt. eigenvalues --    2.25945   2.26254   2.26514   2.26962   2.27535
 Alpha virt. eigenvalues --    2.27926   2.28470   2.28835   2.29085   2.30197
 Alpha virt. eigenvalues --    2.30629   2.30933   2.31356   2.31466   2.31941
 Alpha virt. eigenvalues --    2.32866   2.33088   2.33719   2.34141   2.34795
 Alpha virt. eigenvalues --    2.35006   2.35454   2.36035   2.36356   2.37125
 Alpha virt. eigenvalues --    2.37253   2.37521   2.38008   2.38707   2.38741
 Alpha virt. eigenvalues --    2.39249   2.39576   2.39928   2.40158   2.40793
 Alpha virt. eigenvalues --    2.41252   2.41921   2.42124   2.42340   2.42962
 Alpha virt. eigenvalues --    2.43699   2.44162   2.44812   2.45236   2.45427
 Alpha virt. eigenvalues --    2.45591   2.45797   2.46077   2.46915   2.47126
 Alpha virt. eigenvalues --    2.47461   2.47956   2.48412   2.48923   2.49159
 Alpha virt. eigenvalues --    2.50030   2.50367   2.51204   2.51362   2.52066
 Alpha virt. eigenvalues --    2.52622   2.52878   2.53300   2.53422   2.54219
 Alpha virt. eigenvalues --    2.54715   2.54779   2.55519   2.56093   2.56315
 Alpha virt. eigenvalues --    2.56428   2.56664   2.56920   2.57499   2.57718
 Alpha virt. eigenvalues --    2.58501   2.58597   2.58871   2.59739   2.59908
 Alpha virt. eigenvalues --    2.60017   2.60364   2.60988   2.61155   2.61670
 Alpha virt. eigenvalues --    2.62289   2.62560   2.62774   2.63833   2.64037
 Alpha virt. eigenvalues --    2.64273   2.64714   2.65194   2.65621   2.65974
 Alpha virt. eigenvalues --    2.66449   2.66807   2.67447   2.67699   2.68316
 Alpha virt. eigenvalues --    2.68604   2.68942   2.69621   2.69997   2.70610
 Alpha virt. eigenvalues --    2.71007   2.71230   2.71474   2.71605   2.72546
 Alpha virt. eigenvalues --    2.72898   2.73444   2.73765   2.74563   2.74993
 Alpha virt. eigenvalues --    2.75475   2.75880   2.76491   2.76604   2.77030
 Alpha virt. eigenvalues --    2.77473   2.77739   2.78633   2.78734   2.79524
 Alpha virt. eigenvalues --    2.79908   2.80280   2.80525   2.81327   2.81863
 Alpha virt. eigenvalues --    2.82213   2.82709   2.82974   2.83557   2.83704
 Alpha virt. eigenvalues --    2.84620   2.84837   2.85258   2.85504   2.86030
 Alpha virt. eigenvalues --    2.86615   2.86684   2.86962   2.87298   2.88217
 Alpha virt. eigenvalues --    2.88353   2.88710   2.89038   2.89572   2.89713
 Alpha virt. eigenvalues --    2.90120   2.90677   2.90977   2.91570   2.91864
 Alpha virt. eigenvalues --    2.91938   2.92313   2.93121   2.93316   2.93789
 Alpha virt. eigenvalues --    2.93968   2.94308   2.94462   2.94909   2.95574
 Alpha virt. eigenvalues --    2.95895   2.95998   2.96484   2.97167   2.97300
 Alpha virt. eigenvalues --    2.97548   2.98008   2.98177   2.98277   2.99063
 Alpha virt. eigenvalues --    2.99511   2.99923   2.99929   3.00737   3.01512
 Alpha virt. eigenvalues --    3.01718   3.01907   3.01986   3.02692   3.03009
 Alpha virt. eigenvalues --    3.03451   3.03847   3.04520   3.04690   3.05052
 Alpha virt. eigenvalues --    3.05759   3.06044   3.06855   3.07255   3.07397
 Alpha virt. eigenvalues --    3.07492   3.07761   3.08203   3.08448   3.08562
 Alpha virt. eigenvalues --    3.09113   3.09762   3.10066   3.10339   3.10963
 Alpha virt. eigenvalues --    3.10986   3.11064   3.11523   3.12165   3.12201
 Alpha virt. eigenvalues --    3.12473   3.12722   3.13298   3.13816   3.14127
 Alpha virt. eigenvalues --    3.14462   3.14693   3.15009   3.15278   3.15903
 Alpha virt. eigenvalues --    3.16038   3.16508   3.16877   3.17229   3.17401
 Alpha virt. eigenvalues --    3.17864   3.18264   3.18606   3.18692   3.19061
 Alpha virt. eigenvalues --    3.19625   3.19644   3.20076   3.20354   3.20859
 Alpha virt. eigenvalues --    3.21130   3.21311   3.21476   3.21771   3.22069
 Alpha virt. eigenvalues --    3.22846   3.22959   3.23184   3.23819   3.24121
 Alpha virt. eigenvalues --    3.24326   3.24477   3.24787   3.25317   3.25428
 Alpha virt. eigenvalues --    3.25701   3.25827   3.26225   3.26388   3.26672
 Alpha virt. eigenvalues --    3.26989   3.27578   3.27699   3.27821   3.28021
 Alpha virt. eigenvalues --    3.28454   3.28907   3.29137   3.29364   3.29530
 Alpha virt. eigenvalues --    3.29823   3.30016   3.30345   3.30494   3.30767
 Alpha virt. eigenvalues --    3.31377   3.31796   3.32163   3.32318   3.32706
 Alpha virt. eigenvalues --    3.33015   3.33192   3.33275   3.33547   3.34290
 Alpha virt. eigenvalues --    3.34513   3.34639   3.35011   3.35132   3.35459
 Alpha virt. eigenvalues --    3.35829   3.36112   3.36353   3.36572   3.36828
 Alpha virt. eigenvalues --    3.37206   3.37543   3.37586   3.37766   3.38077
 Alpha virt. eigenvalues --    3.38345   3.38848   3.38900   3.39258   3.39484
 Alpha virt. eigenvalues --    3.39746   3.40007   3.41185   3.41395   3.41598
 Alpha virt. eigenvalues --    3.41857   3.42427   3.42502   3.42880   3.43248
 Alpha virt. eigenvalues --    3.43679   3.44625   3.44815   3.45569   3.45677
 Alpha virt. eigenvalues --    3.46150   3.46450   3.46873   3.47404   3.47886
 Alpha virt. eigenvalues --    3.48098   3.48234   3.48900   3.49279   3.49545
 Alpha virt. eigenvalues --    3.50329   3.51416   3.51776   3.51956   3.52457
 Alpha virt. eigenvalues --    3.52968   3.53211   3.53533   3.54274   3.54524
 Alpha virt. eigenvalues --    3.55417   3.55994   3.56560   3.57019   3.57449
 Alpha virt. eigenvalues --    3.57546   3.57854   3.58187   3.58956   3.59460
 Alpha virt. eigenvalues --    3.59566   3.60711   3.60983   3.61238   3.62242
 Alpha virt. eigenvalues --    3.62426   3.62875   3.63317   3.63847   3.64293
 Alpha virt. eigenvalues --    3.65121   3.65415   3.65795   3.66447   3.66905
 Alpha virt. eigenvalues --    3.67502   3.67865   3.68383   3.68745   3.69305
 Alpha virt. eigenvalues --    3.69592   3.70136   3.70213   3.70815   3.71340
 Alpha virt. eigenvalues --    3.71418   3.72137   3.72628   3.72875   3.73034
 Alpha virt. eigenvalues --    3.73608   3.74143   3.74439   3.74768   3.74977
 Alpha virt. eigenvalues --    3.75340   3.75461   3.76253   3.77286   3.77337
 Alpha virt. eigenvalues --    3.77974   3.78388   3.78931   3.79501   3.80146
 Alpha virt. eigenvalues --    3.80778   3.80913   3.82141   3.82179   3.83036
 Alpha virt. eigenvalues --    3.83328   3.83977   3.84304   3.84971   3.86132
 Alpha virt. eigenvalues --    3.86345   3.87149   3.87298   3.87633   3.88215
 Alpha virt. eigenvalues --    3.88708   3.89527   3.90037   3.90353   3.91342
 Alpha virt. eigenvalues --    3.91689   3.92532   3.92821   3.92844   3.93097
 Alpha virt. eigenvalues --    3.93752   3.94940   3.96292   3.96896   3.97483
 Alpha virt. eigenvalues --    3.98302   3.98992   3.99664   3.99900   4.00355
 Alpha virt. eigenvalues --    4.00577   4.01000   4.01985   4.02535   4.03362
 Alpha virt. eigenvalues --    4.03504   4.04061   4.05031   4.05388   4.05790
 Alpha virt. eigenvalues --    4.06011   4.07270   4.07819   4.08126   4.08962
 Alpha virt. eigenvalues --    4.09733   4.10558   4.11702   4.12861   4.13041
 Alpha virt. eigenvalues --    4.13524   4.13848   4.14511   4.14840   4.15408
 Alpha virt. eigenvalues --    4.15864   4.16974   4.17065   4.17945   4.18496
 Alpha virt. eigenvalues --    4.18930   4.19244   4.19886   4.20332   4.20810
 Alpha virt. eigenvalues --    4.22938   4.22965   4.23282   4.24133   4.24265
 Alpha virt. eigenvalues --    4.24510   4.24800   4.25271   4.26064   4.26356
 Alpha virt. eigenvalues --    4.26565   4.26808   4.28166   4.28311   4.29441
 Alpha virt. eigenvalues --    4.30607   4.31126   4.31849   4.32144   4.33113
 Alpha virt. eigenvalues --    4.33862   4.34326   4.34763   4.35082   4.35641
 Alpha virt. eigenvalues --    4.36839   4.37331   4.38496   4.39124   4.39553
 Alpha virt. eigenvalues --    4.40350   4.40728   4.40990   4.41410   4.41590
 Alpha virt. eigenvalues --    4.41937   4.42572   4.42805   4.43362   4.44062
 Alpha virt. eigenvalues --    4.44456   4.44735   4.45406   4.45431   4.45760
 Alpha virt. eigenvalues --    4.46747   4.47800   4.48219   4.49496   4.50984
 Alpha virt. eigenvalues --    4.51395   4.52395   4.53645   4.53988   4.55319
 Alpha virt. eigenvalues --    4.55768   4.56537   4.56930   4.57765   4.58698
 Alpha virt. eigenvalues --    4.59039   4.61122   4.61709   4.63267   4.64276
 Alpha virt. eigenvalues --    4.64804   4.65476   4.68168   4.68277   4.69036
 Alpha virt. eigenvalues --    4.69155   4.69745   4.70467   4.71196   4.72304
 Alpha virt. eigenvalues --    4.73472   4.73745   4.74519   4.74712   4.75377
 Alpha virt. eigenvalues --    4.76428   4.77590   4.78339   4.79764   4.80571
 Alpha virt. eigenvalues --    4.81036   4.82231   4.82610   4.83462   4.83876
 Alpha virt. eigenvalues --    4.84115   4.84574   4.85036   4.85728   4.86263
 Alpha virt. eigenvalues --    4.86911   4.88401   4.89415   4.89855   4.91098
 Alpha virt. eigenvalues --    4.92424   4.92655   4.93520   4.94830   4.95137
 Alpha virt. eigenvalues --    4.95771   4.96131   4.96692   4.97173   4.98518
 Alpha virt. eigenvalues --    4.99445   5.00507   5.01763   5.02454   5.03346
 Alpha virt. eigenvalues --    5.03877   5.04896   5.05202   5.06771   5.07118
 Alpha virt. eigenvalues --    5.07721   5.08163   5.08813   5.09563   5.09756
 Alpha virt. eigenvalues --    5.12784   5.13640   5.17228   5.17771   5.18908
 Alpha virt. eigenvalues --    5.19715   5.20534   5.21286   5.22066   5.22797
 Alpha virt. eigenvalues --    5.23109   5.23539   5.25316   5.25830   5.28427
 Alpha virt. eigenvalues --    5.29356   5.29471   5.34268   5.35634   5.36097
 Alpha virt. eigenvalues --    5.36611   5.37359   5.38507   5.38663   5.39745
 Alpha virt. eigenvalues --    5.40064   5.41507   5.42612   5.42871   5.46061
 Alpha virt. eigenvalues --    5.47986   5.48457   5.49988   5.50556   5.51178
 Alpha virt. eigenvalues --    5.51908   5.53787   5.55092   5.57337   5.61129
 Alpha virt. eigenvalues --    5.61511   5.62033   5.62845   5.63292   5.64973
 Alpha virt. eigenvalues --    5.66656   5.67110   5.67980   5.68722   5.70951
 Alpha virt. eigenvalues --    5.74525   5.76484   5.77046   5.77979   5.78238
 Alpha virt. eigenvalues --    5.79280   5.88166   5.89629   5.91872   5.95642
 Alpha virt. eigenvalues --    6.01447   6.01499   6.03020   6.07195   6.09403
 Alpha virt. eigenvalues --    6.11955   6.12416   6.13234   6.16214   6.17896
 Alpha virt. eigenvalues --    6.27328   6.33911   6.34134   6.40937  22.35831
 Alpha virt. eigenvalues --   22.36246  22.43671  22.46136  22.46599  22.53049
 Alpha virt. eigenvalues --   22.53925  22.62700  22.63163  22.74807  22.83104
 Alpha virt. eigenvalues --   22.87052  22.89478  22.94046  22.94155  22.95438
 Alpha virt. eigenvalues --   22.96651  23.04044  23.04797  23.05616  23.16187
 Alpha virt. eigenvalues --   23.26686  23.27745  23.30561  23.31670  23.37812
 Alpha virt. eigenvalues --   23.42511  23.50983  23.51391  23.55965  23.75384
 Alpha virt. eigenvalues --   23.79863  23.80476  23.89523  32.39550  32.66878
 Alpha virt. eigenvalues --   32.85835  32.93156  32.95072  33.08468
  Beta  occ. eigenvalues -- -256.19098 -30.00230 -25.85286 -25.84682 -25.84249
  Beta  occ. eigenvalues --  -14.42293 -14.36019 -14.32779 -14.32748 -14.32629
  Beta  occ. eigenvalues --  -14.32511 -10.26136 -10.24267 -10.21508 -10.21432
  Beta  occ. eigenvalues --  -10.21362 -10.21262 -10.21208 -10.21198 -10.21126
  Beta  occ. eigenvalues --  -10.21091 -10.21034 -10.20941 -10.19772 -10.19635
  Beta  occ. eigenvalues --  -10.19205 -10.19177 -10.18986 -10.18929 -10.18866
  Beta  occ. eigenvalues --  -10.18816 -10.18805 -10.18712 -10.18660 -10.18655
  Beta  occ. eigenvalues --  -10.18647 -10.18647 -10.18638 -10.18592 -10.18516
  Beta  occ. eigenvalues --  -10.18484 -10.18429 -10.18355 -10.18335 -10.18228
  Beta  occ. eigenvalues --   -3.34360  -2.10203  -2.09849  -2.09370  -1.05734
  Beta  occ. eigenvalues --   -0.96957  -0.96032  -0.95886  -0.94945  -0.91290
  Beta  occ. eigenvalues --   -0.82490  -0.82035  -0.81731  -0.80902  -0.80762
  Beta  occ. eigenvalues --   -0.80523  -0.79790  -0.79717  -0.76909  -0.75855
  Beta  occ. eigenvalues --   -0.74462  -0.74154  -0.73281  -0.72295  -0.71161
  Beta  occ. eigenvalues --   -0.70309  -0.68435  -0.68053  -0.67964  -0.65054
  Beta  occ. eigenvalues --   -0.64325  -0.64226  -0.61846  -0.60770  -0.60166
  Beta  occ. eigenvalues --   -0.58064  -0.56691  -0.56399  -0.54634  -0.53826
  Beta  occ. eigenvalues --   -0.53502  -0.52806  -0.51199  -0.51163  -0.50648
  Beta  occ. eigenvalues --   -0.48904  -0.48278  -0.48027  -0.47957  -0.47455
  Beta  occ. eigenvalues --   -0.45202  -0.44934  -0.44706  -0.44624  -0.44199
  Beta  occ. eigenvalues --   -0.43806  -0.43643  -0.43619  -0.43331  -0.43261
  Beta  occ. eigenvalues --   -0.43180  -0.42886  -0.42826  -0.42521  -0.42114
  Beta  occ. eigenvalues --   -0.41874  -0.41640  -0.41408  -0.40488  -0.40313
  Beta  occ. eigenvalues --   -0.40244  -0.40010  -0.39596  -0.39261  -0.39207
  Beta  occ. eigenvalues --   -0.38739  -0.38513  -0.38017  -0.37751  -0.37205
  Beta  occ. eigenvalues --   -0.37154  -0.36617  -0.36189  -0.36029  -0.35414
  Beta  occ. eigenvalues --   -0.34568  -0.34329  -0.34018  -0.33788  -0.32281
  Beta  occ. eigenvalues --   -0.32229  -0.31140  -0.30449  -0.30126  -0.29593
  Beta  occ. eigenvalues --   -0.29145  -0.26895  -0.26823  -0.24720  -0.23636
  Beta  occ. eigenvalues --   -0.23332  -0.22692  -0.22104  -0.18945  -0.18116
  Beta  occ. eigenvalues --   -0.14887
  Beta virt. eigenvalues --   -0.07550  -0.06314  -0.02280  -0.00677  -0.00379
  Beta virt. eigenvalues --    0.00465   0.01353   0.01836   0.02256   0.03034
  Beta virt. eigenvalues --    0.04085   0.04563   0.04876   0.05336   0.05508
  Beta virt. eigenvalues --    0.05770   0.06107   0.06921   0.07619   0.07954
  Beta virt. eigenvalues --    0.08161   0.08249   0.08796   0.08968   0.09301
  Beta virt. eigenvalues --    0.09513   0.09673   0.10039   0.10734   0.10972
  Beta virt. eigenvalues --    0.11291   0.11389   0.11652   0.11771   0.12034
  Beta virt. eigenvalues --    0.12148   0.12386   0.12609   0.12896   0.13081
  Beta virt. eigenvalues --    0.13226   0.13580   0.13818   0.14081   0.14349
  Beta virt. eigenvalues --    0.14456   0.14809   0.14918   0.15397   0.15536
  Beta virt. eigenvalues --    0.15617   0.15754   0.15963   0.16015   0.16131
  Beta virt. eigenvalues --    0.16501   0.16756   0.17223   0.17331   0.17588
  Beta virt. eigenvalues --    0.17874   0.17921   0.18391   0.18776   0.19304
  Beta virt. eigenvalues --    0.19415   0.19721   0.19929   0.20004   0.20347
  Beta virt. eigenvalues --    0.20669   0.20893   0.21105   0.21250   0.22076
  Beta virt. eigenvalues --    0.22278   0.22408   0.22577   0.22817   0.23014
  Beta virt. eigenvalues --    0.23390   0.23669   0.24321   0.24409   0.25097
  Beta virt. eigenvalues --    0.25459   0.25588   0.25808   0.26156   0.26547
  Beta virt. eigenvalues --    0.26646   0.26862   0.27056   0.27205   0.27506
  Beta virt. eigenvalues --    0.27719   0.27990   0.28588   0.29003   0.29122
  Beta virt. eigenvalues --    0.29198   0.29645   0.29891   0.30039   0.30327
  Beta virt. eigenvalues --    0.30722   0.30761   0.30891   0.31256   0.31595
  Beta virt. eigenvalues --    0.32064   0.32207   0.32288   0.32870   0.33093
  Beta virt. eigenvalues --    0.33376   0.33450   0.33882   0.34210   0.34381
  Beta virt. eigenvalues --    0.34698   0.34918   0.35366   0.35628   0.35879
  Beta virt. eigenvalues --    0.36218   0.36851   0.36915   0.37148   0.37675
  Beta virt. eigenvalues --    0.37839   0.38041   0.38236   0.38594   0.38729
  Beta virt. eigenvalues --    0.39013   0.39074   0.39510   0.39658   0.39853
  Beta virt. eigenvalues --    0.40110   0.40241   0.40471   0.40762   0.41039
  Beta virt. eigenvalues --    0.41203   0.41623   0.41704   0.41817   0.42006
  Beta virt. eigenvalues --    0.42169   0.42272   0.42593   0.42811   0.43137
  Beta virt. eigenvalues --    0.43295   0.43624   0.43748   0.43959   0.44181
  Beta virt. eigenvalues --    0.44446   0.44606   0.45048   0.45134   0.45399
  Beta virt. eigenvalues --    0.45540   0.45895   0.46202   0.46486   0.46730
  Beta virt. eigenvalues --    0.46846   0.46925   0.47194   0.47484   0.47628
  Beta virt. eigenvalues --    0.47862   0.48055   0.48286   0.48515   0.48704
  Beta virt. eigenvalues --    0.48851   0.48953   0.49333   0.49635   0.49765
  Beta virt. eigenvalues --    0.49822   0.50133   0.50345   0.50501   0.51042
  Beta virt. eigenvalues --    0.51182   0.51540   0.51600   0.51730   0.52321
  Beta virt. eigenvalues --    0.52511   0.52688   0.52739   0.52836   0.52949
  Beta virt. eigenvalues --    0.53443   0.53604   0.53874   0.54309   0.54380
  Beta virt. eigenvalues --    0.54439   0.55009   0.55430   0.55963   0.56033
  Beta virt. eigenvalues --    0.56333   0.56468   0.56670   0.56918   0.57290
  Beta virt. eigenvalues --    0.57868   0.57928   0.58267   0.58354   0.58849
  Beta virt. eigenvalues --    0.59055   0.59322   0.59698   0.60295   0.60531
  Beta virt. eigenvalues --    0.60871   0.60987   0.61314   0.61615   0.62072
  Beta virt. eigenvalues --    0.62199   0.62578   0.62904   0.63523   0.63769
  Beta virt. eigenvalues --    0.64103   0.64465   0.64663   0.64922   0.65143
  Beta virt. eigenvalues --    0.65545   0.65948   0.66152   0.66290   0.66484
  Beta virt. eigenvalues --    0.66963   0.67345   0.67738   0.68015   0.68304
  Beta virt. eigenvalues --    0.68413   0.68853   0.69219   0.69809   0.70184
  Beta virt. eigenvalues --    0.70856   0.70880   0.71110   0.71416   0.71780
  Beta virt. eigenvalues --    0.71873   0.72317   0.72741   0.73047   0.73513
  Beta virt. eigenvalues --    0.73694   0.73943   0.74144   0.74279   0.74644
  Beta virt. eigenvalues --    0.75013   0.75380   0.75433   0.75705   0.76186
  Beta virt. eigenvalues --    0.76535   0.76909   0.77295   0.77611   0.78069
  Beta virt. eigenvalues --    0.78351   0.78603   0.78907   0.79434   0.79583
  Beta virt. eigenvalues --    0.80256   0.80408   0.80584   0.81195   0.81373
  Beta virt. eigenvalues --    0.81472   0.82084   0.82636   0.82968   0.83373
  Beta virt. eigenvalues --    0.83966   0.84539   0.84688   0.84888   0.85275
  Beta virt. eigenvalues --    0.85496   0.85790   0.86511   0.87214   0.87446
  Beta virt. eigenvalues --    0.87875   0.88364   0.88735   0.88902   0.89242
  Beta virt. eigenvalues --    0.89455   0.90070   0.90300   0.90694   0.91422
  Beta virt. eigenvalues --    0.91581   0.91820   0.92438   0.92621   0.93182
  Beta virt. eigenvalues --    0.93434   0.93841   0.94178   0.94220   0.94895
  Beta virt. eigenvalues --    0.95179   0.95325   0.95874   0.96573   0.96743
  Beta virt. eigenvalues --    0.97550   0.97846   0.98329   0.98400   0.98696
  Beta virt. eigenvalues --    0.99066   0.99377   0.99749   1.00548   1.01009
  Beta virt. eigenvalues --    1.01094   1.01293   1.01696   1.01961   1.02092
  Beta virt. eigenvalues --    1.02272   1.02822   1.03007   1.03093   1.03393
  Beta virt. eigenvalues --    1.04094   1.04512   1.04813   1.04880   1.05351
  Beta virt. eigenvalues --    1.05425   1.05764   1.05936   1.06595   1.06775
  Beta virt. eigenvalues --    1.07618   1.08200   1.08579   1.08826   1.09037
  Beta virt. eigenvalues --    1.09396   1.09586   1.09785   1.10873   1.11409
  Beta virt. eigenvalues --    1.11962   1.12376   1.12928   1.13151   1.13675
  Beta virt. eigenvalues --    1.14162   1.14377   1.14842   1.15582   1.15937
  Beta virt. eigenvalues --    1.16114   1.16474   1.17199   1.17412   1.17690
  Beta virt. eigenvalues --    1.18239   1.18425   1.19068   1.19288   1.19892
  Beta virt. eigenvalues --    1.20367   1.20763   1.21014   1.21253   1.21385
  Beta virt. eigenvalues --    1.22012   1.22480   1.23515   1.23670   1.23950
  Beta virt. eigenvalues --    1.24873   1.25332   1.25916   1.26404   1.26796
  Beta virt. eigenvalues --    1.26982   1.27849   1.28189   1.28246   1.28806
  Beta virt. eigenvalues --    1.29010   1.29295   1.29374   1.29520   1.29851
  Beta virt. eigenvalues --    1.30209   1.30472   1.30943   1.31311   1.31864
  Beta virt. eigenvalues --    1.32116   1.32260   1.32814   1.33504   1.34585
  Beta virt. eigenvalues --    1.35537   1.36001   1.36775   1.37484   1.37884
  Beta virt. eigenvalues --    1.38927   1.39086   1.39406   1.40502   1.40665
  Beta virt. eigenvalues --    1.40937   1.41404   1.41664   1.42373   1.42952
  Beta virt. eigenvalues --    1.43408   1.44287   1.44925   1.45408   1.45691
  Beta virt. eigenvalues --    1.45834   1.46946   1.47255   1.47556   1.47894
  Beta virt. eigenvalues --    1.48149   1.48375   1.48939   1.49081   1.49872
  Beta virt. eigenvalues --    1.50066   1.50608   1.50817   1.50929   1.50992
  Beta virt. eigenvalues --    1.51224   1.51449   1.51715   1.52006   1.52291
  Beta virt. eigenvalues --    1.52501   1.53067   1.53273   1.53567   1.53815
  Beta virt. eigenvalues --    1.54152   1.54200   1.54443   1.54853   1.54991
  Beta virt. eigenvalues --    1.55234   1.55638   1.55647   1.55954   1.56255
  Beta virt. eigenvalues --    1.56357   1.56748   1.57378   1.57557   1.57788
  Beta virt. eigenvalues --    1.58075   1.58126   1.58465   1.59067   1.59303
  Beta virt. eigenvalues --    1.59546   1.59746   1.60087   1.60168   1.60992
  Beta virt. eigenvalues --    1.61113   1.61460   1.61984   1.62152   1.62184
  Beta virt. eigenvalues --    1.63009   1.63118   1.63299   1.63830   1.64044
  Beta virt. eigenvalues --    1.64271   1.64713   1.65087   1.65155   1.65523
  Beta virt. eigenvalues --    1.65596   1.66154   1.66308   1.66753   1.67303
  Beta virt. eigenvalues --    1.67600   1.67650   1.68199   1.68327   1.68558
  Beta virt. eigenvalues --    1.69257   1.69749   1.70065   1.70389   1.70533
  Beta virt. eigenvalues --    1.71227   1.71548   1.72065   1.72426   1.72841
  Beta virt. eigenvalues --    1.73298   1.73530   1.73953   1.74743   1.75181
  Beta virt. eigenvalues --    1.75622   1.76812   1.77690   1.78017   1.78435
  Beta virt. eigenvalues --    1.78943   1.79822   1.80479   1.81054   1.81308
  Beta virt. eigenvalues --    1.81510   1.81894   1.82055   1.82944   1.83186
  Beta virt. eigenvalues --    1.84036   1.84586   1.84775   1.85461   1.86000
  Beta virt. eigenvalues --    1.86400   1.86807   1.87012   1.87276   1.87800
  Beta virt. eigenvalues --    1.88054   1.88216   1.88719   1.89354   1.89977
  Beta virt. eigenvalues --    1.90281   1.90735   1.91306   1.91647   1.92511
  Beta virt. eigenvalues --    1.93364   1.93753   1.94250   1.94489   1.95017
  Beta virt. eigenvalues --    1.95458   1.96087   1.96906   1.97475   1.97865
  Beta virt. eigenvalues --    1.98200   1.98695   1.98890   1.99835   1.99935
  Beta virt. eigenvalues --    2.00683   2.00834   2.01119   2.01967   2.02156
  Beta virt. eigenvalues --    2.02609   2.03046   2.03248   2.03828   2.04654
  Beta virt. eigenvalues --    2.05413   2.05713   2.05807   2.06568   2.07641
  Beta virt. eigenvalues --    2.07929   2.08275   2.08917   2.09439   2.09534
  Beta virt. eigenvalues --    2.09918   2.10466   2.10683   2.11348   2.11882
  Beta virt. eigenvalues --    2.12217   2.13041   2.13090   2.13883   2.14100
  Beta virt. eigenvalues --    2.14580   2.15223   2.15493   2.16280   2.16496
  Beta virt. eigenvalues --    2.16547   2.16907   2.17889   2.18034   2.18750
  Beta virt. eigenvalues --    2.19320   2.19464   2.19587   2.20088   2.20133
  Beta virt. eigenvalues --    2.21181   2.22035   2.22409   2.22517   2.23498
  Beta virt. eigenvalues --    2.24213   2.24492   2.24998   2.25543   2.26200
  Beta virt. eigenvalues --    2.26318   2.26938   2.27281   2.27670   2.28275
  Beta virt. eigenvalues --    2.28507   2.28940   2.29773   2.30304   2.30770
  Beta virt. eigenvalues --    2.31034   2.31522   2.31631   2.32005   2.32926
  Beta virt. eigenvalues --    2.33202   2.33892   2.34323   2.34824   2.35038
  Beta virt. eigenvalues --    2.35464   2.36115   2.36384   2.37182   2.37326
  Beta virt. eigenvalues --    2.37561   2.38080   2.38760   2.38819   2.39411
  Beta virt. eigenvalues --    2.39699   2.39957   2.40569   2.40904   2.41377
  Beta virt. eigenvalues --    2.42024   2.42444   2.42544   2.43126   2.44006
  Beta virt. eigenvalues --    2.44574   2.45208   2.45396   2.45632   2.45808
  Beta virt. eigenvalues --    2.46146   2.46574   2.47144   2.47271   2.47649
  Beta virt. eigenvalues --    2.48173   2.48530   2.49113   2.49310   2.50209
  Beta virt. eigenvalues --    2.50567   2.51342   2.51564   2.52210   2.52697
  Beta virt. eigenvalues --    2.52975   2.53339   2.53671   2.54308   2.54873
  Beta virt. eigenvalues --    2.54963   2.55580   2.56137   2.56452   2.56527
  Beta virt. eigenvalues --    2.56797   2.56944   2.57727   2.57833   2.58636
  Beta virt. eigenvalues --    2.58694   2.58965   2.59867   2.60043   2.60104
  Beta virt. eigenvalues --    2.60441   2.61028   2.61243   2.61741   2.62424
  Beta virt. eigenvalues --    2.62654   2.63083   2.63932   2.64194   2.64407
  Beta virt. eigenvalues --    2.64804   2.65287   2.65721   2.66048   2.66517
  Beta virt. eigenvalues --    2.66903   2.67509   2.67768   2.68423   2.68663
  Beta virt. eigenvalues --    2.69007   2.69700   2.70097   2.70721   2.71126
  Beta virt. eigenvalues --    2.71358   2.71533   2.71728   2.72619   2.73136
  Beta virt. eigenvalues --    2.73745   2.73908   2.74774   2.75299   2.75749
  Beta virt. eigenvalues --    2.76119   2.76619   2.76884   2.77383   2.77540
  Beta virt. eigenvalues --    2.77931   2.78843   2.78893   2.79557   2.79948
  Beta virt. eigenvalues --    2.80496   2.80832   2.81414   2.81993   2.82434
  Beta virt. eigenvalues --    2.82868   2.83267   2.83629   2.83942   2.84716
  Beta virt. eigenvalues --    2.85040   2.85341   2.85599   2.86329   2.86687
  Beta virt. eigenvalues --    2.86874   2.87205   2.87460   2.88286   2.88432
  Beta virt. eigenvalues --    2.88788   2.89344   2.89705   2.90027   2.90329
  Beta virt. eigenvalues --    2.90825   2.91243   2.91694   2.91979   2.92422
  Beta virt. eigenvalues --    2.92555   2.93200   2.93349   2.93870   2.94142
  Beta virt. eigenvalues --    2.94395   2.94573   2.95124   2.95725   2.95946
  Beta virt. eigenvalues --    2.96099   2.96573   2.97210   2.97346   2.97580
  Beta virt. eigenvalues --    2.98088   2.98321   2.98450   2.99133   2.99564
  Beta virt. eigenvalues --    2.99962   3.00017   3.00762   3.01664   3.01811
  Beta virt. eigenvalues --    3.02021   3.02112   3.02752   3.03063   3.03542
  Beta virt. eigenvalues --    3.03896   3.04578   3.04779   3.05108   3.05798
  Beta virt. eigenvalues --    3.06078   3.06925   3.07281   3.07425   3.07521
  Beta virt. eigenvalues --    3.07789   3.08253   3.08489   3.08596   3.09206
  Beta virt. eigenvalues --    3.09846   3.10100   3.10398   3.11008   3.11043
  Beta virt. eigenvalues --    3.11104   3.11552   3.12229   3.12274   3.12505
  Beta virt. eigenvalues --    3.12803   3.13374   3.13884   3.14170   3.14492
  Beta virt. eigenvalues --    3.14749   3.15098   3.15336   3.15959   3.16078
  Beta virt. eigenvalues --    3.16578   3.16919   3.17265   3.17460   3.17918
  Beta virt. eigenvalues --    3.18323   3.18710   3.18749   3.19102   3.19690
  Beta virt. eigenvalues --    3.19755   3.20116   3.20402   3.20926   3.21193
  Beta virt. eigenvalues --    3.21400   3.21550   3.21818   3.22117   3.22908
  Beta virt. eigenvalues --    3.23002   3.23228   3.23903   3.24225   3.24381
  Beta virt. eigenvalues --    3.24544   3.24863   3.25386   3.25541   3.25765
  Beta virt. eigenvalues --    3.25882   3.26300   3.26450   3.26741   3.27097
  Beta virt. eigenvalues --    3.27620   3.27763   3.27919   3.28100   3.28530
  Beta virt. eigenvalues --    3.28981   3.29213   3.29486   3.29597   3.29837
  Beta virt. eigenvalues --    3.30045   3.30398   3.30520   3.30779   3.31408
  Beta virt. eigenvalues --    3.31832   3.32232   3.32415   3.32761   3.33141
  Beta virt. eigenvalues --    3.33238   3.33325   3.33622   3.34382   3.34558
  Beta virt. eigenvalues --    3.34674   3.35049   3.35218   3.35523   3.35883
  Beta virt. eigenvalues --    3.36231   3.36404   3.36679   3.36902   3.37304
  Beta virt. eigenvalues --    3.37600   3.37644   3.37813   3.38133   3.38419
  Beta virt. eigenvalues --    3.38900   3.38928   3.39327   3.39522   3.39822
  Beta virt. eigenvalues --    3.40157   3.41387   3.41471   3.41688   3.41905
  Beta virt. eigenvalues --    3.42482   3.42563   3.43005   3.43489   3.43829
  Beta virt. eigenvalues --    3.44799   3.44953   3.45638   3.45978   3.46268
  Beta virt. eigenvalues --    3.46524   3.47016   3.47464   3.47939   3.48229
  Beta virt. eigenvalues --    3.48344   3.49010   3.49409   3.49616   3.50493
  Beta virt. eigenvalues --    3.51480   3.51897   3.52009   3.52643   3.53130
  Beta virt. eigenvalues --    3.53327   3.53635   3.54471   3.54742   3.55560
  Beta virt. eigenvalues --    3.56092   3.56617   3.57200   3.57721   3.57737
  Beta virt. eigenvalues --    3.58040   3.58388   3.59155   3.59608   3.59661
  Beta virt. eigenvalues --    3.60857   3.61186   3.61442   3.62419   3.62803
  Beta virt. eigenvalues --    3.63066   3.63643   3.64396   3.64570   3.65227
  Beta virt. eigenvalues --    3.65617   3.66099   3.66555   3.67633   3.67918
  Beta virt. eigenvalues --    3.68059   3.68774   3.68926   3.69387   3.69875
  Beta virt. eigenvalues --    3.70216   3.70477   3.71018   3.71396   3.71573
  Beta virt. eigenvalues --    3.72249   3.72802   3.72934   3.73232   3.74223
  Beta virt. eigenvalues --    3.74290   3.74770   3.75139   3.75257   3.75607
  Beta virt. eigenvalues --    3.75979   3.76800   3.77390   3.77513   3.78409
  Beta virt. eigenvalues --    3.79008   3.79674   3.80235   3.80753   3.80988
  Beta virt. eigenvalues --    3.82024   3.82710   3.83520   3.83710   3.83818
  Beta virt. eigenvalues --    3.84696   3.85481   3.86290   3.86532   3.86840
  Beta virt. eigenvalues --    3.87717   3.88311   3.88499   3.89087   3.89616
  Beta virt. eigenvalues --    3.90060   3.90451   3.90865   3.91462   3.92006
  Beta virt. eigenvalues --    3.93192   3.93445   3.94016   3.94354   3.94883
  Beta virt. eigenvalues --    3.95715   3.97427   3.97721   3.97837   3.98811
  Beta virt. eigenvalues --    3.99233   4.00211   4.00266   4.00669   4.01211
  Beta virt. eigenvalues --    4.01832   4.03191   4.03464   4.03920   4.04458
  Beta virt. eigenvalues --    4.04791   4.05699   4.06016   4.06200   4.06887
  Beta virt. eigenvalues --    4.08013   4.08641   4.09246   4.10160   4.10618
  Beta virt. eigenvalues --    4.11816   4.13146   4.13679   4.14159   4.14718
  Beta virt. eigenvalues --    4.15221   4.15507   4.16172   4.16336   4.17171
[...]
                                                    1483(g),1340(v),148(r)
                                                    151(r),147(r),153(r),152(r)
                                                    160(r),1403(r)
   139. CR (   1) C  64                  0.99970   -10.06383  1483(v),1291(v),1283(v)
                                                    1481(v)
   140. CR (   1) N  68                  0.99969   -14.22699  1311(v),1285(v),1279(v)
                                                    1479(v)
   141. CR (   1) C  70                  0.99957   -10.09489  1483(g),1368(v),1489(v)
                                                    1213(v)
   142. CR (   1) C  71                  0.99969   -10.12949  1342(v),1480(v),1488(v)
                                                    148(r),147(r)
   143. CR (   1) N  73                  0.99971   -14.14623  148(r),147(r),1309(v),152(r)
                                                    1366(v),1485(v),166(r)
                                                    146(r),164(r)
   144. CR (   1) C  74                  0.99950   -10.06646  1479(v),1283(v),1483(g)
                                                    1342(v),147(r),148(r)
   158. LP (   1) N  68                  0.78835    -0.29017  1487(v),1484(v),1312(v)
                                                    1284(v),1278(v),1310(v)
   159. LP (   1) N  73                  0.83342    -0.38389  148(r),147(r),152(r),1482(v)
                                                    1483(v),1309(v),1485(v)
                                                    1366(v),1489(v),146(r)
                                                    1486(g),1488(g),1343(g)
                                                    165(r),180(r),153(r),240(r)
                                                    216(r),268(r),242(r),190(r)
                                                    187(r),1407(r),1402(r)
                                                    1397(r),1401(r),188(r)
                                                    266(r),1405(r),214(r),179(r)
                                                    1399(r),1404(r),1398(r)
                                                    1406(r),239(r),1403(r)
  1211. RY*(   1) C  64                  0.00060     1.14670   
  1212. RY*(   2) C  64                  0.00038     1.99326   
  1213. RY*(   3) C  64                  0.00026     1.30989   
  1214. RY*(   4) C  64                  0.00006     1.26431   
  1215. RY*(   5) C  64                  0.00003     1.12139   
  1216. RY*(   6) C  64                  0.00004     2.39624   
  1217. RY*(   7) C  64                  0.00000    21.58455   
  1218. RY*(   8) C  64                  0.00000     1.88942   
  1219. RY*(   9) C  64                  0.00000     1.41566   
  1220. RY*(  10) C  64                  0.00001     1.70087   
  1221. RY*(  11) C  64                  0.00000     1.36280   
  1222. RY*(  12) C  64                  0.00000     3.28363   
  1223. RY*(  13) C  64                  0.00000     2.54116   
  1224. RY*(  14) C  64                  0.00000     2.85066   
  1225. RY*(  15) C  64                  0.00000     2.31190   
  1226. RY*(  16) C  64                  0.00000     3.12764   
  1227. RY*(  17) C  64                  0.00000     2.46574   
  1228. RY*(  18) C  64                  0.00000     2.31143   
  1229. RY*(  19) C  64                  0.00000     2.67360   
  1230. RY*(  20) C  64                  0.00000     3.67243   
  1231. RY*(  21) C  64                  0.00000     3.46901   
  1232. RY*(  22) C  64                  0.00000     3.20568   
  1233. RY*(  23) C  64                  0.00000     3.73084   
  1234. RY*(  24) C  64                  0.00000     3.35605   
  1235. RY*(  25) C  64                  0.00000     3.40792   
  1236. RY*(  26) C  64                  0.00000     3.23168   
  1237. RY*(   1) H  65                  0.00036     1.00922   
  1238. RY*(   2) H  65                  0.00007     1.68930   
  1239. RY*(   3) H  65                  0.00004     1.89750   
  1240. RY*(   4) H  65                  0.00003     2.06232   
  1241. RY*(   5) H  65                  0.00000     2.86820   
  1242. RY*(   1) H  66                  0.00036     0.99135   
  1243. RY*(   2) H  66                  0.00007     1.68550   
  1244. RY*(   3) H  66                  0.00004     1.89672   
  1245. RY*(   4) H  66                  0.00003     2.08337   
  1246. RY*(   5) H  66                  0.00000     2.86790   
  1247. RY*(   1) H  67                  0.00012     1.34367   
  1248. RY*(   2) H  67                  0.00007     1.62624   
  1249. RY*(   3) H  67                  0.00004     2.05310   
  1250. RY*(   4) H  67                  0.00000     2.92188   
  1251. RY*(   5) H  67                  0.00001     1.66087   
  1252. RY*(   1) N  68                  0.00140     0.65599   
  1253. RY*(   2) N  68                  0.00111     1.73991   
  1254. RY*(   3) N  68                  0.00050     2.10520   
  1255. RY*(   4) N  68                  0.00038     2.21044   
  1256. RY*(   5) N  68                  0.00026     1.12120   
  1257. RY*(   6) N  68                  0.00014     1.96347   
  1258. RY*(   7) N  68                  0.00010     1.78484   
  1259. RY*(   8) N  68                  0.00003     2.14881   
  1260. RY*(   9) N  68                  0.00003     2.40434   
  1261. RY*(  10) N  68                  0.00003     2.89556   
  1262. RY*(  11) N  68                  0.00000     3.90757   
  1263. RY*(  12) N  68                  0.00000     2.10141   
  1264. RY*(  13) N  68                  0.00000     4.31553   
  1265. RY*(  14) N  68                  0.00001     2.82192   
  1266. RY*(  15) N  68                  0.00000     3.47818   
  1267. RY*(  16) N  68                  0.00000     2.47285   
  1268. RY*(  17) N  68                  0.00000     4.68166   
  1269. RY*(  18) N  68                  0.00000    30.61235   
  1270. RY*(  19) N  68                  0.00001     4.63899   
  1271. RY*(  20) N  68                  0.00000     4.61418   
  1272. RY*(  21) N  68                  0.00001     4.92519   
  1273. RY*(  22) N  68                  0.00000     4.34677   
  1274. RY*(  23) N  68                  0.00000     4.53541   
  1275. RY*(  24) N  68                  0.00000     4.26904   
  1276. RY*(  25) N  68                  0.00000     4.44688   
  1277. RY*(  26) N  68                  0.00000     4.40748   
  1278. RY*(   1) H  69                  0.00028     2.14352   
  1279. RY*(   2) H  69                  0.00020     2.15578   
  1280. RY*(   3) H  69                  0.00015     0.99270   
  1281. RY*(   4) H  69                  0.00011     2.53938   
  1282. RY*(   5) H  69                  0.00000     3.04789   
  1283. RY*(   1) C  70                  0.00204     1.67697   
  1284. RY*(   2) C  70                  0.00128     0.99139   
  1285. RY*(   3) C  70                  0.00094     1.43804   
  1286. RY*(   4) C  70                  0.00082     2.06183   
  1287. RY*(   5) C  70                  0.00060     1.74919   
  1288. RY*(   6) C  70                  0.00056     1.71001   
  1289. RY*(   7) C  70                  0.00019     2.83919   
  1290. RY*(   8) C  70                  0.00010     2.72098   
  1291. RY*(   9) C  70                  0.00008     2.41029   
  1292. RY*(  10) C  70                  0.00004     3.38938   
  1293. RY*(  11) C  70                  0.00001     1.94908   
  1294. RY*(  12) C  70                  0.00002     2.29039   
  1295. RY*(  13) C  70                  0.00000     1.31478   
  1296. RY*(  14) C  70                  0.00001     4.47052   
  1297. RY*(  15) C  70                  0.00000     2.79597   
  1298. RY*(  16) C  70                  0.00000     2.22830   
  1299. RY*(  17) C  70                  0.00000     3.51886   
  1300. RY*(  18) C  70                  0.00000     1.06361   
  1301. RY*(  19) C  70                  0.00000    18.67047   
  1302. RY*(  20) C  70                  0.00000     4.02194   
  1303. RY*(  21) C  70                  0.00000     3.77353   
  1304. RY*(  22) C  70                  0.00000     3.53559   
  1305. RY*(  23) C  70                  0.00000     3.72941   
  1306. RY*(  24) C  70                  0.00000     3.39542   
  1307. RY*(  25) C  70                  0.00000     3.47072   
  1308. RY*(  26) C  70                  0.00000     3.49567   
  1309. RY*(   1) C  71                  0.00210     1.53105   
  1310. RY*(   2) C  71                  0.00196     0.63403   
  1311. RY*(   3) C  71                  0.00098     1.34664   
  1312. RY*(   4) C  71                  0.00065     2.51684   
  1313. RY*(   5) C  71                  0.00039     1.59025   
  1314. RY*(   6) C  71                  0.00022     1.66387   
  1315. RY*(   7) C  71                  0.00013     1.66088   
  1316. RY*(   8) C  71                  0.00006     2.84124   
  1317. RY*(   9) C  71                  0.00002     3.72573   
  1318. RY*(  10) C  71                  0.00003     2.21965   
  1319. RY*(  11) C  71                  0.00003     1.98789   
  1320. RY*(  12) C  71                  0.00001     1.54484   
  1321. RY*(  13) C  71                  0.00000     2.20447   
  1322. RY*(  14) C  71                  0.00000    21.49895   
  1323. RY*(  15) C  71                  0.00000     2.51361   
  1324. RY*(  16) C  71                  0.00000     3.66331   
  1325. RY*(  17) C  71                  0.00000     2.74221   
  1326. RY*(  18) C  71                  0.00000     3.20196   
  1327. RY*(  19) C  71                  0.00001     2.73165   
  1328. RY*(  20) C  71                  0.00001     3.72601   
  1329. RY*(  21) C  71                  0.00000     4.10021   
  1330. RY*(  22) C  71                  0.00000     3.49666   
  1331. RY*(  23) C  71                  0.00000     3.77898   
  1332. RY*(  24) C  71                  0.00000     3.54822   
  1333. RY*(  25) C  71                  0.00000     3.57504   
  1334. RY*(  26) C  71                  0.00000     3.32525   
  1335. RY*(   1) H  72                  0.00030     0.93257   
  1336. RY*(   2) H  72                  0.00014     2.26723   
  1337. RY*(   3) H  72                  0.00011     2.11659   
  1338. RY*(   4) H  72                  0.00006     2.38444   
  1339. RY*(   5) H  72                  0.00001     3.11930   
  1340. RY*(   1) N  73                  0.00285     1.13819   
  1341. RY*(   2) N  73                  0.00267     1.22560   
  1342. RY*(   3) N  73                  0.00131     1.10946   
  1343. RY*(   4) N  73                  0.00049     1.33349   
  1344. RY*(   5) N  73                  0.00043     1.55240   
  1345. RY*(   6) N  73                  0.00021     2.78124   
  1346. RY*(   7) N  73                  0.00017     2.75050   
  1347. RY*(   8) N  73                  0.00015     3.14593   
  1348. RY*(   9) N  73                  0.00005     2.32000   
  1349. RY*(  10) N  73                  0.00006     3.26359   
  1350. RY*(  11) N  73                  0.00003     2.41111   
  1351. RY*(  12) N  73                  0.00003     3.66837   
  1352. RY*(  13) N  73                  0.00003     3.01666   
  1353. RY*(  14) N  73                  0.00000    31.86783   
  1354. RY*(  15) N  73                  0.00000     4.40442   
  1355. RY*(  16) N  73                  0.00001     4.08194   
  1356. RY*(  17) N  73                  0.00000     4.39741   
  1357. RY*(  18) N  73                  0.00000     4.65315   
  1358. RY*(  19) N  73                  0.00000     3.81213   
  1359. RY*(  20) N  73                  0.00000     4.37181   
  1360. RY*(  21) N  73                  0.00001     4.65178   
  1361. RY*(  22) N  73                  0.00000     4.08431   
  1362. RY*(  23) N  73                  0.00000     4.77553   
  1363. RY*(  24) N  73                  0.00000     4.63095   
  1364. RY*(  25) N  73                  0.00000     4.64438   
  1365. RY*(  26) N  73                  0.00000     4.51364   
  1366. RY*(   1) C  74                  0.00187     1.64186   
  1367. RY*(   2) C  74                  0.00139     0.65468   
  1368. RY*(   3) C  74                  0.00088     1.83643   
  1369. RY*(   4) C  74                  0.00035     2.14092   
  1370. RY*(   5) C  74                  0.00029     1.65331   
  1371. RY*(   6) C  74                  0.00023     2.26941   
  1372. RY*(   7) C  74                  0.00020     1.72090   
  1373. RY*(   8) C  74                  0.00014     1.47636   
  1374. RY*(   9) C  74                  0.00006     1.58135   
  1375. RY*(  10) C  74                  0.00007     1.80164   
  1376. RY*(  11) C  74                  0.00003     2.54837   
  1377. RY*(  12) C  74                  0.00003     2.31305   
  1378. RY*(  13) C  74                  0.00001     4.32912   
  1379. RY*(  14) C  74                  0.00002     2.06814   
  1380. RY*(  15) C  74                  0.00001     1.35980   
  1381. RY*(  16) C  74                  0.00000    20.09944   
  1382. RY*(  17) C  74                  0.00000     3.67099   
  1383. RY*(  18) C  74                  0.00000     3.21858   
  1384. RY*(  19) C  74                  0.00001     1.57413   
  1385. RY*(  20) C  74                  0.00000     3.77408   
  1386. RY*(  21) C  74                  0.00001     4.04555   
  1387. RY*(  22) C  74                  0.00000     3.45533   
  1388. RY*(  23) C  74                  0.00000     3.95174   
  1389. RY*(  24) C  74                  0.00000     3.32755   
  1390. RY*(  25) C  74                  0.00000     3.67465   
  1391. RY*(  26) C  74                  0.00000     3.38348   
  1392. RY*(   1) H  75                  0.00030     1.03632   
  1393. RY*(   2) H  75                  0.00012     2.26894   
  1394. RY*(   3) H  75                  0.00011     2.14628   
  1395. RY*(   4) H  75                  0.00003     2.67018   
  1396. RY*(   5) H  75                  0.00001     3.06009   
  1476. BD*(   1) C  64 - H  65          0.00585     0.35508   
  1477. BD*(   1) C  64 - H  66          0.00575     0.35485   
  1478. BD*(   1) C  64 - H  67          0.00171     0.36827   
  1479. BD*(   1) C  64 - C  70          0.00676     0.38426   
  1480. BD*(   1) N  68 - H  69          0.00703     0.36132   
  1481. BD*(   1) N  68 - C  70          0.01358     0.42457   
  1482. BD*(   1) N  68 - C  71          0.01145     0.43963   
  1483. BD*(   1) C  70 - C  74          0.01068     0.55927   
  1484. BD*(   2) C  70 - C  74          0.14947     0.02789  1487(v),1476(v),1477(v)
                                                    1287(g),1371(g)
  1485. BD*(   1) C  71 - H  72          0.00902     0.38178   
  1486. BD*(   1) C  71 - N  73          0.00805     0.52563   
  1487. BD*(   2) C  71 - N  73          0.21649    -0.01372  1484(v),1310(g),151(r)
                                                    1367(v),150(r),146(r)
                                                    1403(r),1400(r),3(r)
  1488. BD*(   1) N  73 - C  74          0.00773     0.47098   
  1489. BD*(   1) C  74 - H  75          0.00720     0.42248   
       -------------------------------
              Total Lewis   21.36610  ( 97.7275%)
        Valence non-Lewis    0.46077  (  2.1075%)
        Rydberg non-Lewis    0.03607  (  0.1650%)
       -------------------------------
            Total unit  3   21.86294  (100.0000%)
           Charge unit  3    0.13706
 Unable to Open any file for archive entry.
 1\1\GINC-BGN1028\SP\UAPFD\def2TZVP\C34H34Fe1N6(5)\BECSLEIP\10-Sep-2024
 \0\\# apfd/def2TZVP guess=read scf=maxcycle=999 geom=check pop=nbo\\2x
 lh_II_Q\\0,5\Fe,0,-22.9764373207,25.4014527608,8.394696911\N,0,-24.352
 6989317,25.4458248293,9.855194905\N,0,-24.4586931818,25.2218446334,7.0
 561826393\N,0,-21.653529259,24.9483660169,6.9674942139\N,0,-21.5455995
 777,25.2313783632,9.7796317634\C,0,-24.1205221834,25.5242859372,11.197
 575098\C,0,-25.3624716306,25.5567878258,11.9364089919\C,0,-26.35646857
 64,25.4745279675,11.0126742969\C,0,-25.70776313,25.4088603897,9.722272
 3233\C,0,-25.8004681876,25.2856221434,7.2819251233\C,0,-26.5404533673,
 25.1776869482,6.0450993416\C,0,-25.6143723477,25.0748223562,5.05517835
 65\C,0,-24.3235234787,25.0842623918,5.7067127536\C,0,-21.8850804744,24
 .8601393478,5.6299304481\C,0,-20.6478370482,24.6593026377,4.9025054334
 \C,0,-19.6546211998,24.6430639046,5.8451544346\C,0,-20.3026546907,24.8
 216861548,7.1188542461\C,0,-20.2088315169,25.1006068318,9.5545074625\C
 ,0,-19.4598142938,25.2537352878,10.7857306163\C,0,-20.3875431215,25.49
 73627484,11.7637541156\C,0,-21.6724946666,25.4711469266,11.1168784874\
 C,0,-22.8762329414,25.5852983803,11.7908450931\H,0,-22.8402878417,25.6
 99914784,12.8635567859\C,0,-26.3944913598,25.3771209429,8.5244799102\H
 ,0,-27.4726998179,25.3896407857,8.5650321934\C,0,-23.1283221463,24.932
 608977,5.0313297093\H,0,-23.1749519028,24.8295398974,3.9580171941\C,0,
 -19.6272516896,24.8659095595,8.3243480755\H,0,-18.556605173,24.7332977
 158,8.2972239339\C,0,-25.455861345,25.6352698121,13.4217016044\H,0,-24
 .9810947967,26.5449182759,13.7907991633\H,0,-24.9558328859,24.78262568
 96,13.8813224124\H,0,-26.4942479844,25.637308445,13.7435253398\C,0,-27
 .8327800524,25.4470041761,11.2119416926\H,0,-28.2573022268,24.53601152
 64,10.7902053765\H,0,-28.3028261643,26.2988024286,10.7196133489\H,0,-2
 8.0814586973,25.4827583949,12.2697046692\C,0,-20.1618033907,25.8012573
 123,13.2039367713\H,0,-20.3046729929,24.9095200326,13.8163498062\H,0,-
 20.8577148079,26.56360486,13.5518700831\H,0,-19.1458923491,26.16086577
 45,13.3545007222\C,0,-18.0187821896,25.1829514425,10.8898986042\H,0,-1
 7.4690172105,25.5328724836,10.0238198365\C,0,-17.3427709686,24.7256891
 161,11.9387696357\H,0,-17.8345386983,24.3192118813,12.8050226196\H,0,-
 16.265536419,24.7134904267,11.9519888394\C,0,-18.1848120583,24.5291516
 054,5.6390177408\H,0,-17.8439319972,23.5103662943,5.829925562\H,0,-17.
 6477994599,25.1957716918,6.3121202627\H,0,-17.9306440469,24.7904894959
 ,4.6138314605\C,0,-20.5490865754,24.5328004818,3.4646066005\H,0,-21.26
 93807651,25.1065154206,2.8925342031\C,0,-19.6687188899,23.7770132046,2
 .8168515666\H,0,-18.9626232075,23.1500750576,3.3325292757\H,0,-19.6426
 785692,23.7398758885,1.7403477938\C,0,-25.8133068805,24.9360376089,3.5
 849623588\H,0,-25.4193593836,23.9824482804,3.2330472815\H,0,-25.296306
 4862,25.7336006441,3.0511112191\H,0,-26.8694971699,24.983735634,3.3321
 157355\C,0,-28.027333848,25.1971006279,5.9515395643\H,0,-28.3511183533
 ,25.097679487,4.918275186\H,0,-28.4244507584,26.1320398452,6.348794143
 2\H,0,-28.4570338365,24.3758049346,6.5256651392\C,0,-22.4711415496,30.
 6133255939,6.4534581484\H,0,-21.5251193995,31.128278884,6.6195229558\H
 ,0,-23.2806438333,31.3163615517,6.6486092163\H,0,-22.5211206718,30.304
 2940913,5.4143029061\N,0,-22.5624263674,29.5120161589,8.6996428223\H,0
 ,-22.4687778525,30.3615041344,9.2318781147\C,0,-22.584428493,29.422618
 174,7.33294974\C,0,-22.6861118275,28.2601120149,9.1958102523\H,0,-22.7
 003319675,28.0259788386,10.2412471914\N,0,-22.7850731954,27.3797111001
 ,8.225399125\C,0,-22.7235985349,28.0920344534,7.0596866792\H,0,-22.783
 2897852,27.5999992786,6.110052373\\Version=ES64L-G16RevC.02\State=5-A\
 HF=-2907.607463\S2=6.098691\S2-1=0.\S2A=6.000502\RMSD=3.175e-09\Dipole
 =-0.3432013,2.4351535,0.198736\Quadrupole=-4.0479818,3.1396417,0.90834
 ,0.9229449,-1.0106576,1.7414766\PG=C01 [X(C34H34Fe1N6)]\\@
 The archive entry for this job was punched.


 MY GROUP MEETINGS AREN'T VERY STRUCTURED.
     -- PROF. M. S. GORDON, OCT. 5, 1984
 Job cpu time:       5 days 12 hours 54 minutes 40.4 seconds.
 Elapsed time:       0 days  2 hours  4 minutes 16.3 seconds.
 File lengths (MBytes):  RWF=   2047 Int=      0 D2E=      0 Chk=    186 Scr=      1
 Normal termination of Gaussian 16 at Tue Sep 10 18:02:40 2024.
