 Entering Gaussian System, Link 0=g16
 Input=2xlh05re.com
 Output=2xlh05re.log
 Initial command:
 /sw/chem/gaussian/g16_C02/a100/g16/l1.exe "/local/becsleip_8011258/Gau-3040267.inp" -scrdir="/local/becsleip_8011258/"
 Entering Link 1 = /sw/chem/gaussian/g16_C02/a100/g16/l1.exe PID=   3040268.
  
 Copyright (c) 1988-2021, Gaussian, Inc.  All Rights Reserved.
  
 This is part of the Gaussian(R) 16 program.  It is based on
 the Gaussian(R) 09 system (copyright 2009, Gaussian, Inc.),
 the Gaussian(R) 03 system (copyright 2003, Gaussian, Inc.),
 the Gaussian(R) 98 system (copyright 1998, Gaussian, Inc.),
 the Gaussian(R) 94 system (copyright 1995, Gaussian, Inc.),
 the Gaussian 92(TM) system (copyright 1992, Gaussian, Inc.),
 the Gaussian 90(TM) system (copyright 1990, Gaussian, Inc.),
 the Gaussian 88(TM) system (copyright 1988, Gaussian, Inc.),
 the Gaussian 86(TM) system (copyright 1986, Carnegie Mellon
 University), and the Gaussian 82(TM) system (copyright 1983,
 Carnegie Mellon University). Gaussian is a federally registered
 trademark of Gaussian, Inc.
  
 This software contains proprietary and confidential information,
 including trade secrets, belonging to Gaussian, Inc.
  
 This software is provided under written license and may be
 used, copied, transmitted, or stored only in accord with that
 written license.
  
 The following legend is applicable only to US Government
 contracts under FAR:
  
                    RESTRICTED RIGHTS LEGEND
  
 Use, reproduction and disclosure by the US Government is
 subject to restrictions as set forth in subparagraphs (a)
 and (c) of the Commercial Computer Software - Restricted
 Rights clause in FAR 52.227-19.
  
 Gaussian, Inc.
 340 Quinnipiac St., Bldg. 40, Wallingford CT 06492
  
  
 ---------------------------------------------------------------
 Warning -- This program may not be used in any manner that
 competes with the business of Gaussian, Inc. or will provide
 assistance to any competitor of Gaussian, Inc.  The licensee
 of this program is prohibited from giving any competitor of
 Gaussian, Inc. access to this program.  By using this program,
 the user acknowledges that Gaussian, Inc. is engaged in the
 business of creating and licensing software in the field of
 computational chemistry and represents and warrants to the
 licensee that it is not a competitor of Gaussian, Inc. and that
 it will not use this program in any manner prohibited above.
 ---------------------------------------------------------------
  

 Cite this work as:
 Gaussian 16, Revision C.02,
 M. J. Frisch, G. W. Trucks, H. B. Schlegel, G. E. Scuseria, 
 M. A. Robb, J. R. Cheeseman, G. Scalmani, V. Barone, 
 G. A. Petersson, H. Nakatsuji, X. Li, M. Caricato, A. V. Marenich, 
 J. Bloino, B. G. Janesko, R. Gomperts, B. Mennucci, H. P. Hratchian, 
 J. V. Ortiz, A. F. Izmaylov, J. L. Sonnenberg, D. Williams-Young, 
 F. Ding, F. Lipparini, F. Egidi, J. Goings, B. Peng, A. Petrone, 
 T. Henderson, D. Ranasinghe, V. G. Zakrzewski, J. Gao, N. Rega, 
 G. Zheng, W. Liang, M. Hada, M. Ehara, K. Toyota, R. Fukuda, 
 J. Hasegawa, M. Ishida, T. Nakajima, Y. Honda, O. Kitao, H. Nakai, 
 T. Vreven, K. Throssell, J. A. Montgomery, Jr., J. E. Peralta, 
 F. Ogliaro, M. J. Bearpark, J. J. Heyd, E. N. Brothers, K. N. Kudin, 
 V. N. Staroverov, T. A. Keith, R. Kobayashi, J. Normand, 
 K. Raghavachari, A. P. Rendell, J. C. Burant, S. S. Iyengar, 
 J. Tomasi, M. Cossi, J. M. Millam, M. Klene, C. Adamo, R. Cammi, 
 J. W. Ochterski, R. L. Martin, K. Morokuma, O. Farkas, 
 J. B. Foresman, and D. J. Fox, Gaussian, Inc., Wallingford CT, 2019.
 
 ******************************************
 Gaussian 16:  ES64L-G16RevC.02  7-Dec-2021
                10-Sep-2024 
 ******************************************
 %mem=16GB
 %CPU=0-71
 SetSPE:  set environment variable "OMP_PROC_BIND" = "true"
 SetSPE:  set environment variable "OMP_PLACES" = "{0},{1},{2},{3},{4},{5},{6},{7},{8},{9},{10},{11},{12},{13},{14},{15},{16},{17},{18},{19},{20},{21},{22},{23},{24},{25},{26},{27},{28},{29},{30},{31},{32},{33},{34},{35},{36},{37},{38},{39},{40},{41},{42},{43},{44},{45},{46},{47},{48},{49},{50},{51},{52},{53},{54},{55},{56},{57},{58},{59},{60},{61},{62},{63},{64},{65},{66},{67},{68},{69},{70},{71}"
 Will use up to   72 processors via shared memory.
 %gpucpu=0,1,2,3=0,1,2,3
 Will use    4 GPUs:
 Thread  CPU   GPU
      0    0     0
      1    1     1
      2    2     2
      3    3     3
      4    4    -1
      5    5    -1
      6    6    -1
      7    7    -1
      8    8    -1
      9    9    -1
     10   10    -1
     11   11    -1
     12   12    -1
     13   13    -1
     14   14    -1
     15   15    -1
     16   16    -1
     17   17    -1
     18   18    -1
     19   19    -1
     20   20    -1
     21   21    -1
     22   22    -1
     23   23    -1
     24   24    -1
     25   25    -1
     26   26    -1
     27   27    -1
     28   28    -1
     29   29    -1
     30   30    -1
     31   31    -1
     32   32    -1
     33   33    -1
     34   34    -1
     35   35    -1
     36   36    -1
     37   37    -1
     38   38    -1
     39   39    -1
     40   40    -1
     41   41    -1
     42   42    -1
     43   43    -1
     44   44    -1
     45   45    -1
     46   46    -1
     47   47    -1
     48   48    -1
     49   49    -1
     50   50    -1
     51   51    -1
     52   52    -1
     53   53    -1
     54   54    -1
     55   55    -1
     56   56    -1
     57   57    -1
     58   58    -1
     59   59    -1
     60   60    -1
     61   61    -1
     62   62    -1
     63   63    -1
     64   64    -1
     65   65    -1
     66   66    -1
     67   67    -1
     68   68    -1
     69   69    -1
     70   70    -1
     71   71    -1
 SetGPE:  set environment variable "OMP_PROC_BIND" = "true"
 SetGPE:  set environment variable "OMP_PLACES" = "{0},{1},{2},{3},{4},{5},{6},{7},{8},{9},{10},{11},{12},{13},{14},{15},{16},{17},{18},{19},{20},{21},{22},{23},{24},{25},{26},{27},{28},{29},{30},{31},{32},{33},{34},{35},{36},{37},{38},{39},{40},{41},{42},{43},{44},{45},{46},{47},{48},{49},{50},{51},{52},{53},{54},{55},{56},{57},{58},{59},{60},{61},{62},{63},{64},{65},{66},{67},{68},{69},{70},{71}"
 %oldchk=2xlh_II_S.chk
 %chk=2xlh_II_Sre.chk
 Properties for Device   0
 Minimum vector length:                              32
 Maximum vector length:                            1024
 Number of SMPs:                                    108
 Maximum number of threads per SMP:                2048
 Number of ASync Engines:                             5
 Memory:                                           9207742464
 Properties for Device   1
 Minimum vector length:                              32
 Maximum vector length:                            1024
 Number of SMPs:                                    108
 Maximum number of threads per SMP:                2048
 Number of ASync Engines:                             5
 Memory:                                           9207742464
 Properties for Device   2
 Minimum vector length:                              32
 Maximum vector length:                            1024
 Number of SMPs:                                    108
 Maximum number of threads per SMP:                2048
 Number of ASync Engines:                             5
 Memory:                                           9207742464
 Properties for Device   3
 Minimum vector length:                              32
 Maximum vector length:                            1024
 Number of SMPs:                                    108
 Maximum number of threads per SMP:                2048
 Number of ASync Engines:                             5
 Memory:                                           9207742464
   8286968217 words of memory will be used on each GPU.
 Copying data from "2xlh_II_S.chk" to current chk file "2xlh_II_Sre.chk"
 IOpt=  2 FromEx=T IUOpen= 4 IOptOp= 5 NList=   0 IFRang= 0 IUIn= 4 IUOut= 2.
 --------------------------------------
 # apfd/gen scf=maxcycle=999 geom=check
 --------------------------------------
 1/29=2,38=1,172=1/1;
 2/12=2,40=1/2;
 3/5=7,11=2,14=-4,25=1,30=1,74=-44/1,2,3;
 4//1;
 5/5=2,7=999,38=5/2;
 6/7=2,8=2,9=2,10=2,28=1/1;
 99/5=1,9=1/99;
 ---------
 2xlh_II_Q
 ---------
 Structure from the checkpoint file:  "2xlh_II_Sre.chk"
 Charge =  0 Multiplicity = 5
 Z-Matrix found in chk file.
 Fe,0,-22.9764373207,25.4014527608,8.394696911
 N,0,-24.3526989317,25.4458248293,9.855194905
 N,0,-24.4586931818,25.2218446334,7.0561826393
 N,0,-21.653529259,24.9483660169,6.9674942139
 N,0,-21.5455995777,25.2313783632,9.7796317634
 C,0,-24.1205221834,25.5242859372,11.197575098
 C,0,-25.3624716306,25.5567878258,11.9364089919
 C,0,-26.3564685764,25.4745279675,11.0126742969
 C,0,-25.70776313,25.4088603897,9.7222723233
 C,0,-25.8004681876,25.2856221434,7.2819251233
 C,0,-26.5404533673,25.1776869482,6.0450993416
 C,0,-25.6143723477,25.0748223562,5.0551783565
 C,0,-24.3235234787,25.0842623918,5.7067127536
 C,0,-21.8850804744,24.8601393478,5.6299304481
 C,0,-20.6478370482,24.6593026377,4.9025054334
 C,0,-19.6546211998,24.6430639046,5.8451544346
 C,0,-20.3026546907,24.8216861548,7.1188542461
 C,0,-20.2088315169,25.1006068318,9.5545074625
 C,0,-19.4598142938,25.2537352878,10.7857306163
 C,0,-20.3875431215,25.4973627484,11.7637541156
 C,0,-21.6724946666,25.4711469266,11.1168784874
 C,0,-22.8762329414,25.5852983803,11.7908450931
 H,0,-22.8402878417,25.699914784,12.8635567859
 C,0,-26.3944913598,25.3771209429,8.5244799102
 H,0,-27.4726998179,25.3896407857,8.5650321934
 C,0,-23.1283221463,24.932608977,5.0313297093
 H,0,-23.1749519028,24.8295398974,3.9580171941
 C,0,-19.6272516896,24.8659095595,8.3243480755
 H,0,-18.556605173,24.7332977158,8.2972239339
 C,0,-25.455861345,25.6352698121,13.4217016044
 H,0,-24.9810947967,26.5449182759,13.7907991633
 H,0,-24.9558328859,24.7826256896,13.8813224124
 H,0,-26.4942479844,25.637308445,13.7435253398
 C,0,-27.8327800524,25.4470041761,11.2119416926
 H,0,-28.2573022268,24.5360115264,10.7902053765
 H,0,-28.3028261643,26.2988024286,10.7196133489
 H,0,-28.0814586973,25.4827583949,12.2697046692
 C,0,-20.1618033907,25.8012573123,13.2039367713
 H,0,-20.3046729929,24.9095200326,13.8163498062
 H,0,-20.8577148079,26.56360486,13.5518700831
 H,0,-19.1458923491,26.1608657745,13.3545007222
 C,0,-18.0187821896,25.1829514425,10.8898986042
 H,0,-17.4690172105,25.5328724836,10.0238198365
 C,0,-17.3427709686,24.7256891161,11.9387696357
 H,0,-17.8345386983,24.3192118813,12.8050226196
 H,0,-16.265536419,24.7134904267,11.9519888394
 C,0,-18.1848120583,24.5291516054,5.6390177408
 H,0,-17.8439319972,23.5103662943,5.829925562
 H,0,-17.6477994599,25.1957716918,6.3121202627
 H,0,-17.9306440469,24.7904894959,4.6138314605
 C,0,-20.5490865754,24.5328004818,3.4646066005
 H,0,-21.2693807651,25.1065154206,2.8925342031
 C,0,-19.6687188899,23.7770132046,2.8168515666
 H,0,-18.9626232075,23.1500750576,3.3325292757
 H,0,-19.6426785692,23.7398758885,1.7403477938
 C,0,-25.8133068805,24.9360376089,3.5849623588
 H,0,-25.4193593836,23.9824482804,3.2330472815
 H,0,-25.2963064862,25.7336006441,3.0511112191
 H,0,-26.8694971699,24.983735634,3.3321157355
 C,0,-28.027333848,25.1971006279,5.9515395643
 H,0,-28.3511183533,25.097679487,4.918275186
 H,0,-28.4244507584,26.1320398452,6.3487941432
 H,0,-28.4570338365,24.3758049346,6.5256651392
 C,0,-22.4711415496,30.6133255939,6.4534581484
 H,0,-21.5251193995,31.128278884,6.6195229558
 H,0,-23.2806438333,31.3163615517,6.6486092163
 H,0,-22.5211206718,30.3042940913,5.4143029061
 N,0,-22.5624263674,29.5120161589,8.6996428223
 H,0,-22.4687778525,30.3615041344,9.2318781147
 C,0,-22.584428493,29.422618174,7.33294974
 C,0,-22.6861118275,28.2601120149,9.1958102523
 H,0,-22.7003319675,28.0259788386,10.2412471914
 N,0,-22.7850731954,27.3797111001,8.225399125
 C,0,-22.7235985349,28.0920344534,7.0596866792
 H,0,-22.7832897852,27.5999992786,6.110052373
 Recover connectivity data from disk.
 Stoichiometry    C34H34FeN6(5)
 Framework group  C1[X(C34H34FeN6)]
 Deg. of freedom   219
 Full point group                 C1      NOp   1
 Largest Abelian subgroup         C1      NOp   1
 Largest concise Abelian subgroup C1      NOp   1
                         Standard orientation:                         
 ---------------------------------------------------------------------
 Center     Atomic      Atomic             Coordinates (Angstroms)
 Number     Number       Type             X           Y           Z
 ---------------------------------------------------------------------
      1         26           0       -0.057891    0.201769   -0.320499
      2          7           0       -1.329160    1.746073   -0.488185
      3          7           0        1.468912    1.488464   -0.505567
      4          7           0        1.214389   -1.319241   -0.565679
      5          7           0       -1.600833   -1.057085   -0.490453
      6          6           0       -2.692469    1.687891   -0.495387
      7          6           0       -3.266126    3.009679   -0.610115
      8          6           0       -2.218932    3.872458   -0.694261
      9          6           0       -1.021082    3.066875   -0.613892
     10          6           0        1.413706    2.848482   -0.557430
     11          6           0        2.739768    3.419447   -0.624700
     12          6           0        3.607124    2.373416   -0.583918
     13          6           0        2.795958    1.177609   -0.529760
     14          6           0        2.573499   -1.261888   -0.568510
     15          6           0        3.147635   -2.591444   -0.622388
     16          6           0        2.088357   -3.459214   -0.637688
     17          6           0        0.899457   -2.647072   -0.604412
     18          6           0       -1.541154   -2.417577   -0.505623
     19          6           0       -2.865829   -2.994452   -0.392325
     20          6           0       -3.730534   -1.936693   -0.292345
     21          6           0       -2.923624   -0.747524   -0.363109
     22          6           0       -3.443419    0.535206   -0.388912
     23          1           0       -4.517078    0.640922   -0.353976
     24          6           0        0.254462    3.596224   -0.604470
     25          1           0        0.352036    4.668599   -0.673936
     26          6           0        3.320739   -0.099931   -0.541766
     27          1           0        4.395599   -0.194206   -0.565954
     28          6           0       -0.383080   -3.163248   -0.602834
     29          1           0       -0.485006   -4.236356   -0.654365
     30          6           0       -4.729017    3.291055   -0.651979
     31          1           0       -5.215554    2.941577    0.259198
     32          1           0       -5.191515    2.782993   -1.498295
     33          1           0       -4.914181    4.357758   -0.750370
     34          6           0       -2.224601    5.354783   -0.844735
     35          1           0       -1.692345    5.647988   -1.749568
     36          1           0       -1.733536    5.829102    0.005422
     37          1           0       -3.241670    5.733682   -0.907892
     38          6           0       -5.204739   -1.957974   -0.083289
     39          1           0       -5.733230   -1.814631   -1.027115
     40          1           0       -5.510155   -1.164334    0.597433
     41          1           0       -5.508093   -2.914684    0.337122
     42          6           0       -3.149355   -4.412661   -0.365290
     43          1           0       -2.386215   -5.034104    0.088807
     44          6           0       -4.243740   -4.989874   -0.850428
     45          1           0       -5.010754   -4.430414   -1.356538
     46          1           0       -4.394417   -6.054650   -0.784808
     47          6           0        2.111037   -4.947567   -0.627812
     48          1           0        1.945893   -5.344903   -1.630519
     49          1           0        1.331807   -5.341199    0.023100
     50          1           0        3.075466   -5.303493   -0.271302
     51          6           0        4.566125   -2.876239   -0.631493
     52          1           0        5.186689   -2.187060   -0.070090
     53          6           0        5.144079   -3.888623   -1.269379
     54          1           0        4.584671   -4.575062   -1.880452
     55          1           0        6.208388   -4.049747   -1.222448
     56          6           0        5.096653    2.378053   -0.624540
     57          1           0        5.457488    1.866866   -1.517209
     58          1           0        5.505584    1.866613    0.247009
     59          1           0        5.479382    3.395478   -0.635077
     60          6           0        3.022095    4.880086   -0.706978
     61          1           0        4.092695    5.065143   -0.750851
     62          1           0        2.618041    5.398450    0.163461
     63          1           0        2.563671    5.308187   -1.598811
     64          6           0        1.452431   -0.108567    5.046993
     65          1           0        1.132417   -0.981493    5.615591
     66          1           0        1.316718    0.773765    5.672062
     67          1           0        2.507580   -0.212245    4.815148
     68          7           0       -0.685396    0.167364    3.774154
     69          1           0       -1.280401    0.209929    4.585223
     70          6           0        0.675691    0.013794    3.787697
     71          6           0       -1.077445    0.247867    2.482426
     72          1           0       -2.094545    0.371204    2.168970
     73          7           0       -0.046137    0.154160    1.673588
     74          6           0        1.052194    0.008574    2.475176
     75          1           0        2.032146   -0.089524    2.053823
 ---------------------------------------------------------------------
 Rotational constants (GHZ):           0.0942919           0.0922232           0.0593832
 General basis read from cards:  (5D, 7F)
 There are   704 symmetry adapted cartesian basis functions of A   symmetry.
 There are   661 symmetry adapted basis functions of A   symmetry.
   661 basis functions,  1342 primitive gaussians,   704 cartesian basis functions
   155 alpha electrons      151 beta electrons
       nuclear repulsion energy      5565.9106360842 Hartrees.
 NAtoms=   75 NActive=   75 NUniq=   75 SFac= 1.00D+00 NAtFMM=   60 NAOKFM=T Big=T
 Integral buffers will be    131072 words long.
 Raffenetti 2 integral format.
 Two-electron integral symmetry is turned on.
 R6APFD:  NTU= -4 IXU= 1 FactS= 1.050
 Nuclear repulsion after empirical dispersion term =     5565.7781514237 Hartrees.
 One-electron integrals computed using PRISM.
 NBasis=   661 RedAO= T EigKep=  2.52D-04  NBF=   661
 NBsUse=   661 1.00D-06 EigRej= -1.00D+00 NBFU=   661
 ExpMin= 4.20D-02 ExpMax= 3.01D+05 ExpMxC= 2.91D+03 IAcc=3 IRadAn=         5 AccDes= 0.00D+00
 Harris functional with IExCor= 3731 and IRadAn=       5 diagonalized for initial guess.
 HarFok:  IExCor= 3731 AccDes= 0.00D+00 IRadAn=         5 IDoV= 1 UseB2=F ITyADJ=14
 ICtDFT=  3500011 ScaDFX=  1.000000  1.000000  1.000000  1.000000
 FoFCou: FMM=F IPFlag=           0 FMFlag=      100000 FMFlg1=        2001
         NFxFlg=           0 DoJE=T BraDBF=F KetDBF=T FulRan=T
         wScrn=  0.000000 ICntrl=       500 IOpCl=  0 I1Cent=   200000004 NGrid=           0
         NMat0=    1 NMatS0=      1 NMatT0=    0 NMatD0=    1 NMtDS0=    0 NMtDT0=    0
 Petite list used in FoFCou.
 Initial guess <Sx>= 0.0000 <Sy>= 0.0000 <Sz>= 2.0000 <S**2>= 6.0000 S= 2.0000
 Requested convergence on RMS density matrix=1.00D-08 within 999 cycles.
 Requested convergence on MAX density matrix=1.00D-06.
 Requested convergence on             energy=1.00D-06.
 No special actions if energy rises.
 EnCoef did   100 forward-backward iterations
 EnCoef did   100 forward-backward iterations
 EnCoef did   100 forward-backward iterations
 EnCoef did   100 forward-backward iterations
 EnCoef did     1 forward-backward iterations
 EnCoef did     2 forward-backward iterations
 EnCoef did     8 forward-backward iterations
 Restarting incremental Fock formation.
 Restarting incremental Fock formation.
 Restarting incremental Fock formation.
 Restarting incremental Fock formation.
 Restarting incremental Fock formation.
 Restarting incremental Fock formation.
 Restarting incremental Fock formation.
 Restarting incremental Fock formation.
 Restarting incremental Fock formation.
 Restarting incremental Fock formation.
 Restarting incremental Fock formation.
 Restarting incremental Fock formation.
 Restarting incremental Fock formation.
 Restarting incremental Fock formation.
 Restarting incremental Fock formation.
 Restarting incremental Fock formation.
 Restarting incremental Fock formation.
 Restarting incremental Fock formation.
 Restarting incremental Fock formation.
 Restarting incremental Fock formation.
 Restarting incremental Fock formation.
 Restarting incremental Fock formation.
 Restarting incremental Fock formation.
 Restarting incremental Fock formation.
 Restarting incremental Fock formation.
 Restarting incremental Fock formation.
 Restarting incremental Fock formation.
 Restarting incremental Fock formation.
 Restarting incremental Fock formation.
 Restarting incremental Fock formation.
 Restarting incremental Fock formation.
 Density matrix is not changing but DIIS error= 1.22D-05 CofLast= 2.22D-02.
 Restarting incremental Fock formation.
 Restarting incremental Fock formation.
 Restarting incremental Fock formation.
 SCF Done:  E(UAPFD) =  -2907.02389428     A.U. after  691 cycles
            NFock=691  Conv=0.25D-08     -V/T= 2.0034
 <Sx>= 0.0000 <Sy>= 0.0000 <Sz>= 2.0000 <S**2>= 6.0967 S= 2.0193
 <L.S>=  0.00000000000    
 Annihilation of the first spin contaminant:
 S**2 before annihilation     6.0967,   after     6.0005

 **********************************************************************

            Population analysis using the SCF Density.

 **********************************************************************

 Orbital symmetries:
 Alpha Orbitals:
       Occupied  (A) (A) (A) (A) (A) (A) (A) (A) (A) (A) (A) (A)
                 (A) (A) (A) (A) (A) (A) (A) (A) (A) (A) (A) (A)
                 (A) (A) (A) (A) (A) (A) (A) (A) (A) (A) (A) (A)
                 (A) (A) (A) (A) (A) (A) (A) (A) (A) (A) (A) (A)
                 (A) (A) (A) (A) (A) (A) (A) (A) (A) (A) (A) (A)
                 (A) (A) (A) (A) (A) (A) (A) (A) (A) (A) (A) (A)
                 (A) (A) (A) (A) (A) (A) (A) (A) (A) (A) (A) (A)
                 (A) (A) (A) (A) (A) (A) (A) (A) (A) (A) (A) (A)
                 (A) (A) (A) (A) (A) (A) (A) (A) (A) (A) (A) (A)
                 (A) (A) (A) (A) (A) (A) (A) (A) (A) (A) (A) (A)
                 (A) (A) (A) (A) (A) (A) (A) (A) (A) (A) (A) (A)
                 (A) (A) (A) (A) (A) (A) (A) (A) (A) (A) (A) (A)
                 (A) (A) (A) (A) (A) (A) (A) (A) (A) (A) (A)
       Virtual   (A) (A) (A) (A) (A) (A) (A) (A) (A) (A) (A) (A)
                 (A) (A) (A) (A) (A) (A) (A) (A) (A) (A) (A) (A)
                 (A) (A) (A) (A) (A) (A) (A) (A) (A) (A) (A) (A)
                 (A) (A) (A) (A) (A) (A) (A) (A) (A) (A) (A) (A)
                 (A) (A) (A) (A) (A) (A) (A) (A) (A) (A) (A) (A)
                 (A) (A) (A) (A) (A) (A) (A) (A) (A) (A) (A) (A)
                 (A) (A) (A) (A) (A) (A) (A) (A) (A) (A) (A) (A)
                 (A) (A) (A) (A) (A) (A) (A) (A) (A) (A) (A) (A)
                 (A) (A) (A) (A) (A) (A) (A) (A) (A) (A) (A) (A)
                 (A) (A) (A) (A) (A) (A) (A) (A) (A) (A) (A) (A)
                 (A) (A) (A) (A) (A) (A) (A) (A) (A) (A) (A) (A)
                 (A) (A) (A) (A) (A) (A) (A) (A) (A) (A) (A) (A)
                 (A) (A) (A) (A) (A) (A) (A) (A) (A) (A) (A) (A)
                 (A) (A) (A) (A) (A) (A) (A) (A) (A) (A) (A) (A)
                 (A) (A) (A) (A) (A) (A) (A) (A) (A) (A) (A) (A)
                 (A) (A) (A) (A) (A) (A) (A) (A) (A) (A) (A) (A)
                 (A) (A) (A) (A) (A) (A) (A) (A) (A) (A) (A) (A)
                 (A) (A) (A) (A) (A) (A) (A) (A) (A) (A) (A) (A)
                 (A) (A) (A) (A) (A) (A) (A) (A) (A) (A) (A) (A)
                 (A) (A) (A) (A) (A) (A) (A) (A) (A) (A) (A) (A)
                 (A) (A) (A) (A) (A) (A) (A) (A) (A) (A) (A) (A)
                 (A) (A) (A) (A) (A) (A) (A) (A) (A) (A) (A) (A)
                 (A) (A) (A) (A) (A) (A) (A) (A) (A) (A) (A) (A)
                 (A) (A) (A) (A) (A) (A) (A) (A) (A) (A) (A) (A)
                 (A) (A) (A) (A) (A) (A) (A) (A) (A) (A) (A) (A)
                 (A) (A) (A) (A) (A) (A) (A) (A) (A) (A) (A) (A)
                 (A) (A) (A) (A) (A) (A) (A) (A) (A) (A) (A) (A)
                 (A) (A) (A) (A) (A) (A) (A) (A) (A) (A) (A) (A)
                 (A) (A) (A) (A) (A) (A) (A) (A) (A) (A) (A) (A)
                 (A) (A) (A) (A) (A) (A) (A) (A) (A) (A) (A) (A)
                 (A) (A) (A) (A) (A) (A) (A) (A) (A) (A) (A) (A)
                 (A) (A) (A) (A) (A) (A) (A) (A) (A) (A) (A) (A)
                 (A) (A) (A) (A) (A) (A) (A) (A) (A) (A) (A) (A)
                 (A) (A) (A) (A) (A) (A) (A) (A) (A) (A) (A) (A)
                 (A) (A) (A) (A) (A) (A) (A) (A) (A) (A) (A) (A)
                 (A) (A) (A) (A) (A) (A) (A) (A) (A) (A) (A) (A)
                 (A) (A) (A) (A) (A) (A) (A) (A) (A) (A) (A) (A)
                 (A) (A) (A) (A) (A) (A) (A) (A) (A) (A) (A) (A)
                 (A) (A) (A) (A) (A) (A) (A) (A) (A) (A) (A) (A)
                 (A) (A) (A) (A) (A) (A) (A) (A) (A) (A) (A) (A)
                 (A) (A) (A) (A) (A) (A) (A) (A) (A) (A) (A) (A)
                 (A) (A) (A) (A) (A) (A) (A) (A) (A) (A) (A) (A)
                 (A) (A)
 Beta  Orbitals:
       Occupied  (A) (A) (A) (A) (A) (A) (A) (A) (A) (A) (A) (A)
                 (A) (A) (A) (A) (A) (A) (A) (A) (A) (A) (A) (A)
                 (A) (A) (A) (A) (A) (A) (A) (A) (A) (A) (A) (A)
                 (A) (A) (A) (A) (A) (A) (A) (A) (A) (A) (A) (A)
                 (A) (A) (A) (A) (A) (A) (A) (A) (A) (A) (A) (A)
                 (A) (A) (A) (A) (A) (A) (A) (A) (A) (A) (A) (A)
                 (A) (A) (A) (A) (A) (A) (A) (A) (A) (A) (A) (A)
                 (A) (A) (A) (A) (A) (A) (A) (A) (A) (A) (A) (A)
                 (A) (A) (A) (A) (A) (A) (A) (A) (A) (A) (A) (A)
                 (A) (A) (A) (A) (A) (A) (A) (A) (A) (A) (A) (A)
                 (A) (A) (A) (A) (A) (A) (A) (A) (A) (A) (A) (A)
                 (A) (A) (A) (A) (A) (A) (A) (A) (A) (A) (A) (A)
                 (A) (A) (A) (A) (A) (A) (A)
       Virtual   (A) (A) (A) (A) (A) (A) (A) (A) (A) (A) (A) (A)
                 (A) (A) (A) (A) (A) (A) (A) (A) (A) (A) (A) (A)
                 (A) (A) (A) (A) (A) (A) (A) (A) (A) (A) (A) (A)
                 (A) (A) (A) (A) (A) (A) (A) (A) (A) (A) (A) (A)
                 (A) (A) (A) (A) (A) (A) (A) (A) (A) (A) (A) (A)
                 (A) (A) (A) (A) (A) (A) (A) (A) (A) (A) (A) (A)
                 (A) (A) (A) (A) (A) (A) (A) (A) (A) (A) (A) (A)
                 (A) (A) (A) (A) (A) (A) (A) (A) (A) (A) (A) (A)
                 (A) (A) (A) (A) (A) (A) (A) (A) (A) (A) (A) (A)
                 (A) (A) (A) (A) (A) (A) (A) (A) (A) (A) (A) (A)
                 (A) (A) (A) (A) (A) (A) (A) (A) (A) (A) (A) (A)
                 (A) (A) (A) (A) (A) (A) (A) (A) (A) (A) (A) (A)
                 (A) (A) (A) (A) (A) (A) (A) (A) (A) (A) (A) (A)
                 (A) (A) (A) (A) (A) (A) (A) (A) (A) (A) (A) (A)
                 (A) (A) (A) (A) (A) (A) (A) (A) (A) (A) (A) (A)
                 (A) (A) (A) (A) (A) (A) (A) (A) (A) (A) (A) (A)
                 (A) (A) (A) (A) (A) (A) (A) (A) (A) (A) (A) (A)
                 (A) (A) (A) (A) (A) (A) (A) (A) (A) (A) (A) (A)
                 (A) (A) (A) (A) (A) (A) (A) (A) (A) (A) (A) (A)
                 (A) (A) (A) (A) (A) (A) (A) (A) (A) (A) (A) (A)
                 (A) (A) (A) (A) (A) (A) (A) (A) (A) (A) (A) (A)
                 (A) (A) (A) (A) (A) (A) (A) (A) (A) (A) (A) (A)
                 (A) (A) (A) (A) (A) (A) (A) (A) (A) (A) (A) (A)
                 (A) (A) (A) (A) (A) (A) (A) (A) (A) (A) (A) (A)
                 (A) (A) (A) (A) (A) (A) (A) (A) (A) (A) (A) (A)
                 (A) (A) (A) (A) (A) (A) (A) (A) (A) (A) (A) (A)
                 (A) (A) (A) (A) (A) (A) (A) (A) (A) (A) (A) (A)
                 (A) (A) (A) (A) (A) (A) (A) (A) (A) (A) (A) (A)
                 (A) (A) (A) (A) (A) (A) (A) (A) (A) (A) (A) (A)
                 (A) (A) (A) (A) (A) (A) (A) (A) (A) (A) (A) (A)
                 (A) (A) (A) (A) (A) (A) (A) (A) (A) (A) (A) (A)
                 (A) (A) (A) (A) (A) (A) (A) (A) (A) (A) (A) (A)
                 (A) (A) (A) (A) (A) (A) (A) (A) (A) (A) (A) (A)
                 (A) (A) (A) (A) (A) (A) (A) (A) (A) (A) (A) (A)
                 (A) (A) (A) (A) (A) (A) (A) (A) (A) (A) (A) (A)
                 (A) (A) (A) (A) (A) (A) (A) (A) (A) (A) (A) (A)
                 (A) (A) (A) (A) (A) (A) (A) (A) (A) (A) (A) (A)
                 (A) (A) (A) (A) (A) (A) (A) (A) (A) (A) (A) (A)
                 (A) (A) (A) (A) (A) (A) (A) (A) (A) (A) (A) (A)
                 (A) (A) (A) (A) (A) (A) (A) (A) (A) (A) (A) (A)
                 (A) (A) (A) (A) (A) (A) (A) (A) (A) (A) (A) (A)
                 (A) (A) (A) (A) (A) (A) (A) (A) (A) (A) (A) (A)
                 (A) (A) (A) (A) (A) (A)
 The electronic state is 5-A.
 Alpha  occ. eigenvalues -- -256.18039 -30.07362 -25.92039 -25.89945 -25.89546
 Alpha  occ. eigenvalues --  -14.43124 -14.37090 -14.33793 -14.33782 -14.33660
 Alpha  occ. eigenvalues --  -14.33586 -10.26378 -10.24580 -10.21651 -10.21633
 Alpha  occ. eigenvalues --  -10.21590 -10.21523 -10.21519 -10.21480 -10.21374
 Alpha  occ. eigenvalues --  -10.21282 -10.21267 -10.21098 -10.20028 -10.19893
 Alpha  occ. eigenvalues --  -10.19442 -10.19307 -10.19259 -10.19084 -10.19055
 Alpha  occ. eigenvalues --  -10.19034 -10.19031 -10.18955 -10.18940 -10.18852
 Alpha  occ. eigenvalues --  -10.18830 -10.18802 -10.18793 -10.18790 -10.18777
 Alpha  occ. eigenvalues --  -10.18715 -10.18672 -10.18571 -10.18519 -10.18497
 Alpha  occ. eigenvalues --   -3.53102  -2.33174  -2.28488  -2.27950  -1.05397
 Alpha  occ. eigenvalues --   -0.96660  -0.95712  -0.95616  -0.94678  -0.91030
 Alpha  occ. eigenvalues --   -0.81947  -0.81547  -0.81245  -0.80514  -0.80361
 Alpha  occ. eigenvalues --   -0.80146  -0.79315  -0.79219  -0.76454  -0.75380
 Alpha  occ. eigenvalues --   -0.74049  -0.73640  -0.72935  -0.71919  -0.70748
 Alpha  occ. eigenvalues --   -0.69930  -0.68125  -0.67761  -0.67556  -0.64802
 Alpha  occ. eigenvalues --   -0.63772  -0.63756  -0.61347  -0.60350  -0.59754
 Alpha  occ. eigenvalues --   -0.57426  -0.56387  -0.55972  -0.54162  -0.53336
 Alpha  occ. eigenvalues --   -0.53032  -0.52423  -0.50742  -0.50688  -0.50166
 Alpha  occ. eigenvalues --   -0.48642  -0.47918  -0.47512  -0.47301  -0.47167
 Alpha  occ. eigenvalues --   -0.44988  -0.44452  -0.44357  -0.44111  -0.43766
 Alpha  occ. eigenvalues --   -0.43443  -0.43289  -0.43179  -0.42931  -0.42839
 Alpha  occ. eigenvalues --   -0.42678  -0.42422  -0.42366  -0.42037  -0.41884
 Alpha  occ. eigenvalues --   -0.41324  -0.41262  -0.41074  -0.40412  -0.40163
 Alpha  occ. eigenvalues --   -0.39903  -0.39638  -0.39233  -0.39155  -0.38844
 Alpha  occ. eigenvalues --   -0.38488  -0.38270  -0.38143  -0.37859  -0.37604
 Alpha  occ. eigenvalues --   -0.37385  -0.36719  -0.36495  -0.36191  -0.35847
 Alpha  occ. eigenvalues --   -0.35442  -0.34180  -0.34127  -0.33365  -0.33023
 Alpha  occ. eigenvalues --   -0.32698  -0.31656  -0.31176  -0.30545  -0.30400
 Alpha  occ. eigenvalues --   -0.29875  -0.29222  -0.28285  -0.26555  -0.25763
 Alpha  occ. eigenvalues --   -0.25518  -0.24321  -0.23552  -0.21849  -0.21398
 Alpha  occ. eigenvalues --   -0.21038  -0.20587  -0.17244  -0.17065  -0.15784
 Alpha virt. eigenvalues --   -0.05970  -0.05714  -0.00937   0.01978   0.02375
 Alpha virt. eigenvalues --    0.03760   0.06358   0.07072   0.07540   0.09126
 Alpha virt. eigenvalues --    0.09263   0.09963   0.10564   0.10959   0.11413
 Alpha virt. eigenvalues --    0.11832   0.12134   0.12349   0.13059   0.14188
 Alpha virt. eigenvalues --    0.14300   0.14699   0.15052   0.15433   0.15783
 Alpha virt. eigenvalues --    0.15995   0.16147   0.16394   0.16591   0.16710
 Alpha virt. eigenvalues --    0.17422   0.17871   0.17923   0.17929   0.18087
 Alpha virt. eigenvalues --    0.18412   0.18877   0.19079   0.19208   0.19430
 Alpha virt. eigenvalues --    0.19670   0.19966   0.20719   0.21218   0.21477
 Alpha virt. eigenvalues --    0.21790   0.22174   0.22205   0.22809   0.23051
 Alpha virt. eigenvalues --    0.23356   0.23706   0.24619   0.25073   0.25634
 Alpha virt. eigenvalues --    0.25780   0.26353   0.26747   0.27182   0.27289
 Alpha virt. eigenvalues --    0.27607   0.27836   0.28017   0.30093   0.30611
 Alpha virt. eigenvalues --    0.31342   0.31463   0.32166   0.33181   0.33783
 Alpha virt. eigenvalues --    0.33814   0.35224   0.35831   0.36425   0.36835
 Alpha virt. eigenvalues --    0.37184   0.37513   0.38595   0.38800   0.40524
 Alpha virt. eigenvalues --    0.41958   0.42365   0.43178   0.44275   0.44764
 Alpha virt. eigenvalues --    0.44970   0.45703   0.46231   0.48447   0.48521
 Alpha virt. eigenvalues --    0.48738   0.49232   0.49786   0.50806   0.51171
 Alpha virt. eigenvalues --    0.51265   0.51911   0.52577   0.52774   0.53021
 Alpha virt. eigenvalues --    0.53326   0.53541   0.53653   0.53878   0.54210
 Alpha virt. eigenvalues --    0.54508   0.54966   0.55547   0.56042   0.56417
 Alpha virt. eigenvalues --    0.57144   0.57484   0.58099   0.58531   0.58635
 Alpha virt. eigenvalues --    0.59211   0.59440   0.59876   0.60338   0.60677
 Alpha virt. eigenvalues --    0.61124   0.61205   0.61464   0.62119   0.62370
 Alpha virt. eigenvalues --    0.63323   0.63662   0.64032   0.64578   0.64878
 Alpha virt. eigenvalues --    0.65579   0.65819   0.65974   0.66480   0.66694
 Alpha virt. eigenvalues --    0.67224   0.67377   0.67530   0.68003   0.68231
 Alpha virt. eigenvalues --    0.68490   0.69099   0.69414   0.70389   0.70590
 Alpha virt. eigenvalues --    0.71077   0.71225   0.71557   0.71772   0.72927
 Alpha virt. eigenvalues --    0.73421   0.73804   0.74569   0.74815   0.75409
 Alpha virt. eigenvalues --    0.75689   0.76271   0.77203   0.77417   0.77788
 Alpha virt. eigenvalues --    0.78145   0.78490   0.78530   0.79067   0.79196
 Alpha virt. eigenvalues --    0.80007   0.80244   0.80506   0.80753   0.81222
 Alpha virt. eigenvalues --    0.81727   0.82227   0.82720   0.83741   0.84143
 Alpha virt. eigenvalues --    0.84465   0.85256   0.85861   0.86668   0.87044
 Alpha virt. eigenvalues --    0.87332   0.87556   0.87765   0.88119   0.88338
 Alpha virt. eigenvalues --    0.88632   0.88756   0.89154   0.89789   0.90374
 Alpha virt. eigenvalues --    0.90883   0.91359   0.91440   0.92198   0.92738
 Alpha virt. eigenvalues --    0.92818   0.93327   0.93561   0.93957   0.94140
 Alpha virt. eigenvalues --    0.94455   0.94753   0.95065   0.95743   0.95885
 Alpha virt. eigenvalues --    0.96222   0.96497   0.97371   0.97568   0.97886
 Alpha virt. eigenvalues --    0.98756   0.99362   0.99803   0.99943   1.00323
 Alpha virt. eigenvalues --    1.00656   1.00874   1.01065   1.01589   1.01917
 Alpha virt. eigenvalues --    1.02654   1.03217   1.04259   1.04529   1.05017
 Alpha virt. eigenvalues --    1.05703   1.05915   1.06838   1.07300   1.07711
 Alpha virt. eigenvalues --    1.08144   1.08584   1.09614   1.10117   1.11248
 Alpha virt. eigenvalues --    1.11894   1.13841   1.14512   1.15058   1.16126
 Alpha virt. eigenvalues --    1.17199   1.17993   1.18379   1.18539   1.19339
 Alpha virt. eigenvalues --    1.19564   1.20367   1.20567   1.20789   1.21735
 Alpha virt. eigenvalues --    1.21833   1.22530   1.23086   1.23963   1.24287
 Alpha virt. eigenvalues --    1.25569   1.25914   1.26677   1.28087   1.28810
 Alpha virt. eigenvalues --    1.29555   1.30231   1.30800   1.31985   1.32174
 Alpha virt. eigenvalues --    1.32174   1.32982   1.34392   1.35026   1.35594
 Alpha virt. eigenvalues --    1.36444   1.36702   1.37602   1.38250   1.38739
 Alpha virt. eigenvalues --    1.39047   1.39204   1.39402   1.40168   1.40321
 Alpha virt. eigenvalues --    1.40666   1.41998   1.42426   1.43134   1.43621
 Alpha virt. eigenvalues --    1.44904   1.45534   1.45927   1.47567   1.47915
 Alpha virt. eigenvalues --    1.48681   1.48850   1.49662   1.51381   1.52506
 Alpha virt. eigenvalues --    1.53202   1.55072   1.55188   1.55578   1.55689
 Alpha virt. eigenvalues --    1.56768   1.57203   1.57515   1.59385   1.60745
 Alpha virt. eigenvalues --    1.61117   1.61784   1.63095   1.63273   1.64099
 Alpha virt. eigenvalues --    1.64825   1.66757   1.67299   1.68553   1.69330
 Alpha virt. eigenvalues --    1.70496   1.70599   1.72444   1.72984   1.74494
 Alpha virt. eigenvalues --    1.76039   1.79333   1.79689   1.80438   1.80749
 Alpha virt. eigenvalues --    1.80994   1.81634   1.81821   1.82190   1.82871
 Alpha virt. eigenvalues --    1.83325   1.83508   1.83946   1.84644   1.85166
 Alpha virt. eigenvalues --    1.86186   1.86372   1.86574   1.87263   1.88605
 Alpha virt. eigenvalues --    1.88667   1.88933   1.89748   1.90463   1.91065
 Alpha virt. eigenvalues --    1.91382   1.91893   1.92826   1.93628   1.93782
 Alpha virt. eigenvalues --    1.94731   1.95316   1.95462   1.96127   1.96817
 Alpha virt. eigenvalues --    1.97171   1.99575   1.99983   2.00605   2.01050
 Alpha virt. eigenvalues --    2.01400   2.02148   2.02355   2.02791   2.03927
 Alpha virt. eigenvalues --    2.04790   2.05744   2.05935   2.06581   2.06908
 Alpha virt. eigenvalues --    2.07629   2.08459   2.09442   2.09938   2.11058
 Alpha virt. eigenvalues --    2.12156   2.12739   2.13002   2.14000   2.14663
 Alpha virt. eigenvalues --    2.14952   2.16297   2.16764   2.17094   2.17426
 Alpha virt. eigenvalues --    2.19230   2.19551   2.20460   2.21192   2.21290
 Alpha virt. eigenvalues --    2.22476   2.23511   2.24289   2.24724   2.25462
 Alpha virt. eigenvalues --    2.25959   2.26316   2.26684   2.26976   2.27526
 Alpha virt. eigenvalues --    2.28167   2.28312   2.28993   2.29517   2.29893
 Alpha virt. eigenvalues --    2.30573   2.30977   2.31566   2.31662   2.32315
 Alpha virt. eigenvalues --    2.33032   2.33183   2.33965   2.35698   2.36050
 Alpha virt. eigenvalues --    2.36435   2.37295   2.37739   2.38141   2.38475
 Alpha virt. eigenvalues --    2.38973   2.39816   2.39853   2.41199   2.41728
 Alpha virt. eigenvalues --    2.41987   2.42277   2.42889   2.43898   2.44491
 Alpha virt. eigenvalues --    2.45206   2.45262   2.45814   2.46343   2.48460
 Alpha virt. eigenvalues --    2.48754   2.50471   2.52412   2.53552   2.53692
 Alpha virt. eigenvalues --    2.53906   2.54275   2.54581   2.56513   2.57121
 Alpha virt. eigenvalues --    2.57772   2.58065   2.58476   2.61004   2.61566
 Alpha virt. eigenvalues --    2.61940   2.62719   2.63967   2.66639   2.67779
 Alpha virt. eigenvalues --    2.68647   2.69900   2.70333   2.71715   2.71801
 Alpha virt. eigenvalues --    2.73297   2.74561   2.75366   2.76771   2.78484
 Alpha virt. eigenvalues --    2.79837   2.80851   2.81045   2.82602   2.88136
 Alpha virt. eigenvalues --    2.88925   2.89522   2.90536   2.92243   2.93320
 Alpha virt. eigenvalues --    2.93922   2.96630   2.98103   2.98405   3.00257
 Alpha virt. eigenvalues --    3.00513   3.00867   3.01556   3.02096   3.06206
 Alpha virt. eigenvalues --    3.06685   3.06998   3.14068   3.15525   3.15676
 Alpha virt. eigenvalues --    3.21671   3.24243   3.25443   3.31105   3.31377
 Alpha virt. eigenvalues --    3.40395   3.41057   3.42065   3.44573   3.48009
 Alpha virt. eigenvalues --    3.48332   3.58699   3.62534   3.84959   4.01861
 Alpha virt. eigenvalues --    4.15489
  Beta  occ. eigenvalues -- -256.17900 -29.99223 -25.84297 -25.83636 -25.83193
  Beta  occ. eigenvalues --  -14.43123 -14.36884 -14.33620 -14.33608 -14.33487
  Beta  occ. eigenvalues --  -14.33392 -10.26407 -10.24565 -10.21650 -10.21639
  Beta  occ. eigenvalues --  -10.21565 -10.21512 -10.21493 -10.21492 -10.21352
  Beta  occ. eigenvalues --  -10.21312 -10.21304 -10.21138 -10.20036 -10.19882
  Beta  occ. eigenvalues --  -10.19404 -10.19335 -10.19225 -10.19085 -10.19072
  Beta  occ. eigenvalues --  -10.19003 -10.18996 -10.18937 -10.18934 -10.18855
  Beta  occ. eigenvalues --  -10.18849 -10.18824 -10.18801 -10.18778 -10.18770
  Beta  occ. eigenvalues --  -10.18741 -10.18657 -10.18587 -10.18516 -10.18512
  Beta  occ. eigenvalues --   -3.33598  -2.09371  -2.09247  -2.08541  -1.05319
  Beta  occ. eigenvalues --   -0.96463  -0.95530  -0.95415  -0.94473  -0.90833
  Beta  occ. eigenvalues --   -0.81945  -0.81485  -0.81192  -0.80433  -0.80343
  Beta  occ. eigenvalues --   -0.80075  -0.79283  -0.79213  -0.76439  -0.75354
  Beta  occ. eigenvalues --   -0.74032  -0.73622  -0.72930  -0.71888  -0.70701
  Beta  occ. eigenvalues --   -0.69868  -0.68034  -0.67664  -0.67525  -0.64646
  Beta  occ. eigenvalues --   -0.63798  -0.63697  -0.61305  -0.60295  -0.59699
  Beta  occ. eigenvalues --   -0.57391  -0.56201  -0.55886  -0.54114  -0.53272
  Beta  occ. eigenvalues --   -0.52965  -0.52197  -0.50626  -0.50589  -0.50072
  Beta  occ. eigenvalues --   -0.48313  -0.47773  -0.47445  -0.47246  -0.46868
  Beta  occ. eigenvalues --   -0.44653  -0.44389  -0.44106  -0.44039  -0.43659
  Beta  occ. eigenvalues --   -0.43266  -0.43132  -0.43103  -0.42831  -0.42753
  Beta  occ. eigenvalues --   -0.42648  -0.42362  -0.42320  -0.41999  -0.41712
  Beta  occ. eigenvalues --   -0.41300  -0.41237  -0.41078  -0.40008  -0.39869
  Beta  occ. eigenvalues --   -0.39818  -0.39443  -0.39188  -0.38611  -0.38548
  Beta  occ. eigenvalues --   -0.38205  -0.37988  -0.37458  -0.37236  -0.36597
  Beta  occ. eigenvalues --   -0.36468  -0.36041  -0.35568  -0.35448  -0.34809
  Beta  occ. eigenvalues --   -0.33969  -0.33738  -0.33400  -0.33158  -0.31434
  Beta  occ. eigenvalues --   -0.31393  -0.30386  -0.29615  -0.29382  -0.28805
  Beta  occ. eigenvalues --   -0.28305  -0.26033  -0.25956  -0.23879  -0.22853
  Beta  occ. eigenvalues --   -0.22432  -0.21859  -0.21252  -0.17944  -0.17244
  Beta  occ. eigenvalues --   -0.14019
  Beta virt. eigenvalues --   -0.06499  -0.05249  -0.01085   0.00141   0.00528
  Beta virt. eigenvalues --    0.02122   0.02623   0.03739   0.03984   0.06662
  Beta virt. eigenvalues --    0.06871   0.07821   0.09266   0.09550   0.10014
  Beta virt. eigenvalues --    0.10220   0.11020   0.11327   0.11584   0.12092
  Beta virt. eigenvalues --    0.12194   0.12626   0.13069   0.14196   0.14321
  Beta virt. eigenvalues --    0.14757   0.15334   0.15650   0.15861   0.16067
  Beta virt. eigenvalues --    0.16226   0.16442   0.16631   0.16759   0.17520
  Beta virt. eigenvalues --    0.17907   0.17946   0.17980   0.18174   0.18531
  Beta virt. eigenvalues --    0.18962   0.19162   0.19261   0.19521   0.19747
  Beta virt. eigenvalues --    0.20009   0.20747   0.21248   0.21509   0.21827
  Beta virt. eigenvalues --    0.22207   0.22271   0.22969   0.23278   0.23553
  Beta virt. eigenvalues --    0.24011   0.24751   0.25270   0.25885   0.26165
  Beta virt. eigenvalues --    0.26682   0.26849   0.27317   0.27685   0.27994
  Beta virt. eigenvalues --    0.28020   0.29107   0.30198   0.31110   0.31454
  Beta virt. eigenvalues --    0.32358   0.32767   0.33654   0.34013   0.34291
  Beta virt. eigenvalues --    0.35679   0.36144   0.36637   0.36990   0.37305
  Beta virt. eigenvalues --    0.37736   0.38904   0.39195   0.40722   0.42279
  Beta virt. eigenvalues --    0.42601   0.43713   0.44312   0.44789   0.45002
  Beta virt. eigenvalues --    0.45940   0.47077   0.48643   0.48687   0.49161
  Beta virt. eigenvalues --    0.49499   0.50058   0.51007   0.51332   0.51449
  Beta virt. eigenvalues --    0.52248   0.52650   0.52939   0.53123   0.53397
  Beta virt. eigenvalues --    0.53715   0.53793   0.53893   0.54380   0.54591
  Beta virt. eigenvalues --    0.55116   0.55556   0.56217   0.56557   0.57440
  Beta virt. eigenvalues --    0.57702   0.58193   0.58620   0.58653   0.59279
  Beta virt. eigenvalues --    0.59494   0.59887   0.60449   0.60774   0.61142
  Beta virt. eigenvalues --    0.61260   0.61542   0.62242   0.62381   0.63398
  Beta virt. eigenvalues --    0.63686   0.64067   0.64595   0.64903   0.65693
  Beta virt. eigenvalues --    0.65853   0.66119   0.66641   0.66863   0.67249
  Beta virt. eigenvalues --    0.67447   0.67653   0.68088   0.68270   0.68665
  Beta virt. eigenvalues --    0.69252   0.69684   0.70474   0.70858   0.71171
  Beta virt. eigenvalues --    0.71434   0.71702   0.71932   0.73016   0.73472
  Beta virt. eigenvalues --    0.74414   0.74910   0.75338   0.75604   0.75802
  Beta virt. eigenvalues --    0.76390   0.77299   0.77472   0.77850   0.78281
  Beta virt. eigenvalues --    0.78562   0.78605   0.79182   0.79386   0.80086
  Beta virt. eigenvalues --    0.80524   0.80652   0.80906   0.81893   0.82023
  Beta virt. eigenvalues --    0.82386   0.83044   0.83835   0.84193   0.84482
  Beta virt. eigenvalues --    0.85482   0.86204   0.86816   0.87047   0.87391
  Beta virt. eigenvalues --    0.87570   0.87909   0.88222   0.88419   0.88635
  Beta virt. eigenvalues --    0.88809   0.89333   0.89896   0.90484   0.90910
  Beta virt. eigenvalues --    0.91469   0.91776   0.92274   0.92879   0.93004
  Beta virt. eigenvalues --    0.93436   0.93638   0.94013   0.94227   0.94523
  Beta virt. eigenvalues --    0.95132   0.95242   0.95956   0.96072   0.96295
  Beta virt. eigenvalues --    0.96750   0.97494   0.97724   0.98111   0.98956
  Beta virt. eigenvalues --    0.99460   0.99878   1.00120   1.00428   1.00769
  Beta virt. eigenvalues --    1.00941   1.01238   1.01811   1.02039   1.02801
  Beta virt. eigenvalues --    1.03275   1.04388   1.04762   1.05522   1.05970
  Beta virt. eigenvalues --    1.06210   1.07422   1.07533   1.08014   1.08357
  Beta virt. eigenvalues --    1.08777   1.10040   1.10442   1.11298   1.11990
  Beta virt. eigenvalues --    1.14698   1.14932   1.15917   1.16532   1.17317
  Beta virt. eigenvalues --    1.18255   1.18614   1.18973   1.19714   1.20432
  Beta virt. eigenvalues --    1.20641   1.20931   1.21729   1.21914   1.22517
  Beta virt. eigenvalues --    1.22987   1.23253   1.24301   1.25702   1.25862
  Beta virt. eigenvalues --    1.26185   1.26806   1.28820   1.28966   1.29841
  Beta virt. eigenvalues --    1.30490   1.30906   1.32073   1.32204   1.32674
  Beta virt. eigenvalues --    1.33079   1.34542   1.35123   1.35913   1.36596
  Beta virt. eigenvalues --    1.36824   1.37652   1.38302   1.38775   1.39103
  Beta virt. eigenvalues --    1.39230   1.39482   1.40225   1.40428   1.40736
  Beta virt. eigenvalues --    1.42437   1.42809   1.43268   1.44069   1.45056
  Beta virt. eigenvalues --    1.45621   1.46066   1.47738   1.47995   1.48971
  Beta virt. eigenvalues --    1.49050   1.50042   1.51750   1.52766   1.53282
  Beta virt. eigenvalues --    1.55195   1.55292   1.55679   1.55759   1.56889
  Beta virt. eigenvalues --    1.57501   1.57791   1.59705   1.60876   1.61506
  Beta virt. eigenvalues --    1.62166   1.63334   1.63597   1.64439   1.65127
  Beta virt. eigenvalues --    1.66978   1.67660   1.68985   1.69687   1.70570
  Beta virt. eigenvalues --    1.70706   1.72566   1.73100   1.74634   1.76177
  Beta virt. eigenvalues --    1.79510   1.79862   1.80521   1.80881   1.81532
  Beta virt. eigenvalues --    1.81719   1.82052   1.82381   1.82934   1.83445
  Beta virt. eigenvalues --    1.83555   1.84202   1.84804   1.85341   1.86326
  Beta virt. eigenvalues --    1.86557   1.86911   1.87443   1.88675   1.88749
  Beta virt. eigenvalues --    1.88996   1.89841   1.90596   1.91308   1.91515
  Beta virt. eigenvalues --    1.92265   1.92954   1.93771   1.93980   1.94815
  Beta virt. eigenvalues --    1.95606   1.95857   1.96341   1.96891   1.97268
  Beta virt. eigenvalues --    2.00084   2.00617   2.00746   2.01198   2.01921
  Beta virt. eigenvalues --    2.02260   2.02502   2.03359   2.04327   2.05103
  Beta virt. eigenvalues --    2.05807   2.06187   2.06696   2.07158   2.07827
  Beta virt. eigenvalues --    2.08708   2.09614   2.10040   2.11147   2.12424
  Beta virt. eigenvalues --    2.13032   2.13148   2.14144   2.14845   2.15006
  Beta virt. eigenvalues --    2.16342   2.16830   2.17162   2.17559   2.19744
  Beta virt. eigenvalues --    2.20516   2.20685   2.21283   2.21606   2.22921
  Beta virt. eigenvalues --    2.23702   2.24347   2.24900   2.26162   2.26633
  Beta virt. eigenvalues --    2.26675   2.27231   2.27583   2.28276   2.28626
  Beta virt. eigenvalues --    2.28958   2.29665   2.30407   2.30802   2.30948
  Beta virt. eigenvalues --    2.31435   2.31712   2.32391   2.32890   2.33447
  Beta virt. eigenvalues --    2.34109   2.34667   2.35864   2.36382   2.36733
  Beta virt. eigenvalues --    2.37332   2.37824   2.38223   2.38616   2.39148
  Beta virt. eigenvalues --    2.39939   2.39971   2.41273   2.41883   2.42100
  Beta virt. eigenvalues --    2.42356   2.42996   2.44037   2.44534   2.45215
  Beta virt. eigenvalues --    2.45334   2.46181   2.46683   2.48685   2.49013
  Beta virt. eigenvalues --    2.51403   2.52751   2.53751   2.53976   2.53980
  Beta virt. eigenvalues --    2.54553   2.54666   2.56775   2.57384   2.57879
  Beta virt. eigenvalues --    2.58226   2.58521   2.61297   2.61645   2.62042
  Beta virt. eigenvalues --    2.62934   2.64019   2.66682   2.67808   2.68949
  Beta virt. eigenvalues --    2.70041   2.70544   2.71844   2.71900   2.73463
  Beta virt. eigenvalues --    2.74717   2.75624   2.76887   2.78587   2.80094
  Beta virt. eigenvalues --    2.81043   2.81124   2.82699   2.88303   2.89103
  Beta virt. eigenvalues --    2.89619   2.90668   2.92373   2.93422   2.94076
  Beta virt. eigenvalues --    2.96763   2.98186   2.98510   3.00430   3.00903
  Beta virt. eigenvalues --    3.01096   3.01872   3.02270   3.06413   3.06866
  Beta virt. eigenvalues --    3.07168   3.14249   3.15676   3.15760   3.21739
  Beta virt. eigenvalues --    3.24375   3.25860   3.31134   3.31408   3.40577
  Beta virt. eigenvalues --    3.41121   3.42847   3.48146   3.48481   3.52874
  Beta virt. eigenvalues --    3.67114   3.73831   3.96558   4.13424   4.26113
          Condensed to atoms (all electrons):
          Atomic-Atomic Spin Densities.
 Mulliken charges and spin densities:
               1          2
     1  Fe   1.001687   3.851150
     2  N   -0.730618   0.036317
     3  N   -0.709672   0.048453
     4  N   -0.739671   0.033150
     5  N   -0.706374   0.045479
     6  C    0.315091  -0.028091
     7  C    0.034470   0.023217
     8  C    0.026827  -0.016307
     9  C    0.335264   0.012041
    10  C    0.332646   0.009286
    11  C    0.028758  -0.021079
    12  C    0.034619   0.021319
    13  C    0.315313  -0.032557
    14  C    0.318535  -0.028606
    15  C   -0.004549   0.026681
    16  C    0.032065  -0.022167
    17  C    0.331921   0.014830
    18  C    0.329533   0.011787
    19  C   -0.008636  -0.024046
    20  C    0.035117   0.026704
    21  C    0.295701  -0.031123
    22  C   -0.324260   0.016562
    23  H    0.163047  -0.000437
    24  C   -0.318606  -0.010672
    25  H    0.162387   0.000691
    26  C   -0.318551   0.016135
    27  H    0.164164  -0.000409
    28  C   -0.310177  -0.017580
    29  H    0.166259   0.001029
    30  C   -0.608499  -0.001287
    31  H    0.183321   0.000793
    32  H    0.193920   0.000769
    33  H    0.183696   0.000374
    34  C   -0.609039   0.001900
    35  H    0.191992  -0.000730
    36  H    0.187125  -0.000826
    37  H    0.182303   0.000268
    38  C   -0.611014  -0.001394
    39  H    0.190867   0.001010
    40  H    0.176594   0.000150
    41  H    0.194195   0.000547
    42  C   -0.145782   0.008010
    43  H    0.162365  -0.000974
    44  C   -0.404014  -0.011015
    45  H    0.173719   0.000549
    46  H    0.164419   0.000533
    47  C   -0.610925   0.002353
    48  H    0.191309  -0.001244
    49  H    0.181618  -0.000558
    50  H    0.192728   0.000083
    51  C   -0.146199  -0.007186
    52  H    0.162284   0.000609
    53  C   -0.401472   0.010924
    54  H    0.176207  -0.000550
    55  H    0.165276  -0.000433
    56  C   -0.609313  -0.000984
    57  H    0.194134   0.000457
    58  H    0.184235   0.000390
    59  H    0.183031   0.000348
    60  C   -0.608746   0.002461
    61  H    0.182406   0.000241
    62  H    0.186744  -0.001289
    63  H    0.189610  -0.001230
    64  C   -0.601355   0.000308
    65  H    0.194862   0.000300
    66  H    0.193791   0.000372
    67  H    0.210300   0.000072
    68  N   -0.636239  -0.000781
    69  H    0.363415   0.002158
    70  C    0.274866   0.008375
    71  C    0.240680  -0.022503
    72  H    0.217328   0.002008
    73  N   -0.484162   0.051528
    74  C   -0.042664  -0.008086
    75  H    0.197790   0.001427
 Sum of Mulliken charges =  -0.00000   4.00000
 Mulliken charges and spin densities with hydrogens summed into heavy atoms:
               1          2
     1  Fe   1.001687   3.851150
     2  N   -0.730618   0.036317
     3  N   -0.709672   0.048453
     4  N   -0.739671   0.033150
     5  N   -0.706374   0.045479
     6  C    0.315091  -0.028091
     7  C    0.034470   0.023217
     8  C    0.026827  -0.016307
     9  C    0.335264   0.012041
    10  C    0.332646   0.009286
    11  C    0.028758  -0.021079
    12  C    0.034619   0.021319
    13  C    0.315313  -0.032557
    14  C    0.318535  -0.028606
    15  C   -0.004549   0.026681
    16  C    0.032065  -0.022167
    17  C    0.331921   0.014830
    18  C    0.329533   0.011787
    19  C   -0.008636  -0.024046
    20  C    0.035117   0.026704
    21  C    0.295701  -0.031123
    22  C   -0.161212   0.016126
    24  C   -0.156219  -0.009981
    26  C   -0.154386   0.015726
    28  C   -0.143918  -0.016551
    30  C   -0.047562   0.000649
    34  C   -0.047620   0.000611
    38  C   -0.049359   0.000312
    42  C    0.016583   0.007035
    44  C   -0.065876  -0.009933
    47  C   -0.045271   0.000634
    51  C    0.016085  -0.006577
    53  C   -0.059989   0.009941
    56  C   -0.047912   0.000211
    60  C   -0.049985   0.000183
    64  C   -0.002402   0.001053
    68  N   -0.272824   0.001377
    70  C    0.274866   0.008375
    71  C    0.458008  -0.020495
    73  N   -0.484162   0.051528
    74  C    0.155126  -0.006660
 Electronic spatial extent (au):  <R**2>=          19835.9288
 Charge=             -0.0000 electrons
 Dipole moment (field-independent basis, Debye):
    X=             -0.7505    Y=              1.2557    Z=              6.1538  Tot=              6.3252
 Quadrupole moment (field-independent basis, Debye-Ang):
   XX=           -223.4007   YY=           -230.3053   ZZ=           -223.1376
   XY=             -2.1055   XZ=             -2.9246   YZ=             -0.2468
 Traceless Quadrupole moment (field-independent basis, Debye-Ang):
   XX=              2.2138   YY=             -4.6907   ZZ=              2.4769
   XY=             -2.1055   XZ=             -2.9246   YZ=             -0.2468
 Octapole moment (field-independent basis, Debye-Ang**2):
  XXX=             -1.4130  YYY=             26.3995  ZZZ=            162.5200  XYY=              1.3629
  XXY=             23.0108  XXZ=              9.9316  XZZ=            -19.2447  YZZ=             11.9504
  YYZ=            -23.2129  XYZ=              0.0320
 Hexadecapole moment (field-independent basis, Debye-Ang**3):
 XXXX=         -11492.2352 YYYY=         -11192.7271 ZZZZ=          -2669.2154 XXXY=            -37.2581
 XXXZ=             49.5583 YYYX=              3.5021 YYYZ=             -7.8297 ZZZX=            -72.9527
 ZZZY=              4.7599 XXYY=          -3831.6952 XXZZ=          -2555.1765 YYZZ=          -2574.7966
 XXYZ=             31.1310 YYXZ=            -30.8119 ZZXY=            -27.6025
 N-N= 5.565778151424D+03 E-N=-1.796239164539D+04  KE= 2.897151949295D+03
                          Isotropic Fermi Contact Couplings
        Atom                 a.u.       MegaHertz       Gauss      10(-4) cm-1
     1  Fe(57)             0.45875      16.63425       5.93551       5.54859
     2  N(14)              0.09260       7.48027       2.66915       2.49515
     3  N(14)              0.09407       7.59867       2.71139       2.53464
     4  N(14)              0.08810       7.11637       2.53930       2.37376
     5  N(14)              0.09248       7.47023       2.66556       2.49180
     6  C(13)              0.00125       0.35161       0.12546       0.11728
     7  C(13)              0.00675       1.89760       0.67711       0.63297
     8  C(13)              0.00060       0.16766       0.05982       0.05592
     9  C(13)              0.00730       2.05081       0.73178       0.68408
    10  C(13)              0.00688       1.93317       0.68980       0.64483
    11  C(13)             -0.00005      -0.01286      -0.00459      -0.00429
    12  C(13)              0.00645       1.81276       0.64684       0.60467
    13  C(13)              0.00023       0.06360       0.02269       0.02121
    14  C(13)              0.00155       0.43456       0.15506       0.14495
    15  C(13)              0.00722       2.03046       0.72452       0.67729
    16  C(13)             -0.00020      -0.05607      -0.02001      -0.01870
    17  C(13)              0.00776       2.18212       0.77863       0.72788
    18  C(13)              0.00741       2.08214       0.74296       0.69453
    19  C(13)             -0.00056      -0.15604      -0.05568      -0.05205
    20  C(13)              0.00749       2.10381       0.75069       0.70175
    21  C(13)              0.00055       0.15498       0.05530       0.05170
    22  C(13)              0.00275       0.77263       0.27569       0.25772
    23  H(1)              -0.00014      -0.16071      -0.05735      -0.05361
    24  C(13)             -0.00191      -0.53568      -0.19114      -0.17868
    25  H(1)               0.00022       0.24784       0.08843       0.08267
    26  C(13)              0.00274       0.77085       0.27506       0.25713
    27  H(1)              -0.00013      -0.14836      -0.05294      -0.04949
    28  C(13)             -0.00291      -0.81703      -0.29154      -0.27253
    29  H(1)               0.00032       0.35834       0.12786       0.11953
    30  C(13)             -0.00006      -0.01607      -0.00574      -0.00536
    31  H(1)               0.00036       0.40169       0.14333       0.13399
    32  H(1)               0.00033       0.37419       0.13352       0.12482
    33  H(1)               0.00011       0.12801       0.04568       0.04270
    34  C(13)              0.00109       0.30599       0.10918       0.10207
    35  H(1)              -0.00032      -0.36233      -0.12929      -0.12086
    36  H(1)              -0.00038      -0.42214      -0.15063      -0.14081
    37  H(1)               0.00007       0.08235       0.02938       0.02747
    38  C(13)             -0.00007      -0.02015      -0.00719      -0.00672
    39  H(1)               0.00054       0.60308       0.21520       0.20117
    40  H(1)               0.00020       0.21975       0.07841       0.07330
    41  H(1)               0.00019       0.21769       0.07768       0.07261
    42  C(13)              0.00203       0.57066       0.20363       0.19035
    43  H(1)              -0.00026      -0.28685      -0.10236      -0.09568
    44  C(13)             -0.00164      -0.46043      -0.16429      -0.15358
    45  H(1)               0.00017       0.18600       0.06637       0.06204
    46  H(1)               0.00017       0.19341       0.06901       0.06451
    47  C(13)              0.00125       0.35084       0.12519       0.11703
    48  H(1)              -0.00060      -0.66515      -0.23734      -0.22187
    49  H(1)              -0.00022      -0.24071      -0.08589      -0.08029
    50  H(1)              -0.00005      -0.05142      -0.01835      -0.01715
    51  C(13)             -0.00096      -0.26935      -0.09611      -0.08985
    52  H(1)               0.00021       0.23485       0.08380       0.07834
    53  C(13)              0.00182       0.51131       0.18245       0.17055
    54  H(1)              -0.00017      -0.18858      -0.06729      -0.06290
    55  H(1)              -0.00013      -0.14506      -0.05176      -0.04839
    56  C(13)              0.00008       0.02281       0.00814       0.00761
    57  H(1)               0.00033       0.36870       0.13156       0.12298
    58  H(1)               0.00030       0.33251       0.11865       0.11091
    59  H(1)               0.00011       0.12105       0.04319       0.04038
    60  C(13)              0.00134       0.37616       0.13422       0.12547
    61  H(1)               0.00006       0.07241       0.02584       0.02415
    62  H(1)              -0.00047      -0.52316      -0.18668      -0.17451
    63  H(1)              -0.00042      -0.46451      -0.16575      -0.15494
    64  C(13)              0.00045       0.12557       0.04481       0.04189
    65  H(1)               0.00013       0.14424       0.05147       0.04811
    66  H(1)               0.00016       0.17778       0.06344       0.05930
    67  H(1)               0.00005       0.05226       0.01865       0.01743
    68  N(14)              0.00734       0.59269       0.21149       0.19770
    69  H(1)               0.00067       0.74355       0.26532       0.24802
    70  C(13)              0.00430       1.20955       0.43160       0.40346
    71  C(13)              0.00156       0.43835       0.15641       0.14622
    72  H(1)               0.00071       0.79670       0.28428       0.26575
    73  N(14)              0.11239       9.07830       3.23936       3.02819
    74  C(13)              0.00080       0.22535       0.08041       0.07517
    75  H(1)               0.00051       0.57089       0.20371       0.19043
 --------------------------------------------------------
       Center         ----  Spin Dipole Couplings  ----
                      3XX-RR        3YY-RR        3ZZ-RR
 --------------------------------------------------------
     1   Atom        1.463128     -0.300127     -1.163001
     2   Atom        0.008631      0.070499     -0.079131
     3   Atom        0.051970      0.000584     -0.052553
     4   Atom        0.012003      0.072786     -0.084789
     5   Atom        0.056684      0.002410     -0.059094
     6   Atom        0.051391      0.003789     -0.055180
     7   Atom       -0.004102     -0.004455      0.008557
     8   Atom        0.009035      0.017981     -0.027016
     9   Atom       -0.022834      0.039471     -0.016636
    10   Atom       -0.013876      0.034014     -0.020137
    11   Atom        0.016504      0.016718     -0.033222
    12   Atom        0.002443     -0.007609      0.005166
    13   Atom        0.061515     -0.000684     -0.060831
    14   Atom        0.052077      0.003702     -0.055779
    15   Atom       -0.005248     -0.005237      0.010485
    16   Atom        0.011509      0.021381     -0.032890
    17   Atom       -0.024098      0.039459     -0.015361
    18   Atom       -0.014480      0.032875     -0.018395
    19   Atom        0.016316      0.017997     -0.034313
    20   Atom        0.000350     -0.010745      0.010395
    21   Atom        0.059137     -0.002055     -0.057083
    22   Atom        0.024369     -0.018670     -0.005699
    23   Atom        0.013464     -0.006868     -0.006596
    24   Atom       -0.006383      0.033664     -0.027282
    25   Atom       -0.005753      0.012223     -0.006470
    26   Atom        0.024603     -0.018736     -0.005867
    27   Atom        0.013439     -0.006951     -0.006488
    28   Atom       -0.003018      0.037749     -0.034730
    29   Atom       -0.005413      0.011945     -0.006531
    30   Atom        0.004531     -0.000860     -0.003672
    31   Atom        0.004051     -0.001148     -0.002902
    32   Atom        0.003994     -0.001330     -0.002663
    33   Atom        0.001748      0.000626     -0.002374
    34   Atom       -0.002195      0.006065     -0.003870
    35   Atom       -0.002253      0.004676     -0.002423
    36   Atom       -0.002189      0.005058     -0.002870
    37   Atom       -0.000621      0.002915     -0.002294
    38   Atom        0.005981     -0.002572     -0.003409
    39   Atom        0.004549     -0.001986     -0.002562
    40   Atom        0.005639     -0.002652     -0.002986
    41   Atom        0.002974     -0.000643     -0.002332
    42   Atom       -0.002101      0.002249     -0.000147
    43   Atom       -0.001540      0.004513     -0.002973
    44   Atom        0.000937      0.006700     -0.007637
    45   Atom        0.000650      0.000984     -0.001634
    46   Atom        0.000440      0.000686     -0.001126
    47   Atom       -0.002090      0.006128     -0.004038
    48   Atom       -0.001709      0.004023     -0.002314
    49   Atom       -0.002567      0.005618     -0.003052
    50   Atom       -0.000618      0.002998     -0.002379
    51   Atom        0.007175     -0.000567     -0.006609
    52   Atom        0.004761     -0.001556     -0.003205
    53   Atom       -0.003227      0.000662      0.002565
    54   Atom        0.000403      0.001101     -0.001504
    55   Atom        0.002072     -0.000536     -0.001536
    56   Atom        0.005806     -0.002463     -0.003343
    57   Atom        0.004823     -0.002268     -0.002555
    58   Atom        0.005209     -0.002309     -0.002901
    59   Atom        0.002794     -0.000476     -0.002319
    60   Atom       -0.000689      0.004300     -0.003611
    61   Atom        0.000618      0.001629     -0.002247
    62   Atom       -0.001045      0.003836     -0.002792
    63   Atom       -0.001129      0.003580     -0.002451
    64   Atom       -0.002885     -0.003995      0.006880
    65   Atom       -0.002327     -0.002218      0.004544
    66   Atom       -0.002229     -0.002427      0.004656
    67   Atom       -0.001087     -0.003160      0.004247
    68   Atom       -0.004227     -0.018670      0.022897
    69   Atom       -0.003510     -0.004645      0.008155
    70   Atom       -0.010957     -0.003298      0.014255
    71   Atom        0.007432     -0.053958      0.046527
    72   Atom        0.003021     -0.017817      0.014796
    73   Atom       -0.123879     -0.089070      0.212950
    74   Atom       -0.002979     -0.035024      0.038003
    75   Atom        0.005879     -0.018217      0.012337
 --------------------------------------------------------
                        XY            XZ            YZ
 --------------------------------------------------------
     1   Atom       -1.353450     -0.070398      0.074684
     2   Atom       -0.154601      0.023170     -0.026630
     3   Atom        0.150598     -0.016917     -0.014846
     4   Atom       -0.154743     -0.016497      0.020430
     5   Atom        0.149771     -0.001678     -0.005684
     6   Atom       -0.025557     -0.000188     -0.005056
     7   Atom       -0.012876      0.001795     -0.000405
     8   Atom       -0.011809     -0.000000     -0.003881
     9   Atom       -0.014463      0.001208     -0.007085
    10   Atom        0.024793     -0.002782     -0.002894
    11   Atom        0.012833     -0.000402     -0.002549
    12   Atom        0.012215     -0.000685     -0.000092
    13   Atom        0.015303      0.000078     -0.002759
    14   Atom       -0.025158     -0.002837      0.004240
    15   Atom       -0.013310     -0.000936     -0.000576
    16   Atom       -0.011802     -0.001959      0.001245
    17   Atom       -0.014812     -0.001716      0.003431
    18   Atom        0.025064      0.001837     -0.002176
    19   Atom        0.012766     -0.007191     -0.001099
    20   Atom        0.011849      0.002650     -0.002539
    21   Atom        0.015037     -0.010961      0.000715
    22   Atom       -0.003931      0.002403      0.001662
    23   Atom       -0.001798      0.000065      0.000055
    24   Atom        0.003950     -0.000112     -0.004687
    25   Atom        0.001907     -0.000139     -0.001445
    26   Atom       -0.003680     -0.003295      0.000827
    27   Atom       -0.001595     -0.001076      0.000097
    28   Atom        0.004235      0.000339      0.003684
    29   Atom        0.001944      0.000162      0.001507
    30   Atom       -0.004767      0.000536     -0.000323
    31   Atom       -0.003531     -0.000951      0.000391
    32   Atom       -0.003311      0.001676     -0.000719
    33   Atom       -0.003523      0.000356     -0.000297
    34   Atom       -0.003388      0.000305     -0.000902
    35   Atom       -0.002254      0.000565     -0.002000
    36   Atom       -0.002347     -0.000125      0.000502
    37   Atom       -0.002789      0.000294     -0.000540
    38   Atom        0.003665     -0.000577     -0.000156
    39   Atom        0.002508      0.000990      0.000259
    40   Atom        0.002050     -0.001668     -0.000312
    41   Atom        0.003224     -0.000687     -0.000513
    42   Atom        0.003848     -0.002571      0.001177
    43   Atom        0.003107     -0.000290     -0.000725
    44   Atom        0.003249      0.007678      0.000062
    45   Atom        0.003280      0.000480      0.000780
    46   Atom        0.001745      0.000441      0.000238
    47   Atom       -0.003431     -0.000375      0.000484
    48   Atom       -0.002371     -0.000517      0.001540
    49   Atom       -0.002185      0.000107     -0.000568
    50   Atom       -0.002779      0.000005     -0.000085
    51   Atom       -0.005310     -0.000528      0.004088
    52   Atom       -0.003624      0.000311     -0.000117
    53   Atom       -0.002230     -0.001686     -0.006726
    54   Atom       -0.002152     -0.000566      0.001086
    55   Atom       -0.001983     -0.000347     -0.000056
    56   Atom        0.003614     -0.000565     -0.000189
    57   Atom        0.002243     -0.001762     -0.000402
    58   Atom        0.002337      0.000965      0.000175
    59   Atom        0.003063     -0.000286     -0.000164
    60   Atom        0.004740     -0.000329     -0.000556
    61   Atom        0.003141     -0.000278     -0.000326
    62   Atom        0.003551      0.000302      0.000654
    63   Atom        0.003385     -0.000803     -0.001617
    64   Atom       -0.000203      0.003302     -0.000631
    65   Atom       -0.000255      0.001412     -0.001496
    66   Atom        0.000136      0.001663      0.000756
    67   Atom       -0.000334      0.003803     -0.000605
    68   Atom       -0.003165     -0.002694     -0.002924
    69   Atom       -0.000150     -0.002911     -0.000065
    70   Atom        0.000193      0.003133     -0.000099
    71   Atom       -0.000815     -0.026095     -0.004984
    72   Atom       -0.001405     -0.026401      0.001896
    73   Atom        0.004434      0.003359     -0.009202
    74   Atom       -0.001769      0.027844     -0.001344
    75   Atom       -0.003145      0.026932     -0.003616
 --------------------------------------------------------


 ---------------------------------------------------------------------------------
              Anisotropic Spin Dipole Couplings in Principal Axis System
 ---------------------------------------------------------------------------------

       Atom             a.u.   MegaHertz   Gauss  10(-4) cm-1        Axes

              Baa    -1.1732   -20.312    -7.248    -6.775 -0.0821 -0.2106  0.9741
     1 Fe(57) Bbb    -1.0264   -17.770    -6.341    -5.927  0.4704  0.8535  0.2242
              Bcc     2.1996    38.081    13.588    12.703  0.8786 -0.4766 -0.0290
 
              Baa    -0.1181    -4.556    -1.626    -1.520  0.7751  0.6311 -0.0296
     2 N(14)  Bbb    -0.0835    -3.222    -1.150    -1.075 -0.0560  0.1152  0.9918
              Bcc     0.2017     7.778     2.775     2.594 -0.6293  0.7671 -0.1247
 
              Baa    -0.1265    -4.879    -1.741    -1.627 -0.6446  0.7645  0.0060
     3 N(14)  Bbb    -0.0547    -2.110    -0.753    -0.704  0.0771  0.0572  0.9954
              Bcc     0.1812     6.989     2.494     2.331  0.7607  0.6420 -0.0958
 
              Baa    -0.1153    -4.447    -1.587    -1.483  0.7718  0.6358 -0.0085
     4 N(14)  Bbb    -0.0872    -3.363    -1.200    -1.122  0.0644 -0.0649  0.9958
              Bcc     0.2025     7.810     2.787     2.605 -0.6326  0.7691  0.0910
 
              Baa    -0.1228    -4.737    -1.690    -1.580 -0.6395  0.7671  0.0516
     5 N(14)  Bbb    -0.0590    -2.276    -0.812    -0.759  0.0488 -0.0265  0.9985
              Bcc     0.1819     7.014     2.503     2.340  0.7673  0.6410 -0.0205
 
              Baa    -0.0557    -7.470    -2.666    -2.492  0.0245  0.0951  0.9952
     6 C(13)  Bbb    -0.0069    -0.922    -0.329    -0.308  0.3995  0.9116 -0.0970
              Bcc     0.0625     8.393     2.995     2.799  0.9164 -0.4000  0.0157
 
              Baa    -0.0172    -2.307    -0.823    -0.770  0.7034  0.7098 -0.0379
     7 C(13)  Bbb     0.0070     0.944     0.337     0.315 -0.4830  0.5163  0.7072
              Bcc     0.0102     1.363     0.486     0.455  0.5215 -0.4791  0.7060
 
              Baa    -0.0274    -3.674    -1.311    -1.225  0.0302  0.0930  0.9952
     8 C(13)  Bbb     0.0011     0.141     0.050     0.047  0.8260  0.5584 -0.0772
              Bcc     0.0263     3.533     1.261     1.178 -0.5629  0.8243 -0.0600
 
              Baa    -0.0260    -3.495    -1.247    -1.166  0.9748  0.2195  0.0402
     9 C(13)  Bbb    -0.0175    -2.346    -0.837    -0.782 -0.0650  0.1069  0.9921
              Bcc     0.0435     5.840     2.084     1.948 -0.2135  0.9697 -0.1185
 
              Baa    -0.0249    -3.335    -1.190    -1.112  0.8838 -0.3574  0.3020
    10 C(13)  Bbb    -0.0199    -2.670    -0.953    -0.891 -0.2568  0.1692  0.9515
              Bcc     0.0448     6.006     2.143     2.003  0.3912  0.9185 -0.0577
 
              Baa    -0.0334    -4.476    -1.597    -1.493 -0.0054  0.0522  0.9986
    11 C(13)  Bbb     0.0038     0.515     0.184     0.172  0.7118 -0.7012  0.0405
              Bcc     0.0295     3.961     1.413     1.321  0.7024  0.7110 -0.0334
 
              Baa    -0.0158    -2.120    -0.756    -0.707 -0.5568  0.8305 -0.0146
    12 C(13)  Bbb     0.0051     0.684     0.244     0.228  0.0846  0.0742  0.9936
              Bcc     0.0107     1.435     0.512     0.479  0.8263  0.5520 -0.1116
 
              Baa    -0.0610    -8.181    -2.919    -2.729 -0.0066  0.0474  0.9989
    13 C(13)  Bbb    -0.0041    -0.552    -0.197    -0.184 -0.2268  0.9728 -0.0476
              Bcc     0.0651     8.733     3.116     2.913  0.9739  0.2268 -0.0044
 
              Baa    -0.0561    -7.527    -2.686    -2.511  0.0108 -0.0662  0.9977
    14 C(13)  Bbb    -0.0069    -0.919    -0.328    -0.307  0.3943  0.9172  0.0566
              Bcc     0.0629     8.446     3.014     2.817  0.9189 -0.3928 -0.0360
 
              Baa    -0.0186    -2.495    -0.890    -0.832  0.7070  0.7062  0.0368
    15 C(13)  Bbb     0.0080     1.079     0.385     0.360 -0.7004  0.7065 -0.1018
              Bcc     0.0106     1.416     0.505     0.472 -0.0979  0.0462  0.9941
 
              Baa    -0.0330    -4.426    -1.579    -1.477  0.0402 -0.0141  0.9991
    16 C(13)  Bbb     0.0037     0.493     0.176     0.165  0.8310  0.5557 -0.0256
              Bcc     0.0293     3.933     1.403     1.312 -0.5549  0.8312  0.0341
 
              Baa    -0.0275    -3.684    -1.315    -1.229  0.9742  0.2116  0.0782
    17 C(13)  Bbb    -0.0155    -2.083    -0.743    -0.695 -0.0627 -0.0790  0.9949
              Bcc     0.0430     5.767     2.058     1.924 -0.2167  0.9742  0.0637
 
              Baa    -0.0261    -3.506    -1.251    -1.169  0.8697 -0.3810 -0.3139
    18 C(13)  Bbb    -0.0176    -2.359    -0.842    -0.787  0.2961 -0.1062  0.9492
              Bcc     0.0437     5.865     2.093     1.956  0.3950  0.9185 -0.0205
 
              Baa    -0.0353    -4.740    -1.691    -1.581  0.1412 -0.0134  0.9899
    19 C(13)  Bbb     0.0049     0.653     0.233     0.218  0.7081 -0.6975 -0.1104
              Bcc     0.0305     4.087     1.459     1.363  0.6919  0.7165 -0.0890
 
              Baa    -0.0187    -2.512    -0.896    -0.838 -0.5360  0.8354  0.1216
    20 C(13)  Bbb     0.0077     1.027     0.366     0.342  0.7949  0.5480 -0.2605
              Bcc     0.0111     1.485     0.530     0.495  0.2843  0.0430  0.9578
 
              Baa    -0.0582    -7.809    -2.786    -2.605  0.0979 -0.0389  0.9944
    21 C(13)  Bbb    -0.0054    -0.719    -0.257    -0.240 -0.2170  0.9743  0.0595
              Bcc     0.0636     8.528     3.043     2.845  0.9712  0.2217 -0.0869
 
              Baa    -0.0193    -2.588    -0.923    -0.863  0.0963  0.9858 -0.1376
    22 C(13)  Bbb    -0.0056    -0.752    -0.268    -0.251 -0.0603  0.1438  0.9878
              Bcc     0.0249     3.340     1.192     1.114  0.9935 -0.0869  0.0733
 
              Baa    -0.0070    -3.753    -1.339    -1.252  0.0870  0.9869 -0.1362
    23 H(1)   Bbb    -0.0066    -3.515    -1.254    -1.173  0.0090  0.1359  0.9907
              Bcc     0.0136     7.268     2.593     2.424  0.9962 -0.0874  0.0030
 
              Baa    -0.0276    -3.709    -1.324    -1.237 -0.0090  0.0768  0.9970
    24 C(13)  Bbb    -0.0068    -0.908    -0.324    -0.303  0.9953 -0.0953  0.0164
              Bcc     0.0344     4.617     1.647     1.540  0.0963  0.9925 -0.0756
 
              Baa    -0.0066    -3.511    -1.253    -1.171 -0.0114  0.0778  0.9969
    25 H(1)   Bbb    -0.0060    -3.176    -1.133    -1.059  0.9945 -0.1028  0.0194
              Bcc     0.0125     6.688     2.386     2.231  0.1040  0.9917 -0.0761
 
              Baa    -0.0191    -2.559    -0.913    -0.854  0.0807  0.9958 -0.0423
    26 C(13)  Bbb    -0.0062    -0.833    -0.297    -0.278  0.1102  0.0332  0.9934
              Bcc     0.0253     3.392     1.210     1.131  0.9906 -0.0848 -0.1071
 
              Baa    -0.0071    -3.775    -1.347    -1.259  0.0762  0.9968 -0.0245
    27 H(1)   Bbb    -0.0065    -3.492    -1.246    -1.165  0.0554  0.0203  0.9983
              Bcc     0.0136     7.268     2.593     2.424  0.9956 -0.0774 -0.0536
 
              Baa    -0.0349    -4.686    -1.672    -1.563 -0.0039 -0.0504  0.9987
    28 C(13)  Bbb    -0.0035    -0.463    -0.165    -0.155  0.9948 -0.1021 -0.0012
              Bcc     0.0384     5.149     1.837     1.718  0.1021  0.9935  0.0505
 
              Baa    -0.0067    -3.550    -1.267    -1.184 -0.0043 -0.0803  0.9968
    29 H(1)   Bbb    -0.0056    -3.003    -1.072    -1.002  0.9940 -0.1096 -0.0046
              Bcc     0.0123     6.553     2.338     2.186  0.1096  0.9907  0.0803
 
              Baa    -0.0037    -0.498    -0.178    -0.166  0.0183  0.1429  0.9896
    30 C(13)  Bbb    -0.0036    -0.488    -0.174    -0.163  0.5060  0.8523 -0.1324
              Bcc     0.0073     0.986     0.352     0.329  0.8624 -0.5031  0.0567
 
              Baa    -0.0031    -1.637    -0.584    -0.546  0.3174  0.4093  0.8554
    31 H(1)   Bbb    -0.0029    -1.540    -0.550    -0.514  0.3355  0.7952 -0.5050
              Bcc     0.0060     3.177     1.134     1.060  0.8870 -0.4473 -0.1150
 
              Baa    -0.0031    -1.644    -0.587    -0.548 -0.3464 -0.2884  0.8926
    32 H(1)   Bbb    -0.0029    -1.539    -0.549    -0.513  0.3164  0.8599  0.4006
              Bcc     0.0060     3.183     1.136     1.062  0.8831 -0.4212  0.2066
 
              Baa    -0.0024    -1.283    -0.458    -0.428 -0.1892 -0.1246  0.9740
    33 H(1)   Bbb    -0.0024    -1.269    -0.453    -0.423  0.6228  0.7516  0.2171
              Bcc     0.0048     2.553     0.911     0.852  0.7591 -0.6477  0.0646
 
              Baa    -0.0040    -0.530    -0.189    -0.177  0.0010  0.0900  0.9959
    34 C(13)  Bbb    -0.0034    -0.457    -0.163    -0.152  0.9420  0.3341 -0.0311
              Bcc     0.0074     0.987     0.352     0.329 -0.3355  0.9382 -0.0845
 
              Baa    -0.0030    -1.580    -0.564    -0.527  0.4751  0.3515  0.8067
    35 H(1)   Bbb    -0.0029    -1.549    -0.553    -0.517  0.8358  0.1064 -0.5386
              Bcc     0.0059     3.130     1.117     1.044 -0.2752  0.9301 -0.2432
 
              Baa    -0.0029    -1.556    -0.555    -0.519 -0.5244 -0.2063  0.8261
    36 H(1)   Bbb    -0.0029    -1.530    -0.546    -0.510  0.8031  0.2024  0.5604
              Bcc     0.0058     3.086     1.101     1.029 -0.2828  0.9573  0.0596
 
              Baa    -0.0023    -1.254    -0.447    -0.418 -0.0307  0.0858  0.9958
    37 H(1)   Bbb    -0.0022    -1.150    -0.410    -0.384  0.8767  0.4808 -0.0144
              Bcc     0.0045     2.403     0.858     0.802 -0.4800  0.8726 -0.0900
 
              Baa    -0.0039    -0.528    -0.188    -0.176 -0.3502  0.9303 -0.1086
    38 C(13)  Bbb    -0.0034    -0.461    -0.165    -0.154  0.0137  0.1210  0.9926
              Bcc     0.0074     0.989     0.353     0.330  0.9366  0.3461 -0.0551
 
              Baa    -0.0029    -1.530    -0.546    -0.510 -0.3415  0.8606  0.3779
    39 H(1)   Bbb    -0.0027    -1.420    -0.507    -0.474  0.0124 -0.3979  0.9173
              Bcc     0.0055     2.950     1.053     0.984  0.9398  0.3179  0.1252
 
              Baa    -0.0033    -1.772    -0.632    -0.591  0.2437 -0.3202  0.9154
    40 H(1)   Bbb    -0.0031    -1.655    -0.591    -0.552 -0.1470  0.9208  0.3613
              Bcc     0.0064     3.427     1.223     1.143  0.9586  0.2227 -0.1773
 
              Baa    -0.0026    -1.381    -0.493    -0.461 -0.3818  0.7682  0.5139
    41 H(1)   Bbb    -0.0024    -1.267    -0.452    -0.422  0.3477 -0.3957  0.8500
              Bcc     0.0050     2.648     0.945     0.883  0.8563  0.5032 -0.1161
 
              Baa    -0.0058    -0.773    -0.276    -0.258  0.7780 -0.4398  0.4486
    42 C(13)  Bbb     0.0012     0.167     0.060     0.056 -0.3486  0.2920  0.8906
              Bcc     0.0045     0.606     0.216     0.202  0.5227  0.8493 -0.0739
 
              Baa    -0.0030    -1.623    -0.579    -0.541 -0.0334  0.1090  0.9935
    43 H(1)   Bbb    -0.0028    -1.521    -0.543    -0.507  0.9214 -0.3817  0.0729
              Bcc     0.0059     3.144     1.122     1.049  0.3871  0.9178 -0.0877
 
              Baa    -0.0123    -1.648    -0.588    -0.550 -0.5161  0.0856  0.8522
    44 C(13)  Bbb     0.0032     0.434     0.155     0.145  0.6464 -0.6139  0.4531
              Bcc     0.0090     1.214     0.433     0.405  0.5620  0.7847  0.2615
 
              Baa    -0.0025    -1.341    -0.479    -0.447 -0.6803  0.6918 -0.2421
    45 H(1)   Bbb    -0.0017    -0.920    -0.328    -0.307 -0.2786  0.0614  0.9584
              Bcc     0.0042     2.261     0.807     0.754  0.6779  0.7195  0.1509
 
              Baa    -0.0013    -0.719    -0.257    -0.240 -0.5767  0.4123  0.7053
    46 H(1)   Bbb    -0.0010    -0.549    -0.196    -0.183  0.4529 -0.5572  0.6960
              Bcc     0.0024     1.268     0.452     0.423  0.6800  0.7208  0.1346
 
              Baa    -0.0041    -0.552    -0.197    -0.184  0.2364  0.0333  0.9711
    47 C(13)  Bbb    -0.0033    -0.441    -0.157    -0.147  0.9098  0.3435 -0.2332
              Bcc     0.0074     0.993     0.354     0.331 -0.3413  0.9386  0.0509
 
              Baa    -0.0027    -1.427    -0.509    -0.476 -0.2114 -0.2895  0.9335
    48 H(1)   Bbb    -0.0026    -1.361    -0.486    -0.454  0.9199  0.2638  0.2902
              Bcc     0.0052     2.789     0.995     0.930 -0.3303  0.9201  0.2105
 
              Baa    -0.0031    -1.674    -0.597    -0.558  0.7883  0.2336  0.5692
    49 H(1)   Bbb    -0.0031    -1.635    -0.583    -0.545 -0.5656 -0.0887  0.8199
              Bcc     0.0062     3.309     1.181     1.104 -0.2420  0.9683 -0.0622
 
              Baa    -0.0024    -1.273    -0.454    -0.425  0.1148  0.0748  0.9906
    50 H(1)   Bbb    -0.0021    -1.131    -0.404    -0.377  0.8715  0.4709 -0.1366
              Bcc     0.0045     2.404     0.858     0.802 -0.4767  0.8790 -0.0112
 
              Baa    -0.0089    -1.200    -0.428    -0.400 -0.1381 -0.5039  0.8526
    51 C(13)  Bbb    -0.0013    -0.171    -0.061    -0.057  0.4824  0.7176  0.5023
              Bcc     0.0102     1.371     0.489     0.457  0.8650 -0.4806 -0.1440
 
              Baa    -0.0032    -1.725    -0.616    -0.575 -0.2782 -0.5458  0.7904
    52 H(1)   Bbb    -0.0032    -1.701    -0.607    -0.567  0.3082  0.7286  0.6116
              Bcc     0.0064     3.426     1.222     1.143  0.9097 -0.4138  0.0345
 
              Baa    -0.0072    -0.961    -0.343    -0.320  0.5787  0.6203  0.5294
    53 C(13)  Bbb    -0.0013    -0.168    -0.060    -0.056  0.8153 -0.4265 -0.3916
              Bcc     0.0084     1.128     0.403     0.376  0.0172 -0.6583  0.7526
 
              Baa    -0.0019    -1.036    -0.370    -0.345 -0.2121 -0.4581  0.8632
    54 H(1)   Bbb    -0.0013    -0.690    -0.246    -0.230  0.7576  0.4809  0.4413
              Bcc     0.0032     1.725     0.616     0.575 -0.6173  0.7476  0.2451
 
              Baa    -0.0018    -0.957    -0.342    -0.319  0.3886  0.6419  0.6611
    55 H(1)   Bbb    -0.0014    -0.728    -0.260    -0.243 -0.2735 -0.6047  0.7480
              Bcc     0.0032     1.685     0.601     0.562  0.8799 -0.4715 -0.0594
 
              Baa    -0.0038    -0.513    -0.183    -0.171 -0.3535  0.9342 -0.0477
    56 C(13)  Bbb    -0.0034    -0.453    -0.162    -0.151  0.0360  0.0645  0.9973
              Bcc     0.0072     0.966     0.345     0.322  0.9347  0.3508 -0.0564
 
              Baa    -0.0030    -1.618    -0.577    -0.540  0.3339 -0.5959  0.7303
    57 H(1)   Bbb    -0.0028    -1.508    -0.538    -0.503 -0.0721  0.7564  0.6501
              Bcc     0.0059     3.127     1.116     1.043  0.9398  0.2697 -0.2096
 
              Baa    -0.0031    -1.648    -0.588    -0.550 -0.2569  0.5995  0.7580
    58 H(1)   Bbb    -0.0029    -1.544    -0.551    -0.515 -0.1405  0.7528 -0.6431
              Bcc     0.0060     3.193     1.139     1.065  0.9562  0.2718  0.1092
 
              Baa    -0.0023    -1.247    -0.445    -0.416  0.1786 -0.2095  0.9614
    59 H(1)   Bbb    -0.0023    -1.233    -0.440    -0.411 -0.4840  0.8320  0.2712
              Bcc     0.0046     2.479     0.885     0.827  0.8567  0.5137 -0.0472
 
              Baa    -0.0036    -0.490    -0.175    -0.163 -0.0147  0.0784  0.9968
    60 C(13)  Bbb    -0.0036    -0.476    -0.170    -0.159  0.8565 -0.5134  0.0530
              Bcc     0.0072     0.966     0.345     0.322  0.5159  0.8546 -0.0596
 
              Baa    -0.0023    -1.214    -0.433    -0.405  0.0427  0.0491  0.9979
    61 H(1)   Bbb    -0.0021    -1.098    -0.392    -0.366  0.7612 -0.6485 -0.0007
              Bcc     0.0043     2.312     0.825     0.771  0.6471  0.7596 -0.0651
 
              Baa    -0.0029    -1.563    -0.558    -0.521  0.7838 -0.4524  0.4254
    62 H(1)   Bbb    -0.0028    -1.513    -0.540    -0.505 -0.4132  0.1316  0.9011
              Bcc     0.0058     3.076     1.098     1.026  0.4636  0.8820  0.0838
 
              Baa    -0.0029    -1.556    -0.555    -0.519  0.7363 -0.4977 -0.4584
    63 H(1)   Bbb    -0.0028    -1.510    -0.539    -0.504  0.5040 -0.0486  0.8624
              Bcc     0.0057     3.066     1.094     1.023  0.4515  0.8660 -0.2150
 
              Baa    -0.0040    -0.541    -0.193    -0.180  0.0830  0.9960  0.0324
    64 C(13)  Bbb    -0.0039    -0.523    -0.187    -0.174  0.9527 -0.0697 -0.2960
              Bcc     0.0079     1.064     0.380     0.355  0.2925 -0.0555  0.9547
 
              Baa    -0.0026    -1.399    -0.499    -0.467  0.8885 -0.3816 -0.2547
    65 H(1)   Bbb    -0.0025    -1.341    -0.479    -0.447  0.4182  0.9020  0.1075
              Bcc     0.0051     2.740     0.978     0.914  0.1888 -0.2020  0.9610
 
              Baa    -0.0026    -1.398    -0.499    -0.466  0.9245  0.2947 -0.2419
    66 H(1)   Bbb    -0.0025    -1.330    -0.475    -0.444 -0.3103  0.9502 -0.0283
              Bcc     0.0051     2.729     0.974     0.910  0.2216  0.1012  0.9699
 
              Baa    -0.0032    -1.714    -0.612    -0.572  0.1378  0.9904  0.0101
    67 H(1)   Bbb    -0.0031    -1.634    -0.583    -0.545  0.8770 -0.1173 -0.4660
              Bcc     0.0063     3.348     1.195     1.117  0.4603 -0.0730  0.8848
 
              Baa    -0.0196    -0.756    -0.270    -0.252  0.2144  0.9734  0.0806
    68 N(14)  Bbb    -0.0037    -0.143    -0.051    -0.048  0.9726 -0.2204  0.0742
              Bcc     0.0233     0.900     0.321     0.300 -0.0900 -0.0624  0.9940
 
              Baa    -0.0047    -2.506    -0.894    -0.836  0.2971  0.9521  0.0721
    69 H(1)   Bbb    -0.0041    -2.211    -0.789    -0.738  0.9269 -0.3057  0.2177
              Bcc     0.0088     4.717     1.683     1.574 -0.2293 -0.0021  0.9733
 
              Baa    -0.0113    -1.523    -0.543    -0.508  0.9923 -0.0253 -0.1215
    70 C(13)  Bbb    -0.0033    -0.442    -0.158    -0.147  0.0256  0.9997  0.0011
              Bcc     0.0146     1.964     0.701     0.655  0.1215 -0.0042  0.9926
 
              Baa    -0.0543    -7.285    -2.599    -2.430  0.0382  0.9975  0.0592
    71 C(13)  Bbb    -0.0054    -0.731    -0.261    -0.244  0.8944 -0.0606  0.4432
              Bcc     0.0597     8.015     2.860     2.674 -0.4457 -0.0360  0.8944
 
              Baa    -0.0182    -9.696    -3.460    -3.234  0.7260 -0.3348  0.6007
    72 H(1)   Bbb    -0.0179    -9.544    -3.406    -3.184  0.2873  0.9413  0.1774
              Bcc     0.0361    19.241     6.866     6.418 -0.6248  0.0437  0.7796
 
              Baa    -0.1245    -4.802    -1.713    -1.602  0.9917 -0.1276 -0.0134
    73 N(14)  Bbb    -0.0888    -3.423    -1.222    -1.142  0.1280  0.9914  0.0288
              Bcc     0.2133     8.225     2.935     2.744  0.0096 -0.0303  0.9995
 
              Baa    -0.0351    -4.713    -1.682    -1.572  0.0583  0.9983 -0.0038
    74 C(13)  Bbb    -0.0170    -2.282    -0.814    -0.761  0.8904 -0.0537 -0.4520
              Bcc     0.0521     6.995     2.496     2.333  0.4514 -0.0229  0.8920
 
              Baa    -0.0186    -9.945    -3.549    -3.317  0.0007  0.9933  0.1154
    75 H(1)   Bbb    -0.0180    -9.611    -3.429    -3.206  0.7503  0.0758 -0.6568
              Bcc     0.0367    19.555     6.978     6.523  0.6611 -0.0870  0.7452
 

 ---------------------------------------------------------------------------------

 Unable to Open any file for archive entry.
 1\1\GINC-BGN1027\SP\UAPFD\Gen\C34H34Fe1N6(5)\BECSLEIP\10-Sep-2024\0\\#
  apfd/gen scf=maxcycle=999 geom=check\\2xlh_II_Q\\0,5\Fe,0,-22.9764373
 207,25.4014527608,8.394696911\N,0,-24.3526989317,25.4458248293,9.85519
 4905\N,0,-24.4586931818,25.2218446334,7.0561826393\N,0,-21.653529259,2
 4.9483660169,6.9674942139\N,0,-21.5455995777,25.2313783632,9.779631763
 4\C,0,-24.1205221834,25.5242859372,11.197575098\C,0,-25.3624716306,25.
 5567878258,11.9364089919\C,0,-26.3564685764,25.4745279675,11.012674296
 9\C,0,-25.70776313,25.4088603897,9.7222723233\C,0,-25.8004681876,25.28
 56221434,7.2819251233\C,0,-26.5404533673,25.1776869482,6.0450993416\C,
 0,-25.6143723477,25.0748223562,5.0551783565\C,0,-24.3235234787,25.0842
 623918,5.7067127536\C,0,-21.8850804744,24.8601393478,5.6299304481\C,0,
 -20.6478370482,24.6593026377,4.9025054334\C,0,-19.6546211998,24.643063
 9046,5.8451544346\C,0,-20.3026546907,24.8216861548,7.1188542461\C,0,-2
 0.2088315169,25.1006068318,9.5545074625\C,0,-19.4598142938,25.25373528
 78,10.7857306163\C,0,-20.3875431215,25.4973627484,11.7637541156\C,0,-2
 1.6724946666,25.4711469266,11.1168784874\C,0,-22.8762329414,25.5852983
 803,11.7908450931\H,0,-22.8402878417,25.699914784,12.8635567859\C,0,-2
 6.3944913598,25.3771209429,8.5244799102\H,0,-27.4726998179,25.38964078
 57,8.5650321934\C,0,-23.1283221463,24.932608977,5.0313297093\H,0,-23.1
 749519028,24.8295398974,3.9580171941\C,0,-19.6272516896,24.8659095595,
 8.3243480755\H,0,-18.556605173,24.7332977158,8.2972239339\C,0,-25.4558
 61345,25.6352698121,13.4217016044\H,0,-24.9810947967,26.5449182759,13.
 7907991633\H,0,-24.9558328859,24.7826256896,13.8813224124\H,0,-26.4942
 479844,25.637308445,13.7435253398\C,0,-27.8327800524,25.4470041761,11.
 2119416926\H,0,-28.2573022268,24.5360115264,10.7902053765\H,0,-28.3028
 261643,26.2988024286,10.7196133489\H,0,-28.0814586973,25.4827583949,12
 .2697046692\C,0,-20.1618033907,25.8012573123,13.2039367713\H,0,-20.304
 6729929,24.9095200326,13.8163498062\H,0,-20.8577148079,26.56360486,13.
 5518700831\H,0,-19.1458923491,26.1608657745,13.3545007222\C,0,-18.0187
 821896,25.1829514425,10.8898986042\H,0,-17.4690172105,25.5328724836,10
 .0238198365\C,0,-17.3427709686,24.7256891161,11.9387696357\H,0,-17.834
 5386983,24.3192118813,12.8050226196\H,0,-16.265536419,24.7134904267,11
 .9519888394\C,0,-18.1848120583,24.5291516054,5.6390177408\H,0,-17.8439
 319972,23.5103662943,5.829925562\H,0,-17.6477994599,25.1957716918,6.31
 21202627\H,0,-17.9306440469,24.7904894959,4.6138314605\C,0,-20.5490865
 754,24.5328004818,3.4646066005\H,0,-21.2693807651,25.1065154206,2.8925
 342031\C,0,-19.6687188899,23.7770132046,2.8168515666\H,0,-18.962623207
 5,23.1500750576,3.3325292757\H,0,-19.6426785692,23.7398758885,1.740347
 7938\C,0,-25.8133068805,24.9360376089,3.5849623588\H,0,-25.4193593836,
 23.9824482804,3.2330472815\H,0,-25.2963064862,25.7336006441,3.05111121
 91\H,0,-26.8694971699,24.983735634,3.3321157355\C,0,-28.027333848,25.1
 971006279,5.9515395643\H,0,-28.3511183533,25.097679487,4.918275186\H,0
 ,-28.4244507584,26.1320398452,6.3487941432\H,0,-28.4570338365,24.37580
 49346,6.5256651392\C,0,-22.4711415496,30.6133255939,6.4534581484\H,0,-
 21.5251193995,31.128278884,6.6195229558\H,0,-23.2806438333,31.31636155
 17,6.6486092163\H,0,-22.5211206718,30.3042940913,5.4143029061\N,0,-22.
 5624263674,29.5120161589,8.6996428223\H,0,-22.4687778525,30.3615041344
 ,9.2318781147\C,0,-22.584428493,29.422618174,7.33294974\C,0,-22.686111
 8275,28.2601120149,9.1958102523\H,0,-22.7003319675,28.0259788386,10.24
 12471914\N,0,-22.7850731954,27.3797111001,8.225399125\C,0,-22.72359853
 49,28.0920344534,7.0596866792\H,0,-22.7832897852,27.5999992786,6.11005
 2373\\Version=ES64L-G16RevC.02\State=5-A\HF=-2907.0238943\S2=6.096661\
 S2-1=0.\S2A=6.000516\RMSD=2.492e-09\Dipole=-0.2736599,2.4677002,0.1685
 542\Quadrupole=-3.7046781,2.0785619,1.6261162,0.8127041,-0.7637046,2.1
 805631\PG=C01 [X(C34H34Fe1N6)]\\@
 The archive entry for this job was punched.


 ALL OUR THINKING ABOUT NATURE MUST NECESSARILY MOVE IN CIRCLES OR SPIRALS;
 FOR WE CAN ONLY UNDERSTAND NATURE IF WE THINK ABOUT HER, AND WE CAN ONLY
 THINK BECAUSE OUR BRAIN IS BUILT IN ACCORDANCE WITH NATURE'S LAWS.

                                             -- TIMOTHY FERRIS, "GALAXIES"
 Job cpu time:       1 days 11 hours 30 minutes 46.7 seconds.
 Elapsed time:       0 days  0 hours 37 minutes 11.4 seconds.
 File lengths (MBytes):  RWF=    408 Int=      0 D2E=      0 Chk=    150 Scr=      1
 Normal termination of Gaussian 16 at Tue Sep 10 13:30:44 2024.
