 Entering Gaussian System, Link 0=g16
 Input=2xm012re.com
 Output=2xm012re.log
 Initial command:
 /sw/chem/gaussian/g16_C02/a100/g16/l1.exe "/local/becsleip_8009424/Gau-1707283.inp" -scrdir="/local/becsleip_8009424/"
 Entering Link 1 = /sw/chem/gaussian/g16_C02/a100/g16/l1.exe PID=   1707284.
  
 Copyright (c) 1988-2021, Gaussian, Inc.  All Rights Reserved.
  
 This is part of the Gaussian(R) 16 program.  It is based on
 the Gaussian(R) 09 system (copyright 2009, Gaussian, Inc.),
 the Gaussian(R) 03 system (copyright 2003, Gaussian, Inc.),
 the Gaussian(R) 98 system (copyright 1998, Gaussian, Inc.),
 the Gaussian(R) 94 system (copyright 1995, Gaussian, Inc.),
 the Gaussian 92(TM) system (copyright 1992, Gaussian, Inc.),
 the Gaussian 90(TM) system (copyright 1990, Gaussian, Inc.),
 the Gaussian 88(TM) system (copyright 1988, Gaussian, Inc.),
 the Gaussian 86(TM) system (copyright 1986, Carnegie Mellon
 University), and the Gaussian 82(TM) system (copyright 1983,
 Carnegie Mellon University). Gaussian is a federally registered
 trademark of Gaussian, Inc.
  
 This software contains proprietary and confidential information,
 including trade secrets, belonging to Gaussian, Inc.
  
 This software is provided under written license and may be
 used, copied, transmitted, or stored only in accord with that
 written license.
  
 The following legend is applicable only to US Government
 contracts under FAR:
  
                    RESTRICTED RIGHTS LEGEND
  
 Use, reproduction and disclosure by the US Government is
 subject to restrictions as set forth in subparagraphs (a)
 and (c) of the Commercial Computer Software - Restricted
 Rights clause in FAR 52.227-19.
  
 Gaussian, Inc.
 340 Quinnipiac St., Bldg. 40, Wallingford CT 06492
  
  
 ---------------------------------------------------------------
 Warning -- This program may not be used in any manner that
 competes with the business of Gaussian, Inc. or will provide
 assistance to any competitor of Gaussian, Inc.  The licensee
 of this program is prohibited from giving any competitor of
 Gaussian, Inc. access to this program.  By using this program,
 the user acknowledges that Gaussian, Inc. is engaged in the
 business of creating and licensing software in the field of
 computational chemistry and represents and warrants to the
 licensee that it is not a competitor of Gaussian, Inc. and that
 it will not use this program in any manner prohibited above.
 ---------------------------------------------------------------
  

 Cite this work as:
 Gaussian 16, Revision C.02,
 M. J. Frisch, G. W. Trucks, H. B. Schlegel, G. E. Scuseria, 
 M. A. Robb, J. R. Cheeseman, G. Scalmani, V. Barone, 
 G. A. Petersson, H. Nakatsuji, X. Li, M. Caricato, A. V. Marenich, 
 J. Bloino, B. G. Janesko, R. Gomperts, B. Mennucci, H. P. Hratchian, 
 J. V. Ortiz, A. F. Izmaylov, J. L. Sonnenberg, D. Williams-Young, 
 F. Ding, F. Lipparini, F. Egidi, J. Goings, B. Peng, A. Petrone, 
 T. Henderson, D. Ranasinghe, V. G. Zakrzewski, J. Gao, N. Rega, 
 G. Zheng, W. Liang, M. Hada, M. Ehara, K. Toyota, R. Fukuda, 
 J. Hasegawa, M. Ishida, T. Nakajima, Y. Honda, O. Kitao, H. Nakai, 
 T. Vreven, K. Throssell, J. A. Montgomery, Jr., J. E. Peralta, 
 F. Ogliaro, M. J. Bearpark, J. J. Heyd, E. N. Brothers, K. N. Kudin, 
 V. N. Staroverov, T. A. Keith, R. Kobayashi, J. Normand, 
 K. Raghavachari, A. P. Rendell, J. C. Burant, S. S. Iyengar, 
 J. Tomasi, M. Cossi, J. M. Millam, M. Klene, C. Adamo, R. Cammi, 
 J. W. Ochterski, R. L. Martin, K. Morokuma, O. Farkas, 
 J. B. Foresman, and D. J. Fox, Gaussian, Inc., Wallingford CT, 2019.
 
 ******************************************
 Gaussian 16:  ES64L-G16RevC.02  7-Dec-2021
                 9-Sep-2024 
 ******************************************
 %mem=16GB
 %CPU=0-71
 SetSPE:  set environment variable "OMP_PROC_BIND" = "true"
 SetSPE:  set environment variable "OMP_PLACES" = "{0},{1},{2},{3},{4},{5},{6},{7},{8},{9},{10},{11},{12},{13},{14},{15},{16},{17},{18},{19},{20},{21},{22},{23},{24},{25},{26},{27},{28},{29},{30},{31},{32},{33},{34},{35},{36},{37},{38},{39},{40},{41},{42},{43},{44},{45},{46},{47},{48},{49},{50},{51},{52},{53},{54},{55},{56},{57},{58},{59},{60},{61},{62},{63},{64},{65},{66},{67},{68},{69},{70},{71}"
 Will use up to   72 processors via shared memory.
 %gpucpu=0,1,2,3=0,1,2,3
 Will use    4 GPUs:
 Thread  CPU   GPU
      0    0     0
      1    1     1
      2    2     2
      3    3     3
      4    4    -1
      5    5    -1
      6    6    -1
      7    7    -1
      8    8    -1
      9    9    -1
     10   10    -1
     11   11    -1
     12   12    -1
     13   13    -1
     14   14    -1
     15   15    -1
     16   16    -1
     17   17    -1
     18   18    -1
     19   19    -1
     20   20    -1
     21   21    -1
     22   22    -1
     23   23    -1
     24   24    -1
     25   25    -1
     26   26    -1
     27   27    -1
     28   28    -1
     29   29    -1
     30   30    -1
     31   31    -1
     32   32    -1
     33   33    -1
     34   34    -1
     35   35    -1
     36   36    -1
     37   37    -1
     38   38    -1
     39   39    -1
     40   40    -1
     41   41    -1
     42   42    -1
     43   43    -1
     44   44    -1
     45   45    -1
     46   46    -1
     47   47    -1
     48   48    -1
     49   49    -1
     50   50    -1
     51   51    -1
     52   52    -1
     53   53    -1
     54   54    -1
     55   55    -1
     56   56    -1
     57   57    -1
     58   58    -1
     59   59    -1
     60   60    -1
     61   61    -1
     62   62    -1
     63   63    -1
     64   64    -1
     65   65    -1
     66   66    -1
     67   67    -1
     68   68    -1
     69   69    -1
     70   70    -1
     71   71    -1
 SetGPE:  set environment variable "OMP_PROC_BIND" = "true"
 SetGPE:  set environment variable "OMP_PLACES" = "{0},{1},{2},{3},{4},{5},{6},{7},{8},{9},{10},{11},{12},{13},{14},{15},{16},{17},{18},{19},{20},{21},{22},{23},{24},{25},{26},{27},{28},{29},{30},{31},{32},{33},{34},{35},{36},{37},{38},{39},{40},{41},{42},{43},{44},{45},{46},{47},{48},{49},{50},{51},{52},{53},{54},{55},{56},{57},{58},{59},{60},{61},{62},{63},{64},{65},{66},{67},{68},{69},{70},{71}"
 %oldchk=2xm0_II_S.chk
 %chk=2xm0_II_Sre.chk
 Properties for Device   0
 Minimum vector length:                              32
 Maximum vector length:                            1024
 Number of SMPs:                                    108
 Maximum number of threads per SMP:                2048
 Number of ASync Engines:                             5
 Memory:                                           9207742464
 Properties for Device   1
 Minimum vector length:                              32
 Maximum vector length:                            1024
 Number of SMPs:                                    108
 Maximum number of threads per SMP:                2048
 Number of ASync Engines:                             5
 Memory:                                           9207742464
 Properties for Device   2
 Minimum vector length:                              32
 Maximum vector length:                            1024
 Number of SMPs:                                    108
 Maximum number of threads per SMP:                2048
 Number of ASync Engines:                             5
 Memory:                                           9207742464
 Properties for Device   3
 Minimum vector length:                              32
 Maximum vector length:                            1024
 Number of SMPs:                                    108
 Maximum number of threads per SMP:                2048
 Number of ASync Engines:                             5
 Memory:                                           9207742464
   8286968217 words of memory will be used on each GPU.
 Copying data from "2xm0_II_S.chk" to current chk file "2xm0_II_Sre.chk"
 IOpt=  2 FromEx=T IUOpen= 4 IOptOp= 5 NList=   0 IFRang= 0 IUIn= 4 IUOut= 2.
 --------------------------------------
 # apfd/gen scf=maxcycle=999 geom=check
 --------------------------------------
 1/29=2,38=1,172=1/1;
 2/12=2,40=1/2;
 3/5=7,11=2,14=-4,25=1,30=1,74=-44/1,2,3;
 4//1;
 5/5=2,7=999,38=5/2;
 6/7=2,8=2,9=2,10=2,28=1/1;
 99/5=1,9=1/99;
 ----------
 2xm0_III_D
 ----------
 Structure from the checkpoint file:  "2xm0_II_Sre.chk"
 Charge =  1 Multiplicity = 2
 Z-Matrix found in chk file.
 Fe,0,6.6421801429,39.2814636872,21.746638601
 N,0,7.3659159894,38.1007190638,20.3033748483
 N,0,7.2272576531,37.9149747123,23.1101148392
 N,0,5.6684677021,40.2522391201,23.1939392748
 N,0,5.7411466623,40.4046929223,20.3660522632
 C,0,7.3127678574,38.332962786,18.9596876344
 C,0,7.9782925775,37.2791434895,18.2270531278
 C,0,8.3740239041,36.3652322081,19.1524114547
 C,0,7.9979905569,36.9027867169,20.4409052698
 C,0,7.927370456,36.7687437168,22.8819069997
 C,0,8.1999811372,36.0750601545,24.1210160335
 C,0,7.7244374487,36.8716120674,25.115308592
 C,0,7.0609605546,37.9773086831,24.4608487707
 C,0,5.690536282,40.0026653026,24.5307495684
 C,0,4.9259152594,40.9967107909,25.2566254744
 C,0,4.3948547297,41.8294526036,24.3085978492
 C,0,4.8498021631,41.3342920502,23.0344578938
 C,0,4.962278639,41.4993345538,20.5881221876
 C,0,4.7175220194,42.219131165,19.3543826103
 C,0,5.3635898641,41.5151587547,18.3726977583
 C,0,5.9571798538,40.3744946628,19.0185865781
 C,0,6.7013811912,39.4132432519,18.3566904841
 H,0,6.7704471538,39.4870654653,17.2819513383
 C,0,8.2695265524,36.2738357224,21.6396291556
 H,0,8.788482984,35.3285252338,21.6027126947
 C,0,6.3973329448,38.9815028558,25.1377762317
 H,0,6.3521172479,38.9100657387,26.2137356049
 C,0,4.5438769008,41.9372654071,21.8285227533
 H,0,3.9009302336,42.8034451086,21.8589077682
 C,0,8.1134154969,37.2414464888,16.7433370192
 H,0,8.6581368663,38.1154436205,16.3847913897
 H,0,7.1320253566,37.236426297,16.268579568
 H,0,8.6505989932,36.3507137988,16.4272199192
 C,0,9.0793689901,35.0673297862,18.9576903609
 H,0,8.4934742043,34.2487517343,19.375468198
 H,0,10.0491144859,35.0782128953,19.4561216334
 H,0,9.239263822,34.8686814406,17.900820432
 C,0,5.4910472724,41.8462742267,16.9264785136
 H,0,6.48061392,41.5849177709,16.5541772907
 H,0,5.3306328448,42.9116971841,16.7736076525
 H,0,4.7537169246,41.3000142701,16.335980539
 C,0,3.9585973016,43.4464943488,19.2498439383
 H,0,4.0136451959,44.1070427833,20.1073036316
 C,0,3.2140191176,43.804421837,18.208928015
 H,0,3.0831116097,43.1674646545,17.3518280787
 H,0,2.6824932794,44.7414600659,18.1925473316
 C,0,3.5665238197,43.0499271819,24.5089184997
 H,0,2.5113258457,42.8373756628,24.3305680639
 H,0,3.8712433241,43.8402626939,23.8244203179
 H,0,3.6772567899,43.411640865,25.5290153252
 C,0,4.7920131818,41.0434645739,26.6968594245
 H,0,5.6610019782,40.7208444458,27.2591113145
 C,0,3.7079243521,41.436553289,27.3569114377
 H,0,2.8012237647,41.719609082,26.8514578975
 H,0,3.681730468,41.4609495759,28.4337745886
 C,0,7.748264237,36.6598034906,26.5900216769
 H,0,6.7363060735,36.5435783858,26.97857872
 H,0,8.20704527,37.5123001843,27.0912903505
 H,0,8.3166097546,35.7687696317,26.8426327831
 C,0,8.9307100247,34.7800573315,24.2158024532
 H,0,8.3994886068,34.002547494,23.6668324155
 H,0,9.0230761083,34.4637154599,25.2515149624
 H,0,9.9314343259,34.8699757796,23.7924357226
 C,0,10.9895457429,42.2578647059,23.5728258814
 H,0,11.9913922312,41.8984550926,23.3385839908
 H,0,10.7784480491,42.0445950326,24.6158557477
 H,0,10.9716887691,43.3375322455,23.4262435955
 N,0,9.982588866,41.6994211716,21.349106969
 H,0,10.6473369458,42.2223962328,20.8029237326
 C,0,9.9768805475,41.5927096354,22.714812205
 C,0,8.9384985761,40.9814884395,20.8761589135
 H,0,8.6962622695,40.8853270966,19.8368538663
 N,0,8.2693950526,40.4249261999,21.8604186795
 C,0,8.9069996804,40.7979681504,23.0112905524
 H,0,8.5529430023,40.4700196717,23.9676527415
 Recover connectivity data from disk.
 Stoichiometry    C34H34FeN6(1+,2)
 Framework group  C1[X(C34H34FeN6)]
 Deg. of freedom   219
 Full point group                 C1      NOp   1
 Largest Abelian subgroup         C1      NOp   1
 Largest concise Abelian subgroup C1      NOp   1
                         Standard orientation:                         
 ---------------------------------------------------------------------
 Center     Atomic      Atomic             Coordinates (Angstroms)
 Number     Number       Type             X           Y           Z
 ---------------------------------------------------------------------
      1         26           0       -0.055636    0.199722   -0.327420
      2          7           0       -1.249010    1.798266   -0.473964
      3          7           0        1.540835    1.416618   -0.525205
      4          7           0        1.166352   -1.368880   -0.504722
      5          7           0       -1.641526   -0.993708   -0.527923
      6          6           0       -2.613643    1.797592   -0.468294
      7          6           0       -3.130770    3.145238   -0.549785
      8          6           0       -2.049600    3.959401   -0.677597
      9          6           0       -0.886317    3.103233   -0.611770
     10          6           0        1.537490    2.776960   -0.599633
     11          6           0        2.885633    3.292393   -0.687638
     12          6           0        3.711570    2.217754   -0.577038
     13          6           0        2.853838    1.053921   -0.547519
     14          6           0        2.525805   -1.370417   -0.546195
     15          6           0        3.042112   -2.723901   -0.580479
     16          6           0        1.946508   -3.544231   -0.611318
     17          6           0        0.793587   -2.680638   -0.587321
     18          6           0       -1.638903   -2.355246   -0.547832
     19          6           0       -2.984958   -2.877166   -0.421878
     20          6           0       -3.806800   -1.784289   -0.338935
     21          6           0       -2.954597   -0.629795   -0.446317
     22          6           0       -3.414236    0.675240   -0.406803
     23          1           0       -4.482286    0.828130   -0.372460
     24          6           0        0.411161    3.572017   -0.666921
     25          1           0        0.554959    4.636661   -0.767639
     26          6           0        3.324484   -0.243316   -0.495489
     27          1           0        4.394340   -0.384985   -0.508694
     28          6           0       -0.508092   -3.146406   -0.575561
     29          1           0       -0.650292   -4.215141   -0.622011
     30          6           0       -4.580195    3.492014   -0.547429
     31          1           0       -5.056783    3.145097    0.369992
     32          1           0       -5.088304    3.023429   -1.390518
     33          1           0       -4.719777    4.567776   -0.619220
     34          6           0       -1.994341    5.440473   -0.830401
     35          1           0       -1.470426    5.709705   -1.747411
     36          1           0       -1.464386    5.893936    0.007738
     37          1           0       -2.995335    5.862707   -0.872001
     38          6           0       -5.281378   -1.747530   -0.134726
     39          1           0       -5.562650   -0.920657    0.515908
     40          1           0       -5.617129   -2.678206    0.318419
     41          1           0       -5.802573   -1.620937   -1.085028
     42          6           0       -3.325424   -4.282432   -0.370626
     43          1           0       -2.589146   -4.927248    0.094883
     44          6           0       -4.441996   -4.821515   -0.848821
     45          1           0       -5.185065   -4.238408   -1.363901
     46          1           0       -4.637434   -5.877840   -0.766298
     47          6           0        1.904552   -5.032180   -0.603177
     48          1           0        1.720044   -5.421528   -1.605572
     49          1           0        1.110813   -5.392704    0.049527
     50          1           0        2.853414   -5.429378   -0.248787
     51          6           0        4.447243   -3.070303   -0.579358
     52          1           0        5.091668   -2.412652   -0.007025
     53          6           0        4.985902   -4.103776   -1.217492
     54          1           0        4.402460   -4.759608   -1.839738
     55          1           0        6.041401   -4.312801   -1.161386
     56          6           0        5.200605    2.164168   -0.587750
     57          1           0        5.560177    1.628892   -1.466801
     58          1           0        5.570897    1.647235    0.297780
     59          1           0        5.622570    3.165450   -0.600045
     60          6           0        3.226634    4.738404   -0.800573
     61          1           0        2.793748    5.161575   -1.707007
     62          1           0        4.303654    4.879283   -0.839106
     63          1           0        2.836707    5.294404    0.052419
     64          6           0        1.427731   -0.079809    5.040540
     65          1           0        1.299382    0.811229    5.654803
     66          1           0        2.481919   -0.193807    4.808918
     67          1           0        1.101791   -0.943241    5.619967
     68          7           0       -0.711464    0.170389    3.763046
     69          1           0       -1.309032    0.206295    4.572572
     70          6           0        0.651356    0.032543    3.780093
     71          6           0       -1.101043    0.245612    2.470064
     72          1           0       -2.118832    0.356525    2.154020
     73          7           0       -0.066537    0.163553    1.664276
     74          6           0        1.031423    0.031021    2.468717
     75          1           0        2.013430   -0.055820    2.049605
 ---------------------------------------------------------------------
 Rotational constants (GHZ):           0.0944338           0.0922854           0.0593610
 General basis read from cards:  (5D, 7F)
 There are   704 symmetry adapted cartesian basis functions of A   symmetry.
 There are   661 symmetry adapted basis functions of A   symmetry.
   661 basis functions,  1342 primitive gaussians,   704 cartesian basis functions
   153 alpha electrons      152 beta electrons
       nuclear repulsion energy      5567.1491787174 Hartrees.
 NAtoms=   75 NActive=   75 NUniq=   75 SFac= 1.00D+00 NAtFMM=   60 NAOKFM=T Big=T
 Integral buffers will be    131072 words long.
 Raffenetti 2 integral format.
 Two-electron integral symmetry is turned on.
 R6APFD:  NTU= -4 IXU= 1 FactS= 1.050
 Nuclear repulsion after empirical dispersion term =     5567.0165656515 Hartrees.
 One-electron integrals computed using PRISM.
 NBasis=   661 RedAO= T EigKep=  2.61D-04  NBF=   661
 NBsUse=   661 1.00D-06 EigRej= -1.00D+00 NBFU=   661
 ExpMin= 4.20D-02 ExpMax= 3.01D+05 ExpMxC= 2.91D+03 IAcc=3 IRadAn=         5 AccDes= 0.00D+00
 Harris functional with IExCor= 3731 and IRadAn=       5 diagonalized for initial guess.
 HarFok:  IExCor= 3731 AccDes= 0.00D+00 IRadAn=         5 IDoV= 1 UseB2=F ITyADJ=14
 ICtDFT=  3500011 ScaDFX=  1.000000  1.000000  1.000000  1.000000
 FoFCou: FMM=F IPFlag=           0 FMFlag=      100000 FMFlg1=        2001
         NFxFlg=           0 DoJE=T BraDBF=F KetDBF=T FulRan=T
         wScrn=  0.000000 ICntrl=       500 IOpCl=  0 I1Cent=   200000004 NGrid=           0
         NMat0=    1 NMatS0=      1 NMatT0=    0 NMatD0=    1 NMtDS0=    0 NMtDT0=    0
 Petite list used in FoFCou.
 Initial guess <Sx>= 0.0000 <Sy>= 0.0000 <Sz>= 0.5000 <S**2>= 0.7500 S= 0.5000
 Requested convergence on RMS density matrix=1.00D-08 within 999 cycles.
 Requested convergence on MAX density matrix=1.00D-06.
 Requested convergence on             energy=1.00D-06.
 No special actions if energy rises.
 EnCoef did   100 forward-backward iterations
 EnCoef did   100 forward-backward iterations
 EnCoef did   100 forward-backward iterations
 EnCoef did   100 forward-backward iterations
 EnCoef did    10 forward-backward iterations
 EnCoef did     4 forward-backward iterations
 Rare condition: small coef for last iteration:  0.000D+00
 EnCoef did   100 forward-backward iterations
 Rare condition: small coef for last iteration:  0.000D+00
 EnCoef did   100 forward-backward iterations
 Rare condition: small coef for last iteration:  0.000D+00
 EnCoef did   100 forward-backward iterations
 Rare condition: small coef for last iteration:  0.000D+00
 EnCoef did   100 forward-backward iterations
 Rare condition: small coef for last iteration:  0.000D+00
 Restarting incremental Fock formation.
 Rare condition: small coef for last iteration:  0.000D+00
 Rare condition: small coef for last iteration:  0.000D+00
 Rare condition: small coef for last iteration:  0.000D+00
 Rare condition: small coef for last iteration:  0.000D+00
 Rare condition: small coef for last iteration:  0.000D+00
 Rare condition: small coef for last iteration:  0.000D+00
 Restarting incremental Fock formation.
 Restarting incremental Fock formation.
 Restarting incremental Fock formation.
 Restarting incremental Fock formation.
 Restarting incremental Fock formation.
 Restarting incremental Fock formation.
 SCF Done:  E(UAPFD) =  -2906.80967146     A.U. after  141 cycles
            NFock=141  Conv=0.98D-08     -V/T= 2.0037
 <Sx>= 0.0000 <Sy>= 0.0000 <Sz>= 0.5000 <S**2>= 0.7894 S= 0.5195
 <L.S>=  0.00000000000    
 Annihilation of the first spin contaminant:
 S**2 before annihilation     0.7894,   after     0.7514

 **********************************************************************

            Population analysis using the SCF Density.

 **********************************************************************

 Orbital symmetries:
 Alpha Orbitals:
       Occupied  (A) (A) (A) (A) (A) (A) (A) (A) (A) (A) (A) (A)
                 (A) (A) (A) (A) (A) (A) (A) (A) (A) (A) (A) (A)
                 (A) (A) (A) (A) (A) (A) (A) (A) (A) (A) (A) (A)
                 (A) (A) (A) (A) (A) (A) (A) (A) (A) (A) (A) (A)
                 (A) (A) (A) (A) (A) (A) (A) (A) (A) (A) (A) (A)
                 (A) (A) (A) (A) (A) (A) (A) (A) (A) (A) (A) (A)
                 (A) (A) (A) (A) (A) (A) (A) (A) (A) (A) (A) (A)
                 (A) (A) (A) (A) (A) (A) (A) (A) (A) (A) (A) (A)
                 (A) (A) (A) (A) (A) (A) (A) (A) (A) (A) (A) (A)
                 (A) (A) (A) (A) (A) (A) (A) (A) (A) (A) (A) (A)
                 (A) (A) (A) (A) (A) (A) (A) (A) (A) (A) (A) (A)
                 (A) (A) (A) (A) (A) (A) (A) (A) (A) (A) (A) (A)
                 (A) (A) (A) (A) (A) (A) (A) (A) (A)
       Virtual   (A) (A) (A) (A) (A) (A) (A) (A) (A) (A) (A) (A)
                 (A) (A) (A) (A) (A) (A) (A) (A) (A) (A) (A) (A)
                 (A) (A) (A) (A) (A) (A) (A) (A) (A) (A) (A) (A)
                 (A) (A) (A) (A) (A) (A) (A) (A) (A) (A) (A) (A)
                 (A) (A) (A) (A) (A) (A) (A) (A) (A) (A) (A) (A)
                 (A) (A) (A) (A) (A) (A) (A) (A) (A) (A) (A) (A)
                 (A) (A) (A) (A) (A) (A) (A) (A) (A) (A) (A) (A)
                 (A) (A) (A) (A) (A) (A) (A) (A) (A) (A) (A) (A)
                 (A) (A) (A) (A) (A) (A) (A) (A) (A) (A) (A) (A)
                 (A) (A) (A) (A) (A) (A) (A) (A) (A) (A) (A) (A)
                 (A) (A) (A) (A) (A) (A) (A) (A) (A) (A) (A) (A)
                 (A) (A) (A) (A) (A) (A) (A) (A) (A) (A) (A) (A)
                 (A) (A) (A) (A) (A) (A) (A) (A) (A) (A) (A) (A)
                 (A) (A) (A) (A) (A) (A) (A) (A) (A) (A) (A) (A)
                 (A) (A) (A) (A) (A) (A) (A) (A) (A) (A) (A) (A)
                 (A) (A) (A) (A) (A) (A) (A) (A) (A) (A) (A) (A)
                 (A) (A) (A) (A) (A) (A) (A) (A) (A) (A) (A) (A)
                 (A) (A) (A) (A) (A) (A) (A) (A) (A) (A) (A) (A)
                 (A) (A) (A) (A) (A) (A) (A) (A) (A) (A) (A) (A)
                 (A) (A) (A) (A) (A) (A) (A) (A) (A) (A) (A) (A)
                 (A) (A) (A) (A) (A) (A) (A) (A) (A) (A) (A) (A)
                 (A) (A) (A) (A) (A) (A) (A) (A) (A) (A) (A) (A)
                 (A) (A) (A) (A) (A) (A) (A) (A) (A) (A) (A) (A)
                 (A) (A) (A) (A) (A) (A) (A) (A) (A) (A) (A) (A)
                 (A) (A) (A) (A) (A) (A) (A) (A) (A) (A) (A) (A)
                 (A) (A) (A) (A) (A) (A) (A) (A) (A) (A) (A) (A)
                 (A) (A) (A) (A) (A) (A) (A) (A) (A) (A) (A) (A)
                 (A) (A) (A) (A) (A) (A) (A) (A) (A) (A) (A) (A)
                 (A) (A) (A) (A) (A) (A) (A) (A) (A) (A) (A) (A)
                 (A) (A) (A) (A) (A) (A) (A) (A) (A) (A) (A) (A)
                 (A) (A) (A) (A) (A) (A) (A) (A) (A) (A) (A) (A)
                 (A) (A) (A) (A) (A) (A) (A) (A) (A) (A) (A) (A)
                 (A) (A) (A) (A) (A) (A) (A) (A) (A) (A) (A) (A)
                 (A) (A) (A) (A) (A) (A) (A) (A) (A) (A) (A) (A)
                 (A) (A) (A) (A) (A) (A) (A) (A) (A) (A) (A) (A)
                 (A) (A) (A) (A) (A) (A) (A) (A) (A) (A) (A) (A)
                 (A) (A) (A) (A) (A) (A) (A) (A) (A) (A) (A) (A)
                 (A) (A) (A) (A) (A) (A) (A) (A) (A) (A) (A) (A)
                 (A) (A) (A) (A) (A) (A) (A) (A) (A) (A) (A) (A)
                 (A) (A) (A) (A) (A) (A) (A) (A) (A) (A) (A) (A)
                 (A) (A) (A) (A) (A) (A) (A) (A) (A) (A) (A) (A)
                 (A) (A) (A) (A) (A) (A) (A) (A) (A) (A) (A) (A)
                 (A) (A) (A) (A)
 Beta  Orbitals:
       Occupied  (A) (A) (A) (A) (A) (A) (A) (A) (A) (A) (A) (A)
                 (A) (A) (A) (A) (A) (A) (A) (A) (A) (A) (A) (A)
                 (A) (A) (A) (A) (A) (A) (A) (A) (A) (A) (A) (A)
                 (A) (A) (A) (A) (A) (A) (A) (A) (A) (A) (A) (A)
                 (A) (A) (A) (A) (A) (A) (A) (A) (A) (A) (A) (A)
                 (A) (A) (A) (A) (A) (A) (A) (A) (A) (A) (A) (A)
                 (A) (A) (A) (A) (A) (A) (A) (A) (A) (A) (A) (A)
                 (A) (A) (A) (A) (A) (A) (A) (A) (A) (A) (A) (A)
                 (A) (A) (A) (A) (A) (A) (A) (A) (A) (A) (A) (A)
                 (A) (A) (A) (A) (A) (A) (A) (A) (A) (A) (A) (A)
                 (A) (A) (A) (A) (A) (A) (A) (A) (A) (A) (A) (A)
                 (A) (A) (A) (A) (A) (A) (A) (A) (A) (A) (A) (A)
                 (A) (A) (A) (A) (A) (A) (A) (A)
       Virtual   (A) (A) (A) (A) (A) (A) (A) (A) (A) (A) (A) (A)
                 (A) (A) (A) (A) (A) (A) (A) (A) (A) (A) (A) (A)
                 (A) (A) (A) (A) (A) (A) (A) (A) (A) (A) (A) (A)
                 (A) (A) (A) (A) (A) (A) (A) (A) (A) (A) (A) (A)
                 (A) (A) (A) (A) (A) (A) (A) (A) (A) (A) (A) (A)
                 (A) (A) (A) (A) (A) (A) (A) (A) (A) (A) (A) (A)
                 (A) (A) (A) (A) (A) (A) (A) (A) (A) (A) (A) (A)
                 (A) (A) (A) (A) (A) (A) (A) (A) (A) (A) (A) (A)
                 (A) (A) (A) (A) (A) (A) (A) (A) (A) (A) (A) (A)
                 (A) (A) (A) (A) (A) (A) (A) (A) (A) (A) (A) (A)
                 (A) (A) (A) (A) (A) (A) (A) (A) (A) (A) (A) (A)
                 (A) (A) (A) (A) (A) (A) (A) (A) (A) (A) (A) (A)
                 (A) (A) (A) (A) (A) (A) (A) (A) (A) (A) (A) (A)
                 (A) (A) (A) (A) (A) (A) (A) (A) (A) (A) (A) (A)
                 (A) (A) (A) (A) (A) (A) (A) (A) (A) (A) (A) (A)
                 (A) (A) (A) (A) (A) (A) (A) (A) (A) (A) (A) (A)
                 (A) (A) (A) (A) (A) (A) (A) (A) (A) (A) (A) (A)
                 (A) (A) (A) (A) (A) (A) (A) (A) (A) (A) (A) (A)
                 (A) (A) (A) (A) (A) (A) (A) (A) (A) (A) (A) (A)
                 (A) (A) (A) (A) (A) (A) (A) (A) (A) (A) (A) (A)
                 (A) (A) (A) (A) (A) (A) (A) (A) (A) (A) (A) (A)
                 (A) (A) (A) (A) (A) (A) (A) (A) (A) (A) (A) (A)
                 (A) (A) (A) (A) (A) (A) (A) (A) (A) (A) (A) (A)
                 (A) (A) (A) (A) (A) (A) (A) (A) (A) (A) (A) (A)
                 (A) (A) (A) (A) (A) (A) (A) (A) (A) (A) (A) (A)
                 (A) (A) (A) (A) (A) (A) (A) (A) (A) (A) (A) (A)
                 (A) (A) (A) (A) (A) (A) (A) (A) (A) (A) (A) (A)
                 (A) (A) (A) (A) (A) (A) (A) (A) (A) (A) (A) (A)
                 (A) (A) (A) (A) (A) (A) (A) (A) (A) (A) (A) (A)
                 (A) (A) (A) (A) (A) (A) (A) (A) (A) (A) (A) (A)
                 (A) (A) (A) (A) (A) (A) (A) (A) (A) (A) (A) (A)
                 (A) (A) (A) (A) (A) (A) (A) (A) (A) (A) (A) (A)
                 (A) (A) (A) (A) (A) (A) (A) (A) (A) (A) (A) (A)
                 (A) (A) (A) (A) (A) (A) (A) (A) (A) (A) (A) (A)
                 (A) (A) (A) (A) (A) (A) (A) (A) (A) (A) (A) (A)
                 (A) (A) (A) (A) (A) (A) (A) (A) (A) (A) (A) (A)
                 (A) (A) (A) (A) (A) (A) (A) (A) (A) (A) (A) (A)
                 (A) (A) (A) (A) (A) (A) (A) (A) (A) (A) (A) (A)
                 (A) (A) (A) (A) (A) (A) (A) (A) (A) (A) (A) (A)
                 (A) (A) (A) (A) (A) (A) (A) (A) (A) (A) (A) (A)
                 (A) (A) (A) (A) (A) (A) (A) (A) (A) (A) (A) (A)
                 (A) (A) (A) (A) (A) (A) (A) (A) (A) (A) (A) (A)
                 (A) (A) (A) (A) (A)
 The electronic state is 2-A.
 Alpha  occ. eigenvalues -- -256.29445 -30.14653 -25.98836 -25.98476 -25.98224
 Alpha  occ. eigenvalues --  -14.52842 -14.48779 -14.46899 -14.46753 -14.46630
 Alpha  occ. eigenvalues --  -14.46451 -10.36637 -10.35084 -10.34916 -10.34654
 Alpha  occ. eigenvalues --  -10.34431 -10.34405 -10.34266 -10.34213 -10.34188
 Alpha  occ. eigenvalues --  -10.33955 -10.31510 -10.31248 -10.31023 -10.30973
 Alpha  occ. eigenvalues --  -10.30872 -10.30668 -10.30662 -10.30585 -10.30553
 Alpha  occ. eigenvalues --  -10.30531 -10.30415 -10.30397 -10.30239 -10.30192
 Alpha  occ. eigenvalues --  -10.29834 -10.29812 -10.29077 -10.28730 -10.28723
 Alpha  occ. eigenvalues --  -10.28699 -10.28621 -10.28445 -10.28302 -10.28187
 Alpha  occ. eigenvalues --   -3.52704  -2.29558  -2.28766  -2.28158  -1.15382
 Alpha  occ. eigenvalues --   -1.09129  -1.08139  -1.08072  -1.07079  -1.01058
 Alpha  occ. eigenvalues --   -0.94183  -0.92764  -0.92237  -0.91701  -0.91495
 Alpha  occ. eigenvalues --   -0.91258  -0.90972  -0.89596  -0.87344  -0.86006
 Alpha  occ. eigenvalues --   -0.85697  -0.84844  -0.83246  -0.81749  -0.81113
 Alpha  occ. eigenvalues --   -0.80660  -0.78982  -0.78716  -0.78263  -0.75722
 Alpha  occ. eigenvalues --   -0.75705  -0.74477  -0.71256  -0.71116  -0.70460
 Alpha  occ. eigenvalues --   -0.69456  -0.68237  -0.65704  -0.65529  -0.64660
 Alpha  occ. eigenvalues --   -0.64094  -0.63338  -0.62117  -0.62052  -0.61608
 Alpha  occ. eigenvalues --   -0.59491  -0.58687  -0.58061  -0.57678  -0.56763
 Alpha  occ. eigenvalues --   -0.55736  -0.55523  -0.55134  -0.54882  -0.54350
 Alpha  occ. eigenvalues --   -0.54216  -0.53728  -0.53458  -0.53389  -0.53015
 Alpha  occ. eigenvalues --   -0.52702  -0.52647  -0.52380  -0.52283  -0.51223
 Alpha  occ. eigenvalues --   -0.51052  -0.50767  -0.50671  -0.50644  -0.50446
 Alpha  occ. eigenvalues --   -0.50362  -0.50059  -0.49843  -0.49757  -0.49578
 Alpha  occ. eigenvalues --   -0.49286  -0.48717  -0.48260  -0.48163  -0.47836
 Alpha  occ. eigenvalues --   -0.47497  -0.47055  -0.46818  -0.46460  -0.45896
 Alpha  occ. eigenvalues --   -0.45111  -0.44799  -0.44516  -0.44079  -0.43519
 Alpha  occ. eigenvalues --   -0.42402  -0.42129  -0.41289  -0.40909  -0.40183
 Alpha  occ. eigenvalues --   -0.39622  -0.38188  -0.37917  -0.35065  -0.34690
 Alpha  occ. eigenvalues --   -0.33682  -0.33209  -0.32648  -0.31552  -0.30228
 Alpha  occ. eigenvalues --   -0.29871  -0.29779  -0.29531
 Alpha virt. eigenvalues --   -0.17619  -0.17543  -0.12861  -0.12163  -0.08650
 Alpha virt. eigenvalues --   -0.07805  -0.07445  -0.06623  -0.05148  -0.03326
 Alpha virt. eigenvalues --   -0.02392  -0.01481  -0.01091  -0.00416   0.00274
 Alpha virt. eigenvalues --    0.01216   0.01677   0.02179   0.02751   0.03374
 Alpha virt. eigenvalues --    0.03667   0.03800   0.04422   0.04521   0.04680
 Alpha virt. eigenvalues --    0.05278   0.05748   0.05908   0.06004   0.06637
 Alpha virt. eigenvalues --    0.06873   0.07321   0.07379   0.07736   0.08110
 Alpha virt. eigenvalues --    0.08268   0.08650   0.09162   0.09262   0.09498
 Alpha virt. eigenvalues --    0.09821   0.09906   0.10079   0.10383   0.11045
 Alpha virt. eigenvalues --    0.11538   0.11773   0.11896   0.12528   0.12604
 Alpha virt. eigenvalues --    0.12935   0.13307   0.13761   0.13982   0.14526
 Alpha virt. eigenvalues --    0.14714   0.15231   0.15890   0.15976   0.16347
 Alpha virt. eigenvalues --    0.16759   0.17241   0.17444   0.17798   0.18137
 Alpha virt. eigenvalues --    0.19131   0.19939   0.20379   0.21362   0.21675
 Alpha virt. eigenvalues --    0.22765   0.22969   0.23367   0.24468   0.25432
 Alpha virt. eigenvalues --    0.25491   0.26099   0.26594   0.26867   0.27800
 Alpha virt. eigenvalues --    0.28230   0.29914   0.31344   0.31964   0.32825
 Alpha virt. eigenvalues --    0.33063   0.33698   0.33952   0.34781   0.36051
 Alpha virt. eigenvalues --    0.37524   0.37957   0.38148   0.38575   0.39300
 Alpha virt. eigenvalues --    0.40144   0.40538   0.40668   0.41021   0.41418
 Alpha virt. eigenvalues --    0.41706   0.42181   0.42858   0.43261   0.43290
 Alpha virt. eigenvalues --    0.43481   0.43840   0.44139   0.44424   0.44888
 Alpha virt. eigenvalues --    0.45376   0.45947   0.46456   0.47062   0.47194
 Alpha virt. eigenvalues --    0.47461   0.47714   0.48447   0.48650   0.49177
 Alpha virt. eigenvalues --    0.49485   0.49843   0.50305   0.50372   0.50775
 Alpha virt. eigenvalues --    0.51432   0.51667   0.52108   0.52226   0.52867
 Alpha virt. eigenvalues --    0.53543   0.53980   0.54682   0.55223   0.55357
 Alpha virt. eigenvalues --    0.55890   0.56475   0.56538   0.56987   0.57287
 Alpha virt. eigenvalues --    0.57370   0.57766   0.58064   0.58476   0.58519
 Alpha virt. eigenvalues --    0.59686   0.59996   0.60443   0.60711   0.61240
 Alpha virt. eigenvalues --    0.61687   0.62346   0.62639   0.63314   0.63725
 Alpha virt. eigenvalues --    0.64044   0.64825   0.65025   0.65509   0.66422
 Alpha virt. eigenvalues --    0.66646   0.67243   0.67508   0.68012   0.68211
 Alpha virt. eigenvalues --    0.68498   0.68934   0.69102   0.69242   0.69893
 Alpha virt. eigenvalues --    0.70290   0.70293   0.70807   0.71385   0.72205
 Alpha virt. eigenvalues --    0.72766   0.73061   0.73467   0.74640   0.75525
 Alpha virt. eigenvalues --    0.76336   0.76600   0.77004   0.77197   0.77826
 Alpha virt. eigenvalues --    0.78023   0.78549   0.78765   0.79335   0.79905
 Alpha virt. eigenvalues --    0.79987   0.80457   0.81334   0.81427   0.82382
 Alpha virt. eigenvalues --    0.82619   0.82711   0.82856   0.82997   0.83423
 Alpha virt. eigenvalues --    0.83699   0.83979   0.84328   0.84823   0.84999
 Alpha virt. eigenvalues --    0.85534   0.85777   0.86239   0.86526   0.87194
 Alpha virt. eigenvalues --    0.87659   0.87805   0.88162   0.89126   0.89584
 Alpha virt. eigenvalues --    0.89723   0.90163   0.90329   0.90882   0.91018
 Alpha virt. eigenvalues --    0.91464   0.91820   0.92401   0.93079   0.93467
 Alpha virt. eigenvalues --    0.93978   0.94529   0.95055   0.95408   0.95940
 Alpha virt. eigenvalues --    0.96963   0.97063   0.97432   0.97814   0.99145
 Alpha virt. eigenvalues --    1.00021   1.00862   1.01536   1.03713   1.04165
 Alpha virt. eigenvalues --    1.04866   1.05608   1.06529   1.07207   1.07414
 Alpha virt. eigenvalues --    1.08382   1.08682   1.08942   1.09140   1.09751
 Alpha virt. eigenvalues --    1.10142   1.10722   1.11286   1.11829   1.12120
 Alpha virt. eigenvalues --    1.12736   1.13635   1.14328   1.14516   1.15666
 Alpha virt. eigenvalues --    1.17003   1.18197   1.18538   1.19505   1.20373
 Alpha virt. eigenvalues --    1.20768   1.21181   1.21980   1.22088   1.23430
 Alpha virt. eigenvalues --    1.23779   1.24880   1.25337   1.26002   1.26112
 Alpha virt. eigenvalues --    1.26618   1.27245   1.27390   1.28125   1.28360
 Alpha virt. eigenvalues --    1.28490   1.29262   1.30253   1.31193   1.31399
 Alpha virt. eigenvalues --    1.32260   1.33203   1.33706   1.34161   1.34482
 Alpha virt. eigenvalues --    1.36661   1.37508   1.37854   1.38312   1.38466
 Alpha virt. eigenvalues --    1.40374   1.42379   1.42989   1.43745   1.43978
 Alpha virt. eigenvalues --    1.44279   1.44985   1.45832   1.46277   1.47242
 Alpha virt. eigenvalues --    1.48378   1.49749   1.50492   1.51007   1.52118
 Alpha virt. eigenvalues --    1.52337   1.53937   1.54231   1.55219   1.56058
 Alpha virt. eigenvalues --    1.57648   1.58132   1.59452   1.59783   1.61193
 Alpha virt. eigenvalues --    1.61529   1.63939   1.64661   1.68324   1.68554
 Alpha virt. eigenvalues --    1.68977   1.69429   1.69846   1.70128   1.70644
 Alpha virt. eigenvalues --    1.71201   1.71567   1.72096   1.72623   1.73285
 Alpha virt. eigenvalues --    1.73957   1.74470   1.75044   1.75083   1.75160
 Alpha virt. eigenvalues --    1.76231   1.77087   1.77178   1.78154   1.78640
 Alpha virt. eigenvalues --    1.79621   1.80479   1.80768   1.81154   1.81513
 Alpha virt. eigenvalues --    1.82250   1.82632   1.83388   1.84130   1.84469
 Alpha virt. eigenvalues --    1.85270   1.85445   1.85709   1.89277   1.89518
 Alpha virt. eigenvalues --    1.90105   1.90218   1.90678   1.90983   1.91143
 Alpha virt. eigenvalues --    1.92192   1.92934   1.93605   1.94574   1.94928
 Alpha virt. eigenvalues --    1.95391   1.96041   1.96793   1.97933   1.98620
 Alpha virt. eigenvalues --    1.98757   1.99610   2.01945   2.02239   2.02865
 Alpha virt. eigenvalues --    2.03337   2.04125   2.04797   2.05478   2.05787
 Alpha virt. eigenvalues --    2.06080   2.06788   2.08560   2.09100   2.09481
 Alpha virt. eigenvalues --    2.10396   2.10707   2.11831   2.12646   2.13419
 Alpha virt. eigenvalues --    2.13597   2.14997   2.15485   2.15818   2.16189
 Alpha virt. eigenvalues --    2.16783   2.17329   2.17865   2.18115   2.18342
 Alpha virt. eigenvalues --    2.18489   2.19067   2.19850   2.20332   2.20581
 Alpha virt. eigenvalues --    2.21005   2.21676   2.21881   2.22579   2.22784
 Alpha virt. eigenvalues --    2.24304   2.24906   2.25332   2.26076   2.26166
 Alpha virt. eigenvalues --    2.26849   2.27561   2.28982   2.29149   2.29390
 Alpha virt. eigenvalues --    2.30277   2.30785   2.31665   2.31689   2.32584
 Alpha virt. eigenvalues --    2.32862   2.33469   2.33759   2.34364   2.34798
 Alpha virt. eigenvalues --    2.35505   2.36946   2.39321   2.39759   2.40796
 Alpha virt. eigenvalues --    2.41143   2.42290   2.42572   2.43090   2.43475
 Alpha virt. eigenvalues --    2.44990   2.45436   2.46360   2.46724   2.47169
 Alpha virt. eigenvalues --    2.49664   2.49959   2.50980   2.52193   2.52931
 Alpha virt. eigenvalues --    2.55409   2.55746   2.57562   2.57904   2.58889
 Alpha virt. eigenvalues --    2.59463   2.60225   2.61656   2.64117   2.65118
 Alpha virt. eigenvalues --    2.65786   2.67649   2.68302   2.69571   2.70149
 Alpha virt. eigenvalues --    2.71258   2.76329   2.77465   2.77801   2.78699
 Alpha virt. eigenvalues --    2.80273   2.81142   2.81917   2.84661   2.86394
 Alpha virt. eigenvalues --    2.86793   2.88040   2.88876   2.89291   2.89649
 Alpha virt. eigenvalues --    2.90740   2.94393   2.95065   2.96568   3.02044
 Alpha virt. eigenvalues --    3.03639   3.05983   3.09934   3.12604   3.13852
 Alpha virt. eigenvalues --    3.19476   3.19684   3.28175   3.29068   3.30301
 Alpha virt. eigenvalues --    3.35685   3.35698   3.39477   3.52450   3.58225
 Alpha virt. eigenvalues --    3.81696   3.98765   4.13641
  Beta  occ. eigenvalues -- -256.29442 -30.14502 -25.98667 -25.98272 -25.98217
  Beta  occ. eigenvalues --  -14.52840 -14.48782 -14.47018 -14.46870 -14.46713
  Beta  occ. eigenvalues --  -14.46526 -10.36639 -10.34754 -10.34592 -10.34423
  Beta  occ. eigenvalues --  -10.34214 -10.34185 -10.34143 -10.34028 -10.34009
  Beta  occ. eigenvalues --  -10.33786 -10.31509 -10.31138 -10.31073 -10.31029
  Beta  occ. eigenvalues --  -10.30889 -10.30707 -10.30684 -10.30619 -10.30537
  Beta  occ. eigenvalues --  -10.30520 -10.30495 -10.30477 -10.30271 -10.30238
  Beta  occ. eigenvalues --  -10.29850 -10.29834 -10.28981 -10.28725 -10.28722
  Beta  occ. eigenvalues --  -10.28703 -10.28542 -10.28449 -10.28300 -10.28182
  Beta  occ. eigenvalues --   -3.52343  -2.29039  -2.28300  -2.27982  -1.15382
  Beta  occ. eigenvalues --   -1.08918  -1.07926  -1.07880  -1.06883  -1.01057
  Beta  occ. eigenvalues --   -0.93894  -0.92679  -0.92160  -0.91618  -0.91309
  Beta  occ. eigenvalues --   -0.91081  -0.90902  -0.89596  -0.87177  -0.85949
  Beta  occ. eigenvalues --   -0.85790  -0.84671  -0.83220  -0.81555  -0.81111
  Beta  occ. eigenvalues --   -0.80543  -0.78732  -0.78601  -0.78208  -0.75438
  Beta  occ. eigenvalues --   -0.75400  -0.74478  -0.71139  -0.71101  -0.70336
  Beta  occ. eigenvalues --   -0.69184  -0.68198  -0.65680  -0.65378  -0.64564
  Beta  occ. eigenvalues --   -0.63987  -0.63275  -0.62013  -0.61951  -0.61481
  Beta  occ. eigenvalues --   -0.59405  -0.58612  -0.58010  -0.57632  -0.56737
  Beta  occ. eigenvalues --   -0.55716  -0.55142  -0.54754  -0.54588  -0.54081
  Beta  occ. eigenvalues --   -0.53897  -0.53661  -0.53412  -0.53265  -0.52913
  Beta  occ. eigenvalues --   -0.52618  -0.52524  -0.52336  -0.52272  -0.51214
  Beta  occ. eigenvalues --   -0.50934  -0.50693  -0.50601  -0.50578  -0.50403
  Beta  occ. eigenvalues --   -0.50314  -0.49975  -0.49731  -0.49545  -0.49378
  Beta  occ. eigenvalues --   -0.49171  -0.48703  -0.48220  -0.47837  -0.47622
  Beta  occ. eigenvalues --   -0.47440  -0.46997  -0.46722  -0.46397  -0.45828
  Beta  occ. eigenvalues --   -0.45009  -0.44761  -0.44443  -0.44009  -0.42799
  Beta  occ. eigenvalues --   -0.42210  -0.42022  -0.41250  -0.40768  -0.39698
  Beta  occ. eigenvalues --   -0.39129  -0.37496  -0.37171  -0.34840  -0.34418
  Beta  occ. eigenvalues --   -0.33520  -0.33000  -0.32463  -0.31322  -0.30275
  Beta  occ. eigenvalues --   -0.29697  -0.28585
  Beta virt. eigenvalues --   -0.24886  -0.16744  -0.16655  -0.12650  -0.11701
  Beta virt. eigenvalues --   -0.08136  -0.07523  -0.07249  -0.06273  -0.04205
  Beta virt. eigenvalues --   -0.03278  -0.01617  -0.01058  -0.00822  -0.00343
  Beta virt. eigenvalues --    0.00789   0.01249   0.01676   0.02175   0.02816
  Beta virt. eigenvalues --    0.03673   0.03945   0.04220   0.04693   0.04728
  Beta virt. eigenvalues --    0.05125   0.05545   0.05908   0.05966   0.06230
  Beta virt. eigenvalues --    0.06660   0.06920   0.07385   0.07477   0.07821
  Beta virt. eigenvalues --    0.08148   0.08373   0.08745   0.09180   0.09305
  Beta virt. eigenvalues --    0.09660   0.09889   0.10004   0.10084   0.10494
  Beta virt. eigenvalues --    0.11145   0.11648   0.11855   0.11976   0.12584
  Beta virt. eigenvalues --    0.12727   0.12980   0.13353   0.13820   0.14000
  Beta virt. eigenvalues --    0.14689   0.14832   0.15310   0.15951   0.16092
  Beta virt. eigenvalues --    0.16442   0.16883   0.17305   0.17570   0.17875
  Beta virt. eigenvalues --    0.18198   0.19319   0.20044   0.20527   0.21571
  Beta virt. eigenvalues --    0.21847   0.22878   0.23110   0.23565   0.24743
  Beta virt. eigenvalues --    0.25643   0.25731   0.26242   0.26735   0.27007
  Beta virt. eigenvalues --    0.28032   0.28394   0.30022   0.31452   0.32068
  Beta virt. eigenvalues --    0.32961   0.33169   0.33777   0.34119   0.34912
  Beta virt. eigenvalues --    0.36093   0.37646   0.38047   0.38268   0.38721
  Beta virt. eigenvalues --    0.39399   0.40334   0.40747   0.40830   0.41155
  Beta virt. eigenvalues --    0.41673   0.41939   0.42385   0.42958   0.43357
  Beta virt. eigenvalues --    0.43449   0.43559   0.43991   0.44221   0.44516
  Beta virt. eigenvalues --    0.44996   0.45508   0.46048   0.46635   0.47203
  Beta virt. eigenvalues --    0.47378   0.47570   0.47876   0.48555   0.48817
  Beta virt. eigenvalues --    0.49287   0.49743   0.49967   0.50424   0.50547
  Beta virt. eigenvalues --    0.50982   0.51523   0.51914   0.52371   0.52413
  Beta virt. eigenvalues --    0.53072   0.53828   0.54176   0.54818   0.55401
  Beta virt. eigenvalues --    0.55592   0.56033   0.56530   0.56669   0.57035
  Beta virt. eigenvalues --    0.57179   0.57470   0.57800   0.58085   0.58534
  Beta virt. eigenvalues --    0.58623   0.59811   0.60081   0.60605   0.60869
  Beta virt. eigenvalues --    0.61413   0.61825   0.62528   0.62912   0.63422
  Beta virt. eigenvalues --    0.63917   0.64121   0.65009   0.65244   0.65629
  Beta virt. eigenvalues --    0.66625   0.66817   0.67375   0.67663   0.68102
  Beta virt. eigenvalues --    0.68266   0.68588   0.69146   0.69209   0.69394
  Beta virt. eigenvalues --    0.70004   0.70369   0.70555   0.70958   0.71532
  Beta virt. eigenvalues --    0.72417   0.73132   0.73262   0.73689   0.74820
  Beta virt. eigenvalues --    0.75623   0.76616   0.76720   0.77038   0.77210
  Beta virt. eigenvalues --    0.77853   0.78022   0.78681   0.78752   0.79379
  Beta virt. eigenvalues --    0.79919   0.80023   0.80501   0.81371   0.81459
  Beta virt. eigenvalues --    0.82419   0.82654   0.82760   0.82892   0.83060
  Beta virt. eigenvalues --    0.83472   0.83734   0.84059   0.84377   0.84912
  Beta virt. eigenvalues --    0.85052   0.85605   0.85832   0.86307   0.86588
  Beta virt. eigenvalues --    0.87305   0.87743   0.87818   0.88265   0.89192
  Beta virt. eigenvalues --    0.89720   0.89848   0.90228   0.90501   0.90962
  Beta virt. eigenvalues --    0.91103   0.91577   0.91902   0.92486   0.93193
  Beta virt. eigenvalues --    0.93555   0.94063   0.94632   0.95164   0.95473
  Beta virt. eigenvalues --    0.95969   0.97033   0.97120   0.97552   0.97899
  Beta virt. eigenvalues --    0.99308   1.00042   1.00942   1.01617   1.03843
  Beta virt. eigenvalues --    1.04210   1.04906   1.05671   1.06623   1.07256
  Beta virt. eigenvalues --    1.07507   1.08419   1.08825   1.09060   1.09216
  Beta virt. eigenvalues --    1.09897   1.10238   1.10784   1.11425   1.11918
  Beta virt. eigenvalues --    1.12236   1.12853   1.13791   1.14472   1.14696
  Beta virt. eigenvalues --    1.15843   1.17259   1.18316   1.18790   1.19703
  Beta virt. eigenvalues --    1.20497   1.20915   1.21422   1.22067   1.22186
  Beta virt. eigenvalues --    1.23625   1.23922   1.25050   1.25525   1.26059
  Beta virt. eigenvalues --    1.26244   1.26831   1.27604   1.27724   1.28337
  Beta virt. eigenvalues --    1.28543   1.28730   1.29446   1.30322   1.31394
  Beta virt. eigenvalues --    1.31512   1.32429   1.33419   1.33896   1.34367
  Beta virt. eigenvalues --    1.34643   1.36767   1.37639   1.37995   1.38393
  Beta virt. eigenvalues --    1.38617   1.40478   1.42437   1.43057   1.43926
  Beta virt. eigenvalues --    1.44181   1.44488   1.45109   1.45963   1.46439
  Beta virt. eigenvalues --    1.47350   1.48533   1.49904   1.50608   1.51159
  Beta virt. eigenvalues --    1.52257   1.52468   1.54062   1.54370   1.55389
  Beta virt. eigenvalues --    1.56203   1.57837   1.58267   1.59726   1.60003
  Beta virt. eigenvalues --    1.61428   1.61764   1.63981   1.64946   1.68441
  Beta virt. eigenvalues --    1.68713   1.69074   1.69517   1.70017   1.70274
  Beta virt. eigenvalues --    1.70768   1.71330   1.71688   1.72157   1.72716
  Beta virt. eigenvalues --    1.73391   1.73989   1.74521   1.75080   1.75125
  Beta virt. eigenvalues --    1.75245   1.76269   1.77213   1.77287   1.78221
  Beta virt. eigenvalues --    1.78742   1.79726   1.80530   1.80865   1.81284
  Beta virt. eigenvalues --    1.81622   1.82351   1.82774   1.83519   1.84266
  Beta virt. eigenvalues --    1.84631   1.85387   1.85571   1.85878   1.89353
  Beta virt. eigenvalues --    1.89613   1.90195   1.90314   1.90749   1.91086
  Beta virt. eigenvalues --    1.91271   1.92279   1.93055   1.93706   1.94776
  Beta virt. eigenvalues --    1.95003   1.95469   1.96101   1.96884   1.98042
  Beta virt. eigenvalues --    1.98645   1.98891   1.99743   2.02020   2.02275
  Beta virt. eigenvalues --    2.02923   2.03401   2.04298   2.05147   2.05683
  Beta virt. eigenvalues --    2.05819   2.06212   2.06903   2.08824   2.09364
  Beta virt. eigenvalues --    2.09618   2.10539   2.10857   2.11958   2.12752
  Beta virt. eigenvalues --    2.13589   2.13835   2.15056   2.15773   2.15976
  Beta virt. eigenvalues --    2.16357   2.16947   2.17413   2.18125   2.18261
  Beta virt. eigenvalues --    2.18454   2.18774   2.19194   2.20061   2.20549
  Beta virt. eigenvalues --    2.20805   2.21316   2.21732   2.22121   2.22742
  Beta virt. eigenvalues --    2.23033   2.24648   2.25186   2.25697   2.26263
  Beta virt. eigenvalues --    2.26448   2.27067   2.27790   2.29054   2.29317
  Beta virt. eigenvalues --    2.29480   2.30456   2.30897   2.31722   2.31822
  Beta virt. eigenvalues --    2.32719   2.33170   2.33748   2.33974   2.34539
  Beta virt. eigenvalues --    2.35031   2.35584   2.37178   2.39330   2.39787
  Beta virt. eigenvalues --    2.41008   2.41242   2.42518   2.42788   2.43281
  Beta virt. eigenvalues --    2.43635   2.45029   2.45594   2.46606   2.46909
  Beta virt. eigenvalues --    2.47345   2.50006   2.50281   2.51056   2.52418
  Beta virt. eigenvalues --    2.53012   2.55446   2.56041   2.57757   2.58219
  Beta virt. eigenvalues --    2.59109   2.59670   2.60252   2.61670   2.64147
  Beta virt. eigenvalues --    2.65139   2.65809   2.67718   2.68457   2.69666
  Beta virt. eigenvalues --    2.70209   2.71326   2.76438   2.77589   2.77880
  Beta virt. eigenvalues --    2.78773   2.80523   2.81409   2.82136   2.84755
  Beta virt. eigenvalues --    2.86482   2.86866   2.88139   2.89001   2.89426
  Beta virt. eigenvalues --    2.89885   2.90768   2.94509   2.95169   2.96591
  Beta virt. eigenvalues --    3.02170   3.03765   3.05984   3.10022   3.12721
  Beta virt. eigenvalues --    3.13930   3.19570   3.19776   3.28264   3.29155
  Beta virt. eigenvalues --    3.30377   3.35765   3.35781   3.39666   3.53045
  Beta virt. eigenvalues --    3.58269   3.81801   3.98875   4.13775
          Condensed to atoms (all electrons):
          Atomic-Atomic Spin Densities.
 Mulliken charges and spin densities:
               1          2
     1  Fe   0.793869   0.082783
     2  N   -0.672978  -0.066012
     3  N   -0.671272  -0.043841
     4  N   -0.675568  -0.047186
     5  N   -0.675544  -0.066506
     6  C    0.344810   0.219153
     7  C    0.039835  -0.022982
     8  C    0.044612   0.059267
     9  C    0.350040   0.164389
    10  C    0.352553   0.173117
    11  C    0.037654  -0.028362
    12  C    0.046325   0.054800
    13  C    0.335014   0.113686
    14  C    0.339367   0.106574
    15  C    0.012163   0.077860
    16  C    0.039766  -0.052508
    17  C    0.351894   0.177761
    18  C    0.352214   0.153547
    19  C    0.012588   0.089103
    20  C    0.038092  -0.052958
    21  C    0.338591   0.222591
    22  C   -0.328004  -0.126909
    23  H    0.195788   0.004731
    24  C   -0.304104  -0.098779
    25  H    0.194928   0.003638
    26  C   -0.317241  -0.065340
    27  H    0.193435   0.002277
    28  C   -0.302790  -0.098025
    29  H    0.195464   0.003623
    30  C   -0.610904   0.001311
    31  H    0.198913   0.000011
    32  H    0.209312   0.000252
    33  H    0.206825  -0.000294
    34  C   -0.612755  -0.004073
    35  H    0.209857   0.003026
    36  H    0.206622   0.003607
    37  H    0.206839  -0.000175
    38  C   -0.612805   0.003630
    39  H    0.190226  -0.000856
    40  H    0.212524  -0.000622
    41  H    0.212597  -0.000785
    42  C   -0.154201  -0.035722
    43  H    0.182798   0.002916
    44  C   -0.380401   0.069228
    45  H    0.195120  -0.003277
    46  H    0.199487  -0.003472
    47  C   -0.614280   0.003725
    48  H    0.210842  -0.001188
    49  H    0.193528  -0.000957
    50  H    0.211543  -0.000550
    51  C   -0.154577  -0.029641
    52  H    0.180027   0.002483
    53  C   -0.381685   0.056947
    54  H    0.194438  -0.002705
    55  H    0.197088  -0.002832
    56  C   -0.612485  -0.003690
    57  H    0.211850   0.003169
    58  H    0.200229   0.002615
    59  H    0.206338  -0.000120
    60  C   -0.612221   0.001871
    61  H    0.206061  -0.000333
    62  H    0.205095  -0.000263
    63  H    0.203846  -0.000343
    64  C   -0.601739   0.000011
    65  H    0.210911  -0.000005
    66  H    0.217044  -0.000004
    67  H    0.210233  -0.000005
    68  N   -0.631545   0.001024
    69  H    0.381690  -0.000049
    70  C    0.281386  -0.000267
    71  C    0.243192  -0.000603
    72  H    0.216248  -0.000518
    73  N   -0.445033  -0.001932
    74  C   -0.047317   0.000284
    75  H    0.197739  -0.000322
 Sum of Mulliken charges =   1.00000   1.00000
 Mulliken charges and spin densities with hydrogens summed into heavy atoms:
               1          2
     1  Fe   0.793869   0.082783
     2  N   -0.672978  -0.066012
     3  N   -0.671272  -0.043841
     4  N   -0.675568  -0.047186
     5  N   -0.675544  -0.066506
     6  C    0.344810   0.219153
     7  C    0.039835  -0.022982
     8  C    0.044612   0.059267
     9  C    0.350040   0.164389
    10  C    0.352553   0.173117
    11  C    0.037654  -0.028362
    12  C    0.046325   0.054800
    13  C    0.335014   0.113686
    14  C    0.339367   0.106574
    15  C    0.012163   0.077860
    16  C    0.039766  -0.052508
    17  C    0.351894   0.177761
    18  C    0.352214   0.153547
    19  C    0.012588   0.089103
    20  C    0.038092  -0.052958
    21  C    0.338591   0.222591
    22  C   -0.132217  -0.122178
    24  C   -0.109176  -0.095141
    26  C   -0.123805  -0.063063
    28  C   -0.107326  -0.094403
    30  C    0.004146   0.001279
    34  C    0.010563   0.002386
    38  C    0.002542   0.001368
    42  C    0.028597  -0.032806
    44  C    0.014205   0.062479
    47  C    0.001633   0.001030
    51  C    0.025450  -0.027157
    53  C    0.009841   0.051410
    56  C    0.005932   0.001974
    60  C    0.002781   0.000932
    64  C    0.036449  -0.000003
    68  N   -0.249855   0.000975
    70  C    0.281386  -0.000267
    71  C    0.459440  -0.001121
    73  N   -0.445033  -0.001932
    74  C    0.150422  -0.000037
 Electronic spatial extent (au):  <R**2>=          19726.0371
 Charge=              1.0000 electrons
 Dipole moment (field-independent basis, Debye):
    X=             -1.3205    Y=              0.6058    Z=              4.5054  Tot=              4.7339
 Quadrupole moment (field-independent basis, Debye-Ang):
   XX=           -162.8011   YY=           -170.2678   ZZ=           -207.9811
   XY=             -0.2942   XZ=             -3.5582   YZ=              0.6676
 Traceless Quadrupole moment (field-independent basis, Debye-Ang):
   XX=             17.5489   YY=             10.0822   ZZ=            -27.6311
   XY=             -0.2942   XZ=             -3.5582   YZ=              0.6676
 Octapole moment (field-independent basis, Debye-Ang**2):
  XXX=             -1.8924  YYY=             11.6036  ZZZ=            191.0381  XYY=            -16.1075
  XXY=            -21.9784  XXZ=            -24.8425  XZZ=            -13.7733  YZZ=             10.7753
  YYZ=            -66.6228  XYZ=              1.5565
 Hexadecapole moment (field-independent basis, Debye-Ang**3):
 XXXX=         -10046.4719 YYYY=          -9749.0085 ZZZZ=          -2407.7474 XXXY=             17.9251
 XXXZ=             17.3396 YYYX=             32.8190 YYYZ=              8.0247 ZZZX=            -54.3931
 ZZZY=              9.2437 XXYY=          -3051.0497 XXZZ=          -2450.1745 YYZZ=          -2473.3321
 XXYZ=             79.7608 YYXZ=            -41.6720 ZZXY=            -28.8547
 N-N= 5.567016565652D+03 E-N=-1.793054414747D+04  KE= 2.896006853851D+03
                          Isotropic Fermi Contact Couplings
        Atom                 a.u.       MegaHertz       Gauss      10(-4) cm-1
     1  Fe(57)             0.01304       1.89088       0.67471       0.63073
     2  N(14)             -0.01541      -4.97955      -1.77683      -1.66100
     3  N(14)             -0.01021      -3.29936      -1.17729      -1.10055
     4  N(14)             -0.01136      -3.67160      -1.31012      -1.22471
     5  N(14)             -0.01557      -5.02951      -1.79465      -1.67766
     6  C(13)              0.03141      35.31217      12.60026      11.77887
     7  C(13)             -0.00610      -6.85397      -2.44567      -2.28624
     8  C(13)              0.00590       6.63226       2.36656       2.21228
     9  C(13)              0.02273      25.55555       9.11885       8.52441
    10  C(13)              0.02490      27.99094       9.98786       9.33677
    11  C(13)             -0.00622      -6.98877      -2.49377      -2.33120
    12  C(13)              0.00627       7.05178       2.51625       2.35222
    13  C(13)              0.01563      17.56980       6.26934       5.86065
    14  C(13)              0.01461      16.42936       5.86241       5.48025
    15  C(13)              0.00968      10.88298       3.88332       3.63017
    16  C(13)             -0.01001     -11.25686      -4.01673      -3.75488
    17  C(13)              0.02542      28.57535      10.19639       9.53171
    18  C(13)              0.02123      23.86599       8.51598       7.96084
    19  C(13)              0.01060      11.91512       4.25161       3.97446
    20  C(13)             -0.01070     -12.02753      -4.29172      -4.01195
    21  C(13)              0.03224      36.24592      12.93344      12.09034
    22  C(13)             -0.02209     -24.83622      -8.86218      -8.28447
    23  H(1)               0.00152       6.79506       2.42465       2.26659
    24  C(13)             -0.01719     -19.32584      -6.89594      -6.44640
    25  H(1)               0.00113       5.05011       1.80200       1.68453
    26  C(13)             -0.01146     -12.88735      -4.59853      -4.29876
    27  H(1)               0.00070       3.13842       1.11987       1.04686
    28  C(13)             -0.01711     -19.23832      -6.86471      -6.41721
    29  H(1)               0.00116       5.18851       1.85139       1.73070
    30  C(13)             -0.00008      -0.09186      -0.03278      -0.03064
    31  H(1)               0.00021       0.92116       0.32869       0.30727
    32  H(1)               0.00036       1.62289       0.57909       0.54134
    33  H(1)              -0.00012      -0.52349      -0.18679      -0.17462
    34  C(13)             -0.00220      -2.47424      -0.88287      -0.82532
    35  H(1)               0.00189       8.46470       3.02041       2.82352
    36  H(1)               0.00217       9.68069       3.45431       3.22913
    37  H(1)              -0.00006      -0.26259      -0.09370      -0.08759
    38  C(13)              0.00095       1.07232       0.38263       0.35769
    39  H(1)              -0.00029      -1.29794      -0.46314      -0.43295
    40  H(1)              -0.00011      -0.47329      -0.16888      -0.15787
    41  H(1)              -0.00035      -1.58321      -0.56493      -0.52810
    42  C(13)             -0.00728      -8.18410      -2.92029      -2.72992
    43  H(1)               0.00130       5.80019       2.06965       1.93473
    44  C(13)              0.00979      11.00433       3.92662       3.67065
    45  H(1)              -0.00104      -4.66853      -1.66585      -1.55725
    46  H(1)              -0.00108      -4.84559      -1.72903      -1.61632
    47  C(13)              0.00104       1.16970       0.41738       0.39017
    48  H(1)              -0.00055      -2.45115      -0.87463      -0.81761
    49  H(1)              -0.00037      -1.66688      -0.59478      -0.55601
    50  H(1)              -0.00013      -0.57572      -0.20543      -0.19204
    51  C(13)             -0.00602      -6.76401      -2.41357      -2.25623
    52  H(1)               0.00109       4.86914       1.73743       1.62417
    53  C(13)              0.00813       9.14260       3.26231       3.04964
    54  H(1)              -0.00086      -3.84912      -1.37346      -1.28393
    55  H(1)              -0.00088      -3.94216      -1.40666      -1.31496
    56  C(13)             -0.00188      -2.10955      -0.75274      -0.70367
    57  H(1)               0.00186       8.29550       2.96004       2.76708
    58  H(1)               0.00161       7.20548       2.57110       2.40349
    59  H(1)              -0.00004      -0.17264      -0.06160      -0.05759
    60  C(13)              0.00025       0.27717       0.09890       0.09245
    61  H(1)              -0.00001      -0.03934      -0.01404      -0.01312
    62  H(1)              -0.00010      -0.46561      -0.16614      -0.15531
    63  H(1)               0.00000       0.01643       0.00586       0.00548
    64  C(13)              0.00000       0.00349       0.00125       0.00116
    65  H(1)              -0.00000      -0.01617      -0.00577      -0.00539
    66  H(1)              -0.00000      -0.00846      -0.00302      -0.00282
    67  H(1)              -0.00000      -0.01378      -0.00492      -0.00460
    68  N(14)              0.00005       0.01619       0.00578       0.00540
    69  H(1)              -0.00002      -0.09806      -0.03499      -0.03271
    70  C(13)             -0.00015      -0.16565      -0.05911      -0.05525
    71  C(13)             -0.00047      -0.52476      -0.18725      -0.17504
    72  H(1)               0.00002       0.07021       0.02505       0.02342
    73  N(14)             -0.00218      -0.70545      -0.25172      -0.23531
    74  C(13)             -0.00004      -0.04127      -0.01473      -0.01377
    75  H(1)              -0.00000      -0.00963      -0.00344      -0.00321
 --------------------------------------------------------
       Center         ----  Spin Dipole Couplings  ----
                      3XX-RR        3YY-RR        3ZZ-RR
 --------------------------------------------------------
     1   Atom       -0.406459      0.310296      0.096163
     2   Atom        0.045421      0.046301     -0.091722
     3   Atom        0.030008      0.027147     -0.057155
     4   Atom        0.032731      0.030759     -0.063490
     5   Atom        0.047574      0.046873     -0.094447
     6   Atom       -0.112932     -0.107107      0.220038
     7   Atom        0.003312      0.001404     -0.004716
     8   Atom       -0.036067     -0.030976      0.067043
     9   Atom       -0.083683     -0.083441      0.167124
    10   Atom       -0.085412     -0.088778      0.174190
    11   Atom        0.006205      0.007761     -0.013966
    12   Atom       -0.028299     -0.031584      0.059883
    13   Atom       -0.060380     -0.057890      0.118270
    14   Atom       -0.058059     -0.054293      0.112352
    15   Atom       -0.040444     -0.040478      0.080922
    16   Atom        0.017104      0.019404     -0.036507
    17   Atom       -0.087752     -0.089666      0.177418
    18   Atom       -0.077274     -0.084086      0.161360
    19   Atom       -0.045671     -0.047578      0.093250
    20   Atom        0.016961      0.014742     -0.031703
    21   Atom       -0.109666     -0.109508      0.219174
    22   Atom        0.039938      0.053578     -0.093516
    23   Atom       -0.002667      0.006008     -0.003342
    24   Atom        0.042567      0.030357     -0.072925
    25   Atom        0.005336     -0.002290     -0.003047
    26   Atom        0.019165      0.028650     -0.047815
    27   Atom       -0.001473      0.004080     -0.002607
    28   Atom        0.042686      0.030498     -0.073184
    29   Atom        0.005155     -0.002203     -0.002953
    30   Atom        0.000789     -0.000848      0.000059
    31   Atom        0.001687     -0.000644     -0.001043
    32   Atom        0.001756     -0.000665     -0.001092
    33   Atom        0.000797      0.000250     -0.001047
    34   Atom       -0.003106      0.000783      0.002323
    35   Atom       -0.001263      0.002110     -0.000848
    36   Atom       -0.001256      0.002570     -0.001314
    37   Atom       -0.000264      0.001410     -0.001146
    38   Atom        0.001177     -0.000716     -0.000461
    39   Atom        0.001777     -0.000679     -0.001098
    40   Atom        0.000796      0.000388     -0.001183
    41   Atom        0.001539     -0.000408     -0.001131
    42   Atom        0.004725      0.011913     -0.016638
    43   Atom       -0.000177      0.002407     -0.002230
    44   Atom       -0.003059     -0.031179      0.034238
    45   Atom        0.001795     -0.001359     -0.000436
    46   Atom       -0.002983      0.004835     -0.001852
    47   Atom       -0.000234      0.001023     -0.000789
    48   Atom       -0.000183      0.001024     -0.000841
    49   Atom       -0.000438      0.001495     -0.001057
    50   Atom        0.000372      0.000712     -0.001084
    51   Atom        0.009746     -0.000492     -0.009254
    52   Atom        0.001876     -0.000068     -0.001809
    53   Atom       -0.025646      0.009525      0.016121
    54   Atom       -0.001133      0.001153     -0.000020
    55   Atom        0.003965     -0.001935     -0.002030
    56   Atom        0.000581     -0.002474      0.001892
    57   Atom        0.001835     -0.000897     -0.000938
    58   Atom        0.001942     -0.000954     -0.000989
    59   Atom        0.001132     -0.000155     -0.000977
    60   Atom       -0.000453      0.000660     -0.000207
    61   Atom       -0.000357      0.001142     -0.000786
    62   Atom        0.000214      0.000634     -0.000848
    63   Atom       -0.000325      0.001330     -0.001005
    64   Atom       -0.000278     -0.000318      0.000596
    65   Atom       -0.000247     -0.000283      0.000531
    66   Atom       -0.000256     -0.000317      0.000572
    67   Atom       -0.000251     -0.000275      0.000526
    68   Atom       -0.001585      0.001917     -0.000332
    69   Atom       -0.000453     -0.000388      0.000841
    70   Atom       -0.000290     -0.000573      0.000863
    71   Atom       -0.000498     -0.001274      0.001773
    72   Atom       -0.001779      0.000011      0.001768
    73   Atom       -0.000018      0.001703     -0.001685
    74   Atom       -0.000651     -0.000056      0.000708
    75   Atom       -0.000773     -0.000057      0.000830
 --------------------------------------------------------
                        XY            XZ            YZ
 --------------------------------------------------------
     1   Atom        0.126241     -0.021178      0.053884
     2   Atom       -0.001110      0.001428     -0.011570
     3   Atom        0.001475     -0.001197     -0.003635
     4   Atom       -0.001312     -0.002107      0.006205
     5   Atom        0.001592     -0.003724      0.003756
     6   Atom       -0.001033      0.000546      0.013338
     7   Atom       -0.001448      0.000381      0.001620
     8   Atom       -0.000966      0.007294      0.011333
     9   Atom       -0.002014      0.003739      0.032968
    10   Atom        0.001191      0.006115      0.014357
    11   Atom        0.001330      0.000856     -0.001074
    12   Atom        0.001310     -0.004146      0.004581
    13   Atom        0.001380      0.002246      0.006849
    14   Atom       -0.000933      0.005468     -0.006429
    15   Atom       -0.002880     -0.001042     -0.001079
    16   Atom       -0.000472     -0.002187     -0.000265
    17   Atom       -0.001421     -0.000047     -0.015896
    18   Atom        0.001387      0.014774      0.001807
    19   Atom        0.003556      0.018645      0.000286
    20   Atom        0.000825     -0.007236      0.000984
    21   Atom        0.001686      0.034967     -0.000939
    22   Atom        0.001917     -0.006461     -0.000475
    23   Atom        0.001277     -0.000084     -0.000048
    24   Atom       -0.002048     -0.000604     -0.009731
    25   Atom       -0.000703      0.000025     -0.000042
    26   Atom        0.001083      0.001040      0.000090
    27   Atom        0.000519      0.000232     -0.000020
    28   Atom       -0.000822     -0.000807      0.003602
    29   Atom       -0.000973     -0.000227     -0.000078
    30   Atom       -0.001686      0.000267      0.000231
    31   Atom       -0.000984     -0.000875      0.000132
    32   Atom       -0.000864      0.000863     -0.000062
    33   Atom       -0.001197      0.000026     -0.000050
    34   Atom       -0.001227      0.000311      0.000334
    35   Atom        0.000138     -0.000515     -0.001577
    36   Atom        0.000228      0.000491      0.000920
    37   Atom       -0.001500      0.000119     -0.000206
    38   Atom        0.000933     -0.000632     -0.000404
    39   Atom        0.000098     -0.000874      0.000107
    40   Atom        0.000426     -0.000652      0.000188
    41   Atom        0.000376      0.000423      0.000012
    42   Atom        0.006996      0.016918     -0.004625
    43   Atom        0.001680      0.000165     -0.000047
    44   Atom       -0.004501     -0.045714      0.008265
    45   Atom       -0.002597      0.001381     -0.001550
    46   Atom        0.001889     -0.001842     -0.000240
    47   Atom       -0.000823      0.000297     -0.000184
    48   Atom       -0.000367     -0.000090      0.000539
    49   Atom       -0.000267     -0.000042     -0.000379
    50   Atom       -0.000259     -0.000224     -0.000267
    51   Atom       -0.006218      0.002776      0.015893
    52   Atom       -0.001441     -0.000147      0.000326
    53   Atom        0.004749     -0.006253     -0.040441
    54   Atom        0.001931      0.001598      0.001345
    55   Atom       -0.001594     -0.000022     -0.001594
    56   Atom        0.001034     -0.000547      0.000174
    57   Atom       -0.000027     -0.001027      0.000441
    58   Atom       -0.000129      0.001055     -0.000338
    59   Atom        0.001278     -0.000076     -0.000005
    60   Atom        0.001357     -0.000038      0.000119
    61   Atom        0.000771     -0.000218     -0.000818
    62   Atom        0.000889     -0.000111     -0.000126
    63   Atom        0.000850      0.000039      0.000440
    64   Atom       -0.000004      0.000183     -0.000033
    65   Atom        0.000009      0.000147      0.000041
    66   Atom       -0.000013      0.000282     -0.000045
    67   Atom       -0.000017      0.000133     -0.000095
    68   Atom        0.000212     -0.000026     -0.000077
    69   Atom        0.000020     -0.000173     -0.000004
    70   Atom       -0.000017      0.000214     -0.000056
    71   Atom       -0.000291      0.000164     -0.000162
    72   Atom        0.000393     -0.000060      0.000248
    73   Atom        0.000418      0.000165     -0.000171
    74   Atom        0.000065      0.000350     -0.000154
    75   Atom        0.000092      0.000308     -0.000127
 --------------------------------------------------------


 ---------------------------------------------------------------------------------
              Anisotropic Spin Dipole Couplings in Principal Axis System
 ---------------------------------------------------------------------------------

       Atom             a.u.   MegaHertz   Gauss  10(-4) cm-1        Axes

              Baa    -0.4298    -7.440    -2.655    -2.482  0.9834 -0.1719  0.0572
     1 Fe(57) Bbb     0.0878     1.521     0.543     0.507 -0.0895 -0.1862  0.9784
              Bcc     0.3419     5.920     2.112     1.975  0.1576  0.9673  0.1985
 
              Baa    -0.0927    -3.575    -1.276    -1.193 -0.0096  0.0829  0.9965
     2 N(14)  Bbb     0.0448     1.729     0.617     0.577  0.8940  0.4471 -0.0285
              Bcc     0.0479     1.847     0.659     0.616 -0.4479  0.8906 -0.0784
 
              Baa    -0.0573    -2.211    -0.789    -0.737  0.0130  0.0428  0.9990
     3 N(14)  Bbb     0.0266     1.027     0.366     0.342 -0.4090  0.9119 -0.0337
              Bcc     0.0307     1.184     0.423     0.395  0.9125  0.4081 -0.0293
 
              Baa    -0.0639    -2.466    -0.880    -0.823  0.0209 -0.0651  0.9977
     4 N(14)  Bbb     0.0303     1.169     0.417     0.390  0.5070  0.8607  0.0455
              Bcc     0.0336     1.297     0.463     0.433  0.8617 -0.5049 -0.0509
 
              Baa    -0.0946    -3.650    -1.303    -1.218  0.0265 -0.0268  0.9993
     5 N(14)  Bbb     0.0458     1.766     0.630     0.589 -0.6208  0.7831  0.0375
              Bcc     0.0489     1.884     0.672     0.629  0.7835  0.6213 -0.0041
 
              Baa    -0.1131   -15.182    -5.417    -5.064  0.9820  0.1885 -0.0092
     6 C(13)  Bbb    -0.1074   -14.418    -5.145    -4.809 -0.1887  0.9812 -0.0396
              Bcc     0.2206    29.600    10.562     9.874  0.0015  0.0407  0.9992
 
              Baa    -0.0052    -0.695    -0.248    -0.232 -0.0869 -0.2559  0.9628
     7 C(13)  Bbb     0.0011     0.143     0.051     0.048  0.4903  0.8303  0.2649
              Bcc     0.0041     0.552     0.197     0.184  0.8672 -0.4950 -0.0534
 
              Baa    -0.0372    -4.992    -1.781    -1.665  0.9382  0.3308 -0.1016
     8 C(13)  Bbb    -0.0316    -4.244    -1.514    -1.416 -0.3394  0.9370 -0.0825
              Bcc     0.0688     9.235     3.295     3.081  0.0679  0.1119  0.9914
 
              Baa    -0.0889   -11.929    -4.256    -3.979  0.4324  0.8935 -0.1214
     9 C(13)  Bbb    -0.0825   -11.076    -3.952    -3.695  0.9016 -0.4304  0.0433
              Bcc     0.1714    23.005     8.209     7.674  0.0135  0.1282  0.9917
 
              Baa    -0.0897   -12.042    -4.297    -4.017 -0.2009  0.9784 -0.0486
    10 C(13)  Bbb    -0.0854   -11.458    -4.088    -3.822  0.9793  0.1994 -0.0341
              Bcc     0.1751    23.499     8.385     7.838  0.0237  0.0544  0.9982
 
              Baa    -0.0141    -1.887    -0.673    -0.629 -0.0455  0.0519  0.9976
    11 C(13)  Bbb     0.0055     0.741     0.265     0.247  0.8710 -0.4869  0.0651
              Bcc     0.0085     1.145     0.409     0.382  0.4892  0.8719 -0.0230
 
              Baa    -0.0324    -4.348    -1.551    -1.450 -0.3605  0.9307 -0.0624
    12 C(13)  Bbb    -0.0279    -3.744    -1.336    -1.249  0.9316  0.3626  0.0251
              Bcc     0.0603     8.092     2.887     2.699 -0.0460  0.0491  0.9977
 
              Baa    -0.0610    -8.185    -2.921    -2.730  0.9103 -0.4140  0.0044
    13 C(13)  Bbb    -0.0576    -7.725    -2.757    -2.577  0.4138  0.9094 -0.0407
              Bcc     0.1186    15.910     5.677     5.307  0.0128  0.0389  0.9992
 
              Baa    -0.0584    -7.833    -2.795    -2.613  0.9822  0.1862 -0.0244
    14 C(13)  Bbb    -0.0544    -7.301    -2.605    -2.435 -0.1851  0.9817  0.0439
              Bcc     0.1128    15.134     5.400     5.048  0.0322 -0.0386  0.9987
 
              Baa    -0.0434    -5.818    -2.076    -1.941  0.7049  0.7092  0.0121
    15 C(13)  Bbb    -0.0376    -5.043    -1.799    -1.682  0.7092 -0.7050 -0.0002
              Bcc     0.0809    10.861     3.876     3.623 -0.0084 -0.0087  0.9999
 
              Baa    -0.0366    -4.911    -1.752    -1.638  0.0407  0.0051  0.9992
    16 C(13)  Bbb     0.0171     2.295     0.819     0.765  0.9797  0.1961 -0.0409
              Bcc     0.0195     2.616     0.934     0.873 -0.1961  0.9806  0.0030
 
              Baa    -0.0912   -12.238    -4.367    -4.082  0.3815  0.9228  0.0547
    17 C(13)  Bbb    -0.0872   -11.697    -4.174    -3.902  0.9244 -0.3808 -0.0227
              Bcc     0.1784    23.934     8.540     7.984  0.0001 -0.0592  0.9982
 
              Baa    -0.0844   -11.321    -4.039    -3.776 -0.2019  0.9794  0.0049
    18 C(13)  Bbb    -0.0779   -10.456    -3.731    -3.488  0.9775  0.2018 -0.0619
              Bcc     0.1623    21.777     7.771     7.264  0.0616  0.0077  0.9981
 
              Baa    -0.0514    -6.891    -2.459    -2.299  0.7284 -0.6788 -0.0926
    19 C(13)  Bbb    -0.0444    -5.952    -2.124    -1.986  0.6725  0.7343 -0.0926
              Bcc     0.0957    12.844     4.583     4.284  0.1309  0.0052  0.9914
 
              Baa    -0.0328    -4.399    -1.570    -1.467  0.1443 -0.0230  0.9893
    20 C(13)  Bbb     0.0146     1.964     0.701     0.655 -0.1904  0.9804  0.0506
              Bcc     0.0181     2.435     0.869     0.812  0.9710  0.1957 -0.1371
 
              Baa    -0.1140   -15.303    -5.460    -5.105  0.9259 -0.3649 -0.0982
    21 C(13)  Bbb    -0.1088   -14.602    -5.210    -4.871  0.3631  0.9310 -0.0360
              Bcc     0.2229    29.905    10.671     9.975  0.1046 -0.0023  0.9945
 
              Baa    -0.0938   -12.591    -4.493    -4.200  0.0482  0.0026  0.9988
    22 C(13)  Bbb     0.0400     5.364     1.914     1.789  0.9889 -0.1410 -0.0474
              Bcc     0.0539     7.227     2.579     2.411  0.1407  0.9900 -0.0094
 
              Baa    -0.0034    -1.789    -0.638    -0.597  0.1502 -0.0154  0.9885
    23 H(1)   Bbb    -0.0028    -1.515    -0.541    -0.505  0.9783 -0.1420 -0.1508
              Bcc     0.0062     3.304     1.179     1.102  0.1427  0.9897 -0.0062
 
              Baa    -0.0738    -9.908    -3.536    -3.305  0.0068  0.0931  0.9956
    24 C(13)  Bbb     0.0309     4.150     1.481     1.384  0.1679  0.9814 -0.0929
              Bcc     0.0429     5.758     2.055     1.921  0.9858 -0.1678  0.0090
 
              Baa    -0.0030    -1.627    -0.580    -0.543  0.0018  0.0569  0.9984
    25 H(1)   Bbb    -0.0024    -1.255    -0.448    -0.419  0.0910  0.9942 -0.0568
              Bcc     0.0054     2.882     1.028     0.961  0.9958 -0.0910  0.0034
 
              Baa    -0.0478    -6.419    -2.290    -2.141 -0.0155 -0.0010  0.9999
    26 C(13)  Bbb     0.0191     2.557     0.913     0.853  0.9936 -0.1123  0.0153
              Bcc     0.0288     3.861     1.378     1.288  0.1123  0.9937  0.0027
 
              Baa    -0.0027    -1.417    -0.505    -0.473 -0.2001  0.0183  0.9796
    27 H(1)   Bbb    -0.0015    -0.786    -0.280    -0.262  0.9754 -0.0904  0.2009
              Bcc     0.0041     2.203     0.786     0.735  0.0922  0.9957  0.0003
 
              Baa    -0.0733    -9.838    -3.510    -3.282  0.0067 -0.0346  0.9994
    28 C(13)  Bbb     0.0306     4.101     1.463     1.368  0.0699  0.9970  0.0341
              Bcc     0.0428     5.737     2.047     1.914  0.9975 -0.0696 -0.0091
 
              Baa    -0.0030    -1.588    -0.567    -0.530  0.0465  0.1579  0.9864
    29 H(1)   Bbb    -0.0023    -1.233    -0.440    -0.411  0.1226  0.9791 -0.1625
              Bcc     0.0053     2.821     1.007     0.941  0.9914 -0.1285 -0.0261
 
              Baa    -0.0020    -0.263    -0.094    -0.088  0.5272  0.8336 -0.1650
    30 C(13)  Bbb     0.0001     0.015     0.005     0.005  0.0376  0.1712  0.9845
              Bcc     0.0019     0.248     0.089     0.083  0.8489 -0.5252  0.0589
 
              Baa    -0.0014    -0.722    -0.258    -0.241  0.3595  0.3374  0.8700
    31 H(1)   Bbb    -0.0009    -0.491    -0.175    -0.164  0.1922  0.8855 -0.4229
              Bcc     0.0023     1.214     0.433     0.405  0.9131 -0.3193 -0.2535
 
              Baa    -0.0014    -0.742    -0.265    -0.248 -0.3311 -0.3187  0.8881
    32 H(1)   Bbb    -0.0009    -0.456    -0.163    -0.152  0.1712  0.9053  0.3887
              Bcc     0.0022     1.198     0.428     0.400  0.9279 -0.2808  0.2452
 
              Baa    -0.0010    -0.560    -0.200    -0.187  0.0270  0.0632  0.9976
    33 H(1)   Bbb    -0.0007    -0.375    -0.134    -0.125  0.6232  0.7792 -0.0662
              Bcc     0.0018     0.935     0.334     0.312  0.7816 -0.6235  0.0184
 
              Baa    -0.0035    -0.468    -0.167    -0.156  0.9575  0.2804 -0.0673
    34 C(13)  Bbb     0.0011     0.147     0.052     0.049 -0.2881  0.9400 -0.1825
              Bcc     0.0024     0.321     0.115     0.107  0.0121  0.1942  0.9809
 
              Baa    -0.0018    -0.984    -0.351    -0.328  0.5994  0.2783  0.7505
    35 H(1)   Bbb    -0.0010    -0.521    -0.186    -0.174  0.7963 -0.3031 -0.5235
              Bcc     0.0028     1.505     0.537     0.502  0.0818  0.9114 -0.4033
 
              Baa    -0.0018    -0.985    -0.351    -0.329 -0.6034 -0.1327  0.7863
    36 H(1)   Bbb    -0.0010    -0.511    -0.182    -0.170  0.7932 -0.2011  0.5748
              Bcc     0.0028     1.496     0.534     0.499  0.0819  0.9705  0.2266
 
              Baa    -0.0012    -0.620    -0.221    -0.207  0.0370  0.1012  0.9942
    37 H(1)   Bbb    -0.0011    -0.611    -0.218    -0.204  0.8622  0.4997 -0.0829
              Bcc     0.0023     1.231     0.439     0.411 -0.5052  0.8603 -0.0688
 
              Baa    -0.0011    -0.153    -0.054    -0.051 -0.2950  0.9159  0.2723
    38 C(13)  Bbb    -0.0007    -0.089    -0.032    -0.030  0.3864 -0.1463  0.9106
              Bcc     0.0018     0.242     0.086     0.081  0.8739  0.3738 -0.3108
 
              Baa    -0.0014    -0.729    -0.260    -0.243  0.2685 -0.1852  0.9453
    39 H(1)   Bbb    -0.0007    -0.350    -0.125    -0.117  0.0268  0.9824  0.1849
              Bcc     0.0020     1.080     0.385     0.360  0.9629  0.0243 -0.2688
 
              Baa    -0.0014    -0.763    -0.272    -0.255  0.3067 -0.1687  0.9367
    40 H(1)   Bbb     0.0003     0.144     0.051     0.048 -0.3696  0.8858  0.2806
              Bcc     0.0012     0.620     0.221     0.207  0.8771  0.4323 -0.2093
 
              Baa    -0.0012    -0.640    -0.228    -0.213 -0.1607  0.0615  0.9851
    41 H(1)   Bbb    -0.0005    -0.252    -0.090    -0.084 -0.1651  0.9823 -0.0882
              Bcc     0.0017     0.892     0.318     0.297  0.9731  0.1768  0.1478
 
              Baa    -0.0274    -3.674    -1.311    -1.226 -0.4896  0.1874  0.8516
    42 C(13)  Bbb     0.0098     1.321     0.471     0.441 -0.5157  0.7253 -0.4560
              Bcc     0.0175     2.353     0.840     0.785  0.7031  0.6624  0.2585
 
              Baa    -0.0023    -1.202    -0.429    -0.401 -0.1228  0.0542  0.9909
    43 H(1)   Bbb    -0.0010    -0.524    -0.187    -0.175  0.8886 -0.4387  0.1341
              Bcc     0.0032     1.726     0.616     0.576  0.4420  0.8970  0.0057
 
              Baa    -0.0341    -4.583    -1.635    -1.529  0.7444 -0.3868  0.5443
    44 C(13)  Bbb    -0.0317    -4.256    -1.519    -1.420  0.3720  0.9172  0.1429
              Bcc     0.0659     8.839     3.154     2.948 -0.5545  0.0961  0.8266
 
              Baa    -0.0030    -1.626    -0.580    -0.542  0.3761  0.8704  0.3178
    45 H(1)   Bbb    -0.0011    -0.570    -0.203    -0.190 -0.5021 -0.0968  0.8594
              Bcc     0.0041     2.196     0.784     0.733  0.7787 -0.4828  0.4007
 
              Baa    -0.0046    -2.431    -0.867    -0.811  0.8231 -0.1516  0.5474
    46 H(1)   Bbb    -0.0008    -0.412    -0.147    -0.137 -0.5146  0.2089  0.8316
              Bcc     0.0053     2.843     1.014     0.948  0.2404  0.9661 -0.0940
 
              Baa    -0.0009    -0.126    -0.045    -0.042 -0.5153 -0.1368  0.8460
    47 C(13)  Bbb    -0.0005    -0.071    -0.025    -0.024  0.7295  0.4481  0.5167
              Bcc     0.0015     0.197     0.070     0.066 -0.4498  0.8834 -0.1311
 
              Baa    -0.0010    -0.526    -0.188    -0.175 -0.0108 -0.2609  0.9653
    48 H(1)   Bbb    -0.0003    -0.150    -0.054    -0.050  0.9676  0.2408  0.0759
              Bcc     0.0013     0.676     0.241     0.226 -0.2523  0.9349  0.2498
 
              Baa    -0.0011    -0.599    -0.214    -0.200  0.1198  0.1543  0.9807
    49 H(1)   Bbb    -0.0005    -0.246    -0.088    -0.082  0.9846  0.1078 -0.1373
              Bcc     0.0016     0.845     0.301     0.282 -0.1269  0.9821 -0.1390
 
              Baa    -0.0012    -0.623    -0.222    -0.208  0.1689  0.1615  0.9723
    50 H(1)   Bbb     0.0003     0.163     0.058     0.054  0.8814  0.4167 -0.2223
              Bcc     0.0009     0.460     0.164     0.153 -0.4411  0.8946 -0.0719
 
              Baa    -0.0225    -3.016    -1.076    -1.006 -0.1840 -0.6095  0.7711
    51 C(13)  Bbb     0.0080     1.074     0.383     0.358  0.7330  0.4375  0.5208
              Bcc     0.0145     1.942     0.693     0.648 -0.6548  0.6611  0.3663
 
              Baa    -0.0019    -0.999    -0.356    -0.333 -0.0423 -0.2100  0.9768
    52 H(1)   Bbb    -0.0008    -0.420    -0.150    -0.140  0.4744  0.8562  0.2046
              Bcc     0.0027     1.419     0.507     0.473  0.8793 -0.4720 -0.0634
 
              Baa    -0.0281    -3.768    -1.345    -1.257  0.4043  0.6456  0.6479
    53 C(13)  Bbb    -0.0261    -3.500    -1.249    -1.167  0.9094 -0.3593 -0.2095
              Bcc     0.0542     7.268     2.594     2.424 -0.0975 -0.6739  0.7324
 
              Baa    -0.0025    -1.354    -0.483    -0.452  0.8684 -0.3146 -0.3833
    54 H(1)   Bbb    -0.0009    -0.463    -0.165    -0.155  0.1150 -0.6241  0.7729
              Bcc     0.0034     1.817     0.648     0.606  0.4823  0.7152  0.5058
 
              Baa    -0.0037    -2.001    -0.714    -0.667  0.1515  0.7241  0.6729
    55 H(1)   Bbb    -0.0006    -0.342    -0.122    -0.114 -0.2178 -0.6395  0.7373
              Bcc     0.0044     2.342     0.836     0.781  0.9642 -0.2582  0.0608
 
              Baa    -0.0028    -0.378    -0.135    -0.126 -0.3011  0.9510 -0.0702
    56 C(13)  Bbb     0.0007     0.096     0.034     0.032  0.8801  0.3054  0.3635
              Bcc     0.0021     0.282     0.101     0.094 -0.3671 -0.0476  0.9290
 
              Baa    -0.0015    -0.822    -0.293    -0.274  0.2406 -0.5418  0.8053
    57 H(1)   Bbb    -0.0006    -0.342    -0.122    -0.114  0.2162  0.8388  0.4997
              Bcc     0.0022     1.164     0.415     0.388  0.9462 -0.0539 -0.3190
 
              Baa    -0.0015    -0.791    -0.282    -0.264 -0.2417  0.4796  0.8436
    58 H(1)   Bbb    -0.0008    -0.435    -0.155    -0.145  0.2083  0.8747 -0.4376
              Bcc     0.0023     1.226     0.438     0.409  0.9477 -0.0700  0.3113
 
              Baa    -0.0010    -0.534    -0.190    -0.178  0.2902 -0.4334  0.8532
    59 H(1)   Bbb    -0.0009    -0.491    -0.175    -0.164 -0.4372  0.7330  0.5211
              Bcc     0.0019     1.025     0.366     0.342  0.8512  0.5242 -0.0233
 
              Baa    -0.0014    -0.184    -0.066    -0.061  0.8263 -0.5569  0.0840
    60 C(13)  Bbb    -0.0002    -0.027    -0.010    -0.009 -0.0940  0.0107  0.9955
              Bcc     0.0016     0.211     0.075     0.070  0.5553  0.8305  0.0435
 
              Baa    -0.0011    -0.583    -0.208    -0.195 -0.1240  0.3784  0.9173
    61 H(1)   Bbb    -0.0007    -0.348    -0.124    -0.116  0.9265 -0.2868  0.2436
              Bcc     0.0017     0.932     0.332     0.311  0.3552  0.8801 -0.3150
 
              Baa    -0.0009    -0.459    -0.164    -0.153  0.0666  0.0441  0.9968
    62 H(1)   Bbb    -0.0005    -0.261    -0.093    -0.087  0.7825 -0.6221 -0.0247
              Bcc     0.0014     0.721     0.257     0.240  0.6190  0.7817 -0.0759
 
              Baa    -0.0011    -0.593    -0.211    -0.198  0.2209 -0.2469  0.9435
    63 H(1)   Bbb    -0.0006    -0.343    -0.122    -0.114  0.8997 -0.3220 -0.2948
              Bcc     0.0018     0.935     0.334     0.312  0.3766  0.9140  0.1510
 
              Baa    -0.0003    -0.043    -0.015    -0.014 -0.4496  0.8849  0.1219
    64 C(13)  Bbb    -0.0003    -0.042    -0.015    -0.014  0.8712  0.4645 -0.1586
              Bcc     0.0006     0.085     0.030     0.028  0.1970 -0.0349  0.9798
 
              Baa    -0.0003    -0.152    -0.054    -0.051 -0.1254  0.9917 -0.0268
    65 H(1)   Bbb    -0.0003    -0.146    -0.052    -0.049  0.9758  0.1184 -0.1839
              Bcc     0.0006     0.298     0.106     0.100  0.1792  0.0493  0.9826
 
              Baa    -0.0003    -0.183    -0.065    -0.061  0.9540 -0.0441 -0.2965
    66 H(1)   Bbb    -0.0003    -0.170    -0.061    -0.057  0.0562  0.9979  0.0325
              Bcc     0.0007     0.353     0.126     0.118  0.2945 -0.0477  0.9545
 
              Baa    -0.0003    -0.153    -0.055    -0.051  0.1196  0.9882  0.0954
    67 H(1)   Bbb    -0.0003    -0.146    -0.052    -0.049  0.9793 -0.1017 -0.1750
              Bcc     0.0006     0.298     0.106     0.100  0.1632 -0.1144  0.9799
 
              Baa    -0.0016    -0.062    -0.022    -0.021  0.9981 -0.0599  0.0169
    68 N(14)  Bbb    -0.0003    -0.013    -0.005    -0.004 -0.0147  0.0356  0.9993
              Bcc     0.0019     0.075     0.027     0.025  0.0604  0.9976 -0.0347
 
              Baa    -0.0005    -0.256    -0.091    -0.085  0.9700 -0.2076  0.1264
    69 H(1)   Bbb    -0.0004    -0.205    -0.073    -0.068  0.2051  0.9782  0.0325
              Bcc     0.0009     0.461     0.164     0.154 -0.1304 -0.0056  0.9914
 
              Baa    -0.0006    -0.077    -0.028    -0.026  0.0349  0.9988  0.0336
    70 C(13)  Bbb    -0.0003    -0.044    -0.016    -0.015  0.9836 -0.0284 -0.1780
              Bcc     0.0009     0.121     0.043     0.040  0.1769 -0.0392  0.9835
 
              Baa    -0.0014    -0.184    -0.066    -0.062  0.3096  0.9503  0.0329
    71 C(13)  Bbb    -0.0004    -0.056    -0.020    -0.019  0.9476 -0.3055 -0.0936
              Bcc     0.0018     0.241     0.086     0.080  0.0789 -0.0601  0.9951
 
              Baa    -0.0019    -0.995    -0.355    -0.332  0.9775 -0.2089  0.0305
    72 H(1)   Bbb     0.0001     0.033     0.012     0.011  0.2111  0.9683 -0.1333
              Bcc     0.0018     0.962     0.343     0.321 -0.0017  0.1368  0.9906
 
              Baa    -0.0017    -0.066    -0.024    -0.022 -0.1121  0.0635  0.9917
    73 N(14)  Bbb    -0.0001    -0.003    -0.001    -0.001  0.9690 -0.2141  0.1232
              Bcc     0.0018     0.070     0.025     0.023  0.2201  0.9747 -0.0375
 
              Baa    -0.0008    -0.101    -0.036    -0.034  0.9587 -0.1437 -0.2456
    74 C(13)  Bbb    -0.0001    -0.008    -0.003    -0.003  0.1761  0.9776  0.1155
              Bcc     0.0008     0.109     0.039     0.036  0.2235 -0.1539  0.9625
 
              Baa    -0.0008    -0.452    -0.161    -0.151  0.9714 -0.1437 -0.1892
    75 H(1)   Bbb    -0.0001    -0.028    -0.010    -0.009  0.1620  0.9831  0.0854
              Bcc     0.0009     0.480     0.171     0.160  0.1738 -0.1136  0.9782
 

 ---------------------------------------------------------------------------------

 Unable to Open any file for archive entry.
 1\1\GINC-BGN1035\SP\UAPFD\Gen\C34H34Fe1N6(1+,2)\BECSLEIP\09-Sep-2024\0
 \\# apfd/gen scf=maxcycle=999 geom=check\\2xm0_III_D\\1,2\Fe,0,6.64218
 01429,39.2814636872,21.746638601\N,0,7.3659159894,38.1007190638,20.303
 3748483\N,0,7.2272576531,37.9149747123,23.1101148392\N,0,5.6684677021,
 40.2522391201,23.1939392748\N,0,5.7411466623,40.4046929223,20.36605226
 32\C,0,7.3127678574,38.332962786,18.9596876344\C,0,7.9782925775,37.279
 1434895,18.2270531278\C,0,8.3740239041,36.3652322081,19.1524114547\C,0
 ,7.9979905569,36.9027867169,20.4409052698\C,0,7.927370456,36.768743716
 8,22.8819069997\C,0,8.1999811372,36.0750601545,24.1210160335\C,0,7.724
 4374487,36.8716120674,25.115308592\C,0,7.0609605546,37.9773086831,24.4
 608487707\C,0,5.690536282,40.0026653026,24.5307495684\C,0,4.9259152594
 ,40.9967107909,25.2566254744\C,0,4.3948547297,41.8294526036,24.3085978
 492\C,0,4.8498021631,41.3342920502,23.0344578938\C,0,4.962278639,41.49
 93345538,20.5881221876\C,0,4.7175220194,42.219131165,19.3543826103\C,0
 ,5.3635898641,41.5151587547,18.3726977583\C,0,5.9571798538,40.37449466
 28,19.0185865781\C,0,6.7013811912,39.4132432519,18.3566904841\H,0,6.77
 04471538,39.4870654653,17.2819513383\C,0,8.2695265524,36.2738357224,21
 .6396291556\H,0,8.788482984,35.3285252338,21.6027126947\C,0,6.39733294
 48,38.9815028558,25.1377762317\H,0,6.3521172479,38.9100657387,26.21373
 56049\C,0,4.5438769008,41.9372654071,21.8285227533\H,0,3.9009302336,42
 .8034451086,21.8589077682\C,0,8.1134154969,37.2414464888,16.7433370192
 \H,0,8.6581368663,38.1154436205,16.3847913897\H,0,7.1320253566,37.2364
 26297,16.268579568\H,0,8.6505989932,36.3507137988,16.4272199192\C,0,9.
 0793689901,35.0673297862,18.9576903609\H,0,8.4934742043,34.2487517343,
 19.375468198\H,0,10.0491144859,35.0782128953,19.4561216334\H,0,9.23926
 3822,34.8686814406,17.900820432\C,0,5.4910472724,41.8462742267,16.9264
 785136\H,0,6.48061392,41.5849177709,16.5541772907\H,0,5.3306328448,42.
 9116971841,16.7736076525\H,0,4.7537169246,41.3000142701,16.335980539\C
 ,0,3.9585973016,43.4464943488,19.2498439383\H,0,4.0136451959,44.107042
 7833,20.1073036316\C,0,3.2140191176,43.804421837,18.208928015\H,0,3.08
 31116097,43.1674646545,17.3518280787\H,0,2.6824932794,44.7414600659,18
 .1925473316\C,0,3.5665238197,43.0499271819,24.5089184997\H,0,2.5113258
 457,42.8373756628,24.3305680639\H,0,3.8712433241,43.8402626939,23.8244
 203179\H,0,3.6772567899,43.411640865,25.5290153252\C,0,4.7920131818,41
 .0434645739,26.6968594245\H,0,5.6610019782,40.7208444458,27.2591113145
 \C,0,3.7079243521,41.436553289,27.3569114377\H,0,2.8012237647,41.71960
 9082,26.8514578975\H,0,3.681730468,41.4609495759,28.4337745886\C,0,7.7
 48264237,36.6598034906,26.5900216769\H,0,6.7363060735,36.5435783858,26
 .97857872\H,0,8.20704527,37.5123001843,27.0912903505\H,0,8.3166097546,
 35.7687696317,26.8426327831\C,0,8.9307100247,34.7800573315,24.21580245
 32\H,0,8.3994886068,34.002547494,23.6668324155\H,0,9.0230761083,34.463
 7154599,25.2515149624\H,0,9.9314343259,34.8699757796,23.7924357226\C,0
 ,10.9895457429,42.2578647059,23.5728258814\H,0,11.9913922312,41.898455
 0926,23.3385839908\H,0,10.7784480491,42.0445950326,24.6158557477\H,0,1
 0.9716887691,43.3375322455,23.4262435955\N,0,9.982588866,41.6994211716
 ,21.349106969\H,0,10.6473369458,42.2223962328,20.8029237326\C,0,9.9768
 805475,41.5927096354,22.714812205\C,0,8.9384985761,40.9814884395,20.87
 61589135\H,0,8.6962622695,40.8853270966,19.8368538663\N,0,8.2693950526
 ,40.4249261999,21.8604186795\C,0,8.9069996804,40.7979681504,23.0112905
 524\H,0,8.5529430023,40.4700196717,23.9676527415\\Version=ES64L-G16Rev
 C.02\State=2-A\HF=-2906.8096715\S2=0.789409\S2-1=0.\S2A=0.751383\RMSD=
 9.809e-09\Dipole=1.5782184,0.8832461,-0.4447464\Quadrupole=-11.4241588
 ,-1.1077668,12.5319256,-12.840815,-3.4836108,-3.1771151\PG=C01 [X(C34H
 34Fe1N6)]\\@
 The archive entry for this job was punched.


 FIREWORKS ENDED
 AND SPECTATORS GONE AWAY....
 AH, HOW VAST AND DARK
                     SHIKI
 Job cpu time:       0 days  6 hours 56 minutes 51.1 seconds.
 Elapsed time:       0 days  0 hours  7 minutes  9.6 seconds.
 File lengths (MBytes):  RWF=    408 Int=      0 D2E=      0 Chk=    150 Scr=      1
 Normal termination of Gaussian 16 at Mon Sep  9 14:27:38 2024.
