 Entering Gaussian System, Link 0=g16
 Input=2xvx05.com
 Output=2xvx05.log
 Initial command:
 /sw/chem/gaussian/g16_C02/a100/g16/l1.exe "/local/becsleip_8009868/Gau-3993623.inp" -scrdir="/local/becsleip_8009868/"
 Entering Link 1 = /sw/chem/gaussian/g16_C02/a100/g16/l1.exe PID=   3993624.
  
 Copyright (c) 1988-2021, Gaussian, Inc.  All Rights Reserved.
  
 This is part of the Gaussian(R) 16 program.  It is based on
 the Gaussian(R) 09 system (copyright 2009, Gaussian, Inc.),
 the Gaussian(R) 03 system (copyright 2003, Gaussian, Inc.),
 the Gaussian(R) 98 system (copyright 1998, Gaussian, Inc.),
 the Gaussian(R) 94 system (copyright 1995, Gaussian, Inc.),
 the Gaussian 92(TM) system (copyright 1992, Gaussian, Inc.),
 the Gaussian 90(TM) system (copyright 1990, Gaussian, Inc.),
 the Gaussian 88(TM) system (copyright 1988, Gaussian, Inc.),
 the Gaussian 86(TM) system (copyright 1986, Carnegie Mellon
 University), and the Gaussian 82(TM) system (copyright 1983,
 Carnegie Mellon University). Gaussian is a federally registered
 trademark of Gaussian, Inc.
  
 This software contains proprietary and confidential information,
 including trade secrets, belonging to Gaussian, Inc.
  
 This software is provided under written license and may be
 used, copied, transmitted, or stored only in accord with that
 written license.
  
 The following legend is applicable only to US Government
 contracts under FAR:
  
                    RESTRICTED RIGHTS LEGEND
  
 Use, reproduction and disclosure by the US Government is
 subject to restrictions as set forth in subparagraphs (a)
 and (c) of the Commercial Computer Software - Restricted
 Rights clause in FAR 52.227-19.
  
 Gaussian, Inc.
 340 Quinnipiac St., Bldg. 40, Wallingford CT 06492
  
  
 ---------------------------------------------------------------
 Warning -- This program may not be used in any manner that
 competes with the business of Gaussian, Inc. or will provide
 assistance to any competitor of Gaussian, Inc.  The licensee
 of this program is prohibited from giving any competitor of
 Gaussian, Inc. access to this program.  By using this program,
 the user acknowledges that Gaussian, Inc. is engaged in the
 business of creating and licensing software in the field of
 computational chemistry and represents and warrants to the
 licensee that it is not a competitor of Gaussian, Inc. and that
 it will not use this program in any manner prohibited above.
 ---------------------------------------------------------------
  

 Cite this work as:
 Gaussian 16, Revision C.02,
 M. J. Frisch, G. W. Trucks, H. B. Schlegel, G. E. Scuseria, 
 M. A. Robb, J. R. Cheeseman, G. Scalmani, V. Barone, 
 G. A. Petersson, H. Nakatsuji, X. Li, M. Caricato, A. V. Marenich, 
 J. Bloino, B. G. Janesko, R. Gomperts, B. Mennucci, H. P. Hratchian, 
 J. V. Ortiz, A. F. Izmaylov, J. L. Sonnenberg, D. Williams-Young, 
 F. Ding, F. Lipparini, F. Egidi, J. Goings, B. Peng, A. Petrone, 
 T. Henderson, D. Ranasinghe, V. G. Zakrzewski, J. Gao, N. Rega, 
 G. Zheng, W. Liang, M. Hada, M. Ehara, K. Toyota, R. Fukuda, 
 J. Hasegawa, M. Ishida, T. Nakajima, Y. Honda, O. Kitao, H. Nakai, 
 T. Vreven, K. Throssell, J. A. Montgomery, Jr., J. E. Peralta, 
 F. Ogliaro, M. J. Bearpark, J. J. Heyd, E. N. Brothers, K. N. Kudin, 
 V. N. Staroverov, T. A. Keith, R. Kobayashi, J. Normand, 
 K. Raghavachari, A. P. Rendell, J. C. Burant, S. S. Iyengar, 
 J. Tomasi, M. Cossi, J. M. Millam, M. Klene, C. Adamo, R. Cammi, 
 J. W. Ochterski, R. L. Martin, K. Morokuma, O. Farkas, 
 J. B. Foresman, and D. J. Fox, Gaussian, Inc., Wallingford CT, 2019.
 
 ******************************************
 Gaussian 16:  ES64L-G16RevC.02  7-Dec-2021
                 9-Sep-2024 
 ******************************************
 %mem=16GB
 %CPU=0-71
 SetSPE:  set environment variable "OMP_PROC_BIND" = "true"
 SetSPE:  set environment variable "OMP_PLACES" = "{0},{1},{2},{3},{4},{5},{6},{7},{8},{9},{10},{11},{12},{13},{14},{15},{16},{17},{18},{19},{20},{21},{22},{23},{24},{25},{26},{27},{28},{29},{30},{31},{32},{33},{34},{35},{36},{37},{38},{39},{40},{41},{42},{43},{44},{45},{46},{47},{48},{49},{50},{51},{52},{53},{54},{55},{56},{57},{58},{59},{60},{61},{62},{63},{64},{65},{66},{67},{68},{69},{70},{71}"
 Will use up to   72 processors via shared memory.
 %gpucpu=0,1,2,3=0,1,2,3
 Will use    4 GPUs:
 Thread  CPU   GPU
      0    0     0
      1    1     1
      2    2     2
      3    3     3
      4    4    -1
      5    5    -1
      6    6    -1
      7    7    -1
      8    8    -1
      9    9    -1
     10   10    -1
     11   11    -1
     12   12    -1
     13   13    -1
     14   14    -1
     15   15    -1
     16   16    -1
     17   17    -1
     18   18    -1
     19   19    -1
     20   20    -1
     21   21    -1
     22   22    -1
     23   23    -1
     24   24    -1
     25   25    -1
     26   26    -1
     27   27    -1
     28   28    -1
     29   29    -1
     30   30    -1
     31   31    -1
     32   32    -1
     33   33    -1
     34   34    -1
     35   35    -1
     36   36    -1
     37   37    -1
     38   38    -1
     39   39    -1
     40   40    -1
     41   41    -1
     42   42    -1
     43   43    -1
     44   44    -1
     45   45    -1
     46   46    -1
     47   47    -1
     48   48    -1
     49   49    -1
     50   50    -1
     51   51    -1
     52   52    -1
     53   53    -1
     54   54    -1
     55   55    -1
     56   56    -1
     57   57    -1
     58   58    -1
     59   59    -1
     60   60    -1
     61   61    -1
     62   62    -1
     63   63    -1
     64   64    -1
     65   65    -1
     66   66    -1
     67   67    -1
     68   68    -1
     69   69    -1
     70   70    -1
     71   71    -1
 SetGPE:  set environment variable "OMP_PROC_BIND" = "true"
 SetGPE:  set environment variable "OMP_PLACES" = "{0},{1},{2},{3},{4},{5},{6},{7},{8},{9},{10},{11},{12},{13},{14},{15},{16},{17},{18},{19},{20},{21},{22},{23},{24},{25},{26},{27},{28},{29},{30},{31},{32},{33},{34},{35},{36},{37},{38},{39},{40},{41},{42},{43},{44},{45},{46},{47},{48},{49},{50},{51},{52},{53},{54},{55},{56},{57},{58},{59},{60},{61},{62},{63},{64},{65},{66},{67},{68},{69},{70},{71}"
 %oldchk=2xvx_II_Sre.chk
 %chk=2xvx_II_Qn.chk
 Properties for Device   0
 Minimum vector length:                              32
 Maximum vector length:                            1024
 Number of SMPs:                                    108
 Maximum number of threads per SMP:                2048
 Number of ASync Engines:                             5
 Memory:                                           9207742464
 Properties for Device   1
 Minimum vector length:                              32
 Maximum vector length:                            1024
 Number of SMPs:                                    108
 Maximum number of threads per SMP:                2048
 Number of ASync Engines:                             5
 Memory:                                           9207742464
 Properties for Device   2
 Minimum vector length:                              32
 Maximum vector length:                            1024
 Number of SMPs:                                    108
 Maximum number of threads per SMP:                2048
 Number of ASync Engines:                             5
 Memory:                                           9207742464
 Properties for Device   3
 Minimum vector length:                              32
 Maximum vector length:                            1024
 Number of SMPs:                                    108
 Maximum number of threads per SMP:                2048
 Number of ASync Engines:                             5
 Memory:                                           9207742464
   8286968217 words of memory will be used on each GPU.
 Copying data from "2xvx_II_Sre.chk" to current chk file "2xvx_II_Qn.chk"
 IOpt=  2 FromEx=T IUOpen= 4 IOptOp= 5 NList=   0 IFRang= 0 IUIn= 4 IUOut= 2.
 --------------------------------------------------------------
 # apfd/def2TZVP guess=read scf=maxcycle=999 geom=check pop=nbo
 --------------------------------------------------------------
 1/29=2,38=1,172=1/1;
 2/12=2,40=1/2;
 3/5=44,7=101,11=2,14=-4,25=1,30=1,74=-44,116=-2/1,2,3;
 4/5=1/1;
 5/5=2,7=999,38=6/2;
 6/7=2,8=2,9=2,10=2,28=1,40=1/1,7;
 99/5=1,9=1/99;
 ---------
 2xvx_II_Q
 ---------
 Structure from the checkpoint file:  "2xvx_II_Qn.chk"
 Charge =  0 Multiplicity = 5
 Z-Matrix found in chk file.
 Fe,0,-0.2723245627,44.6310228087,0.0065229211
 N,0,1.6784895473,44.7341540548,0.5982181484
 N,0,-0.095486285,42.6303747796,0.0088656763
 N,0,-2.1485862049,44.5005844431,-0.5533056801
 N,0,-0.2909426221,46.617911094,-0.0429958882
 C,0,2.4607817271,45.8506889798,0.6174617345
 C,0,3.845152333,45.5115251078,0.856895789
 C,0,3.8894994303,44.158674159,0.9777764485
 C,0,2.5333883421,43.692689971,0.7963928607
 C,0,0.9519474101,41.8674868366,0.4272111299
 C,0,0.639949119,40.46442169,0.3377074714
 C,0,-0.6273035284,40.3858566508,-0.1749323186
 C,0,-1.0713758664,41.75327513,-0.3591859864
 C,0,-2.774433481,43.3881775006,-1.0279606751
 C,0,-3.9946833481,43.7351592666,-1.7028838658
 C,0,-4.1170870694,45.0955395844,-1.6071223403
 C,0,-2.9317111086,45.5549766228,-0.9122752234
 C,0,-1.4083785573,47.3691496331,-0.2675803088
 C,0,-1.0990368248,48.7791282113,-0.1742287945
 C,0,0.2314375606,48.8616920645,0.0944803687
 C,0,0.7145328886,47.5017218327,0.1818280041
 C,0,2.0190032848,47.1511400617,0.4616428701
 H,0,2.7458677471,47.9429658835,0.558181364
 C,0,2.1829444274,42.3581573235,0.8238868302
 H,0,2.9530133901,41.645854685,1.0751025428
 C,0,-2.3067820966,42.0950486588,-0.8744764155
 H,0,-2.9411588427,41.2950068669,-1.2222423364
 C,0,-2.6492034052,46.8828257286,-0.6380178012
 H,0,-3.4037710448,47.6106642398,-0.8913578967
 C,0,5.0596440031,43.2693706198,1.2222369743
 H,0,4.912481387,42.6749835319,2.1242845354
 H,0,5.9687447562,43.8532143798,1.3429359339
 H,0,5.1998527688,42.5851341865,0.3853960458
 C,0,4.9496321601,46.505887997,0.9620690866
 H,0,4.7527715401,47.2089343187,1.7717894772
 H,0,5.0469027495,47.0735435453,0.0368655923
 H,0,5.8966037335,46.0109112009,1.1623392331
 C,0,1.5582381713,39.3577337664,0.7239098322
 H,0,2.1374064065,39.6201823246,1.6078061974
 H,0,2.2585398114,39.1443599176,-0.0860253893
 H,0,0.9904896455,38.4531618577,0.9315371367
 C,0,-1.4221216197,39.2180873061,-0.4882922979
 H,0,-2.4898270562,39.3253048082,-0.3376042881
 C,0,-0.9500730157,38.0662431734,-0.9531153557
 H,0,0.0932691022,37.9184682957,-1.1705517155
 H,0,-1.603663112,37.2357916228,-1.1622389422
 C,0,-4.9415784051,42.7615292609,-2.3138573115
 H,0,-5.3527804087,42.0987446818,-1.5514310659
 H,0,-4.4355053509,42.1458530757,-3.0575609768
 H,0,-5.7677582136,43.2817181232,-2.7920541822
 C,0,-5.2226881731,45.8945125179,-2.102433571
 H,0,-5.6015910569,45.603787385,-3.0766644411
 C,0,-5.8213885027,46.8815829026,-1.4477781625
 H,0,-5.5235568881,47.1734715093,-0.454681732
 H,0,-6.6524096789,47.4186564297,-1.8737700226
 C,0,-2.0931160549,49.8719494689,-0.3661089049
 H,0,-2.9242724817,49.7634424568,0.3304274488
 H,0,-2.4973324565,49.8483935509,-1.3781736145
 H,0,-1.6339869787,50.8439068125,-0.2037269713
 C,0,1.0900814014,50.0683748304,0.2544277684
 H,0,0.5067806369,50.977235016,0.1292981561
 H,0,1.8864838348,50.0673776211,-0.489290598
 H,0,1.5500801417,50.0870542171,1.2423162589
 C,0,-2.435958231,45.9046697013,5.0335746092
 H,0,-1.7506461327,46.1617196523,5.8415238269
 H,0,-3.2119749132,45.2540843805,5.4377766359
 H,0,-2.9024537039,46.8149850091,4.6687604276
 N,0,-0.9188656287,44.1369902347,4.1042340629
 H,0,-0.7549022559,43.6670052821,4.9800808703
 C,0,-1.7109240746,45.2405168678,3.9210278812
 C,0,-0.4030089047,43.7981871771,2.902205791
 H,0,0.2587280014,42.9689121002,2.750903141
 N,0,-0.8194340252,44.6186734665,1.9649442665
 C,0,-1.6373658786,45.5200982354,2.5864282024
 H,0,-2.1152894093,46.305381312,2.0366515223
 Recover connectivity data from disk.
 Stoichiometry    C34H34FeN6(5)
 Framework group  C1[X(C34H34FeN6)]
 Deg. of freedom   219
 Full point group                 C1      NOp   1
 Largest Abelian subgroup         C1      NOp   1
 Largest concise Abelian subgroup C1      NOp   1
                         Standard orientation:                         
 ---------------------------------------------------------------------
 Center     Atomic      Atomic             Coordinates (Angstroms)
 Number     Number       Type             X           Y           Z
 ---------------------------------------------------------------------
      1         26           0        0.006636    0.090419   -0.393734
      2          7           0        0.707512    2.007197   -0.427689
      3          7           0        1.914179   -0.532531   -0.309571
      4          7           0       -0.638198   -1.762436   -0.350161
      5          7           0       -1.829308    0.831290   -0.569639
      6          6           0       -0.012203    3.127358   -0.721372
      7          6           0        0.853505    4.272454   -0.889148
      8          6           0        2.121041    3.822056   -0.696069
      9          6           0        2.009619    2.406306   -0.427155
     10          6           0        3.048304    0.209253   -0.176730
     11          6           0        4.210651   -0.634577   -0.072598
     12          6           0        3.758478   -1.923226   -0.171724
     13          6           0        2.317918   -1.834108   -0.305240
     14          6           0        0.112067   -2.883419   -0.537060
     15          6           0       -0.722321   -4.015166   -0.833491
     16          6           0       -2.014530   -3.563850   -0.797498
     17          6           0       -1.933609   -2.142994   -0.526151
     18          6           0       -2.968681    0.083019   -0.496301
     19          6           0       -4.138193    0.928395   -0.596439
     20          6           0       -3.679325    2.199404   -0.748628
     21          6           0       -2.236064    2.117651   -0.719552
     22          6           0       -1.388666    3.201095   -0.824012
     23          1           0       -1.827093    4.170368   -1.005476
     24          6           0        3.100850    1.591249   -0.204796
     25          1           0        4.070504    2.060622   -0.150464
     26          6           0        1.491757   -2.932516   -0.444954
     27          1           0        1.959092   -3.900941   -0.529761
     28          6           0       -3.027518   -1.297857   -0.440611
     29          1           0       -4.005526   -1.748355   -0.502699
     30          6           0        3.409009    4.568563   -0.757095
     31          1           0        3.950647    4.483905    0.185298
     32          1           0        3.234202    5.622864   -0.956589
     33          1           0        4.043425    4.170117   -1.548864
     34          6           0        0.376770    5.651499   -1.190231
     35          1           0       -0.298619    5.999733   -0.408400
     36          1           0       -0.161123    5.675333   -2.137754
     37          1           0        1.212741    6.343698   -1.252510
     38          6           0        5.608438   -0.148498    0.091975
     39          1           0        5.644982    0.726038    0.739615
     40          1           0        6.030230    0.131371   -0.875347
     41          1           0        6.230360   -0.930692    0.522190
     42          6           0        4.503154   -3.163637   -0.150445
     43          1           0        3.996968   -4.004802    0.308264
     44          6           0        5.718503   -3.342040   -0.657135
     45          1           0        6.248544   -2.558125   -1.169203
     46          1           0        6.214411   -4.296831   -0.602252
     47          6           0       -0.232802   -5.402913   -1.062368
     48          1           0        0.260510   -5.786265   -0.168305
     49          1           0        0.486787   -5.428174   -1.880791
     50          1           0       -1.061107   -6.064774   -1.302563
     51          6           0       -3.209013   -4.365610   -0.988383
     52          1           0       -3.146746   -5.104422   -1.780528
     53          6           0       -4.311231   -4.303667   -0.251767
     54          1           0       -4.405086   -3.629178    0.582738
     55          1           0       -5.153881   -4.947301   -0.442003
     56          6           0       -5.541416    0.430104   -0.552401
     57          1           0       -5.725115   -0.123152    0.368426
     58          1           0       -5.736746   -0.238407   -1.390947
     59          1           0       -6.245950    1.256534   -0.602532
     60          6           0       -4.443851    3.463796   -0.937700
     61          1           0       -5.513882    3.271597   -0.941891
     62          1           0       -4.175848    3.929920   -1.885475
     63          1           0       -4.223697    4.171577   -0.138670
     64          6           0       -1.713187    0.232299    4.953865
     65          1           0       -1.634727    1.173962    5.497579
     66          1           0       -1.394381   -0.572557    5.616747
     67          1           0       -2.753035    0.069369    4.686375
     68          7           0        0.448497    0.582258    3.731333
     69          1           0        0.995649    0.808584    4.546366
     70          6           0       -0.885251    0.266476    3.721840
     71          6           0        0.890626    0.533720    2.455428
     72          1           0        1.901925    0.741001    2.167687
     73          7           0       -0.080686    0.205342    1.634582
     74          6           0       -1.191665    0.033234    2.411709
     75          1           0       -2.131914   -0.244475    1.980265
 ---------------------------------------------------------------------
 Rotational constants (GHZ):           0.0980115           0.0909235           0.0600621
 Standard basis: def2TZVP (5D, 7F)
 There are  1696 symmetry adapted cartesian basis functions of A   symmetry.
 There are  1489 symmetry adapted basis functions of A   symmetry.
  1489 basis functions,  2414 primitive gaussians,  1696 cartesian basis functions
   155 alpha electrons      151 beta electrons
       nuclear repulsion energy      5584.8424500140 Hartrees.
 NAtoms=   75 NActive=   75 NUniq=   75 SFac= 1.00D+00 NAtFMM=   60 NAOKFM=T Big=T
 Integral buffers will be    131072 words long.
 Raffenetti 2 integral format.
 Two-electron integral symmetry is turned on.
 R6APFD:  NTU= -4 IXU= 1 FactS= 1.050
 Nuclear repulsion after empirical dispersion term =     5584.7073189948 Hartrees.
 One-electron integrals computed using PRISM.
   1 Symmetry operations used in ECPInt.
 ECPInt:  NShTT=  174936 NPrTT=  542361 LenC2=  137765 LenP2D=  282961.
 LDataN:  DoStor=T MaxTD1= 6 Len=  172
 Number of processors reduced to  23 by ecpmxn.
 NBasis=  1489 RedAO= T EigKep=  3.33D-06  NBF=  1489
 NBsUse=  1489 1.00D-06 EigRej= -1.00D+00 NBFU=  1489
 Initial guess from the checkpoint file:  "2xvx_II_Qn.chk"
 B after Tr=     0.000000   -0.000000   -0.000000
         Rot=    1.000000    0.000000    0.000000   -0.000000 Ang=   0.00 deg.
 Initial guess <Sx>= 0.0000 <Sy>= 0.0000 <Sz>= 2.0000 <S**2>= 6.0838 S= 2.0167
 Requested convergence on RMS density matrix=1.00D-08 within 999 cycles.
 Requested convergence on MAX density matrix=1.00D-06.
 Requested convergence on             energy=1.00D-06.
 No special actions if energy rises.
 Restarting incremental Fock formation.
 Restarting incremental Fock formation.
 SCF Done:  E(UAPFD) =  -2907.59746644     A.U. after   49 cycles
            NFock= 49  Conv=0.60D-09     -V/T= 2.0031
 <Sx>= 0.0000 <Sy>= 0.0000 <Sz>= 2.0000 <S**2>= 6.0874 S= 2.0174
 <L.S>=  0.00000000000    
 Annihilation of the first spin contaminant:
 S**2 before annihilation     6.0874,   after     6.0004

 **********************************************************************

            Population analysis using the SCF Density.

 **********************************************************************

 Orbital symmetries:
 Alpha Orbitals:
       Occupied  (A) (A) (A) (A) (A) (A) (A) (A) (A) (A) (A) (A)
                 (A) (A) (A) (A) (A) (A) (A) (A) (A) (A) (A) (A)
                 (A) (A) (A) (A) (A) (A) (A) (A) (A) (A) (A) (A)
                 (A) (A) (A) (A) (A) (A) (A) (A) (A) (A) (A) (A)
                 (A) (A) (A) (A) (A) (A) (A) (A) (A) (A) (A) (A)
                 (A) (A) (A) (A) (A) (A) (A) (A) (A) (A) (A) (A)
                 (A) (A) (A) (A) (A) (A) (A) (A) (A) (A) (A) (A)
                 (A) (A) (A) (A) (A) (A) (A) (A) (A) (A) (A) (A)
                 (A) (A) (A) (A) (A) (A) (A) (A) (A) (A) (A) (A)
                 (A) (A) (A) (A) (A) (A) (A) (A) (A) (A) (A) (A)
                 (A) (A) (A) (A) (A) (A) (A) (A) (A) (A) (A) (A)
                 (A) (A) (A) (A) (A) (A) (A) (A) (A) (A) (A) (A)
                 (A) (A) (A) (A) (A) (A) (A) (A) (A) (A) (A)
       Virtual   (A) (A) (A) (A) (A) (A) (A) (A) (A) (A) (A) (A)
                 (A) (A) (A) (A) (A) (A) (A) (A) (A) (A) (A) (A)
                 (A) (A) (A) (A) (A) (A) (A) (A) (A) (A) (A) (A)
                 (A) (A) (A) (A) (A) (A) (A) (A) (A) (A) (A) (A)
                 (A) (A) (A) (A) (A) (A) (A) (A) (A) (A) (A) (A)
                 (A) (A) (A) (A) (A) (A) (A) (A) (A) (A) (A) (A)
                 (A) (A) (A) (A) (A) (A) (A) (A) (A) (A) (A) (A)
                 (A) (A) (A) (A) (A) (A) (A) (A) (A) (A) (A) (A)
                 (A) (A) (A) (A) (A) (A) (A) (A) (A) (A) (A) (A)
                 (A) (A) (A) (A) (A) (A) (A) (A) (A) (A) (A) (A)
                 (A) (A) (A) (A) (A) (A) (A) (A) (A) (A) (A) (A)
                 (A) (A) (A) (A) (A) (A) (A) (A) (A) (A) (A) (A)
                 (A) (A) (A) (A) (A) (A) (A) (A) (A) (A) (A) (A)
                 (A) (A) (A) (A) (A) (A) (A) (A) (A) (A) (A) (A)
                 (A) (A) (A) (A) (A) (A) (A) (A) (A) (A) (A) (A)
                 (A) (A) (A) (A) (A) (A) (A) (A) (A) (A) (A) (A)
                 (A) (A) (A) (A) (A) (A) (A) (A) (A) (A) (A) (A)
                 (A) (A) (A) (A) (A) (A) (A) (A) (A) (A) (A) (A)
                 (A) (A) (A) (A) (A) (A) (A) (A) (A) (A) (A) (A)
                 (A) (A) (A) (A) (A) (A) (A) (A) (A) (A) (A) (A)
                 (A) (A) (A) (A) (A) (A) (A) (A) (A) (A) (A) (A)
                 (A) (A) (A) (A) (A) (A) (A) (A) (A) (A) (A) (A)
                 (A) (A) (A) (A) (A) (A) (A) (A) (A) (A) (A) (A)
                 (A) (A) (A) (A) (A) (A) (A) (A) (A) (A) (A) (A)
                 (A) (A) (A) (A) (A) (A) (A) (A) (A) (A) (A) (A)
                 (A) (A) (A) (A) (A) (A) (A) (A) (A) (A) (A) (A)
                 (A) (A) (A) (A) (A) (A) (A) (A) (A) (A) (A) (A)
                 (A) (A) (A) (A) (A) (A) (A) (A) (A) (A) (A) (A)
                 (A) (A) (A) (A) (A) (A) (A) (A) (A) (A) (A) (A)
                 (A) (A) (A) (A) (A) (A) (A) (A) (A) (A) (A) (A)
                 (A) (A) (A) (A) (A) (A) (A) (A) (A) (A) (A) (A)
                 (A) (A) (A) (A) (A) (A) (A) (A) (A) (A) (A) (A)
                 (A) (A) (A) (A) (A) (A) (A) (A) (A) (A) (A) (A)
                 (A) (A) (A) (A) (A) (A) (A) (A) (A) (A) (A) (A)
                 (A) (A) (A) (A) (A) (A) (A) (A) (A) (A) (A) (A)
                 (A) (A) (A) (A) (A) (A) (A) (A) (A) (A) (A) (A)
                 (A) (A) (A) (A) (A) (A) (A) (A) (A) (A) (A) (A)
                 (A) (A) (A) (A) (A) (A) (A) (A) (A) (A) (A) (A)
                 (A) (A) (A) (A) (A) (A) (A) (A) (A) (A) (A) (A)
                 (A) (A) (A) (A) (A) (A) (A) (A) (A) (A) (A) (A)
                 (A) (A) (A) (A) (A) (A) (A) (A) (A) (A) (A) (A)
                 (A) (A) (A) (A) (A) (A) (A) (A) (A) (A) (A) (A)
                 (A) (A) (A) (A) (A) (A) (A) (A) (A) (A) (A) (A)
                 (A) (A) (A) (A) (A) (A) (A) (A) (A) (A) (A) (A)
                 (A) (A) (A) (A) (A) (A) (A) (A) (A) (A) (A) (A)
                 (A) (A) (A) (A) (A) (A) (A) (A) (A) (A) (A) (A)
                 (A) (A) (A) (A) (A) (A) (A) (A) (A) (A) (A) (A)
                 (A) (A) (A) (A) (A) (A) (A) (A) (A) (A) (A) (A)
                 (A) (A) (A) (A) (A) (A) (A) (A) (A) (A) (A) (A)
                 (A) (A) (A) (A) (A) (A) (A) (A) (A) (A) (A) (A)
                 (A) (A) (A) (A) (A) (A) (A) (A) (A) (A) (A) (A)
                 (A) (A) (A) (A) (A) (A) (A) (A) (A) (A) (A) (A)
                 (A) (A) (A) (A) (A) (A) (A) (A) (A) (A) (A) (A)
                 (A) (A) (A) (A) (A) (A) (A) (A) (A) (A) (A) (A)
                 (A) (A) (A) (A) (A) (A) (A) (A) (A) (A) (A) (A)
                 (A) (A) (A) (A) (A) (A) (A) (A) (A) (A) (A) (A)
                 (A) (A) (A) (A) (A) (A) (A) (A) (A) (A) (A) (A)
                 (A) (A) (A) (A) (A) (A) (A) (A) (A) (A) (A) (A)
                 (A) (A) (A) (A) (A) (A) (A) (A) (A) (A) (A) (A)
                 (A) (A) (A) (A) (A) (A) (A) (A) (A) (A) (A) (A)
                 (A) (A) (A) (A) (A) (A) (A) (A) (A) (A) (A) (A)
                 (A) (A) (A) (A) (A) (A) (A) (A) (A) (A) (A) (A)
                 (A) (A) (A) (A) (A) (A) (A) (A) (A) (A) (A) (A)
                 (A) (A) (A) (A) (A) (A) (A) (A) (A) (A) (A) (A)
                 (A) (A) (A) (A) (A) (A) (A) (A) (A) (A) (A) (A)
                 (A) (A) (A) (A) (A) (A) (A) (A) (A) (A) (A) (A)
                 (A) (A) (A) (A) (A) (A) (A) (A) (A) (A) (A) (A)
                 (A) (A) (A) (A) (A) (A) (A) (A) (A) (A) (A) (A)
                 (A) (A) (A) (A) (A) (A) (A) (A) (A) (A) (A) (A)
                 (A) (A) (A) (A) (A) (A) (A) (A) (A) (A) (A) (A)
                 (A) (A) (A) (A) (A) (A) (A) (A) (A) (A) (A) (A)
                 (A) (A) (A) (A) (A) (A) (A) (A) (A) (A) (A) (A)
                 (A) (A) (A) (A) (A) (A) (A) (A) (A) (A) (A) (A)
                 (A) (A) (A) (A) (A) (A) (A) (A) (A) (A) (A) (A)
                 (A) (A) (A) (A) (A) (A) (A) (A) (A) (A) (A) (A)
                 (A) (A) (A) (A) (A) (A) (A) (A) (A) (A) (A) (A)
                 (A) (A) (A) (A) (A) (A) (A) (A) (A) (A) (A) (A)
                 (A) (A) (A) (A) (A) (A) (A) (A) (A) (A) (A) (A)
                 (A) (A) (A) (A) (A) (A) (A) (A) (A) (A) (A) (A)
                 (A) (A) (A) (A) (A) (A) (A) (A) (A) (A) (A) (A)
                 (A) (A) (A) (A) (A) (A) (A) (A) (A) (A) (A) (A)
                 (A) (A) (A) (A) (A) (A) (A) (A) (A) (A) (A) (A)
                 (A) (A) (A) (A) (A) (A) (A) (A) (A) (A) (A) (A)
                 (A) (A) (A) (A) (A) (A) (A) (A) (A) (A) (A) (A)
                 (A) (A) (A) (A) (A) (A) (A) (A) (A) (A) (A) (A)
                 (A) (A) (A) (A) (A) (A) (A) (A) (A) (A) (A) (A)
                 (A) (A) (A) (A) (A) (A) (A) (A) (A) (A) (A) (A)
                 (A) (A) (A) (A) (A) (A) (A) (A) (A) (A) (A) (A)
                 (A) (A) (A) (A) (A) (A) (A) (A) (A) (A) (A) (A)
                 (A) (A) (A) (A) (A) (A) (A) (A) (A) (A) (A) (A)
                 (A) (A) (A) (A) (A) (A) (A) (A) (A) (A) (A) (A)
                 (A) (A) (A) (A) (A) (A) (A) (A) (A) (A) (A) (A)
                 (A) (A) (A) (A) (A) (A) (A) (A) (A) (A) (A) (A)
                 (A) (A) (A) (A) (A) (A) (A) (A) (A) (A) (A) (A)
                 (A) (A) (A) (A) (A) (A) (A) (A) (A) (A) (A) (A)
                 (A) (A) (A) (A) (A) (A) (A) (A) (A) (A) (A) (A)
                 (A) (A) (A) (A) (A) (A) (A) (A) (A) (A) (A) (A)
                 (A) (A) (A) (A) (A) (A) (A) (A) (A) (A) (A) (A)
                 (A) (A) (A) (A) (A) (A) (A) (A) (A) (A) (A) (A)
                 (A) (A) (A) (A) (A) (A) (A) (A) (A) (A) (A) (A)
                 (A) (A) (A) (A) (A) (A) (A) (A) (A) (A) (A) (A)
                 (A) (A) (A) (A) (A) (A) (A) (A) (A) (A) (A) (A)
                 (A) (A) (A) (A) (A) (A) (A) (A) (A) (A) (A) (A)
                 (A) (A) (A) (A) (A) (A) (A) (A) (A) (A) (A) (A)
                 (A) (A) (A) (A) (A) (A) (A) (A) (A) (A) (A) (A)
                 (A) (A) (A) (A) (A) (A) (A) (A) (A) (A) (A) (A)
                 (A) (A) (A) (A) (A) (A) (A) (A) (A) (A) (A) (A)
                 (A) (A) (A) (A) (A) (A) (A) (A) (A) (A) (A) (A)
                 (A) (A) (A) (A) (A) (A) (A) (A) (A) (A) (A) (A)
                 (A) (A) (A) (A) (A) (A) (A) (A) (A) (A) (A) (A)
                 (A) (A) (A) (A) (A) (A) (A) (A) (A) (A) (A) (A)
                 (A) (A)
 Beta  Orbitals:
       Occupied  (A) (A) (A) (A) (A) (A) (A) (A) (A) (A) (A) (A)
                 (A) (A) (A) (A) (A) (A) (A) (A) (A) (A) (A) (A)
                 (A) (A) (A) (A) (A) (A) (A) (A) (A) (A) (A) (A)
                 (A) (A) (A) (A) (A) (A) (A) (A) (A) (A) (A) (A)
                 (A) (A) (A) (A) (A) (A) (A) (A) (A) (A) (A) (A)
                 (A) (A) (A) (A) (A) (A) (A) (A) (A) (A) (A) (A)
                 (A) (A) (A) (A) (A) (A) (A) (A) (A) (A) (A) (A)
                 (A) (A) (A) (A) (A) (A) (A) (A) (A) (A) (A) (A)
                 (A) (A) (A) (A) (A) (A) (A) (A) (A) (A) (A) (A)
                 (A) (A) (A) (A) (A) (A) (A) (A) (A) (A) (A) (A)
                 (A) (A) (A) (A) (A) (A) (A) (A) (A) (A) (A) (A)
                 (A) (A) (A) (A) (A) (A) (A) (A) (A) (A) (A) (A)
                 (A) (A) (A) (A) (A) (A) (A)
       Virtual   (A) (A) (A) (A) (A) (A) (A) (A) (A) (A) (A) (A)
                 (A) (A) (A) (A) (A) (A) (A) (A) (A) (A) (A) (A)
                 (A) (A) (A) (A) (A) (A) (A) (A) (A) (A) (A) (A)
                 (A) (A) (A) (A) (A) (A) (A) (A) (A) (A) (A) (A)
                 (A) (A) (A) (A) (A) (A) (A) (A) (A) (A) (A) (A)
                 (A) (A) (A) (A) (A) (A) (A) (A) (A) (A) (A) (A)
                 (A) (A) (A) (A) (A) (A) (A) (A) (A) (A) (A) (A)
                 (A) (A) (A) (A) (A) (A) (A) (A) (A) (A) (A) (A)
                 (A) (A) (A) (A) (A) (A) (A) (A) (A) (A) (A) (A)
                 (A) (A) (A) (A) (A) (A) (A) (A) (A) (A) (A) (A)
                 (A) (A) (A) (A) (A) (A) (A) (A) (A) (A) (A) (A)
                 (A) (A) (A) (A) (A) (A) (A) (A) (A) (A) (A) (A)
                 (A) (A) (A) (A) (A) (A) (A) (A) (A) (A) (A) (A)
                 (A) (A) (A) (A) (A) (A) (A) (A) (A) (A) (A) (A)
                 (A) (A) (A) (A) (A) (A) (A) (A) (A) (A) (A) (A)
                 (A) (A) (A) (A) (A) (A) (A) (A) (A) (A) (A) (A)
                 (A) (A) (A) (A) (A) (A) (A) (A) (A) (A) (A) (A)
                 (A) (A) (A) (A) (A) (A) (A) (A) (A) (A) (A) (A)
                 (A) (A) (A) (A) (A) (A) (A) (A) (A) (A) (A) (A)
                 (A) (A) (A) (A) (A) (A) (A) (A) (A) (A) (A) (A)
                 (A) (A) (A) (A) (A) (A) (A) (A) (A) (A) (A) (A)
                 (A) (A) (A) (A) (A) (A) (A) (A) (A) (A) (A) (A)
                 (A) (A) (A) (A) (A) (A) (A) (A) (A) (A) (A) (A)
                 (A) (A) (A) (A) (A) (A) (A) (A) (A) (A) (A) (A)
                 (A) (A) (A) (A) (A) (A) (A) (A) (A) (A) (A) (A)
                 (A) (A) (A) (A) (A) (A) (A) (A) (A) (A) (A) (A)
                 (A) (A) (A) (A) (A) (A) (A) (A) (A) (A) (A) (A)
                 (A) (A) (A) (A) (A) (A) (A) (A) (A) (A) (A) (A)
                 (A) (A) (A) (A) (A) (A) (A) (A) (A) (A) (A) (A)
                 (A) (A) (A) (A) (A) (A) (A) (A) (A) (A) (A) (A)
                 (A) (A) (A) (A) (A) (A) (A) (A) (A) (A) (A) (A)
                 (A) (A) (A) (A) (A) (A) (A) (A) (A) (A) (A) (A)
                 (A) (A) (A) (A) (A) (A) (A) (A) (A) (A) (A) (A)
                 (A) (A) (A) (A) (A) (A) (A) (A) (A) (A) (A) (A)
                 (A) (A) (A) (A) (A) (A) (A) (A) (A) (A) (A) (A)
                 (A) (A) (A) (A) (A) (A) (A) (A) (A) (A) (A) (A)
                 (A) (A) (A) (A) (A) (A) (A) (A) (A) (A) (A) (A)
                 (A) (A) (A) (A) (A) (A) (A) (A) (A) (A) (A) (A)
                 (A) (A) (A) (A) (A) (A) (A) (A) (A) (A) (A) (A)
                 (A) (A) (A) (A) (A) (A) (A) (A) (A) (A) (A) (A)
                 (A) (A) (A) (A) (A) (A) (A) (A) (A) (A) (A) (A)
                 (A) (A) (A) (A) (A) (A) (A) (A) (A) (A) (A) (A)
                 (A) (A) (A) (A) (A) (A) (A) (A) (A) (A) (A) (A)
                 (A) (A) (A) (A) (A) (A) (A) (A) (A) (A) (A) (A)
                 (A) (A) (A) (A) (A) (A) (A) (A) (A) (A) (A) (A)
                 (A) (A) (A) (A) (A) (A) (A) (A) (A) (A) (A) (A)
                 (A) (A) (A) (A) (A) (A) (A) (A) (A) (A) (A) (A)
                 (A) (A) (A) (A) (A) (A) (A) (A) (A) (A) (A) (A)
                 (A) (A) (A) (A) (A) (A) (A) (A) (A) (A) (A) (A)
                 (A) (A) (A) (A) (A) (A) (A) (A) (A) (A) (A) (A)
                 (A) (A) (A) (A) (A) (A) (A) (A) (A) (A) (A) (A)
                 (A) (A) (A) (A) (A) (A) (A) (A) (A) (A) (A) (A)
                 (A) (A) (A) (A) (A) (A) (A) (A) (A) (A) (A) (A)
                 (A) (A) (A) (A) (A) (A) (A) (A) (A) (A) (A) (A)
                 (A) (A) (A) (A) (A) (A) (A) (A) (A) (A) (A) (A)
                 (A) (A) (A) (A) (A) (A) (A) (A) (A) (A) (A) (A)
                 (A) (A) (A) (A) (A) (A) (A) (A) (A) (A) (A) (A)
                 (A) (A) (A) (A) (A) (A) (A) (A) (A) (A) (A) (A)
                 (A) (A) (A) (A) (A) (A) (A) (A) (A) (A) (A) (A)
                 (A) (A) (A) (A) (A) (A) (A) (A) (A) (A) (A) (A)
                 (A) (A) (A) (A) (A) (A) (A) (A) (A) (A) (A) (A)
                 (A) (A) (A) (A) (A) (A) (A) (A) (A) (A) (A) (A)
                 (A) (A) (A) (A) (A) (A) (A) (A) (A) (A) (A) (A)
                 (A) (A) (A) (A) (A) (A) (A) (A) (A) (A) (A) (A)
                 (A) (A) (A) (A) (A) (A) (A) (A) (A) (A) (A) (A)
                 (A) (A) (A) (A) (A) (A) (A) (A) (A) (A) (A) (A)
                 (A) (A) (A) (A) (A) (A) (A) (A) (A) (A) (A) (A)
                 (A) (A) (A) (A) (A) (A) (A) (A) (A) (A) (A) (A)
                 (A) (A) (A) (A) (A) (A) (A) (A) (A) (A) (A) (A)
                 (A) (A) (A) (A) (A) (A) (A) (A) (A) (A) (A) (A)
                 (A) (A) (A) (A) (A) (A) (A) (A) (A) (A) (A) (A)
                 (A) (A) (A) (A) (A) (A) (A) (A) (A) (A) (A) (A)
                 (A) (A) (A) (A) (A) (A) (A) (A) (A) (A) (A) (A)
                 (A) (A) (A) (A) (A) (A) (A) (A) (A) (A) (A) (A)
                 (A) (A) (A) (A) (A) (A) (A) (A) (A) (A) (A) (A)
                 (A) (A) (A) (A) (A) (A) (A) (A) (A) (A) (A) (A)
                 (A) (A) (A) (A) (A) (A) (A) (A) (A) (A) (A) (A)
                 (A) (A) (A) (A) (A) (A) (A) (A) (A) (A) (A) (A)
                 (A) (A) (A) (A) (A) (A) (A) (A) (A) (A) (A) (A)
                 (A) (A) (A) (A) (A) (A) (A) (A) (A) (A) (A) (A)
                 (A) (A) (A) (A) (A) (A) (A) (A) (A) (A) (A) (A)
                 (A) (A) (A) (A) (A) (A) (A) (A) (A) (A) (A) (A)
                 (A) (A) (A) (A) (A) (A) (A) (A) (A) (A) (A) (A)
                 (A) (A) (A) (A) (A) (A) (A) (A) (A) (A) (A) (A)
                 (A) (A) (A) (A) (A) (A) (A) (A) (A) (A) (A) (A)
                 (A) (A) (A) (A) (A) (A) (A) (A) (A) (A) (A) (A)
                 (A) (A) (A) (A) (A) (A) (A) (A) (A) (A) (A) (A)
                 (A) (A) (A) (A) (A) (A) (A) (A) (A) (A) (A) (A)
                 (A) (A) (A) (A) (A) (A) (A) (A) (A) (A) (A) (A)
                 (A) (A) (A) (A) (A) (A) (A) (A) (A) (A) (A) (A)
                 (A) (A) (A) (A) (A) (A) (A) (A) (A) (A) (A) (A)
                 (A) (A) (A) (A) (A) (A) (A) (A) (A) (A) (A) (A)
                 (A) (A) (A) (A) (A) (A) (A) (A) (A) (A) (A) (A)
                 (A) (A) (A) (A) (A) (A) (A) (A) (A) (A) (A) (A)
                 (A) (A) (A) (A) (A) (A) (A) (A) (A) (A) (A) (A)
                 (A) (A) (A) (A) (A) (A) (A) (A) (A) (A) (A) (A)
                 (A) (A) (A) (A) (A) (A) (A) (A) (A) (A) (A) (A)
                 (A) (A) (A) (A) (A) (A) (A) (A) (A) (A) (A) (A)
                 (A) (A) (A) (A) (A) (A) (A) (A) (A) (A) (A) (A)
                 (A) (A) (A) (A) (A) (A) (A) (A) (A) (A) (A) (A)
                 (A) (A) (A) (A) (A) (A) (A) (A) (A) (A) (A) (A)
                 (A) (A) (A) (A) (A) (A) (A) (A) (A) (A) (A) (A)
                 (A) (A) (A) (A) (A) (A) (A) (A) (A) (A) (A) (A)
                 (A) (A) (A) (A) (A) (A) (A) (A) (A) (A) (A) (A)
                 (A) (A) (A) (A) (A) (A) (A) (A) (A) (A) (A) (A)
                 (A) (A) (A) (A) (A) (A) (A) (A) (A) (A) (A) (A)
                 (A) (A) (A) (A) (A) (A) (A) (A) (A) (A) (A) (A)
                 (A) (A) (A) (A) (A) (A) (A) (A) (A) (A) (A) (A)
                 (A) (A) (A) (A) (A) (A) (A) (A) (A) (A) (A) (A)
                 (A) (A) (A) (A) (A) (A) (A) (A) (A) (A) (A) (A)
                 (A) (A) (A) (A) (A) (A) (A) (A) (A) (A) (A) (A)
                 (A) (A) (A) (A) (A) (A)
 The electronic state is 5-A.
 Alpha  occ. eigenvalues -- -256.19215 -30.08278 -25.92945 -25.90934 -25.90481
 Alpha  occ. eigenvalues --  -14.41631 -14.35260 -14.33019 -14.32965 -14.32762
 Alpha  occ. eigenvalues --  -14.32539 -10.25332 -10.23613 -10.21506 -10.21345
 Alpha  occ. eigenvalues --  -10.21323 -10.21195 -10.21124 -10.21088 -10.21050
 Alpha  occ. eigenvalues --  -10.20988 -10.20936 -10.20722 -10.19838 -10.19779
 Alpha  occ. eigenvalues --  -10.19429 -10.19008 -10.18999 -10.18952 -10.18860
 Alpha  occ. eigenvalues --  -10.18796 -10.18762 -10.18758 -10.18755 -10.18747
 Alpha  occ. eigenvalues --  -10.18672 -10.18654 -10.18609 -10.18602 -10.18598
 Alpha  occ. eigenvalues --  -10.18572 -10.18471 -10.18433 -10.18355 -10.18306
 Alpha  occ. eigenvalues --   -3.53767  -2.33761  -2.29190  -2.28644  -1.05111
 Alpha  occ. eigenvalues --   -0.97254  -0.96348  -0.96131  -0.95205  -0.90700
 Alpha  occ. eigenvalues --   -0.82554  -0.82179  -0.81727  -0.80981  -0.80585
 Alpha  occ. eigenvalues --   -0.80198  -0.79905  -0.79737  -0.77099  -0.76123
 Alpha  occ. eigenvalues --   -0.74426  -0.74184  -0.73289  -0.71716  -0.71220
 Alpha  occ. eigenvalues --   -0.70227  -0.68495  -0.68110  -0.68065  -0.64569
 Alpha  occ. eigenvalues --   -0.64378  -0.64238  -0.61280  -0.61212  -0.60285
 Alpha  occ. eigenvalues --   -0.57854  -0.56920  -0.55869  -0.54837  -0.54282
 Alpha  occ. eigenvalues --   -0.53652  -0.52566  -0.51362  -0.51123  -0.50659
 Alpha  occ. eigenvalues --   -0.49151  -0.48074  -0.48028  -0.47706  -0.47364
 Alpha  occ. eigenvalues --   -0.46338  -0.45292  -0.45046  -0.44703  -0.44326
 Alpha  occ. eigenvalues --   -0.43887  -0.43757  -0.43510  -0.43404  -0.43189
 Alpha  occ. eigenvalues --   -0.43019  -0.42698  -0.42456  -0.42239  -0.41829
 Alpha  occ. eigenvalues --   -0.41564  -0.41547  -0.41439  -0.41058  -0.40890
 Alpha  occ. eigenvalues --   -0.40384  -0.40128  -0.39724  -0.39572  -0.39386
 Alpha  occ. eigenvalues --   -0.39179  -0.38898  -0.38724  -0.38532  -0.37807
 Alpha  occ. eigenvalues --   -0.37669  -0.37519  -0.37209  -0.36643  -0.36446
 Alpha  occ. eigenvalues --   -0.35899  -0.34884  -0.34570  -0.34119  -0.33826
 Alpha  occ. eigenvalues --   -0.33290  -0.32299  -0.31944  -0.31550  -0.30564
 Alpha  occ. eigenvalues --   -0.29994  -0.29577  -0.29199  -0.27743  -0.26640
 Alpha  occ. eigenvalues --   -0.26443  -0.24625  -0.23851  -0.22573  -0.22221
 Alpha  occ. eigenvalues --   -0.21967  -0.21433  -0.18545  -0.17960  -0.16251
 Alpha virt. eigenvalues --   -0.06981  -0.06891  -0.02074   0.00351   0.01421
 Alpha virt. eigenvalues --    0.01897   0.02665   0.03911   0.04596   0.04921
 Alpha virt. eigenvalues --    0.05289   0.05600   0.05796   0.06217   0.06408
 Alpha virt. eigenvalues --    0.07015   0.07438   0.07838   0.08195   0.08724
 Alpha virt. eigenvalues --    0.09226   0.09716   0.09772   0.10043   0.10475
 Alpha virt. eigenvalues --    0.10709   0.10962   0.11150   0.11248   0.11613
 Alpha virt. eigenvalues --    0.11843   0.12268   0.12650   0.12733   0.12880
 Alpha virt. eigenvalues --    0.13342   0.13427   0.13578   0.13724   0.14014
 Alpha virt. eigenvalues --    0.14241   0.14530   0.14731   0.14816   0.15205
 Alpha virt. eigenvalues --    0.15393   0.15430   0.15529   0.15965   0.16042
 Alpha virt. eigenvalues --    0.16464   0.16520   0.16943   0.17263   0.17342
 Alpha virt. eigenvalues --    0.17474   0.17730   0.18050   0.18534   0.18613
 Alpha virt. eigenvalues --    0.19136   0.19449   0.19581   0.19764   0.19844
 Alpha virt. eigenvalues --    0.20129   0.20324   0.20823   0.21270   0.21416
 Alpha virt. eigenvalues --    0.21798   0.21993   0.22187   0.22268   0.22759
 Alpha virt. eigenvalues --    0.23007   0.23647   0.23832   0.23955   0.24255
 Alpha virt. eigenvalues --    0.24950   0.25028   0.25200   0.25508   0.25643
 Alpha virt. eigenvalues --    0.26284   0.26688   0.26809   0.27179   0.27528
 Alpha virt. eigenvalues --    0.27696   0.27865   0.27942   0.28330   0.28442
 Alpha virt. eigenvalues --    0.29033   0.29153   0.29372   0.29428   0.29797
 Alpha virt. eigenvalues --    0.30073   0.30305   0.30473   0.30714   0.30933
 Alpha virt. eigenvalues --    0.31474   0.31888   0.32054   0.32391   0.32925
 Alpha virt. eigenvalues --    0.33188   0.33304   0.33555   0.33940   0.34107
 Alpha virt. eigenvalues --    0.34440   0.34495   0.35050   0.35645   0.35739
 Alpha virt. eigenvalues --    0.36023   0.36381   0.36582   0.37014   0.37080
 Alpha virt. eigenvalues --    0.37346   0.37655   0.37922   0.38164   0.38350
 Alpha virt. eigenvalues --    0.38665   0.38803   0.39213   0.39401   0.39536
 Alpha virt. eigenvalues --    0.39764   0.40173   0.40535   0.40677   0.40794
 Alpha virt. eigenvalues --    0.40878   0.41197   0.41328   0.41652   0.41832
 Alpha virt. eigenvalues --    0.42062   0.42196   0.42689   0.42744   0.43064
 Alpha virt. eigenvalues --    0.43297   0.43465   0.43862   0.44076   0.44231
 Alpha virt. eigenvalues --    0.44321   0.44549   0.44875   0.45191   0.45230
 Alpha virt. eigenvalues --    0.45571   0.46033   0.46145   0.46281   0.46460
 Alpha virt. eigenvalues --    0.46516   0.46632   0.46865   0.47050   0.47318
 Alpha virt. eigenvalues --    0.47618   0.47945   0.48043   0.48308   0.48404
 Alpha virt. eigenvalues --    0.48790   0.48825   0.49087   0.49124   0.49244
 Alpha virt. eigenvalues --    0.49746   0.49820   0.49992   0.50207   0.50525
 Alpha virt. eigenvalues --    0.50987   0.51139   0.51234   0.51474   0.51810
 Alpha virt. eigenvalues --    0.51932   0.52369   0.52481   0.52642   0.53022
 Alpha virt. eigenvalues --    0.53294   0.53543   0.53699   0.53882   0.53972
 Alpha virt. eigenvalues --    0.54421   0.54814   0.55099   0.55195   0.55433
 Alpha virt. eigenvalues --    0.55880   0.56375   0.56500   0.56843   0.57105
 Alpha virt. eigenvalues --    0.57304   0.57820   0.57825   0.58515   0.58593
 Alpha virt. eigenvalues --    0.58907   0.59099   0.59626   0.59674   0.59943
 Alpha virt. eigenvalues --    0.60289   0.60412   0.61375   0.61445   0.61759
 Alpha virt. eigenvalues --    0.61840   0.61921   0.62267   0.63197   0.63382
 Alpha virt. eigenvalues --    0.63724   0.64373   0.64507   0.64594   0.65104
 Alpha virt. eigenvalues --    0.65183   0.65485   0.66067   0.66162   0.66682
 Alpha virt. eigenvalues --    0.66928   0.67034   0.67602   0.67708   0.67985
 Alpha virt. eigenvalues --    0.68297   0.68758   0.69171   0.69532   0.69571
 Alpha virt. eigenvalues --    0.70306   0.70599   0.70870   0.70993   0.71358
 Alpha virt. eigenvalues --    0.71650   0.72078   0.72327   0.72492   0.73103
 Alpha virt. eigenvalues --    0.73248   0.73566   0.73961   0.74009   0.74628
 Alpha virt. eigenvalues --    0.74919   0.74980   0.75244   0.75910   0.76248
 Alpha virt. eigenvalues --    0.76451   0.76690   0.76800   0.77307   0.77701
 Alpha virt. eigenvalues --    0.78006   0.78298   0.78820   0.79460   0.79517
 Alpha virt. eigenvalues --    0.79567   0.79585   0.80130   0.80666   0.81023
 Alpha virt. eigenvalues --    0.81529   0.81736   0.82177   0.82958   0.83425
 Alpha virt. eigenvalues --    0.83642   0.83718   0.84101   0.84451   0.85241
 Alpha virt. eigenvalues --    0.85450   0.85953   0.86334   0.86662   0.87089
 Alpha virt. eigenvalues --    0.87335   0.87635   0.87982   0.88379   0.88738
 Alpha virt. eigenvalues --    0.89327   0.89720   0.89933   0.90130   0.90669
 Alpha virt. eigenvalues --    0.90838   0.91611   0.92074   0.92405   0.92466
 Alpha virt. eigenvalues --    0.92879   0.93882   0.93943   0.94428   0.94444
 Alpha virt. eigenvalues --    0.94683   0.95051   0.96121   0.96236   0.96394
 Alpha virt. eigenvalues --    0.96555   0.96765   0.97513   0.97694   0.98556
 Alpha virt. eigenvalues --    0.98631   0.98957   0.99195   0.99685   1.00142
 Alpha virt. eigenvalues --    1.00396   1.00886   1.01235   1.01627   1.01739
 Alpha virt. eigenvalues --    1.01842   1.02522   1.02530   1.02753   1.03054
 Alpha virt. eigenvalues --    1.03587   1.03902   1.04037   1.04400   1.04817
 Alpha virt. eigenvalues --    1.05076   1.05179   1.05721   1.05809   1.06381
 Alpha virt. eigenvalues --    1.07084   1.07321   1.07672   1.08075   1.08536
 Alpha virt. eigenvalues --    1.08699   1.09065   1.09629   1.09956   1.10464
 Alpha virt. eigenvalues --    1.11115   1.11320   1.11764   1.11909   1.12880
 Alpha virt. eigenvalues --    1.13131   1.13565   1.14510   1.15053   1.15364
 Alpha virt. eigenvalues --    1.15540   1.15809   1.16713   1.16831   1.17307
 Alpha virt. eigenvalues --    1.17792   1.17937   1.18441   1.18534   1.19333
 Alpha virt. eigenvalues --    1.19869   1.20384   1.20697   1.20928   1.21581
 Alpha virt. eigenvalues --    1.22190   1.22394   1.22651   1.23290   1.24200
 Alpha virt. eigenvalues --    1.24481   1.24824   1.25350   1.25935   1.26194
 Alpha virt. eigenvalues --    1.26408   1.26765   1.27146   1.27256   1.27997
 Alpha virt. eigenvalues --    1.28429   1.28655   1.28798   1.29033   1.29380
 Alpha virt. eigenvalues --    1.29423   1.30619   1.30888   1.31109   1.31371
 Alpha virt. eigenvalues --    1.31923   1.32081   1.32753   1.33309   1.33521
 Alpha virt. eigenvalues --    1.35065   1.35479   1.36375   1.37004   1.37545
 Alpha virt. eigenvalues --    1.38094   1.38295   1.38770   1.39498   1.39762
 Alpha virt. eigenvalues --    1.40145   1.40963   1.41293   1.41549   1.42067
 Alpha virt. eigenvalues --    1.42561   1.42695   1.43760   1.44558   1.44828
 Alpha virt. eigenvalues --    1.45703   1.45755   1.45993   1.46298   1.47222
 Alpha virt. eigenvalues --    1.47695   1.48411   1.48554   1.49143   1.49266
 Alpha virt. eigenvalues --    1.49759   1.49929   1.50114   1.50353   1.50820
 Alpha virt. eigenvalues --    1.51259   1.51352   1.51513   1.52016   1.52171
 Alpha virt. eigenvalues --    1.52518   1.52705   1.52929   1.52944   1.53728
 Alpha virt. eigenvalues --    1.53913   1.54170   1.54621   1.54770   1.55048
 Alpha virt. eigenvalues --    1.55161   1.55334   1.55653   1.56063   1.56171
 Alpha virt. eigenvalues --    1.56232   1.56903   1.56990   1.57212   1.57611
 Alpha virt. eigenvalues --    1.57812   1.58126   1.58451   1.58863   1.58993
 Alpha virt. eigenvalues --    1.59256   1.59578   1.59958   1.60232   1.60598
 Alpha virt. eigenvalues --    1.60849   1.61333   1.61806   1.62136   1.62198
 Alpha virt. eigenvalues --    1.62521   1.62736   1.63057   1.63424   1.63978
 Alpha virt. eigenvalues --    1.64276   1.64683   1.64741   1.65244   1.65447
 Alpha virt. eigenvalues --    1.65697   1.66114   1.66173   1.66383   1.66855
 Alpha virt. eigenvalues --    1.67087   1.67782   1.68075   1.68251   1.68813
 Alpha virt. eigenvalues --    1.69217   1.70196   1.70304   1.70581   1.71034
 Alpha virt. eigenvalues --    1.71270   1.71557   1.72011   1.72495   1.73067
 Alpha virt. eigenvalues --    1.73203   1.73687   1.74007   1.74427   1.74977
 Alpha virt. eigenvalues --    1.75081   1.75502   1.75966   1.76727   1.77447
 Alpha virt. eigenvalues --    1.77992   1.78520   1.79427   1.80505   1.80958
 Alpha virt. eigenvalues --    1.81349   1.81912   1.82168   1.82562   1.82835
 Alpha virt. eigenvalues --    1.82946   1.83730   1.84458   1.84661   1.85165
 Alpha virt. eigenvalues --    1.85408   1.86020   1.86387   1.87018   1.87136
 Alpha virt. eigenvalues --    1.87708   1.88283   1.88933   1.89128   1.89434
 Alpha virt. eigenvalues --    1.90342   1.90681   1.91372   1.91615   1.92984
 Alpha virt. eigenvalues --    1.93127   1.93759   1.94047   1.94702   1.95259
 Alpha virt. eigenvalues --    1.95760   1.95983   1.96294   1.96907   1.97091
 Alpha virt. eigenvalues --    1.97500   1.98294   1.98487   1.99086   1.99580
 Alpha virt. eigenvalues --    2.00008   2.00361   2.00727   2.00919   2.01549
 Alpha virt. eigenvalues --    2.02020   2.02493   2.03000   2.03468   2.04227
 Alpha virt. eigenvalues --    2.04557   2.05424   2.05714   2.06345   2.06436
 Alpha virt. eigenvalues --    2.06727   2.07401   2.08000   2.08567   2.08865
 Alpha virt. eigenvalues --    2.09230   2.09697   2.10458   2.10877   2.11052
 Alpha virt. eigenvalues --    2.11238   2.11618   2.12644   2.13001   2.13612
 Alpha virt. eigenvalues --    2.13727   2.14467   2.15178   2.15627   2.15892
 Alpha virt. eigenvalues --    2.16387   2.17073   2.17369   2.17678   2.18170
 Alpha virt. eigenvalues --    2.18629   2.19187   2.19309   2.19759   2.20373
 Alpha virt. eigenvalues --    2.20732   2.20936   2.21595   2.22123   2.22973
 Alpha virt. eigenvalues --    2.23348   2.24157   2.24467   2.25016   2.25495
 Alpha virt. eigenvalues --    2.26153   2.26514   2.27155   2.27311   2.27987
 Alpha virt. eigenvalues --    2.28617   2.29012   2.29119   2.29611   2.29975
 Alpha virt. eigenvalues --    2.30842   2.31198   2.31368   2.31986   2.32324
 Alpha virt. eigenvalues --    2.32527   2.32860   2.33959   2.34235   2.34554
 Alpha virt. eigenvalues --    2.35203   2.35695   2.35970   2.36156   2.36663
 Alpha virt. eigenvalues --    2.37239   2.37480   2.37716   2.38089   2.38362
 Alpha virt. eigenvalues --    2.39076   2.39168   2.39892   2.40098   2.40259
 Alpha virt. eigenvalues --    2.40795   2.41616   2.42293   2.42353   2.42932
 Alpha virt. eigenvalues --    2.43475   2.44009   2.44182   2.44785   2.45036
 Alpha virt. eigenvalues --    2.45459   2.46171   2.46466   2.46544   2.47075
 Alpha virt. eigenvalues --    2.47460   2.47818   2.48703   2.48969   2.50018
 Alpha virt. eigenvalues --    2.50700   2.51137   2.51307   2.51708   2.52344
 Alpha virt. eigenvalues --    2.52676   2.52791   2.53239   2.53464   2.53916
 Alpha virt. eigenvalues --    2.54649   2.55329   2.55504   2.55841   2.56267
 Alpha virt. eigenvalues --    2.56476   2.56723   2.57097   2.57428   2.58125
 Alpha virt. eigenvalues --    2.58295   2.58517   2.58613   2.59387   2.60342
 Alpha virt. eigenvalues --    2.60514   2.61141   2.61561   2.61644   2.61940
 Alpha virt. eigenvalues --    2.62335   2.62671   2.62911   2.63837   2.63927
 Alpha virt. eigenvalues --    2.64944   2.65232   2.65367   2.65899   2.66244
 Alpha virt. eigenvalues --    2.66708   2.67071   2.67701   2.68201   2.68654
 Alpha virt. eigenvalues --    2.68991   2.69222   2.69364   2.70011   2.70754
 Alpha virt. eigenvalues --    2.70935   2.71595   2.71876   2.72552   2.72831
 Alpha virt. eigenvalues --    2.73524   2.73962   2.74081   2.74449   2.74727
 Alpha virt. eigenvalues --    2.75913   2.76204   2.76493   2.76832   2.77828
 Alpha virt. eigenvalues --    2.77971   2.78621   2.78889   2.79317   2.80146
 Alpha virt. eigenvalues --    2.80769   2.80994   2.81300   2.81535   2.81835
 Alpha virt. eigenvalues --    2.82468   2.82907   2.83331   2.83761   2.84483
 Alpha virt. eigenvalues --    2.84688   2.84986   2.85357   2.85838   2.85924
 Alpha virt. eigenvalues --    2.86169   2.86637   2.87617   2.87998   2.88077
 Alpha virt. eigenvalues --    2.88564   2.88986   2.89124   2.89575   2.89945
 Alpha virt. eigenvalues --    2.90382   2.90915   2.91455   2.91570   2.92061
 Alpha virt. eigenvalues --    2.92352   2.92677   2.93147   2.93725   2.93981
 Alpha virt. eigenvalues --    2.94489   2.94589   2.95036   2.95180   2.95381
 Alpha virt. eigenvalues --    2.95817   2.96212   2.96548   2.96914   2.97496
 Alpha virt. eigenvalues --    2.97894   2.98125   2.98581   2.98952   2.99799
 Alpha virt. eigenvalues --    2.99811   3.00264   3.00835   3.01074   3.02096
 Alpha virt. eigenvalues --    3.02449   3.02872   3.03251   3.03350   3.04039
 Alpha virt. eigenvalues --    3.04280   3.04441   3.05078   3.05605   3.05750
 Alpha virt. eigenvalues --    3.05832   3.06729   3.07029   3.07305   3.07640
 Alpha virt. eigenvalues --    3.07844   3.08315   3.08755   3.09116   3.09124
 Alpha virt. eigenvalues --    3.09490   3.09646   3.09836   3.10452   3.10494
 Alpha virt. eigenvalues --    3.10801   3.11373   3.11524   3.11796   3.12355
 Alpha virt. eigenvalues --    3.12688   3.13054   3.13426   3.13629   3.14068
 Alpha virt. eigenvalues --    3.14340   3.14859   3.15059   3.15567   3.15830
 Alpha virt. eigenvalues --    3.16351   3.16537   3.16653   3.17513   3.17850
 Alpha virt. eigenvalues --    3.18026   3.18366   3.18899   3.19388   3.19653
 Alpha virt. eigenvalues --    3.19830   3.20291   3.20466   3.20953   3.21029
 Alpha virt. eigenvalues --    3.21155   3.21490   3.21639   3.22046   3.22562
 Alpha virt. eigenvalues --    3.23364   3.23556   3.23942   3.24193   3.24341
 Alpha virt. eigenvalues --    3.24847   3.25063   3.25239   3.25553   3.25769
 Alpha virt. eigenvalues --    3.26132   3.26387   3.26662   3.26788   3.27126
 Alpha virt. eigenvalues --    3.27535   3.27689   3.28044   3.28380   3.28539
 Alpha virt. eigenvalues --    3.29020   3.29323   3.29514   3.30054   3.30206
 Alpha virt. eigenvalues --    3.30327   3.30549   3.30740   3.30878   3.31219
 Alpha virt. eigenvalues --    3.31508   3.31831   3.31921   3.32535   3.32896
 Alpha virt. eigenvalues --    3.33004   3.33492   3.33921   3.34073   3.34214
 Alpha virt. eigenvalues --    3.34528   3.35025   3.35128   3.35332   3.35549
 Alpha virt. eigenvalues --    3.35727   3.36196   3.36832   3.36867   3.37002
 Alpha virt. eigenvalues --    3.37216   3.37412   3.37758   3.37861   3.38198
 Alpha virt. eigenvalues --    3.38467   3.38669   3.38983   3.39375   3.39967
 Alpha virt. eigenvalues --    3.40310   3.40475   3.40712   3.41048   3.42063
 Alpha virt. eigenvalues --    3.42400   3.42683   3.42928   3.43262   3.43642
 Alpha virt. eigenvalues --    3.43793   3.44240   3.44700   3.45165   3.45746
 Alpha virt. eigenvalues --    3.46102   3.46505   3.46765   3.46917   3.47185
 Alpha virt. eigenvalues --    3.48359   3.48555   3.49024   3.49712   3.50176
 Alpha virt. eigenvalues --    3.50511   3.51286   3.51772   3.52393   3.53019
 Alpha virt. eigenvalues --    3.53168   3.53687   3.53995   3.54708   3.54994
 Alpha virt. eigenvalues --    3.55908   3.56314   3.56626   3.56788   3.56964
 Alpha virt. eigenvalues --    3.58024   3.58247   3.58782   3.59345   3.59749
 Alpha virt. eigenvalues --    3.60142   3.60494   3.60866   3.61788   3.62204
 Alpha virt. eigenvalues --    3.62659   3.63118   3.63263   3.64136   3.64875
 Alpha virt. eigenvalues --    3.65801   3.65895   3.66049   3.66577   3.67008
 Alpha virt. eigenvalues --    3.67657   3.68273   3.68471   3.68590   3.68970
 Alpha virt. eigenvalues --    3.69758   3.70424   3.70537   3.71166   3.71353
 Alpha virt. eigenvalues --    3.71571   3.71906   3.72369   3.72909   3.73224
 Alpha virt. eigenvalues --    3.73428   3.74159   3.74407   3.74955   3.75436
 Alpha virt. eigenvalues --    3.75672   3.76052   3.76533   3.77241   3.77534
 Alpha virt. eigenvalues --    3.78119   3.78464   3.79331   3.80288   3.80604
 Alpha virt. eigenvalues --    3.81077   3.81810   3.82202   3.82831   3.83305
 Alpha virt. eigenvalues --    3.83663   3.83934   3.84476   3.84933   3.86126
 Alpha virt. eigenvalues --    3.86740   3.86987   3.87643   3.88120   3.88173
 Alpha virt. eigenvalues --    3.89858   3.90102   3.90745   3.91107   3.91510
 Alpha virt. eigenvalues --    3.92023   3.93111   3.93297   3.94076   3.94314
 Alpha virt. eigenvalues --    3.95041   3.96181   3.97068   3.97821   3.98275
 Alpha virt. eigenvalues --    3.98527   3.99370   3.99835   3.99996   4.00247
 Alpha virt. eigenvalues --    4.01083   4.01526   4.02167   4.02384   4.02835
 Alpha virt. eigenvalues --    4.03682   4.04403   4.04889   4.05385   4.06092
 Alpha virt. eigenvalues --    4.06433   4.07787   4.07976   4.08315   4.09355
 Alpha virt. eigenvalues --    4.09702   4.10812   4.11160   4.11786   4.12741
 Alpha virt. eigenvalues --    4.13148   4.13562   4.13957   4.15056   4.15694
 Alpha virt. eigenvalues --    4.16483   4.17229   4.17613   4.18040   4.18732
 Alpha virt. eigenvalues --    4.19014   4.19389   4.20072   4.20487   4.21346
 Alpha virt. eigenvalues --    4.22252   4.22902   4.23193   4.23695   4.24142
 Alpha virt. eigenvalues --    4.24940   4.25283   4.25744   4.26018   4.26461
 Alpha virt. eigenvalues --    4.26792   4.27335   4.28060   4.28962   4.29184
 Alpha virt. eigenvalues --    4.30084   4.31858   4.32315   4.33064   4.33385
 Alpha virt. eigenvalues --    4.33600   4.34390   4.34747   4.35436   4.35864
 Alpha virt. eigenvalues --    4.37458   4.37832   4.38860   4.39315   4.39536
 Alpha virt. eigenvalues --    4.39851   4.40263   4.40549   4.41142   4.41527
 Alpha virt. eigenvalues --    4.41866   4.42266   4.42859   4.43551   4.43681
 Alpha virt. eigenvalues --    4.44133   4.44884   4.45289   4.45504   4.46234
 Alpha virt. eigenvalues --    4.46487   4.47256   4.48487   4.49051   4.50247
 Alpha virt. eigenvalues --    4.51050   4.52761   4.53711   4.54081   4.55299
 Alpha virt. eigenvalues --    4.55785   4.56778   4.57431   4.58812   4.59010
 Alpha virt. eigenvalues --    4.60614   4.61656   4.62605   4.63574   4.64278
 Alpha virt. eigenvalues --    4.64726   4.66135   4.67537   4.68151   4.68686
 Alpha virt. eigenvalues --    4.68967   4.69708   4.70819   4.71721   4.71878
 Alpha virt. eigenvalues --    4.72074   4.73006   4.74327   4.74993   4.75281
 Alpha virt. eigenvalues --    4.75594   4.77697   4.79629   4.80227   4.80809
 Alpha virt. eigenvalues --    4.81597   4.82185   4.83025   4.83794   4.84051
 Alpha virt. eigenvalues --    4.84419   4.84521   4.85499   4.85904   4.87042
 Alpha virt. eigenvalues --    4.87587   4.89084   4.89592   4.90317   4.90672
 Alpha virt. eigenvalues --    4.91800   4.93226   4.93825   4.94379   4.94912
 Alpha virt. eigenvalues --    4.96340   4.96699   4.97758   4.98139   4.99830
 Alpha virt. eigenvalues --    5.01167   5.01938   5.02328   5.02567   5.03344
 Alpha virt. eigenvalues --    5.04184   5.04759   5.05474   5.05815   5.06823
 Alpha virt. eigenvalues --    5.07126   5.08411   5.09266   5.09972   5.10290
 Alpha virt. eigenvalues --    5.11551   5.12835   5.15971   5.17930   5.18873
 Alpha virt. eigenvalues --    5.19512   5.19630   5.20727   5.21821   5.22841
 Alpha virt. eigenvalues --    5.23395   5.23971   5.25218   5.25763   5.27438
 Alpha virt. eigenvalues --    5.28550   5.30477   5.34808   5.35226   5.36726
 Alpha virt. eigenvalues --    5.37016   5.37962   5.38340   5.39335   5.39895
 Alpha virt. eigenvalues --    5.40659   5.42664   5.43065   5.43659   5.46460
 Alpha virt. eigenvalues --    5.48159   5.49120   5.49953   5.51018   5.51476
 Alpha virt. eigenvalues --    5.52020   5.53694   5.54758   5.57529   5.59501
 Alpha virt. eigenvalues --    5.61459   5.61809   5.62371   5.62933   5.65208
 Alpha virt. eigenvalues --    5.66391   5.67040   5.68446   5.69415   5.73277
 Alpha virt. eigenvalues --    5.74347   5.75589   5.76203   5.77839   5.79397
 Alpha virt. eigenvalues --    5.81406   5.83696   5.91599   5.92029   5.96544
 Alpha virt. eigenvalues --    6.01034   6.01497   6.03444   6.07802   6.08389
 Alpha virt. eigenvalues --    6.11306   6.11791   6.13944   6.17277   6.18630
 Alpha virt. eigenvalues --    6.25878   6.32999   6.34221   6.40551  22.33887
 Alpha virt. eigenvalues --   22.35744  22.43812  22.46347  22.46711  22.52805
 Alpha virt. eigenvalues --   22.54633  22.62415  22.63009  22.76877  22.83569
 Alpha virt. eigenvalues --   22.86431  22.88376  22.93111  22.94029  22.95576
 Alpha virt. eigenvalues --   22.96139  23.03386  23.04388  23.07135  23.15212
 Alpha virt. eigenvalues --   23.25958  23.28432  23.28898  23.31856  23.37153
 Alpha virt. eigenvalues --   23.42765  23.50774  23.52941  23.56659  23.74568
 Alpha virt. eigenvalues --   23.79448  23.79812  23.89429  32.40620  32.73622
 Alpha virt. eigenvalues --   32.89552  32.92639  33.01171  33.07342
  Beta  occ. eigenvalues -- -256.19081 -30.00177 -25.85234 -25.84667 -25.84163
  Beta  occ. eigenvalues --  -14.41627 -14.35032 -14.32864 -14.32768 -14.32606
  Beta  occ. eigenvalues --  -14.32330 -10.25351 -10.23602 -10.21495 -10.21348
  Beta  occ. eigenvalues --  -10.21346 -10.21182 -10.21139 -10.21086 -10.21046
  Beta  occ. eigenvalues --  -10.20989 -10.20947 -10.20726 -10.19837 -10.19778
  Beta  occ. eigenvalues --  -10.19414 -10.19015 -10.18979 -10.18949 -10.18859
  Beta  occ. eigenvalues --  -10.18795 -10.18762 -10.18753 -10.18749 -10.18745
  Beta  occ. eigenvalues --  -10.18669 -10.18651 -10.18621 -10.18600 -10.18595
  Beta  occ. eigenvalues --  -10.18574 -10.18471 -10.18427 -10.18363 -10.18308
  Beta  occ. eigenvalues --   -3.34330  -2.10238  -2.09811  -2.09297  -1.05026
  Beta  occ. eigenvalues --   -0.97061  -0.96175  -0.95926  -0.95004  -0.90500
  Beta  occ. eigenvalues --   -0.82550  -0.82118  -0.81673  -0.80901  -0.80518
  Beta  occ. eigenvalues --   -0.80177  -0.79878  -0.79726  -0.77083  -0.76100
  Beta  occ. eigenvalues --   -0.74416  -0.74168  -0.73282  -0.71680  -0.71175
  Beta  occ. eigenvalues --   -0.70160  -0.68406  -0.68043  -0.68004  -0.64497
  Beta  occ. eigenvalues --   -0.64263  -0.64225  -0.61228  -0.61157  -0.60228
  Beta  occ. eigenvalues --   -0.57823  -0.56717  -0.55786  -0.54805  -0.54209
  Beta  occ. eigenvalues --   -0.53592  -0.52294  -0.51261  -0.51030  -0.50579
  Beta  occ. eigenvalues --   -0.48767  -0.48004  -0.47709  -0.47514  -0.47331
  Beta  occ. eigenvalues --   -0.46266  -0.44995  -0.44866  -0.44671  -0.44269
  Beta  occ. eigenvalues --   -0.43797  -0.43688  -0.43413  -0.43292  -0.43062
  Beta  occ. eigenvalues --   -0.42929  -0.42573  -0.42399  -0.42194  -0.41667
  Beta  occ. eigenvalues --   -0.41556  -0.41504  -0.41439  -0.40668  -0.40446
  Beta  occ. eigenvalues --   -0.40128  -0.39944  -0.39567  -0.39281  -0.39164
  Beta  occ. eigenvalues --   -0.38830  -0.38635  -0.38173  -0.37712  -0.37425
  Beta  occ. eigenvalues --   -0.37178  -0.36363  -0.36132  -0.36100  -0.35610
  Beta  occ. eigenvalues --   -0.34696  -0.34309  -0.34005  -0.33030  -0.32105
  Beta  occ. eigenvalues --   -0.31991  -0.31138  -0.30256  -0.29816  -0.29243
  Beta  occ. eigenvalues --   -0.28884  -0.26896  -0.26797  -0.24218  -0.23507
  Beta  occ. eigenvalues --   -0.23230  -0.22863  -0.22184  -0.18866  -0.18137
  Beta  occ. eigenvalues --   -0.15116
  Beta virt. eigenvalues --   -0.07627  -0.06360  -0.02118  -0.00825  -0.00297
  Beta virt. eigenvalues --    0.00788   0.01448   0.01680   0.02094   0.03032
  Beta virt. eigenvalues --    0.04215   0.04607   0.05165   0.05556   0.05667
  Beta virt. eigenvalues --    0.05786   0.06362   0.06965   0.07551   0.07745
  Beta virt. eigenvalues --    0.08008   0.08361   0.08785   0.09171   0.09313
  Beta virt. eigenvalues --    0.09795   0.09936   0.10177   0.10625   0.10888
  Beta virt. eigenvalues --    0.11009   0.11240   0.11579   0.11628   0.12004
  Beta virt. eigenvalues --    0.12295   0.12694   0.12803   0.12966   0.13403
  Beta virt. eigenvalues --    0.13448   0.13618   0.13767   0.14027   0.14368
  Beta virt. eigenvalues --    0.14580   0.14796   0.14908   0.15243   0.15440
  Beta virt. eigenvalues --    0.15481   0.15641   0.16010   0.16091   0.16492
  Beta virt. eigenvalues --    0.16564   0.16966   0.17315   0.17396   0.17542
  Beta virt. eigenvalues --    0.17811   0.18094   0.18625   0.18670   0.19470
  Beta virt. eigenvalues --    0.19558   0.19629   0.19862   0.20141   0.20288
  Beta virt. eigenvalues --    0.20444   0.20919   0.21380   0.21656   0.21969
  Beta virt. eigenvalues --    0.22255   0.22294   0.22469   0.22818   0.23046
  Beta virt. eigenvalues --    0.23679   0.23871   0.24199   0.24354   0.24984
  Beta virt. eigenvalues --    0.25128   0.25395   0.25601   0.25914   0.26370
  Beta virt. eigenvalues --    0.26759   0.26887   0.27282   0.27665   0.27760
  Beta virt. eigenvalues --    0.27925   0.28152   0.28379   0.28882   0.29117
  Beta virt. eigenvalues --    0.29285   0.29488   0.29819   0.29973   0.30243
  Beta virt. eigenvalues --    0.30502   0.30599   0.31066   0.31148   0.31506
  Beta virt. eigenvalues --    0.32089   0.32118   0.32451   0.32992   0.33331
  Beta virt. eigenvalues --    0.33382   0.33675   0.34057   0.34214   0.34614
  Beta virt. eigenvalues --    0.34656   0.35142   0.35736   0.35901   0.36092
  Beta virt. eigenvalues --    0.36548   0.36660   0.37087   0.37195   0.37388
  Beta virt. eigenvalues --    0.37689   0.37992   0.38468   0.38724   0.38877
  Beta virt. eigenvalues --    0.39020   0.39473   0.39632   0.39762   0.39875
  Beta virt. eigenvalues --    0.40221   0.40595   0.40827   0.40859   0.41037
  Beta virt. eigenvalues --    0.41263   0.41353   0.41713   0.41868   0.42206
  Beta virt. eigenvalues --    0.42283   0.42837   0.42868   0.43141   0.43492
  Beta virt. eigenvalues --    0.43751   0.43900   0.44205   0.44276   0.44454
  Beta virt. eigenvalues --    0.44737   0.44992   0.45263   0.45410   0.45754
  Beta virt. eigenvalues --    0.46157   0.46234   0.46434   0.46501   0.46560
  Beta virt. eigenvalues --    0.46756   0.46949   0.47162   0.47387   0.47744
  Beta virt. eigenvalues --    0.48053   0.48165   0.48389   0.48547   0.48841
  Beta virt. eigenvalues --    0.48922   0.49138   0.49238   0.49438   0.49887
  Beta virt. eigenvalues --    0.49916   0.50089   0.50425   0.50596   0.51051
  Beta virt. eigenvalues --    0.51209   0.51332   0.51558   0.51883   0.52000
  Beta virt. eigenvalues --    0.52432   0.52550   0.52712   0.53089   0.53332
  Beta virt. eigenvalues --    0.53641   0.53901   0.54034   0.54189   0.54571
  Beta virt. eigenvalues --    0.55099   0.55198   0.55265   0.55688   0.56018
  Beta virt. eigenvalues --    0.56579   0.56662   0.56918   0.57194   0.57412
  Beta virt. eigenvalues --    0.57861   0.57885   0.58618   0.58705   0.59018
  Beta virt. eigenvalues --    0.59249   0.59708   0.59815   0.60130   0.60442
  Beta virt. eigenvalues --    0.60466   0.61481   0.61597   0.61806   0.61956
  Beta virt. eigenvalues --    0.61995   0.62413   0.63263   0.63500   0.63818
  Beta virt. eigenvalues --    0.64532   0.64586   0.64785   0.65204   0.65308
  Beta virt. eigenvalues --    0.65653   0.66177   0.66271   0.66777   0.66989
  Beta virt. eigenvalues --    0.67083   0.67707   0.67805   0.68086   0.68493
  Beta virt. eigenvalues --    0.68870   0.69248   0.69600   0.69737   0.70467
  Beta virt. eigenvalues --    0.70681   0.71032   0.71129   0.71561   0.71718
  Beta virt. eigenvalues --    0.72173   0.72382   0.72705   0.73181   0.73329
  Beta virt. eigenvalues --    0.73736   0.73992   0.74164   0.74705   0.75069
  Beta virt. eigenvalues --    0.75235   0.75446   0.76150   0.76431   0.76613
  Beta virt. eigenvalues --    0.76887   0.76906   0.77378   0.77807   0.78076
  Beta virt. eigenvalues --    0.78412   0.78938   0.79506   0.79550   0.79634
  Beta virt. eigenvalues --    0.79707   0.80314   0.80831   0.81090   0.81618
  Beta virt. eigenvalues --    0.81840   0.82296   0.83109   0.83503   0.83712
  Beta virt. eigenvalues --    0.83810   0.84180   0.84515   0.85309   0.85524
  Beta virt. eigenvalues --    0.86058   0.86467   0.86784   0.87161   0.87447
  Beta virt. eigenvalues --    0.87783   0.88063   0.88444   0.88969   0.89510
  Beta virt. eigenvalues --    0.89820   0.90021   0.90230   0.90762   0.90946
  Beta virt. eigenvalues --    0.91772   0.92195   0.92574   0.92897   0.92965
  Beta virt. eigenvalues --    0.93963   0.93988   0.94491   0.94614   0.94773
  Beta virt. eigenvalues --    0.95081   0.96156   0.96343   0.96537   0.96708
  Beta virt. eigenvalues --    0.96845   0.97579   0.97789   0.98636   0.98860
  Beta virt. eigenvalues --    0.99016   0.99314   0.99800   1.00272   1.00666
  Beta virt. eigenvalues --    1.01044   1.01326   1.01762   1.01831   1.02076
  Beta virt. eigenvalues --    1.02586   1.02732   1.02846   1.03200   1.03673
  Beta virt. eigenvalues --    1.04033   1.04239   1.04508   1.04970   1.05161
  Beta virt. eigenvalues --    1.05315   1.05814   1.05999   1.06743   1.07340
  Beta virt. eigenvalues --    1.07451   1.07822   1.08191   1.08706   1.09234
  Beta virt. eigenvalues --    1.09617   1.09974   1.10225   1.10668   1.11208
  Beta virt. eigenvalues --    1.11440   1.11901   1.12125   1.13026   1.13341
  Beta virt. eigenvalues --    1.13817   1.14675   1.15439   1.15532   1.15833
  Beta virt. eigenvalues --    1.16112   1.16857   1.16914   1.17645   1.17937
  Beta virt. eigenvalues --    1.18050   1.18607   1.18718   1.19390   1.19973
  Beta virt. eigenvalues --    1.20682   1.20866   1.21200   1.21689   1.22274
  Beta virt. eigenvalues --    1.22660   1.23060   1.23519   1.24382   1.24569
  Beta virt. eigenvalues --    1.25162   1.25758   1.26072   1.26423   1.26500
  Beta virt. eigenvalues --    1.26963   1.27334   1.27854   1.28153   1.28533
  Beta virt. eigenvalues --    1.28823   1.28928   1.29186   1.29645   1.29933
  Beta virt. eigenvalues --    1.30889   1.30998   1.31317   1.31762   1.32052
  Beta virt. eigenvalues --    1.32285   1.32889   1.33502   1.33722   1.35324
  Beta virt. eigenvalues --    1.35594   1.36495   1.37208   1.37798   1.38288
  Beta virt. eigenvalues --    1.38560   1.38984   1.39857   1.40077   1.40466
  Beta virt. eigenvalues --    1.41202   1.41507   1.41697   1.42225   1.42666
  Beta virt. eigenvalues --    1.42829   1.43839   1.44828   1.44950   1.45807
  Beta virt. eigenvalues --    1.45939   1.46190   1.46461   1.47393   1.47770
  Beta virt. eigenvalues --    1.48535   1.48675   1.49266   1.49331   1.49814
  Beta virt. eigenvalues --    1.50106   1.50322   1.50533   1.50976   1.51390
  Beta virt. eigenvalues --    1.51480   1.51656   1.52150   1.52298   1.52683
  Beta virt. eigenvalues --    1.52814   1.53031   1.53068   1.53945   1.54122
  Beta virt. eigenvalues --    1.54479   1.54796   1.54844   1.55089   1.55203
  Beta virt. eigenvalues --    1.55486   1.55769   1.56208   1.56307   1.56398
  Beta virt. eigenvalues --    1.56955   1.57137   1.57377   1.57684   1.57930
  Beta virt. eigenvalues --    1.58204   1.58515   1.58984   1.59090   1.59375
  Beta virt. eigenvalues --    1.59745   1.60007   1.60380   1.60690   1.61084
  Beta virt. eigenvalues --    1.61473   1.61862   1.62175   1.62374   1.62609
  Beta virt. eigenvalues --    1.62823   1.63175   1.63482   1.64038   1.64376
  Beta virt. eigenvalues --    1.64737   1.64824   1.65284   1.65565   1.65768
  Beta virt. eigenvalues --    1.66193   1.66259   1.66444   1.66975   1.67142
  Beta virt. eigenvalues --    1.67855   1.68134   1.68340   1.68883   1.69301
  Beta virt. eigenvalues --    1.70249   1.70361   1.70662   1.71100   1.71423
  Beta virt. eigenvalues --    1.71636   1.72102   1.72617   1.73201   1.73253
  Beta virt. eigenvalues --    1.73813   1.74080   1.74573   1.75097   1.75186
  Beta virt. eigenvalues --    1.75623   1.76114   1.76758   1.77498   1.78092
  Beta virt. eigenvalues --    1.78575   1.79442   1.80555   1.81049   1.81434
  Beta virt. eigenvalues --    1.82078   1.82196   1.82637   1.82920   1.82986
  Beta virt. eigenvalues --    1.83782   1.84527   1.84675   1.85276   1.85469
  Beta virt. eigenvalues --    1.86105   1.86427   1.87050   1.87167   1.87827
  Beta virt. eigenvalues --    1.88353   1.89003   1.89322   1.89494   1.90400
  Beta virt. eigenvalues --    1.90807   1.91449   1.91777   1.93091   1.93382
  Beta virt. eigenvalues --    1.93828   1.94142   1.94840   1.95348   1.95837
  Beta virt. eigenvalues --    1.96230   1.96442   1.97010   1.97298   1.97624
  Beta virt. eigenvalues --    1.98410   1.98811   1.99213   1.99638   2.00084
  Beta virt. eigenvalues --    2.00465   2.00850   2.01039   2.01583   2.02104
  Beta virt. eigenvalues --    2.02706   2.03139   2.03586   2.04419   2.04671
  Beta virt. eigenvalues --    2.05689   2.05876   2.06436   2.06791   2.06906
  Beta virt. eigenvalues --    2.07560   2.08096   2.08625   2.09035   2.09422
  Beta virt. eigenvalues --    2.09755   2.10570   2.10979   2.11266   2.11489
  Beta virt. eigenvalues --    2.11922   2.12699   2.13393   2.13984   2.14090
  Beta virt. eigenvalues --    2.14621   2.15472   2.15778   2.16073   2.16510
  Beta virt. eigenvalues --    2.17188   2.17523   2.17951   2.18268   2.18804
  Beta virt. eigenvalues --    2.19429   2.19591   2.20069   2.20499   2.20937
  Beta virt. eigenvalues --    2.21017   2.21825   2.22244   2.23156   2.23433
  Beta virt. eigenvalues --    2.24251   2.25013   2.25047   2.25583   2.26278
  Beta virt. eigenvalues --    2.26710   2.27335   2.27505   2.28124   2.28712
  Beta virt. eigenvalues --    2.29090   2.29245   2.29657   2.30037   2.30959
  Beta virt. eigenvalues --    2.31427   2.31679   2.32168   2.32545   2.32780
  Beta virt. eigenvalues --    2.33104   2.34140   2.34290   2.34604   2.35300
  Beta virt. eigenvalues --    2.35758   2.36059   2.36285   2.36778   2.37322
  Beta virt. eigenvalues --    2.37543   2.37805   2.38137   2.38458   2.39252
  Beta virt. eigenvalues --    2.39518   2.40078   2.40155   2.40440   2.40934
  Beta virt. eigenvalues --    2.41738   2.42469   2.42539   2.43020   2.43661
  Beta virt. eigenvalues --    2.44120   2.44552   2.45086   2.45251   2.45850
  Beta virt. eigenvalues --    2.46267   2.46655   2.46710   2.47461   2.47614
  Beta virt. eigenvalues --    2.47985   2.49040   2.49106   2.50199   2.50914
  Beta virt. eigenvalues --    2.51318   2.51535   2.51857   2.52482   2.52822
  Beta virt. eigenvalues --    2.52893   2.53257   2.53762   2.54028   2.54764
  Beta virt. eigenvalues --    2.55481   2.55569   2.55889   2.56355   2.56644
  Beta virt. eigenvalues --    2.56796   2.57169   2.57492   2.58188   2.58440
  Beta virt. eigenvalues --    2.58585   2.58778   2.59550   2.60405   2.60616
  Beta virt. eigenvalues --    2.61182   2.61675   2.61697   2.62039   2.62368
  Beta virt. eigenvalues --    2.62736   2.63085   2.63911   2.64023   2.65082
  Beta virt. eigenvalues --    2.65316   2.65463   2.66004   2.66324   2.66784
  Beta virt. eigenvalues --    2.67151   2.67803   2.68251   2.68678   2.69039
  Beta virt. eigenvalues --    2.69321   2.69465   2.70149   2.70858   2.70982
  Beta virt. eigenvalues --    2.71756   2.72076   2.72780   2.73119   2.73684
  Beta virt. eigenvalues --    2.74074   2.74249   2.74715   2.75001   2.76035
  Beta virt. eigenvalues --    2.76382   2.76591   2.77149   2.77970   2.78231
  Beta virt. eigenvalues --    2.78710   2.79078   2.79379   2.80593   2.80901
  Beta virt. eigenvalues --    2.81103   2.81343   2.81617   2.82138   2.82885
  Beta virt. eigenvalues --    2.83241   2.83476   2.83819   2.84712   2.84826
  Beta virt. eigenvalues --    2.85009   2.85467   2.85922   2.86031   2.86272
  Beta virt. eigenvalues --    2.86745   2.87768   2.88080   2.88367   2.88652
  Beta virt. eigenvalues --    2.89092   2.89609   2.89705   2.90203   2.90628
  Beta virt. eigenvalues --    2.91135   2.91678   2.91753   2.92156   2.92516
  Beta virt. eigenvalues --    2.92863   2.93412   2.93947   2.94021   2.94571
  Beta virt. eigenvalues --    2.94789   2.95187   2.95314   2.95432   2.95897
  Beta virt. eigenvalues --    2.96275   2.96695   2.97020   2.97766   2.97942
  Beta virt. eigenvalues --    2.98278   2.98671   2.99017   2.99855   2.99939
  Beta virt. eigenvalues --    3.00480   3.00872   3.01092   3.02126   3.02476
  Beta virt. eigenvalues --    3.02948   3.03371   3.03431   3.04087   3.04384
  Beta virt. eigenvalues --    3.04518   3.05114   3.05647   3.05801   3.05879
  Beta virt. eigenvalues --    3.06756   3.07094   3.07361   3.07703   3.07888
  Beta virt. eigenvalues --    3.08389   3.08778   3.09166   3.09245   3.09534
  Beta virt. eigenvalues --    3.09688   3.09878   3.10565   3.10584   3.10868
  Beta virt. eigenvalues --    3.11456   3.11560   3.11860   3.12406   3.12789
  Beta virt. eigenvalues --    3.13101   3.13482   3.13694   3.14122   3.14372
  Beta virt. eigenvalues --    3.14888   3.15111   3.15599   3.15916   3.16396
  Beta virt. eigenvalues --    3.16594   3.16728   3.17542   3.17901   3.18094
  Beta virt. eigenvalues --    3.18398   3.18953   3.19446   3.19714   3.19905
  Beta virt. eigenvalues --    3.20339   3.20533   3.20998   3.21116   3.21231
  Beta virt. eigenvalues --    3.21571   3.21677   3.22138   3.22628   3.23417
  Beta virt. eigenvalues --    3.23610   3.23987   3.24247   3.24450   3.24941
  Beta virt. eigenvalues --    3.25140   3.25281   3.25620   3.25846   3.26196
  Beta virt. eigenvalues --    3.26447   3.26720   3.26930   3.27203   3.27567
  Beta virt. eigenvalues --    3.27788   3.28126   3.28424   3.28636   3.29111
  Beta virt. eigenvalues --    3.29376   3.29592   3.30182   3.30238   3.30368
  Beta virt. eigenvalues --    3.30581   3.30796   3.30932   3.31337   3.31604
  Beta virt. eigenvalues --    3.31916   3.31949   3.32606   3.32933   3.33018
  Beta virt. eigenvalues --    3.33598   3.33974   3.34137   3.34273   3.34628
  Beta virt. eigenvalues --    3.35068   3.35182   3.35424   3.35629   3.35837
  Beta virt. eigenvalues --    3.36309   3.36866   3.36924   3.37139   3.37255
  Beta virt. eigenvalues --    3.37487   3.37842   3.37979   3.38332   3.38557
  Beta virt. eigenvalues --    3.38748   3.39083   3.39430   3.40021   3.40421
  Beta virt. eigenvalues --    3.40565   3.40807   3.41098   3.42173   3.42527
  Beta virt. eigenvalues --    3.42767   3.43039   3.43313   3.43721   3.43988
  Beta virt. eigenvalues --    3.44443   3.44955   3.45285   3.45885   3.46170
  Beta virt. eigenvalues --    3.46656   3.46812   3.46999   3.47322   3.48479
  Beta virt. eigenvalues --    3.48703   3.49118   3.49839   3.50218   3.50567
  Beta virt. eigenvalues --    3.51448   3.51929   3.52500   3.53155   3.53247
  Beta virt. eigenvalues --    3.53839   3.54145   3.54839   3.55141   3.56075
  Beta virt. eigenvalues --    3.56522   3.56788   3.57009   3.57134   3.58247
  Beta virt. eigenvalues --    3.58489   3.58885   3.59456   3.59858   3.60299
  Beta virt. eigenvalues --    3.60660   3.61246   3.61980   3.62428   3.62899
  Beta virt. eigenvalues --    3.63236   3.63632   3.64593   3.65130   3.65925
  Beta virt. eigenvalues --    3.66150   3.66242   3.67008   3.67384   3.67956
  Beta virt. eigenvalues --    3.68451   3.68683   3.68821   3.69314   3.70087
  Beta virt. eigenvalues --    3.70508   3.70854   3.71359   3.71523   3.71696
  Beta virt. eigenvalues --    3.72106   3.72480   3.73170   3.73337   3.73889
  Beta virt. eigenvalues --    3.74272   3.75015   3.75257   3.75582   3.75874
  Beta virt. eigenvalues --    3.76449   3.76825   3.77338   3.78107   3.78762
  Beta virt. eigenvalues --    3.79291   3.79809   3.80521   3.81225   3.81540
  Beta virt. eigenvalues --    3.82321   3.82663   3.83544   3.84037   3.84634
  Beta virt. eigenvalues --    3.84758   3.85347   3.86149   3.86621   3.87206
  Beta virt. eigenvalues --    3.87586   3.88001   3.88814   3.89336   3.90058
  Beta virt. eigenvalues --    3.90584   3.91163   3.91628   3.92059   3.92484
  Beta virt. eigenvalues --    3.93813   3.94077   3.94660   3.95168   3.95853
  Beta virt. eigenvalues --    3.96847   3.97797   3.98200   3.98806   3.98922
  Beta virt. eigenvalues --    3.99899   4.00118   4.00468   4.00806   4.02125
  Beta virt. eigenvalues --    4.02411   4.02636   4.02917   4.03880   4.04732
  Beta virt. eigenvalues --    4.05144   4.05624   4.06301   4.06489   4.07127
  Beta virt. eigenvalues --    4.08129   4.09247   4.10011   4.10286   4.11016
  Beta virt. eigenvalues --    4.12088   4.12611   4.13222   4.13813   4.14081
  Beta virt. eigenvalues --    4.15285   4.16264   4.16838   4.17903   4.17935
  Beta virt. eigenvalues --    4.18732   4.18881   4.19522   4.19626   4.19909
  Beta virt. eigenvalues --    4.20490   4.21673   4.21974   4.22634   4.23221
  Beta virt. eigenvalues --    4.23823   4.24237   4.24392   4.25084   4.25641
  Beta virt. eigenvalues --    4.26537   4.27345   4.27640   4.28596   4.29284
  Beta virt. eigenvalues --    4.29417   4.30751   4.31491   4.31701   4.32474
  Beta virt. eigenvalues --    4.32859   4.33478   4.33904   4.34808   4.34967
[...]
                                                    1435(r),160(r)
   139. CR (   1) C  64                  0.99970   -10.05975  1483(v),1481(v),1283(v)
                                                    1243(v)
   140. CR (   1) N  68                  0.99969   -14.22032  1311(v),1285(v),1279(v)
                                                    1479(v),1286(v)
   141. CR (   1) C  70                  0.99957   -10.08840  1483(g),1368(v),1489(v)
                                                    1213(v),1256(v)
   142. CR (   1) C  71                  0.99968   -10.12109  1342(v),1480(v),1488(v)
                                                    148(r),147(r)
   143. CR (   1) N  73                  0.99970   -14.13735  148(r),147(r),1309(v),152(r)
                                                    1366(v),1485(v),166(r)
                                                    164(r),146(r),153(r)
   144. CR (   1) C  74                  0.99949   -10.05904  1479(v),1283(v),1483(g)
                                                    1342(v),1286(v),148(r)
                                                    147(r)
   158. LP (   1) N  68                  0.78910    -0.28375  1487(v),1484(v),1312(v)
                                                    1284(v),1278(v),1310(v)
   159. LP (   1) N  73                  0.83570    -0.37366  148(r),147(r),152(r),1482(v)
                                                    1483(v),1309(v),1485(v)
                                                    1489(v),1366(v),146(r)
                                                    1486(g),1488(g),153(r)
                                                    1344(g),151(r),180(r),165(r)
                                                    149(r),239(r),214(r),187(r)
                                                    266(r),150(r),1403(r)
                                                    1405(r),268(r),1400(r)
                                                    216(r),1399(r),1407(r)
                                                    164(r),1397(r),1406(r)
                                                    242(r),179(r),190(r),1402(r)
                                                    188(r),1401(r),240(r),12(r)
                                                    265(r),213(r)
  1211. RY*(   1) C  64                  0.00059     1.15417   
  1212. RY*(   2) C  64                  0.00039     2.00948   
  1213. RY*(   3) C  64                  0.00026     1.32681   
  1214. RY*(   4) C  64                  0.00006     1.30131   
  1215. RY*(   5) C  64                  0.00003     1.17760   
  1216. RY*(   6) C  64                  0.00004     2.34270   
  1217. RY*(   7) C  64                  0.00000     1.62410   
  1218. RY*(   8) C  64                  0.00000     1.85714   
  1219. RY*(   9) C  64                  0.00000     1.37259   
  1220. RY*(  10) C  64                  0.00000     2.39974   
  1221. RY*(  11) C  64                  0.00001     1.33524   
  1222. RY*(  12) C  64                  0.00000     3.28698   
  1223. RY*(  13) C  64                  0.00000     2.54248   
  1224. RY*(  14) C  64                  0.00000     2.74902   
  1225. RY*(  15) C  64                  0.00000     2.32411   
  1226. RY*(  16) C  64                  0.00000     3.13829   
  1227. RY*(  17) C  64                  0.00000     2.48521   
  1228. RY*(  18) C  64                  0.00000    21.58919   
  1229. RY*(  19) C  64                  0.00000     2.75260   
  1230. RY*(  20) C  64                  0.00000     3.66406   
  1231. RY*(  21) C  64                  0.00000     3.45654   
  1232. RY*(  22) C  64                  0.00000     3.34404   
  1233. RY*(  23) C  64                  0.00000     3.74893   
  1234. RY*(  24) C  64                  0.00000     3.37456   
  1235. RY*(  25) C  64                  0.00000     3.33363   
  1236. RY*(  26) C  64                  0.00000     3.26907   
  1237. RY*(   1) H  65                  0.00036     0.99271   
  1238. RY*(   2) H  65                  0.00007     1.69450   
  1239. RY*(   3) H  65                  0.00004     1.89767   
  1240. RY*(   4) H  65                  0.00003     2.07973   
  1241. RY*(   5) H  65                  0.00000     2.87867   
  1242. RY*(   1) H  66                  0.00038     1.00398   
  1243. RY*(   2) H  66                  0.00007     1.70462   
  1244. RY*(   3) H  66                  0.00004     1.87574   
  1245. RY*(   4) H  66                  0.00003     2.07930   
  1246. RY*(   5) H  66                  0.00000     2.88214   
  1247. RY*(   1) H  67                  0.00012     1.37159   
  1248. RY*(   2) H  67                  0.00006     1.76339   
  1249. RY*(   3) H  67                  0.00004     2.04853   
  1250. RY*(   4) H  67                  0.00000     2.91959   
  1251. RY*(   5) H  67                  0.00001     1.54162   
  1252. RY*(   1) N  68                  0.00141     0.66035   
  1253. RY*(   2) N  68                  0.00114     1.76277   
  1254. RY*(   3) N  68                  0.00050     2.10205   
  1255. RY*(   4) N  68                  0.00039     2.19883   
  1256. RY*(   5) N  68                  0.00026     1.15428   
  1257. RY*(   6) N  68                  0.00014     2.04777   
  1258. RY*(   7) N  68                  0.00010     1.71422   
  1259. RY*(   8) N  68                  0.00003     2.28519   
  1260. RY*(   9) N  68                  0.00003     2.31714   
  1261. RY*(  10) N  68                  0.00002     2.93632   
  1262. RY*(  11) N  68                  0.00003     3.97878   
  1263. RY*(  12) N  68                  0.00000     2.13717   
  1264. RY*(  13) N  68                  0.00000     4.33954   
  1265. RY*(  14) N  68                  0.00000     2.95073   
  1266. RY*(  15) N  68                  0.00000     3.49579   
  1267. RY*(  16) N  68                  0.00000     3.32410   
  1268. RY*(  17) N  68                  0.00000     4.76157   
  1269. RY*(  18) N  68                  0.00000    30.52177   
  1270. RY*(  19) N  68                  0.00000     3.89838   
  1271. RY*(  20) N  68                  0.00000     4.58779   
  1272. RY*(  21) N  68                  0.00000     4.56913   
  1273. RY*(  22) N  68                  0.00000     4.42078   
  1274. RY*(  23) N  68                  0.00000     4.38783   
  1275. RY*(  24) N  68                  0.00000     4.38219   
  1276. RY*(  25) N  68                  0.00000     4.44455   
  1277. RY*(  26) N  68                  0.00000     4.46344   
  1278. RY*(   1) H  69                  0.00028     2.14980   
  1279. RY*(   2) H  69                  0.00020     2.14981   
  1280. RY*(   3) H  69                  0.00015     1.06609   
  1281. RY*(   4) H  69                  0.00010     2.48776   
  1282. RY*(   5) H  69                  0.00000     3.06440   
  1283. RY*(   1) C  70                  0.00204     1.69698   
  1284. RY*(   2) C  70                  0.00131     0.96982   
  1285. RY*(   3) C  70                  0.00096     1.46900   
  1286. RY*(   4) C  70                  0.00080     2.03954   
  1287. RY*(   5) C  70                  0.00060     1.80137   
  1288. RY*(   6) C  70                  0.00056     1.74204   
  1289. RY*(   7) C  70                  0.00019     2.81718   
  1290. RY*(   8) C  70                  0.00009     2.35695   
  1291. RY*(   9) C  70                  0.00008     2.87784   
  1292. RY*(  10) C  70                  0.00004     3.64471   
  1293. RY*(  11) C  70                  0.00001     1.78274   
  1294. RY*(  12) C  70                  0.00000    21.21760   
  1295. RY*(  13) C  70                  0.00001     1.45892   
  1296. RY*(  14) C  70                  0.00000     1.55700   
  1297. RY*(  15) C  70                  0.00000     2.83669   
  1298. RY*(  16) C  70                  0.00001     2.10535   
  1299. RY*(  17) C  70                  0.00000     3.41153   
  1300. RY*(  18) C  70                  0.00000     1.91920   
  1301. RY*(  19) C  70                  0.00000     1.25216   
  1302. RY*(  20) C  70                  0.00000     4.04727   
  1303. RY*(  21) C  70                  0.00000     3.95833   
  1304. RY*(  22) C  70                  0.00000     3.60257   
  1305. RY*(  23) C  70                  0.00000     3.77368   
  1306. RY*(  24) C  70                  0.00000     3.48005   
  1307. RY*(  25) C  70                  0.00000     3.61900   
  1308. RY*(  26) C  70                  0.00000     3.57806   
  1309. RY*(   1) C  71                  0.00211     1.56834   
  1310. RY*(   2) C  71                  0.00193     0.61961   
  1311. RY*(   3) C  71                  0.00103     1.33449   
  1312. RY*(   4) C  71                  0.00065     2.53441   
  1313. RY*(   5) C  71                  0.00040     1.61034   
  1314. RY*(   6) C  71                  0.00022     1.79347   
  1315. RY*(   7) C  71                  0.00012     1.88387   
  1316. RY*(   8) C  71                  0.00005     2.48931   
  1317. RY*(   9) C  71                  0.00004     2.01456   
  1318. RY*(  10) C  71                  0.00002     3.52055   
  1319. RY*(  11) C  71                  0.00002     2.15183   
  1320. RY*(  12) C  71                  0.00000     3.17535   
  1321. RY*(  13) C  71                  0.00001     2.35393   
  1322. RY*(  14) C  71                  0.00001     1.68698   
  1323. RY*(  15) C  71                  0.00000     2.54834   
  1324. RY*(  16) C  71                  0.00000     3.59224   
  1325. RY*(  17) C  71                  0.00000     2.79494   
  1326. RY*(  18) C  71                  0.00000    21.55694   
  1327. RY*(  19) C  71                  0.00001     2.78093   
  1328. RY*(  20) C  71                  0.00001     3.76265   
  1329. RY*(  21) C  71                  0.00000     4.03164   
  1330. RY*(  22) C  71                  0.00000     3.60039   
  1331. RY*(  23) C  71                  0.00000     3.82670   
  1332. RY*(  24) C  71                  0.00000     3.56832   
  1333. RY*(  25) C  71                  0.00000     3.54677   
  1334. RY*(  26) C  71                  0.00000     3.44555   
  1335. RY*(   1) H  72                  0.00029     0.94526   
  1336. RY*(   2) H  72                  0.00014     2.32203   
  1337. RY*(   3) H  72                  0.00011     2.14585   
  1338. RY*(   4) H  72                  0.00006     2.39921   
  1339. RY*(   5) H  72                  0.00001     3.14056   
  1340. RY*(   1) N  73                  0.00309     0.94790   
  1341. RY*(   2) N  73                  0.00274     1.34281   
  1342. RY*(   3) N  73                  0.00118     1.10690   
  1343. RY*(   4) N  73                  0.00040     1.60456   
  1344. RY*(   5) N  73                  0.00034     1.45766   
  1345. RY*(   6) N  73                  0.00023     1.85507   
  1346. RY*(   7) N  73                  0.00018     3.51187   
  1347. RY*(   8) N  73                  0.00015     2.90084   
  1348. RY*(   9) N  73                  0.00005     2.58575   
  1349. RY*(  10) N  73                  0.00006     3.34651   
  1350. RY*(  11) N  73                  0.00004     3.50568   
  1351. RY*(  12) N  73                  0.00003     2.54772   
  1352. RY*(  13) N  73                  0.00003     3.06127   
  1353. RY*(  14) N  73                  0.00001     4.00514   
  1354. RY*(  15) N  73                  0.00000     4.41995   
  1355. RY*(  16) N  73                  0.00000    31.83626   
  1356. RY*(  17) N  73                  0.00000     4.51274   
  1357. RY*(  18) N  73                  0.00001     4.85638   
  1358. RY*(  19) N  73                  0.00001     3.89701   
  1359. RY*(  20) N  73                  0.00000     4.36338   
  1360. RY*(  21) N  73                  0.00001     4.84982   
  1361. RY*(  22) N  73                  0.00000     4.16085   
  1362. RY*(  23) N  73                  0.00000     4.52588   
  1363. RY*(  24) N  73                  0.00000     4.65722   
  1364. RY*(  25) N  73                  0.00000     4.57391   
  1365. RY*(  26) N  73                  0.00000     4.60799   
  1366. RY*(   1) C  74                  0.00200     1.49161   
  1367. RY*(   2) C  74                  0.00147     0.64902   
  1368. RY*(   3) C  74                  0.00089     1.83818   
  1369. RY*(   4) C  74                  0.00037     1.95109   
  1370. RY*(   5) C  74                  0.00029     1.62339   
  1371. RY*(   6) C  74                  0.00024     2.12302   
  1372. RY*(   7) C  74                  0.00020     1.92119   
  1373. RY*(   8) C  74                  0.00013     1.37574   
  1374. RY*(   9) C  74                  0.00009     1.93374   
  1375. RY*(  10) C  74                  0.00007     1.63726   
  1376. RY*(  11) C  74                  0.00005     1.42931   
  1377. RY*(  12) C  74                  0.00002     2.11222   
  1378. RY*(  13) C  74                  0.00002     1.93725   
  1379. RY*(  14) C  74                  0.00002     2.87446   
  1380. RY*(  15) C  74                  0.00001     1.49496   
  1381. RY*(  16) C  74                  0.00001     3.47542   
  1382. RY*(  17) C  74                  0.00000     3.45554   
  1383. RY*(  18) C  74                  0.00000     3.33352   
  1384. RY*(  19) C  74                  0.00000    21.47541   
  1385. RY*(  20) C  74                  0.00000     3.90189   
  1386. RY*(  21) C  74                  0.00001     3.95104   
  1387. RY*(  22) C  74                  0.00000     3.52120   
  1388. RY*(  23) C  74                  0.00000     3.64613   
  1389. RY*(  24) C  74                  0.00000     3.41292   
  1390. RY*(  25) C  74                  0.00000     3.54880   
  1391. RY*(  26) C  74                  0.00000     3.55589   
  1392. RY*(   1) H  75                  0.00025     0.90633   
  1393. RY*(   2) H  75                  0.00016     2.23391   
  1394. RY*(   3) H  75                  0.00012     2.29021   
  1395. RY*(   4) H  75                  0.00004     2.74863   
  1396. RY*(   5) H  75                  0.00001     3.10347   
  1476. BD*(   1) C  64 - H  65          0.00549     0.35819   
  1477. BD*(   1) C  64 - H  66          0.00634     0.35909   
  1478. BD*(   1) C  64 - H  67          0.00176     0.37123   
  1479. BD*(   1) C  64 - C  70          0.00685     0.38923   
  1480. BD*(   1) N  68 - H  69          0.00717     0.36578   
  1481. BD*(   1) N  68 - C  70          0.01360     0.42965   
  1482. BD*(   1) N  68 - C  71          0.01171     0.44832   
  1483. BD*(   1) C  70 - C  74          0.01081     0.56529   
  1484. BD*(   2) C  70 - C  74          0.15133     0.03426  1487(v),1477(v),1476(v)
                                                    1287(g)
  1485. BD*(   1) C  71 - H  72          0.00951     0.39032   
  1486. BD*(   1) C  71 - N  73          0.00757     0.53670   
  1487. BD*(   2) C  71 - N  73          0.21091    -0.00475  1484(v),151(r),1310(g)
                                                    1367(v),12(r),1404(r),150(r)
                                                    1401(r),146(r)
  1488. BD*(   1) N  73 - C  74          0.00753     0.47947   
  1489. BD*(   1) C  74 - H  75          0.00777     0.43093   
       -------------------------------
              Total Lewis   21.37094  ( 97.7370%)
        Valence non-Lewis    0.45837  (  2.0963%)
        Rydberg non-Lewis    0.03646  (  0.1667%)
       -------------------------------
            Total unit  3   21.86576  (100.0000%)
           Charge unit  3    0.13424
 Unable to Open any file for archive entry.
 1\1\GINC-BGN1038\SP\UAPFD\def2TZVP\C34H34Fe1N6(5)\BECSLEIP\09-Sep-2024
 \0\\# apfd/def2TZVP guess=read scf=maxcycle=999 geom=check pop=nbo\\2x
 vx_II_Q\\0,5\Fe,0,-0.2723245627,44.6310228087,0.0065229211\N,0,1.67848
 95473,44.7341540548,0.5982181484\N,0,-0.095486285,42.6303747796,0.0088
 656763\N,0,-2.1485862049,44.5005844431,-0.5533056801\N,0,-0.2909426221
 ,46.617911094,-0.0429958882\C,0,2.4607817271,45.8506889798,0.617461734
 5\C,0,3.845152333,45.5115251078,0.856895789\C,0,3.8894994303,44.158674
 159,0.9777764485\C,0,2.5333883421,43.692689971,0.7963928607\C,0,0.9519
 474101,41.8674868366,0.4272111299\C,0,0.639949119,40.46442169,0.337707
 4714\C,0,-0.6273035284,40.3858566508,-0.1749323186\C,0,-1.0713758664,4
 1.75327513,-0.3591859864\C,0,-2.774433481,43.3881775006,-1.0279606751\
 C,0,-3.9946833481,43.7351592666,-1.7028838658\C,0,-4.1170870694,45.095
 5395844,-1.6071223403\C,0,-2.9317111086,45.5549766228,-0.9122752234\C,
 0,-1.4083785573,47.3691496331,-0.2675803088\C,0,-1.0990368248,48.77912
 82113,-0.1742287945\C,0,0.2314375606,48.8616920645,0.0944803687\C,0,0.
 7145328886,47.5017218327,0.1818280041\C,0,2.0190032848,47.1511400617,0
 .4616428701\H,0,2.7458677471,47.9429658835,0.558181364\C,0,2.182944427
 4,42.3581573235,0.8238868302\H,0,2.9530133901,41.645854685,1.075102542
 8\C,0,-2.3067820966,42.0950486588,-0.8744764155\H,0,-2.9411588427,41.2
 950068669,-1.2222423364\C,0,-2.6492034052,46.8828257286,-0.6380178012\
 H,0,-3.4037710448,47.6106642398,-0.8913578967\C,0,5.0596440031,43.2693
 706198,1.2222369743\H,0,4.912481387,42.6749835319,2.1242845354\H,0,5.9
 687447562,43.8532143798,1.3429359339\H,0,5.1998527688,42.5851341865,0.
 3853960458\C,0,4.9496321601,46.505887997,0.9620690866\H,0,4.7527715401
 ,47.2089343187,1.7717894772\H,0,5.0469027495,47.0735435453,0.036865592
 3\H,0,5.8966037335,46.0109112009,1.1623392331\C,0,1.5582381713,39.3577
 337664,0.7239098322\H,0,2.1374064065,39.6201823246,1.6078061974\H,0,2.
 2585398114,39.1443599176,-0.0860253893\H,0,0.9904896455,38.4531618577,
 0.9315371367\C,0,-1.4221216197,39.2180873061,-0.4882922979\H,0,-2.4898
 270562,39.3253048082,-0.3376042881\C,0,-0.9500730157,38.0662431734,-0.
 9531153557\H,0,0.0932691022,37.9184682957,-1.1705517155\H,0,-1.6036631
 12,37.2357916228,-1.1622389422\C,0,-4.9415784051,42.7615292609,-2.3138
 573115\H,0,-5.3527804087,42.0987446818,-1.5514310659\H,0,-4.4355053509
 ,42.1458530757,-3.0575609768\H,0,-5.7677582136,43.2817181232,-2.792054
 1822\C,0,-5.2226881731,45.8945125179,-2.102433571\H,0,-5.6015910569,45
 .603787385,-3.0766644411\C,0,-5.8213885027,46.8815829026,-1.4477781625
 \H,0,-5.5235568881,47.1734715093,-0.454681732\H,0,-6.6524096789,47.418
 6564297,-1.8737700226\C,0,-2.0931160549,49.8719494689,-0.3661089049\H,
 0,-2.9242724817,49.7634424568,0.3304274488\H,0,-2.4973324565,49.848393
 5509,-1.3781736145\H,0,-1.6339869787,50.8439068125,-0.2037269713\C,0,1
 .0900814014,50.0683748304,0.2544277684\H,0,0.5067806369,50.977235016,0
 .1292981561\H,0,1.8864838348,50.0673776211,-0.489290598\H,0,1.55008014
 17,50.0870542171,1.2423162589\C,0,-2.435958231,45.9046697013,5.0335746
 092\H,0,-1.7506461327,46.1617196523,5.8415238269\H,0,-3.2119749132,45.
 2540843805,5.4377766359\H,0,-2.9024537039,46.8149850091,4.6687604276\N
 ,0,-0.9188656287,44.1369902347,4.1042340629\H,0,-0.7549022559,43.66700
 52821,4.9800808703\C,0,-1.7109240746,45.2405168678,3.9210278812\C,0,-0
 .4030089047,43.7981871771,2.902205791\H,0,0.2587280014,42.9689121002,2
 .750903141\N,0,-0.8194340252,44.6186734665,1.9649442665\C,0,-1.6373658
 786,45.5200982354,2.5864282024\H,0,-2.1152894093,46.305381312,2.036651
 5223\\Version=ES64L-G16RevC.02\State=5-A\HF=-2907.5974664\S2=6.087434\
 S2-1=0.\S2A=6.000436\RMSD=6.017e-10\Dipole=0.0213294,0.078791,1.975837
 6\Quadrupole=-3.0830789,-0.8515171,3.934596,-1.8934632,1.1523538,-1.04
 23483\PG=C01 [X(C34H34Fe1N6)]\\@
 The archive entry for this job was punched.


 THE CAUTIOUS SELDOM ERR...CONFUCIUS                   
 Job cpu time:       1 days  7 hours 29 minutes  8.4 seconds.
 Elapsed time:       0 days  0 hours 29 minutes 31.2 seconds.
 File lengths (MBytes):  RWF=   2047 Int=      0 D2E=      0 Chk=    186 Scr=      1
 Normal termination of Gaussian 16 at Mon Sep  9 17:56:52 2024.
