 Entering Gaussian System, Link 0=g16
 Input=2ycg01.com
 Output=2ycg01.log
 Initial command:
 /sw/chem/gaussian/g16_C02/a100/g16/l1.exe "/local/becsleip_8010928/Gau-42856.inp" -scrdir="/local/becsleip_8010928/"
 Entering Link 1 = /sw/chem/gaussian/g16_C02/a100/g16/l1.exe PID=     42857.
  
 Copyright (c) 1988-2021, Gaussian, Inc.  All Rights Reserved.
  
 This is part of the Gaussian(R) 16 program.  It is based on
 the Gaussian(R) 09 system (copyright 2009, Gaussian, Inc.),
 the Gaussian(R) 03 system (copyright 2003, Gaussian, Inc.),
 the Gaussian(R) 98 system (copyright 1998, Gaussian, Inc.),
 the Gaussian(R) 94 system (copyright 1995, Gaussian, Inc.),
 the Gaussian 92(TM) system (copyright 1992, Gaussian, Inc.),
 the Gaussian 90(TM) system (copyright 1990, Gaussian, Inc.),
 the Gaussian 88(TM) system (copyright 1988, Gaussian, Inc.),
 the Gaussian 86(TM) system (copyright 1986, Carnegie Mellon
 University), and the Gaussian 82(TM) system (copyright 1983,
 Carnegie Mellon University). Gaussian is a federally registered
 trademark of Gaussian, Inc.
  
 This software contains proprietary and confidential information,
 including trade secrets, belonging to Gaussian, Inc.
  
 This software is provided under written license and may be
 used, copied, transmitted, or stored only in accord with that
 written license.
  
 The following legend is applicable only to US Government
 contracts under FAR:
  
                    RESTRICTED RIGHTS LEGEND
  
 Use, reproduction and disclosure by the US Government is
 subject to restrictions as set forth in subparagraphs (a)
 and (c) of the Commercial Computer Software - Restricted
 Rights clause in FAR 52.227-19.
  
 Gaussian, Inc.
 340 Quinnipiac St., Bldg. 40, Wallingford CT 06492
  
  
 ---------------------------------------------------------------
 Warning -- This program may not be used in any manner that
 competes with the business of Gaussian, Inc. or will provide
 assistance to any competitor of Gaussian, Inc.  The licensee
 of this program is prohibited from giving any competitor of
 Gaussian, Inc. access to this program.  By using this program,
 the user acknowledges that Gaussian, Inc. is engaged in the
 business of creating and licensing software in the field of
 computational chemistry and represents and warrants to the
 licensee that it is not a competitor of Gaussian, Inc. and that
 it will not use this program in any manner prohibited above.
 ---------------------------------------------------------------
  

 Cite this work as:
 Gaussian 16, Revision C.02,
 M. J. Frisch, G. W. Trucks, H. B. Schlegel, G. E. Scuseria, 
 M. A. Robb, J. R. Cheeseman, G. Scalmani, V. Barone, 
 G. A. Petersson, H. Nakatsuji, X. Li, M. Caricato, A. V. Marenich, 
 J. Bloino, B. G. Janesko, R. Gomperts, B. Mennucci, H. P. Hratchian, 
 J. V. Ortiz, A. F. Izmaylov, J. L. Sonnenberg, D. Williams-Young, 
 F. Ding, F. Lipparini, F. Egidi, J. Goings, B. Peng, A. Petrone, 
 T. Henderson, D. Ranasinghe, V. G. Zakrzewski, J. Gao, N. Rega, 
 G. Zheng, W. Liang, M. Hada, M. Ehara, K. Toyota, R. Fukuda, 
 J. Hasegawa, M. Ishida, T. Nakajima, Y. Honda, O. Kitao, H. Nakai, 
 T. Vreven, K. Throssell, J. A. Montgomery, Jr., J. E. Peralta, 
 F. Ogliaro, M. J. Bearpark, J. J. Heyd, E. N. Brothers, K. N. Kudin, 
 V. N. Staroverov, T. A. Keith, R. Kobayashi, J. Normand, 
 K. Raghavachari, A. P. Rendell, J. C. Burant, S. S. Iyengar, 
 J. Tomasi, M. Cossi, J. M. Millam, M. Klene, C. Adamo, R. Cammi, 
 J. W. Ochterski, R. L. Martin, K. Morokuma, O. Farkas, 
 J. B. Foresman, and D. J. Fox, Gaussian, Inc., Wallingford CT, 2019.
 
 ******************************************
 Gaussian 16:  ES64L-G16RevC.02  7-Dec-2021
                10-Sep-2024 
 ******************************************
 %mem=16GB
 %CPU=0-71
 SetSPE:  set environment variable "OMP_PROC_BIND" = "true"
 SetSPE:  set environment variable "OMP_PLACES" = "{0},{1},{2},{3},{4},{5},{6},{7},{8},{9},{10},{11},{12},{13},{14},{15},{16},{17},{18},{19},{20},{21},{22},{23},{24},{25},{26},{27},{28},{29},{30},{31},{32},{33},{34},{35},{36},{37},{38},{39},{40},{41},{42},{43},{44},{45},{46},{47},{48},{49},{50},{51},{52},{53},{54},{55},{56},{57},{58},{59},{60},{61},{62},{63},{64},{65},{66},{67},{68},{69},{70},{71}"
 Will use up to   72 processors via shared memory.
 %gpucpu=0,1,2,3=0,1,2,3
 Will use    4 GPUs:
 Thread  CPU   GPU
      0    0     0
      1    1     1
      2    2     2
      3    3     3
      4    4    -1
      5    5    -1
      6    6    -1
      7    7    -1
      8    8    -1
      9    9    -1
     10   10    -1
     11   11    -1
     12   12    -1
     13   13    -1
     14   14    -1
     15   15    -1
     16   16    -1
     17   17    -1
     18   18    -1
     19   19    -1
     20   20    -1
     21   21    -1
     22   22    -1
     23   23    -1
     24   24    -1
     25   25    -1
     26   26    -1
     27   27    -1
     28   28    -1
     29   29    -1
     30   30    -1
     31   31    -1
     32   32    -1
     33   33    -1
     34   34    -1
     35   35    -1
     36   36    -1
     37   37    -1
     38   38    -1
     39   39    -1
     40   40    -1
     41   41    -1
     42   42    -1
     43   43    -1
     44   44    -1
     45   45    -1
     46   46    -1
     47   47    -1
     48   48    -1
     49   49    -1
     50   50    -1
     51   51    -1
     52   52    -1
     53   53    -1
     54   54    -1
     55   55    -1
     56   56    -1
     57   57    -1
     58   58    -1
     59   59    -1
     60   60    -1
     61   61    -1
     62   62    -1
     63   63    -1
     64   64    -1
     65   65    -1
     66   66    -1
     67   67    -1
     68   68    -1
     69   69    -1
     70   70    -1
     71   71    -1
 SetGPE:  set environment variable "OMP_PROC_BIND" = "true"
 SetGPE:  set environment variable "OMP_PLACES" = "{0},{1},{2},{3},{4},{5},{6},{7},{8},{9},{10},{11},{12},{13},{14},{15},{16},{17},{18},{19},{20},{21},{22},{23},{24},{25},{26},{27},{28},{29},{30},{31},{32},{33},{34},{35},{36},{37},{38},{39},{40},{41},{42},{43},{44},{45},{46},{47},{48},{49},{50},{51},{52},{53},{54},{55},{56},{57},{58},{59},{60},{61},{62},{63},{64},{65},{66},{67},{68},{69},{70},{71}"
 %chk=2ycg_II_O.chk
 Properties for Device   0
 Minimum vector length:                              32
 Maximum vector length:                            1024
 Number of SMPs:                                    108
 Maximum number of threads per SMP:                2048
 Number of ASync Engines:                             5
 Memory:                                           9207742464
 Properties for Device   1
 Minimum vector length:                              32
 Maximum vector length:                            1024
 Number of SMPs:                                    108
 Maximum number of threads per SMP:                2048
 Number of ASync Engines:                             5
 Memory:                                           9207742464
 Properties for Device   2
 Minimum vector length:                              32
 Maximum vector length:                            1024
 Number of SMPs:                                    108
 Maximum number of threads per SMP:                2048
 Number of ASync Engines:                             5
 Memory:                                           9207742464
 Properties for Device   3
 Minimum vector length:                              32
 Maximum vector length:                            1024
 Number of SMPs:                                    108
 Maximum number of threads per SMP:                2048
 Number of ASync Engines:                             5
 Memory:                                           9207742464
   8286968217 words of memory will be used on each GPU.
 ------------------------------------------
 # polar def2tzvp apfd int=(grid=ultrafine)
 ------------------------------------------
 1/38=1,172=1/1;
 2/12=2,17=6,18=5,40=1/2;
 3/5=44,7=101,11=2,25=1,30=1,74=-44,75=-5/1,2,3;
 4//1;
 5/5=2,38=5,98=1/2;
 8/6=4,10=90,11=11/1;
 10/6=1,13=10/2;
 6/7=2,8=2,9=2,10=2,28=1/1;
 99/5=1,9=1/99;
 ---------
 2ycg_II_S
 ---------
 Symbolic Z-matrix:
 Charge =  0 Multiplicity = 1
 Fe                   -11.73717   2.77831   1.58727 
 N                    -12.33459   1.10898   2.5381 
 N                    -10.12703   2.85817   2.779 
 N                    -11.07654   4.35422   0.57478 
 N                    -13.33985   2.65443   0.40205 
 C                    -13.47688   0.4063    2.31378 
 C                    -13.5372  -0.75871   3.16741 
 C                    -12.39953  -0.74554   3.91339 
 C                    -11.67808   0.44772   3.53067 
 C                    -9.73541   1.9341    3.69694 
 C                    -8.50019   2.32499   4.32557 
 C                    -8.16606   3.54228   3.79337 
 C                    -9.18212   3.83536   2.79726 
 C                    -9.95192   5.07814   0.82431 
 C                    -9.78949   6.12537  -0.15172 
 C                    -10.85463   6.02198  -1.00756 
 C                    -11.64616   4.90587  -0.52616 
 C                    -13.68272   3.53797  -0.57187 
 C                    -15.00579   3.2501   -1.08244 
 C                    -15.45544   2.17226  -0.38671 
 C                    -14.39493   1.80883   0.52816 
 C                    -14.4726   0.75742   1.42042 
 H                    -15.35812   0.14095   1.39286 
 C                    -10.43926   0.79018   4.03522 
 H                    -10.01403   0.14616   4.78976 
 C                    -9.06672   4.84491   1.86193 
 H                    -8.23832   5.52891   1.96436 
 C                    -12.87779   4.55476  -1.05026 
 H                    -13.25443   5.14037  -1.87533 
 C                    -11.93748  -1.71247   4.94971 
 H                    -12.65722  -2.51757   5.07584 
 H                    -11.80835  -1.21422   5.91092 
 H                    -10.98003  -2.15076   4.66629 
 C                    -14.64821  -1.75224   3.1574 
 H                    -14.76139  -2.19214   2.16633 
 H                    -15.5913  -1.27406   3.42344 
 H                    -14.45845  -2.55315   3.8679 
 C                    -7.74738   1.50753   5.31707 
 H                    -7.81134   0.449     5.06945 
 H                    -8.14739   1.64355   6.32352 
 H                    -6.69951   1.80076   5.32268 
 C                    -7.02674   4.38138   4.08875 
 H                    -6.64982   4.97341   3.26319 
 C                    -6.43217   4.48824   5.27311 
 H                    -6.78796   3.96645   6.1441 
 H                    -5.57752   5.1283    5.41756 
 C                    -8.63363   7.06151  -0.22263 
 H                    -7.70836   6.55351   0.04492 
 H                    -8.76881   7.89955   0.46316 
 H                    -8.53426   7.45613  -1.23183 
 C                    -11.17175   6.80744  -2.17919 
 H                    -11.67078   6.27083  -2.97819 
 C                    -10.91075   8.10116  -2.33863 
 H                    -10.46131   8.69525  -1.56229 
 H                    -11.16396   8.61872  -3.24917 
 C                    -15.6805   4.03097  -2.15778 
 H                    -15.11273   3.97238  -3.08689 
 H                    -15.76069   5.08149  -1.87754 
 H                    -16.68095   3.64838  -2.34468 
 C                    -16.75417   1.44956  -0.49768 
 H                    -17.39163   1.91154  -1.24759 
 H                    -17.28169   1.46092   0.45638 
 H                    -16.59102   0.40929  -0.78077 
 O                    -10.621    1.394     0.186 
 H                    -10.893    0.498     0.385 
 H                    -10.004    1.637    -0.407 
 C                    -14.97583   6.66216   3.94748 
 H                    -14.49663   7.40661   4.5833 
 H                    -15.89291   6.33512   4.43723 
 H                    -15.23304   7.12725   3.00109 
 N                    -13.5973   4.71836   4.71782 
 H                    -13.80551   4.82827   5.6967 
 C                    -14.06848   5.51209   3.70504 
 C                    -12.80568   3.77297   4.16284 
 H                    -12.2993   3.01108   4.71855 
 N                    -12.74781   3.9194    2.86134 
 C                    -13.52738   4.9978    2.5616 
 H                    -13.64604   5.32865   1.55056 
 
 Stoichiometry    C34H36FeN6O
 Framework group  C1[X(C34H36FeN6O)]
 Deg. of freedom   228
 Full point group                 C1      NOp   1
 Largest Abelian subgroup         C1      NOp   1
 Largest concise Abelian subgroup C1      NOp   1
                         Standard orientation:                         
 ---------------------------------------------------------------------
 Center     Atomic      Atomic             Coordinates (Angstroms)
 Number     Number       Type             X           Y           Z
 ---------------------------------------------------------------------
      1         26           0        0.065658   -0.167854   -0.417021
      2          7           0        1.373875   -1.696301   -0.424408
      3          7           0        1.598881    1.119121   -0.306973
      4          7           0       -1.210726    1.349484   -0.533691
      5          7           0       -1.436408   -1.477259   -0.550785
      6          6           0        1.078444   -3.023477   -0.439817
      7          6           0        2.286413   -3.816353   -0.481083
      8          6           0        3.322409   -2.934585   -0.493322
      9          6           0        2.732932   -1.616160   -0.422018
     10          6           0        2.925385    0.827636   -0.379656
     11          6           0        3.720189    2.026208   -0.305775
     12          6           0        2.839222    3.062558   -0.142820
     13          6           0        1.513296    2.470521   -0.186609
     14          6           0       -0.915805    2.676633   -0.480874
     15          6           0       -2.106391    3.472770   -0.637013
     16          6           0       -3.143304    2.589152   -0.784354
     17          6           0       -2.553126    1.266110   -0.712199
     18          6           0       -2.761074   -1.174176   -0.561858
     19          6           0       -3.562427   -2.374491   -0.456230
     20          6           0       -2.686124   -3.410587   -0.375247
     21          6           0       -1.362995   -2.829302   -0.447208
     22          6           0       -0.194128   -3.562877   -0.390233
     23          1           0       -0.278755   -4.637810   -0.342281
     24          6           0        3.464262   -0.445648   -0.461881
     25          1           0        4.539265   -0.531902   -0.504955
     26          6           0        0.351555    3.206357   -0.314129
     27          1           0        0.430265    4.280513   -0.246343
     28          6           0       -3.291013    0.095614   -0.693917
     29          1           0       -4.365450    0.181917   -0.754515
     30          6           0        4.788651   -3.199519   -0.541853
     31          1           0        4.987875   -4.267943   -0.571790
     32          1           0        5.284485   -2.782674    0.335213
     33          1           0        5.232097   -2.743835   -1.427753
     34          6           0        2.313752   -5.305861   -0.527565
     35          1           0        1.772483   -5.673083   -1.399763
     36          1           0        1.842971   -5.724971    0.362135
     37          1           0        3.335780   -5.673415   -0.579056
     38          6           0        5.202752    2.080417   -0.436610
     39          1           0        5.550145    1.354250   -1.170013
     40          1           0        5.689785    1.858793    0.514771
     41          1           0        5.512365    3.073311   -0.756533
     42          6           0        3.113509    4.474651   -0.000866
     43          1           0        2.365830    5.144159   -0.409320
     44          6           0        4.181782    4.998459    0.592480
     45          1           0        4.934971    4.390065    1.061572
     46          1           0        4.325727    6.064615    0.652139
     47          6           0       -2.142922    4.960129   -0.698994
     48          1           0       -1.275195    5.345793   -1.231995
     49          1           0       -2.142327    5.391626    0.303358
     50          1           0       -3.042544    5.290265   -1.214520
     51          6           0       -4.549329    2.849513   -0.997732
     52          1           0       -5.068947    2.123655   -1.612964
     53          6           0       -5.230688    3.878104   -0.502753
     54          1           0       -4.779532    4.602659    0.152313
     55          1           0       -6.277577    4.015823   -0.717532
     56          6           0       -5.052650   -2.391984   -0.439682
     57          1           0       -5.450392   -1.991988   -1.372872
     58          1           0       -5.435277   -1.781767    0.378726
     59          1           0       -5.426728   -3.405383   -0.316025
     60          6           0       -2.956994   -4.870932   -0.251435
     61          1           0       -4.026072   -5.064264   -0.208427
     62          1           0       -2.498600   -5.270247    0.653589
     63          1           0       -2.545444   -5.410838   -1.104686
     64          8           0        0.260492   -0.194118   -2.672472
     65          1           0        0.756965   -0.976720   -2.912160
     66          1           0       -0.028982    0.436266   -3.229435
     67          6           0       -1.673694   -0.174493    4.885658
     68          1           0       -1.390928    0.669325    5.515050
     69          1           0       -1.546967   -1.089126    5.464646
     70          1           0       -2.720915   -0.073367    4.618786
     71          7           0        0.513652   -0.359867    3.680136
     72          1           0        1.078421   -0.450770    4.508626
     73          6           0       -0.848447   -0.212800    3.651868
     74          6           0        0.952717   -0.355751    2.401214
     75          1           0        1.980233   -0.454821    2.118166
     76          7           0       -0.047886   -0.215948    1.565785
     77          6           0       -1.174808   -0.124626    2.328822
     78          1           0       -2.137896   -0.002843    1.877853
 ---------------------------------------------------------------------
 Rotational constants (GHZ):           0.0939453           0.0916907           0.0592982
 Standard basis: def2TZVP (5D, 7F)
 There are  1744 symmetry adapted cartesian basis functions of A   symmetry.
 There are  1532 symmetry adapted basis functions of A   symmetry.
  1532 basis functions,  2481 primitive gaussians,  1744 cartesian basis functions
   158 alpha electrons      158 beta electrons
       nuclear repulsion energy      5974.0327781088 Hartrees.
 NAtoms=   78 NActive=   78 NUniq=   78 SFac= 1.00D+00 NAtFMM=   60 NAOKFM=T Big=T
 Integral buffers will be    131072 words long.
 Raffenetti 2 integral format.
 Two-electron integral symmetry is turned on.
 R6APFD:  NTU= -4 IXU= 1 FactS= 1.050
 Nuclear repulsion after empirical dispersion term =     5973.8795027735 Hartrees.
 One-electron integrals computed using PRISM.
   1 Symmetry operations used in ECPInt.
 ECPInt:  NShTT=  186355 NPrTT=  576197 LenC2=  147391 LenP2D=  301701.
 LDataN:  DoStor=T MaxTD1= 6 Len=  172
 Number of processors reduced to  23 by ecpmxn.
 NBasis=  1532 RedAO= T EigKep=  3.36D-06  NBF=  1532
 NBsUse=  1532 1.00D-06 EigRej= -1.00D+00 NBFU=  1532
 ExpMin= 4.20D-02 ExpMax= 3.01D+05 ExpMxC= 2.91D+03 IAcc=3 IRadAn=         5 AccDes= 0.00D+00
 Harris functional with IExCor= 3731 and IRadAn=       5 diagonalized for initial guess.
 HarFok:  IExCor= 3731 AccDes= 0.00D+00 IRadAn=         5 IDoV= 1 UseB2=F ITyADJ=14
 ICtDFT=  3500011 ScaDFX=  1.000000  1.000000  1.000000  1.000000
 FoFCou: FMM=F IPFlag=           0 FMFlag=      100000 FMFlg1=        2001
         NFxFlg=           0 DoJE=T BraDBF=F KetDBF=T FulRan=T
         wScrn=  0.000000 ICntrl=       500 IOpCl=  0 I1Cent=   200000004 NGrid=           0
         NMat0=    1 NMatS0=      1 NMatT0=    0 NMatD0=    1 NMtDS0=    0 NMtDT0=    0
 Petite list used in FoFCou.
 Requested convergence on RMS density matrix=1.00D-08 within 128 cycles.
 Requested convergence on MAX density matrix=1.00D-06.
 Requested convergence on             energy=1.00D-06.
 No special actions if energy rises.
 EnCoef did     4 forward-backward iterations
 EnCoef did   100 forward-backward iterations
 EnCoef did   100 forward-backward iterations
 EnCoef did   100 forward-backward iterations
 EnCoef did     5 forward-backward iterations
 Restarting incremental Fock formation.
 SCF Done:  E(RAPFD) =  -2984.02600788     A.U. after   25 cycles
            NFock= 25  Conv=0.33D-08     -V/T= 2.0034
 DoSCS=F DFT=T ScalE2(SS,OS)=  1.000000  1.000000
 Range of M.O.s used for correlation:     1  1532
 NBasis=  1532 NAE=   158 NBE=   158 NFC=     0 NFV=     0
 NROrb=   1532 NOA=   158 NOB=   158 NVA=  1374 NVB=  1374

 **** Warning!!: The largest alpha MO coefficient is  0.54683983D+02

          Differentiating once with respect to electric field.
                with respect to dipole field.
          Electric field/nuclear overlap derivatives assumed to be zero.
          There are     3 degrees of freedom in the 1st order CPHF.  IDoFFX=0 NUNeed=     3.
      3 vectors produced by pass  0 Test12= 7.24D-12 3.33D-08 XBig12= 1.85D+03 2.73D+01.
 AX will form     3 AO Fock derivatives at one time.
      3 vectors produced by pass  1 Test12= 7.24D-12 3.33D-08 XBig12= 1.23D+03 9.56D+00.
      3 vectors produced by pass  2 Test12= 7.24D-12 3.33D-08 XBig12= 4.45D+02 5.49D+00.
      3 vectors produced by pass  3 Test12= 7.24D-12 3.33D-08 XBig12= 3.24D+02 3.76D+00.
      3 vectors produced by pass  4 Test12= 7.24D-12 3.33D-08 XBig12= 1.87D+02 2.53D+00.
      3 vectors produced by pass  5 Test12= 7.24D-12 3.33D-08 XBig12= 8.10D+01 1.90D+00.
      3 vectors produced by pass  6 Test12= 7.24D-12 3.33D-08 XBig12= 5.66D+01 1.92D+00.
      3 vectors produced by pass  7 Test12= 7.24D-12 3.33D-08 XBig12= 2.61D+01 1.38D+00.
      3 vectors produced by pass  8 Test12= 7.24D-12 3.33D-08 XBig12= 1.42D+01 8.42D-01.
      3 vectors produced by pass  9 Test12= 7.24D-12 3.33D-08 XBig12= 6.35D+00 5.54D-01.
      3 vectors produced by pass 10 Test12= 7.24D-12 3.33D-08 XBig12= 3.41D+00 3.08D-01.
      3 vectors produced by pass 11 Test12= 7.24D-12 3.33D-08 XBig12= 1.08D+00 1.65D-01.
      3 vectors produced by pass 12 Test12= 7.24D-12 3.33D-08 XBig12= 4.03D-01 1.10D-01.
      3 vectors produced by pass 13 Test12= 7.24D-12 3.33D-08 XBig12= 8.58D-02 4.52D-02.
      3 vectors produced by pass 14 Test12= 7.24D-12 3.33D-08 XBig12= 4.54D-02 2.87D-02.
      3 vectors produced by pass 15 Test12= 7.24D-12 3.33D-08 XBig12= 1.16D-02 2.39D-02.
      3 vectors produced by pass 16 Test12= 7.24D-12 3.33D-08 XBig12= 4.89D-03 2.36D-02.
      3 vectors produced by pass 17 Test12= 7.24D-12 3.33D-08 XBig12= 1.57D-03 1.03D-02.
      3 vectors produced by pass 18 Test12= 7.24D-12 3.33D-08 XBig12= 4.10D-04 4.49D-03.
      3 vectors produced by pass 19 Test12= 7.24D-12 3.33D-08 XBig12= 1.12D-04 2.36D-03.
      3 vectors produced by pass 20 Test12= 7.24D-12 3.33D-08 XBig12= 2.17D-05 1.44D-03.
      3 vectors produced by pass 21 Test12= 7.24D-12 3.33D-08 XBig12= 6.34D-06 8.72D-04.
      3 vectors produced by pass 22 Test12= 7.24D-12 3.33D-08 XBig12= 1.40D-06 4.32D-04.
      3 vectors produced by pass 23 Test12= 7.24D-12 3.33D-08 XBig12= 2.34D-07 1.33D-04.
      3 vectors produced by pass 24 Test12= 7.24D-12 3.33D-08 XBig12= 3.64D-08 4.11D-05.
      3 vectors produced by pass 25 Test12= 7.24D-12 3.33D-08 XBig12= 7.69D-09 1.60D-05.
      3 vectors produced by pass 26 Test12= 7.24D-12 3.33D-08 XBig12= 1.33D-09 4.86D-06.
      3 vectors produced by pass 27 Test12= 7.24D-12 3.33D-08 XBig12= 1.65D-10 2.08D-06.
      3 vectors produced by pass 28 Test12= 7.24D-12 3.33D-08 XBig12= 2.65D-11 6.99D-07.
      3 vectors produced by pass 29 Test12= 7.24D-12 3.33D-08 XBig12= 3.36D-12 3.03D-07.
      3 vectors produced by pass 30 Test12= 7.24D-12 3.33D-08 XBig12= 5.42D-13 1.56D-07.
      2 vectors produced by pass 31 Test12= 7.24D-12 3.33D-08 XBig12= 1.05D-13 6.70D-08.
 InvSVY:  IOpt=1 It=  1 EMax= 1.42D-14
 Solved reduced A of dimension    95 with     3 vectors.
 Isotropic polarizability for W=    0.000000      574.67 Bohr**3.
 End of Minotr F.D. properties file   721 does not exist.
 End of Minotr F.D. properties file   722 does not exist.
 End of Minotr F.D. properties file   788 does not exist.

 **********************************************************************

            Population analysis using the SCF Density.

 **********************************************************************

 Orbital symmetries:
       Occupied  (A) (A) (A) (A) (A) (A) (A) (A) (A) (A) (A) (A)
                 (A) (A) (A) (A) (A) (A) (A) (A) (A) (A) (A) (A)
                 (A) (A) (A) (A) (A) (A) (A) (A) (A) (A) (A) (A)
                 (A) (A) (A) (A) (A) (A) (A) (A) (A) (A) (A) (A)
                 (A) (A) (A) (A) (A) (A) (A) (A) (A) (A) (A) (A)
                 (A) (A) (A) (A) (A) (A) (A) (A) (A) (A) (A) (A)
                 (A) (A) (A) (A) (A) (A) (A) (A) (A) (A) (A) (A)
                 (A) (A) (A) (A) (A) (A) (A) (A) (A) (A) (A) (A)
                 (A) (A) (A) (A) (A) (A) (A) (A) (A) (A) (A) (A)
                 (A) (A) (A) (A) (A) (A) (A) (A) (A) (A) (A) (A)
                 (A) (A) (A) (A) (A) (A) (A) (A) (A) (A) (A) (A)
                 (A) (A) (A) (A) (A) (A) (A) (A) (A) (A) (A) (A)
                 (A) (A) (A) (A) (A) (A) (A) (A) (A) (A) (A) (A)
                 (A) (A)
       Virtual   (A) (A) (A) (A) (A) (A) (A) (A) (A) (A) (A) (A)
                 (A) (A) (A) (A) (A) (A) (A) (A) (A) (A) (A) (A)
                 (A) (A) (A) (A) (A) (A) (A) (A) (A) (A) (A) (A)
                 (A) (A) (A) (A) (A) (A) (A) (A) (A) (A) (A) (A)
                 (A) (A) (A) (A) (A) (A) (A) (A) (A) (A) (A) (A)
                 (A) (A) (A) (A) (A) (A) (A) (A) (A) (A) (A) (A)
                 (A) (A) (A) (A) (A) (A) (A) (A) (A) (A) (A) (A)
                 (A) (A) (A) (A) (A) (A) (A) (A) (A) (A) (A) (A)
                 (A) (A) (A) (A) (A) (A) (A) (A) (A) (A) (A) (A)
                 (A) (A) (A) (A) (A) (A) (A) (A) (A) (A) (A) (A)
                 (A) (A) (A) (A) (A) (A) (A) (A) (A) (A) (A) (A)
                 (A) (A) (A) (A) (A) (A) (A) (A) (A) (A) (A) (A)
                 (A) (A) (A) (A) (A) (A) (A) (A) (A) (A) (A) (A)
                 (A) (A) (A) (A) (A) (A) (A) (A) (A) (A) (A) (A)
                 (A) (A) (A) (A) (A) (A) (A) (A) (A) (A) (A) (A)
                 (A) (A) (A) (A) (A) (A) (A) (A) (A) (A) (A) (A)
                 (A) (A) (A) (A) (A) (A) (A) (A) (A) (A) (A) (A)
                 (A) (A) (A) (A) (A) (A) (A) (A) (A) (A) (A) (A)
                 (A) (A) (A) (A) (A) (A) (A) (A) (A) (A) (A) (A)
                 (A) (A) (A) (A) (A) (A) (A) (A) (A) (A) (A) (A)
                 (A) (A) (A) (A) (A) (A) (A) (A) (A) (A) (A) (A)
                 (A) (A) (A) (A) (A) (A) (A) (A) (A) (A) (A) (A)
                 (A) (A) (A) (A) (A) (A) (A) (A) (A) (A) (A) (A)
                 (A) (A) (A) (A) (A) (A) (A) (A) (A) (A) (A) (A)
                 (A) (A) (A) (A) (A) (A) (A) (A) (A) (A) (A) (A)
                 (A) (A) (A) (A) (A) (A) (A) (A) (A) (A) (A) (A)
                 (A) (A) (A) (A) (A) (A) (A) (A) (A) (A) (A) (A)
                 (A) (A) (A) (A) (A) (A) (A) (A) (A) (A) (A) (A)
                 (A) (A) (A) (A) (A) (A) (A) (A) (A) (A) (A) (A)
                 (A) (A) (A) (A) (A) (A) (A) (A) (A) (A) (A) (A)
                 (A) (A) (A) (A) (A) (A) (A) (A) (A) (A) (A) (A)
                 (A) (A) (A) (A) (A) (A) (A) (A) (A) (A) (A) (A)
                 (A) (A) (A) (A) (A) (A) (A) (A) (A) (A) (A) (A)
                 (A) (A) (A) (A) (A) (A) (A) (A) (A) (A) (A) (A)
                 (A) (A) (A) (A) (A) (A) (A) (A) (A) (A) (A) (A)
                 (A) (A) (A) (A) (A) (A) (A) (A) (A) (A) (A) (A)
                 (A) (A) (A) (A) (A) (A) (A) (A) (A) (A) (A) (A)
                 (A) (A) (A) (A) (A) (A) (A) (A) (A) (A) (A) (A)
                 (A) (A) (A) (A) (A) (A) (A) (A) (A) (A) (A) (A)
                 (A) (A) (A) (A) (A) (A) (A) (A) (A) (A) (A) (A)
                 (A) (A) (A) (A) (A) (A) (A) (A) (A) (A) (A) (A)
                 (A) (A) (A) (A) (A) (A) (A) (A) (A) (A) (A) (A)
                 (A) (A) (A) (A) (A) (A) (A) (A) (A) (A) (A) (A)
                 (A) (A) (A) (A) (A) (A) (A) (A) (A) (A) (A) (A)
                 (A) (A) (A) (A) (A) (A) (A) (A) (A) (A) (A) (A)
                 (A) (A) (A) (A) (A) (A) (A) (A) (A) (A) (A) (A)
                 (A) (A) (A) (A) (A) (A) (A) (A) (A) (A) (A) (A)
                 (A) (A) (A) (A) (A) (A) (A) (A) (A) (A) (A) (A)
                 (A) (A) (A) (A) (A) (A) (A) (A) (A) (A) (A) (A)
                 (A) (A) (A) (A) (A) (A) (A) (A) (A) (A) (A) (A)
                 (A) (A) (A) (A) (A) (A) (A) (A) (A) (A) (A) (A)
                 (A) (A) (A) (A) (A) (A) (A) (A) (A) (A) (A) (A)
                 (A) (A) (A) (A) (A) (A) (A) (A) (A) (A) (A) (A)
                 (A) (A) (A) (A) (A) (A) (A) (A) (A) (A) (A) (A)
                 (A) (A) (A) (A) (A) (A) (A) (A) (A) (A) (A) (A)
                 (A) (A) (A) (A) (A) (A) (A) (A) (A) (A) (A) (A)
                 (A) (A) (A) (A) (A) (A) (A) (A) (A) (A) (A) (A)
                 (A) (A) (A) (A) (A) (A) (A) (A) (A) (A) (A) (A)
                 (A) (A) (A) (A) (A) (A) (A) (A) (A) (A) (A) (A)
                 (A) (A) (A) (A) (A) (A) (A) (A) (A) (A) (A) (A)
                 (A) (A) (A) (A) (A) (A) (A) (A) (A) (A) (A) (A)
                 (A) (A) (A) (A) (A) (A) (A) (A) (A) (A) (A) (A)
                 (A) (A) (A) (A) (A) (A) (A) (A) (A) (A) (A) (A)
                 (A) (A) (A) (A) (A) (A) (A) (A) (A) (A) (A) (A)
                 (A) (A) (A) (A) (A) (A) (A) (A) (A) (A) (A) (A)
                 (A) (A) (A) (A) (A) (A) (A) (A) (A) (A) (A) (A)
                 (A) (A) (A) (A) (A) (A) (A) (A) (A) (A) (A) (A)
                 (A) (A) (A) (A) (A) (A) (A) (A) (A) (A) (A) (A)
                 (A) (A) (A) (A) (A) (A) (A) (A) (A) (A) (A) (A)
                 (A) (A) (A) (A) (A) (A) (A) (A) (A) (A) (A) (A)
                 (A) (A) (A) (A) (A) (A) (A) (A) (A) (A) (A) (A)
                 (A) (A) (A) (A) (A) (A) (A) (A) (A) (A) (A) (A)
                 (A) (A) (A) (A) (A) (A) (A) (A) (A) (A) (A) (A)
                 (A) (A) (A) (A) (A) (A) (A) (A) (A) (A) (A) (A)
                 (A) (A) (A) (A) (A) (A) (A) (A) (A) (A) (A) (A)
                 (A) (A) (A) (A) (A) (A) (A) (A) (A) (A) (A) (A)
                 (A) (A) (A) (A) (A) (A) (A) (A) (A) (A) (A) (A)
                 (A) (A) (A) (A) (A) (A) (A) (A) (A) (A) (A) (A)
                 (A) (A) (A) (A) (A) (A) (A) (A) (A) (A) (A) (A)
                 (A) (A) (A) (A) (A) (A) (A) (A) (A) (A) (A) (A)
                 (A) (A) (A) (A) (A) (A) (A) (A) (A) (A) (A) (A)
                 (A) (A) (A) (A) (A) (A) (A) (A) (A) (A) (A) (A)
                 (A) (A) (A) (A) (A) (A) (A) (A) (A) (A) (A) (A)
                 (A) (A) (A) (A) (A) (A) (A) (A) (A) (A) (A) (A)
                 (A) (A) (A) (A) (A) (A) (A) (A) (A) (A) (A) (A)
                 (A) (A) (A) (A) (A) (A) (A) (A) (A) (A) (A) (A)
                 (A) (A) (A) (A) (A) (A) (A) (A) (A) (A) (A) (A)
                 (A) (A) (A) (A) (A) (A) (A) (A) (A) (A) (A) (A)
                 (A) (A) (A) (A) (A) (A) (A) (A) (A) (A) (A) (A)
                 (A) (A) (A) (A) (A) (A) (A) (A) (A) (A) (A) (A)
                 (A) (A) (A) (A) (A) (A) (A) (A) (A) (A) (A) (A)
                 (A) (A) (A) (A) (A) (A) (A) (A) (A) (A) (A) (A)
                 (A) (A) (A) (A) (A) (A) (A) (A) (A) (A) (A) (A)
                 (A) (A) (A) (A) (A) (A) (A) (A) (A) (A) (A) (A)
                 (A) (A) (A) (A) (A) (A) (A) (A) (A) (A) (A) (A)
                 (A) (A) (A) (A) (A) (A) (A) (A) (A) (A) (A) (A)
                 (A) (A) (A) (A) (A) (A) (A) (A) (A) (A) (A) (A)
                 (A) (A) (A) (A) (A) (A) (A) (A) (A) (A) (A) (A)
                 (A) (A) (A) (A) (A) (A) (A) (A) (A) (A) (A) (A)
                 (A) (A) (A) (A) (A) (A) (A) (A) (A) (A) (A) (A)
                 (A) (A) (A) (A) (A) (A) (A) (A) (A) (A) (A) (A)
                 (A) (A) (A) (A) (A) (A) (A) (A) (A) (A) (A) (A)
                 (A) (A) (A) (A) (A) (A) (A) (A) (A) (A) (A) (A)
                 (A) (A) (A) (A) (A) (A) (A) (A) (A) (A) (A) (A)
                 (A) (A) (A) (A) (A) (A) (A) (A) (A) (A) (A) (A)
                 (A) (A) (A) (A) (A) (A) (A) (A) (A) (A) (A) (A)
                 (A) (A) (A) (A) (A) (A) (A) (A) (A) (A) (A) (A)
                 (A) (A) (A) (A) (A) (A) (A) (A) (A) (A) (A) (A)
                 (A) (A) (A) (A) (A) (A) (A) (A) (A) (A) (A) (A)
                 (A) (A) (A) (A) (A) (A) (A) (A) (A) (A) (A) (A)
                 (A) (A) (A) (A) (A) (A) (A) (A) (A) (A) (A) (A)
                 (A) (A) (A) (A) (A) (A) (A) (A) (A) (A) (A) (A)
                 (A) (A) (A) (A) (A) (A) (A) (A) (A) (A) (A) (A)
                 (A) (A) (A) (A) (A) (A) (A) (A) (A) (A) (A) (A)
                 (A) (A) (A) (A) (A) (A)
 The electronic state is 1-A.
 Alpha  occ. eigenvalues -- -256.17454 -30.02433 -25.86605 -25.86202 -25.86166
 Alpha  occ. eigenvalues --  -19.17228 -14.41602 -14.36278 -14.33128 -14.33083
 Alpha  occ. eigenvalues --  -14.33026 -14.32717 -10.25313 -10.23568 -10.20982
 Alpha  occ. eigenvalues --  -10.20725 -10.20722 -10.20688 -10.20661 -10.20653
 Alpha  occ. eigenvalues --  -10.20619 -10.20527 -10.20423 -10.20391 -10.19415
 Alpha  occ. eigenvalues --  -10.19393 -10.18771 -10.18765 -10.18739 -10.18661
 Alpha  occ. eigenvalues --  -10.18603 -10.18524 -10.18432 -10.18410 -10.18345
 Alpha  occ. eigenvalues --  -10.18320 -10.18317 -10.18303 -10.18248 -10.18241
 Alpha  occ. eigenvalues --  -10.18210 -10.18152 -10.18109 -10.18035 -10.17980
 Alpha  occ. eigenvalues --  -10.17964  -3.40014  -2.16658  -2.15879  -2.15801
 Alpha  occ. eigenvalues --   -1.05196  -1.04995  -0.96691  -0.95824  -0.95633
 Alpha  occ. eigenvalues --   -0.94754  -0.90784  -0.82030  -0.81646  -0.81345
 Alpha  occ. eigenvalues --   -0.80569  -0.80214  -0.80097  -0.79374  -0.79303
 Alpha  occ. eigenvalues --   -0.76547  -0.75491  -0.74132  -0.73731  -0.73002
 Alpha  occ. eigenvalues --   -0.71701  -0.70782  -0.69917  -0.68124  -0.67715
 Alpha  occ. eigenvalues --   -0.67627  -0.64432  -0.63943  -0.63847  -0.61169
 Alpha  occ. eigenvalues --   -0.60566  -0.60379  -0.59825  -0.57610  -0.56415
 Alpha  occ. eigenvalues --   -0.55811  -0.54305  -0.53444  -0.53100  -0.52410
 Alpha  occ. eigenvalues --   -0.50883  -0.50838  -0.50350  -0.48544  -0.47695
 Alpha  occ. eigenvalues --   -0.47675  -0.47378  -0.47092  -0.44912  -0.44566
 Alpha  occ. eigenvalues --   -0.44373  -0.44333  -0.43953  -0.43386  -0.43306
 Alpha  occ. eigenvalues --   -0.43203  -0.43056  -0.42914  -0.42710  -0.42437
 Alpha  occ. eigenvalues --   -0.42340  -0.42205  -0.41615  -0.41558  -0.41440
 Alpha  occ. eigenvalues --   -0.41160  -0.41144  -0.40074  -0.39997  -0.39960
 Alpha  occ. eigenvalues --   -0.39412  -0.39353  -0.39029  -0.38857  -0.38401
 Alpha  occ. eigenvalues --   -0.38113  -0.37632  -0.37319  -0.36984  -0.36772
 Alpha  occ. eigenvalues --   -0.36209  -0.35784  -0.35333  -0.35181  -0.34203
 Alpha  occ. eigenvalues --   -0.34065  -0.33847  -0.33593  -0.33326  -0.31720
 Alpha  occ. eigenvalues --   -0.31673  -0.30630  -0.30264  -0.29447  -0.28788
 Alpha  occ. eigenvalues --   -0.28495  -0.26544  -0.26444  -0.24297  -0.23606
 Alpha  occ. eigenvalues --   -0.23192  -0.22463  -0.21793  -0.19064  -0.18184
 Alpha  occ. eigenvalues --   -0.17748  -0.17655  -0.17534
 Alpha virt. eigenvalues --   -0.06332  -0.06230  -0.01829   0.00676   0.01217
 Alpha virt. eigenvalues --    0.01645   0.02402   0.03098   0.03690   0.04758
 Alpha virt. eigenvalues --    0.04824   0.05353   0.05499   0.05822   0.06077
 Alpha virt. eigenvalues --    0.06176   0.06618   0.07132   0.08057   0.08240
 Alpha virt. eigenvalues --    0.08428   0.08993   0.09346   0.09461   0.09755
 Alpha virt. eigenvalues --    0.09927   0.10262   0.10569   0.11288   0.11533
 Alpha virt. eigenvalues --    0.11694   0.11798   0.11926   0.12173   0.12454
 Alpha virt. eigenvalues --    0.12598   0.12940   0.13326   0.13441   0.13646
 Alpha virt. eigenvalues --    0.13830   0.14468   0.14547   0.14707   0.14798
 Alpha virt. eigenvalues --    0.14912   0.15136   0.15498   0.15579   0.15800
 Alpha virt. eigenvalues --    0.15971   0.16026   0.16219   0.16343   0.16816
 Alpha virt. eigenvalues --    0.17114   0.17408   0.17461   0.17855   0.18001
 Alpha virt. eigenvalues --    0.18209   0.18940   0.19396   0.19598   0.19902
 Alpha virt. eigenvalues --    0.20195   0.20290   0.20536   0.20683   0.21047
 Alpha virt. eigenvalues --    0.21179   0.21432   0.21756   0.21899   0.22393
 Alpha virt. eigenvalues --    0.22443   0.22905   0.23333   0.23474   0.23962
 Alpha virt. eigenvalues --    0.24381   0.24511   0.24939   0.25394   0.25464
 Alpha virt. eigenvalues --    0.25811   0.25971   0.26205   0.26559   0.26745
 Alpha virt. eigenvalues --    0.27188   0.27368   0.27468   0.27792   0.28164
 Alpha virt. eigenvalues --    0.28350   0.28710   0.29132   0.29230   0.29437
 Alpha virt. eigenvalues --    0.29715   0.30074   0.30423   0.30569   0.30821
 Alpha virt. eigenvalues --    0.31036   0.31443   0.31484   0.31677   0.32191
 Alpha virt. eigenvalues --    0.32486   0.32607   0.32985   0.33265   0.33507
 Alpha virt. eigenvalues --    0.33860   0.34158   0.34561   0.34779   0.34931
 Alpha virt. eigenvalues --    0.35274   0.35622   0.35739   0.36287   0.36429
 Alpha virt. eigenvalues --    0.36868   0.36968   0.37126   0.37451   0.37616
 Alpha virt. eigenvalues --    0.37827   0.38204   0.38569   0.38908   0.38986
 Alpha virt. eigenvalues --    0.39301   0.39369   0.39713   0.39877   0.40294
 Alpha virt. eigenvalues --    0.40382   0.40537   0.40698   0.41001   0.41189
 Alpha virt. eigenvalues --    0.41648   0.41729   0.41923   0.41967   0.42211
 Alpha virt. eigenvalues --    0.42456   0.42684   0.42801   0.43377   0.43596
 Alpha virt. eigenvalues --    0.43844   0.43887   0.44060   0.44284   0.44390
 Alpha virt. eigenvalues --    0.44781   0.44851   0.45059   0.45419   0.45757
 Alpha virt. eigenvalues --    0.46036   0.46269   0.46293   0.46595   0.46784
 Alpha virt. eigenvalues --    0.47099   0.47268   0.47502   0.47746   0.47939
 Alpha virt. eigenvalues --    0.47943   0.48138   0.48442   0.48745   0.48784
 Alpha virt. eigenvalues --    0.49307   0.49513   0.49567   0.49714   0.49832
 Alpha virt. eigenvalues --    0.50093   0.50453   0.50566   0.50891   0.51180
 Alpha virt. eigenvalues --    0.51277   0.51475   0.51946   0.52026   0.52215
 Alpha virt. eigenvalues --    0.52399   0.52685   0.52876   0.52983   0.53328
 Alpha virt. eigenvalues --    0.53780   0.53953   0.54199   0.54362   0.54575
 Alpha virt. eigenvalues --    0.54814   0.55088   0.55673   0.55911   0.56156
 Alpha virt. eigenvalues --    0.56306   0.56653   0.56758   0.56849   0.57204
 Alpha virt. eigenvalues --    0.57409   0.57903   0.58118   0.58288   0.58508
 Alpha virt. eigenvalues --    0.58645   0.58956   0.59241   0.59550   0.60245
 Alpha virt. eigenvalues --    0.60597   0.60719   0.61335   0.61667   0.61886
 Alpha virt. eigenvalues --    0.62194   0.62362   0.62738   0.63030   0.63392
 Alpha virt. eigenvalues --    0.63573   0.63850   0.64465   0.64705   0.64878
 Alpha virt. eigenvalues --    0.65139   0.65442   0.65658   0.66169   0.66353
 Alpha virt. eigenvalues --    0.66490   0.66759   0.67063   0.67145   0.67508
 Alpha virt. eigenvalues --    0.67934   0.68120   0.68534   0.68754   0.69639
 Alpha virt. eigenvalues --    0.69931   0.70492   0.70884   0.71378   0.71534
 Alpha virt. eigenvalues --    0.71609   0.71984   0.72195   0.72338   0.72601
 Alpha virt. eigenvalues --    0.73166   0.73333   0.73762   0.73913   0.74126
 Alpha virt. eigenvalues --    0.74662   0.74828   0.75385   0.75708   0.75949
 Alpha virt. eigenvalues --    0.76262   0.76376   0.77226   0.77777   0.77913
 Alpha virt. eigenvalues --    0.78153   0.78380   0.78738   0.79089   0.79493
 Alpha virt. eigenvalues --    0.79683   0.79901   0.80235   0.80383   0.80634
 Alpha virt. eigenvalues --    0.80748   0.81131   0.81561   0.81781   0.82392
 Alpha virt. eigenvalues --    0.83050   0.83304   0.84244   0.84637   0.85036
 Alpha virt. eigenvalues --    0.85518   0.85754   0.86177   0.86532   0.86810
 Alpha virt. eigenvalues --    0.87194   0.87668   0.87965   0.88235   0.88666
 Alpha virt. eigenvalues --    0.88946   0.89394   0.89689   0.90218   0.90512
 Alpha virt. eigenvalues --    0.91050   0.91173   0.91984   0.92314   0.92401
 Alpha virt. eigenvalues --    0.92899   0.93151   0.93439   0.94113   0.94557
 Alpha virt. eigenvalues --    0.94929   0.95122   0.95617   0.95744   0.96127
 Alpha virt. eigenvalues --    0.96494   0.96743   0.97414   0.97828   0.98119
 Alpha virt. eigenvalues --    0.98374   0.98495   0.99001   0.99234   0.99597
 Alpha virt. eigenvalues --    0.99810   1.00306   1.00840   1.00941   1.01418
 Alpha virt. eigenvalues --    1.01813   1.02210   1.02423   1.02616   1.02760
 Alpha virt. eigenvalues --    1.02859   1.03435   1.03509   1.04102   1.04388
 Alpha virt. eigenvalues --    1.04424   1.04573   1.04997   1.05815   1.06029
 Alpha virt. eigenvalues --    1.06237   1.06601   1.07223   1.07532   1.08112
 Alpha virt. eigenvalues --    1.08498   1.08981   1.09056   1.09622   1.09762
 Alpha virt. eigenvalues --    1.10331   1.10802   1.11185   1.11797   1.12234
 Alpha virt. eigenvalues --    1.12758   1.13125   1.13508   1.13781   1.14598
 Alpha virt. eigenvalues --    1.14886   1.15313   1.15814   1.16445   1.16766
 Alpha virt. eigenvalues --    1.17250   1.17690   1.18013   1.18261   1.18473
 Alpha virt. eigenvalues --    1.19013   1.19594   1.19953   1.20026   1.20105
 Alpha virt. eigenvalues --    1.20450   1.21315   1.21639   1.21983   1.22536
 Alpha virt. eigenvalues --    1.22765   1.22868   1.23638   1.24154   1.24732
 Alpha virt. eigenvalues --    1.24858   1.25665   1.25706   1.26560   1.26966
 Alpha virt. eigenvalues --    1.27347   1.28290   1.28315   1.28577   1.28903
 Alpha virt. eigenvalues --    1.29246   1.29662   1.29818   1.30157   1.30369
 Alpha virt. eigenvalues --    1.30789   1.31221   1.31707   1.32016   1.32269
 Alpha virt. eigenvalues --    1.32964   1.33161   1.33561   1.33751   1.34480
 Alpha virt. eigenvalues --    1.35516   1.36415   1.37095   1.37287   1.37507
 Alpha virt. eigenvalues --    1.38435   1.38588   1.39753   1.39986   1.40243
 Alpha virt. eigenvalues --    1.40939   1.41472   1.41787   1.42144   1.42690
 Alpha virt. eigenvalues --    1.43702   1.44273   1.44409   1.45250   1.45411
 Alpha virt. eigenvalues --    1.45938   1.46289   1.46927   1.47712   1.47827
 Alpha virt. eigenvalues --    1.48051   1.48499   1.48583   1.48837   1.49084
 Alpha virt. eigenvalues --    1.49634   1.49748   1.50289   1.50357   1.50763
 Alpha virt. eigenvalues --    1.50859   1.50985   1.51521   1.51733   1.51907
 Alpha virt. eigenvalues --    1.52197   1.52542   1.52606   1.53359   1.53488
 Alpha virt. eigenvalues --    1.53749   1.54068   1.54272   1.54650   1.54959
 Alpha virt. eigenvalues --    1.55354   1.55525   1.55625   1.55875   1.56144
 Alpha virt. eigenvalues --    1.56224   1.56309   1.56723   1.57240   1.57336
 Alpha virt. eigenvalues --    1.57864   1.58063   1.58241   1.58424   1.58763
 Alpha virt. eigenvalues --    1.59260   1.59367   1.59496   1.60279   1.60506
 Alpha virt. eigenvalues --    1.60982   1.61314   1.61586   1.61975   1.62238
 Alpha virt. eigenvalues --    1.62475   1.62899   1.63108   1.63315   1.63509
 Alpha virt. eigenvalues --    1.63733   1.63899   1.64559   1.64791   1.64875
 Alpha virt. eigenvalues --    1.65347   1.65666   1.65902   1.66221   1.66436
 Alpha virt. eigenvalues --    1.66743   1.66912   1.67743   1.68388   1.68575
 Alpha virt. eigenvalues --    1.68915   1.69266   1.69558   1.69871   1.70187
 Alpha virt. eigenvalues --    1.70647   1.71024   1.71388   1.71685   1.72223
 Alpha virt. eigenvalues --    1.72568   1.73194   1.73265   1.73433   1.73834
 Alpha virt. eigenvalues --    1.74584   1.74837   1.75665   1.75847   1.76257
 Alpha virt. eigenvalues --    1.77045   1.78008   1.78531   1.79076   1.79942
 Alpha virt. eigenvalues --    1.80312   1.80979   1.81323   1.81708   1.82458
 Alpha virt. eigenvalues --    1.82848   1.83203   1.83974   1.84629   1.84897
 Alpha virt. eigenvalues --    1.84934   1.85521   1.85993   1.86261   1.86488
 Alpha virt. eigenvalues --    1.86938   1.87204   1.87510   1.87869   1.88140
 Alpha virt. eigenvalues --    1.88304   1.89277   1.89301   1.90103   1.90343
 Alpha virt. eigenvalues --    1.90916   1.91387   1.92122   1.92494   1.92892
 Alpha virt. eigenvalues --    1.94212   1.94634   1.95006   1.95326   1.95751
 Alpha virt. eigenvalues --    1.95905   1.96707   1.97014   1.97332   1.97501
 Alpha virt. eigenvalues --    1.98699   1.98960   1.99380   1.99709   1.99992
 Alpha virt. eigenvalues --    2.00237   2.00640   2.01408   2.01851   2.01884
 Alpha virt. eigenvalues --    2.02518   2.02787   2.03389   2.03691   2.04904
 Alpha virt. eigenvalues --    2.05354   2.05813   2.06096   2.06545   2.07522
 Alpha virt. eigenvalues --    2.07725   2.08435   2.08511   2.09452   2.09586
 Alpha virt. eigenvalues --    2.09893   2.10294   2.10607   2.11208   2.11685
 Alpha virt. eigenvalues --    2.11794   2.12594   2.12957   2.13228   2.13695
 Alpha virt. eigenvalues --    2.14224   2.14626   2.15157   2.15482   2.16265
 Alpha virt. eigenvalues --    2.16682   2.17284   2.17465   2.17772   2.18540
 Alpha virt. eigenvalues --    2.19024   2.19240   2.19873   2.19898   2.20119
 Alpha virt. eigenvalues --    2.20872   2.21827   2.21928   2.22253   2.22579
 Alpha virt. eigenvalues --    2.22755   2.23684   2.24682   2.24879   2.25669
 Alpha virt. eigenvalues --    2.25824   2.26265   2.27251   2.27446   2.27655
 Alpha virt. eigenvalues --    2.28251   2.28747   2.29108   2.29525   2.29960
 Alpha virt. eigenvalues --    2.30108   2.30786   2.30944   2.31746   2.31899
 Alpha virt. eigenvalues --    2.32176   2.32744   2.32998   2.33843   2.34055
 Alpha virt. eigenvalues --    2.34850   2.35474   2.35647   2.36010   2.36192
 Alpha virt. eigenvalues --    2.36613   2.36960   2.37409   2.37716   2.37885
 Alpha virt. eigenvalues --    2.38681   2.38969   2.39647   2.39759   2.40105
 Alpha virt. eigenvalues --    2.40868   2.41180   2.41856   2.42243   2.43066
 Alpha virt. eigenvalues --    2.43145   2.43400   2.44682   2.44987   2.45194
 Alpha virt. eigenvalues --    2.45584   2.45667   2.46054   2.46798   2.46966
 Alpha virt. eigenvalues --    2.47380   2.47830   2.48024   2.48545   2.49268
 Alpha virt. eigenvalues --    2.49268   2.49803   2.50405   2.50853   2.51932
 Alpha virt. eigenvalues --    2.52255   2.52343   2.52547   2.52959   2.53293
 Alpha virt. eigenvalues --    2.53549   2.54398   2.54817   2.55361   2.55598
 Alpha virt. eigenvalues --    2.56173   2.56638   2.56900   2.57042   2.57468
 Alpha virt. eigenvalues --    2.57888   2.58033   2.58511   2.58733   2.59139
 Alpha virt. eigenvalues --    2.59539   2.59959   2.60648   2.60838   2.61148
 Alpha virt. eigenvalues --    2.61444   2.61693   2.62305   2.62377   2.62855
 Alpha virt. eigenvalues --    2.63335   2.63565   2.64383   2.65087   2.65514
 Alpha virt. eigenvalues --    2.65740   2.65971   2.66143   2.66698   2.66783
 Alpha virt. eigenvalues --    2.67389   2.68044   2.68578   2.68794   2.69164
 Alpha virt. eigenvalues --    2.69558   2.70110   2.70454   2.70790   2.71176
 Alpha virt. eigenvalues --    2.71446   2.71840   2.72210   2.72547   2.73187
 Alpha virt. eigenvalues --    2.73276   2.73475   2.74187   2.74460   2.75000
 Alpha virt. eigenvalues --    2.75505   2.75812   2.76594   2.76763   2.77626
 Alpha virt. eigenvalues --    2.78184   2.78361   2.78963   2.79201   2.80099
 Alpha virt. eigenvalues --    2.80190   2.80547   2.80957   2.81320   2.82194
 Alpha virt. eigenvalues --    2.82436   2.82670   2.83299   2.83648   2.84125
 Alpha virt. eigenvalues --    2.84595   2.84892   2.85123   2.85541   2.86359
 Alpha virt. eigenvalues --    2.86424   2.86619   2.87340   2.87748   2.87954
 Alpha virt. eigenvalues --    2.88422   2.88690   2.89598   2.89916   2.90145
 Alpha virt. eigenvalues --    2.90454   2.90636   2.90828   2.91358   2.91955
 Alpha virt. eigenvalues --    2.92368   2.93029   2.93182   2.93497   2.94188
 Alpha virt. eigenvalues --    2.94513   2.94709   2.95436   2.95537   2.95680
 Alpha virt. eigenvalues --    2.96172   2.96593   2.97219   2.97318   2.97594
 Alpha virt. eigenvalues --    2.98152   2.98234   2.98678   2.98876   2.99150
 Alpha virt. eigenvalues --    2.99571   3.00165   3.00323   3.00501   3.00964
 Alpha virt. eigenvalues --    3.01047   3.01677   3.02034   3.02426   3.03050
 Alpha virt. eigenvalues --    3.03323   3.03756   3.04349   3.04590   3.04856
 Alpha virt. eigenvalues --    3.05272   3.05860   3.06357   3.06542   3.06929
 Alpha virt. eigenvalues --    3.07339   3.07625   3.08160   3.08413   3.08582
 Alpha virt. eigenvalues --    3.08886   3.09285   3.09968   3.10122   3.10629
 Alpha virt. eigenvalues --    3.10734   3.10832   3.11647   3.11695   3.11792
 Alpha virt. eigenvalues --    3.12133   3.12606   3.12896   3.13536   3.13955
 Alpha virt. eigenvalues --    3.14149   3.14755   3.14961   3.15289   3.15630
 Alpha virt. eigenvalues --    3.15679   3.16160   3.16635   3.17024   3.17205
 Alpha virt. eigenvalues --    3.17542   3.17955   3.18280   3.18582   3.19053
 Alpha virt. eigenvalues --    3.19275   3.19617   3.19998   3.20205   3.20476
 Alpha virt. eigenvalues --    3.20945   3.21118   3.21308   3.21666   3.22098
 Alpha virt. eigenvalues --    3.22317   3.22677   3.23226   3.23377   3.23503
 Alpha virt. eigenvalues --    3.23918   3.24182   3.24510   3.25150   3.25253
 Alpha virt. eigenvalues --    3.25724   3.25946   3.26218   3.26366   3.26559
 Alpha virt. eigenvalues --    3.26873   3.27123   3.27463   3.27612   3.27982
 Alpha virt. eigenvalues --    3.28374   3.28641   3.28904   3.29429   3.29557
 Alpha virt. eigenvalues --    3.29877   3.30121   3.30229   3.30513   3.30850
 Alpha virt. eigenvalues --    3.30972   3.31106   3.31320   3.32003   3.32541
 Alpha virt. eigenvalues --    3.32726   3.33087   3.33300   3.33722   3.33963
 Alpha virt. eigenvalues --    3.34087   3.34555   3.34631   3.35133   3.35346
 Alpha virt. eigenvalues --    3.35449   3.35879   3.36298   3.36613   3.36773
 Alpha virt. eigenvalues --    3.36871   3.37174   3.37314   3.37779   3.38287
 Alpha virt. eigenvalues --    3.38862   3.38890   3.39089   3.39285   3.39619
 Alpha virt. eigenvalues --    3.39939   3.40034   3.40491   3.40742   3.41099
 Alpha virt. eigenvalues --    3.41743   3.42157   3.42592   3.42730   3.42918
 Alpha virt. eigenvalues --    3.43216   3.44144   3.44437   3.44731   3.44933
 Alpha virt. eigenvalues --    3.45394   3.45525   3.46144   3.46415   3.46681
 Alpha virt. eigenvalues --    3.47101   3.47947   3.48487   3.48710   3.49306
 Alpha virt. eigenvalues --    3.49496   3.49752   3.50531   3.51325   3.52014
 Alpha virt. eigenvalues --    3.52358   3.52810   3.53536   3.54185   3.54275
 Alpha virt. eigenvalues --    3.54623   3.55158   3.55421   3.55659   3.56048
 Alpha virt. eigenvalues --    3.56127   3.56846   3.57585   3.57727   3.58478
 Alpha virt. eigenvalues --    3.58598   3.59236   3.59630   3.60119   3.60828
 Alpha virt. eigenvalues --    3.61235   3.61559   3.61703   3.62732   3.63383
 Alpha virt. eigenvalues --    3.63573   3.63983   3.64892   3.65464   3.66182
 Alpha virt. eigenvalues --    3.66345   3.66522   3.67095   3.67647   3.68202
 Alpha virt. eigenvalues --    3.68320   3.68685   3.69260   3.70037   3.70324
 Alpha virt. eigenvalues --    3.70373   3.71123   3.71538   3.71847   3.71990
 Alpha virt. eigenvalues --    3.72218   3.72966   3.73675   3.74149   3.74373
 Alpha virt. eigenvalues --    3.74786   3.75159   3.75385   3.75749   3.76002
 Alpha virt. eigenvalues --    3.76213   3.76345   3.77662   3.78229   3.79108
 Alpha virt. eigenvalues --    3.79276   3.79904   3.80288   3.80826   3.81481
 Alpha virt. eigenvalues --    3.81595   3.82158   3.82950   3.83667   3.84298
 Alpha virt. eigenvalues --    3.84793   3.85582   3.86180   3.86807   3.87094
 Alpha virt. eigenvalues --    3.87878   3.88055   3.88997   3.89830   3.90277
 Alpha virt. eigenvalues --    3.90576   3.90994   3.91733   3.92161   3.92210
 Alpha virt. eigenvalues --    3.92551   3.93478   3.94321   3.94913   3.95958
 Alpha virt. eigenvalues --    3.96843   3.97055   3.97765   3.98661   3.99120
 Alpha virt. eigenvalues --    3.99664   3.99929   4.00366   4.00789   4.01735
 Alpha virt. eigenvalues --    4.02053   4.02275   4.03495   4.03792   4.04225
 Alpha virt. eigenvalues --    4.04969   4.05373   4.06145   4.06388   4.06820
 Alpha virt. eigenvalues --    4.07375   4.08926   4.09331   4.09928   4.11068
 Alpha virt. eigenvalues --    4.11902   4.12110   4.12588   4.14841   4.14984
 Alpha virt. eigenvalues --    4.15391   4.16083   4.16814   4.17162   4.17460
 Alpha virt. eigenvalues --    4.18058   4.18588   4.18922   4.19221   4.19774
 Alpha virt. eigenvalues --    4.20061   4.20421   4.20567   4.21119   4.21595
 Alpha virt. eigenvalues --    4.22427   4.22682   4.23457   4.24443   4.25215
 Alpha virt. eigenvalues --    4.26203   4.26461   4.26916   4.27649   4.28153
 Alpha virt. eigenvalues --    4.28687   4.29332   4.30416   4.30681   4.30882
 Alpha virt. eigenvalues --    4.31265   4.32267   4.32413   4.33191   4.34149
 Alpha virt. eigenvalues --    4.34398   4.34822   4.35155   4.35332   4.36211
 Alpha virt. eigenvalues --    4.37127   4.38610   4.39168   4.39426   4.40264
 Alpha virt. eigenvalues --    4.40563   4.41031   4.41510   4.42105   4.42130
 Alpha virt. eigenvalues --    4.42427   4.43660   4.43921   4.44309   4.45134
 Alpha virt. eigenvalues --    4.45562   4.45797   4.46451   4.46825   4.47044
 Alpha virt. eigenvalues --    4.47541   4.48547   4.49005   4.49381   4.49691
 Alpha virt. eigenvalues --    4.51449   4.52114   4.52217   4.53359   4.54398
 Alpha virt. eigenvalues --    4.54984   4.55906   4.56786   4.57183   4.57442
 Alpha virt. eigenvalues --    4.58757   4.59316   4.60195   4.61554   4.63857
 Alpha virt. eigenvalues --    4.65256   4.66050   4.66493   4.67253   4.68544
 Alpha virt. eigenvalues --    4.69251   4.69530   4.69795   4.70229   4.71941
 Alpha virt. eigenvalues --    4.72535   4.73095   4.73952   4.74287   4.74945
 Alpha virt. eigenvalues --    4.76152   4.76308   4.77099   4.78246   4.80290
 Alpha virt. eigenvalues --    4.81293   4.81516   4.82901   4.83427   4.84076
 Alpha virt. eigenvalues --    4.84149   4.84792   4.85549   4.85824   4.86285
 Alpha virt. eigenvalues --    4.86552   4.87840   4.88142   4.89691   4.90540
 Alpha virt. eigenvalues --    4.91208   4.92636   4.93779   4.94186   4.95063
 Alpha virt. eigenvalues --    4.95691   4.96238   4.96904   4.97445   4.97782
 Alpha virt. eigenvalues --    4.99023   4.99650   5.00806   5.02334   5.02872
 Alpha virt. eigenvalues --    5.03355   5.03988   5.04924   5.05543   5.06976
 Alpha virt. eigenvalues --    5.08364   5.08883   5.09571   5.10228   5.11014
 Alpha virt. eigenvalues --    5.11184   5.11937   5.14797   5.15024   5.16604
 Alpha virt. eigenvalues --    5.18136   5.18882   5.20401   5.20841   5.21763
 Alpha virt. eigenvalues --    5.22130   5.22971   5.23991   5.25026   5.26276
 Alpha virt. eigenvalues --    5.26875   5.28174   5.29261   5.31064   5.32275
 Alpha virt. eigenvalues --    5.34381   5.35621   5.37280   5.37954   5.38253
 Alpha virt. eigenvalues --    5.38972   5.39341   5.40091   5.40737   5.41426
 Alpha virt. eigenvalues --    5.41979   5.43014   5.44150   5.46105   5.48135
 Alpha virt. eigenvalues --    5.49430   5.50557   5.50989   5.52020   5.52469
 Alpha virt. eigenvalues --    5.52849   5.53325   5.57241   5.58022   5.60770
 Alpha virt. eigenvalues --    5.61565   5.62557   5.63074   5.63569   5.64744
 Alpha virt. eigenvalues --    5.65255   5.66128   5.67905   5.68034   5.68860
 Alpha virt. eigenvalues --    5.70871   5.74374   5.76337   5.77761   5.78476
 Alpha virt. eigenvalues --    5.81846   5.82355   5.90311   5.93201   5.94722
 Alpha virt. eigenvalues --    5.95096   5.98695   6.02138   6.02424   6.03619
 Alpha virt. eigenvalues --    6.08985   6.13091   6.13883   6.14644   6.15577
 Alpha virt. eigenvalues --    6.18228   6.19124   6.24490   6.28280   6.35068
 Alpha virt. eigenvalues --    6.35636   6.41893   6.49098   6.51350   6.54619
 Alpha virt. eigenvalues --    6.69373   6.96460   7.28013  22.36522  22.38031
 Alpha virt. eigenvalues --   22.44191  22.46225  22.47030  22.53006  22.53518
 Alpha virt. eigenvalues --   22.62645  22.63238  22.78568  22.85923  22.87750
 Alpha virt. eigenvalues --   22.92810  22.94948  22.95451  22.96355  22.97949
 Alpha virt. eigenvalues --   23.02958  23.03590  23.09885  23.13848  23.27895
 Alpha virt. eigenvalues --   23.28950  23.31110  23.32553  23.42249  23.42653
 Alpha virt. eigenvalues --   23.51456  23.51936  23.56517  23.74451  23.79126
 Alpha virt. eigenvalues --   23.79918  23.89190  32.40974  32.76868  32.91792
 Alpha virt. eigenvalues --   32.98273  33.02400  33.12300  44.07315
          Condensed to atoms (all electrons):
 Mulliken charges:
               1
     1  Fe  -0.265749
     2  N   -0.073124
     3  N   -0.012424
     4  N   -0.021246
     5  N   -0.009651
     6  C    0.224287
     7  C   -0.037127
     8  C   -0.045934
     9  C    0.157337
    10  C    0.220930
    11  C   -0.053504
    12  C    0.056063
    13  C    0.191973
    14  C    0.226963
    15  C   -0.052247
    16  C    0.066031
    17  C    0.204704
    18  C    0.176351
    19  C   -0.035796
    20  C   -0.049490
    21  C    0.232245
    22  C   -0.430796
    23  H    0.136959
    24  C   -0.434495
    25  H    0.131326
    26  C   -0.386635
    27  H    0.113766
    28  C   -0.436552
    29  H    0.122276
    30  C   -0.415240
    31  H    0.120145
    32  H    0.131023
    33  H    0.135913
    34  C   -0.416367
    35  H    0.136326
    36  H    0.133365
    37  H    0.118984
    38  C   -0.453622
    39  H    0.129575
    40  H    0.137693
    41  H    0.158386
    42  C   -0.198464
    43  H    0.102841
    44  C   -0.288933
    45  H    0.136017
    46  H    0.121132
    47  C   -0.452631
    48  H    0.127964
    49  H    0.141958
    50  H    0.155382
    51  C   -0.216535
    52  H    0.113536
    53  C   -0.288125
    54  H    0.138622
    55  H    0.121325
    56  C   -0.416697
    57  H    0.135447
    58  H    0.134741
    59  H    0.118680
    60  C   -0.417193
    61  H    0.119201
    62  H    0.134186
    63  H    0.133272
    64  O   -0.578486
    65  H    0.359154
    66  H    0.326363
    67  C   -0.393084
    68  H    0.135947
    69  H    0.133697
    70  H    0.146724
    71  N   -0.232414
    72  H    0.234905
    73  C    0.180230
    74  C    0.006767
    75  H    0.176383
    76  N    0.077473
    77  C   -0.226240
    78  H    0.164228
 Sum of Mulliken charges =  -0.00000
 Mulliken charges with hydrogens summed into heavy atoms:
               1
     1  Fe  -0.265749
     2  N   -0.073124
     3  N   -0.012424
     4  N   -0.021246
     5  N   -0.009651
     6  C    0.224287
     7  C   -0.037127
     8  C   -0.045934
     9  C    0.157337
    10  C    0.220930
    11  C   -0.053504
    12  C    0.056063
    13  C    0.191973
    14  C    0.226963
    15  C   -0.052247
    16  C    0.066031
    17  C    0.204704
    18  C    0.176351
    19  C   -0.035796
    20  C   -0.049490
    21  C    0.232245
    22  C   -0.293837
    24  C   -0.303170
    26  C   -0.272870
    28  C   -0.314276
    30  C   -0.028158
    34  C   -0.027691
    38  C   -0.027968
    42  C   -0.095623
    44  C   -0.031783
    47  C   -0.027328
    51  C   -0.102998
    53  C   -0.028178
    56  C   -0.027828
    60  C   -0.030534
    64  O    0.107031
    67  C    0.023284
    71  N    0.002491
    73  C    0.180230
    74  C    0.183150
    76  N    0.077473
    77  C   -0.062012
 Electronic spatial extent (au):  <R**2>=          19935.1271
 Charge=              0.0000 electrons
 Dipole moment (field-independent basis, Debye):
    X=              0.9252    Y=             -1.9099    Z=              3.2308  Tot=              3.8654
 Quadrupole moment (field-independent basis, Debye-Ang):
   XX=           -241.6462   YY=           -246.0084   ZZ=           -222.9580
   XY=             -2.7166   XZ=              1.8521   YZ=             -0.9342
 Traceless Quadrupole moment (field-independent basis, Debye-Ang):
   XX=             -4.7754   YY=             -9.1375   ZZ=             13.9129
   XY=             -2.7166   XZ=              1.8521   YZ=             -0.9342
 Octapole moment (field-independent basis, Debye-Ang**2):
  XXX=              8.6618  YYY=            -33.3886  ZZZ=             83.0787  XYY=             -3.4227
  XXY=            -35.3693  XXZ=              9.5978  XZZ=             17.5369  YZZ=            -24.5427
  YYZ=             -8.4541  XYZ=              1.6732
 Hexadecapole moment (field-independent basis, Debye-Ang**3):
 XXXX=         -12017.3634 YYYY=         -11600.5217 ZZZZ=          -2635.7775 XXXY=            -17.2546
 XXXZ=             78.7634 YYYX=            -23.4949 YYYZ=             49.3626 ZZZX=             16.6739
 ZZZY=            -47.1681 XXYY=          -4022.9362 XXZZ=          -2617.4899 YYZZ=          -2648.7295
 XXYZ=             49.0786 YYXZ=            -27.4000 ZZXY=            -27.9876
 N-N= 5.973879502774D+03 E-N=-1.896209630537D+04  KE= 2.973872560384D+03
  Exact polarizability:     715.758      -2.374     699.010      11.875      11.585     309.235
 Approx polarizability:    1327.294      -9.625    1287.764      39.442      23.315     496.660

 ----------------------------------------------------------------------

 Electric dipole moment (input orientation):
 (Debye = 10**-18 statcoulomb cm , SI units = C m)
                  (au)            (Debye)         (10**-30 SI)
   Tot        0.152077D+01      0.386542D+01      0.128937D+02
   x         -0.101005D+01     -0.256729D+01     -0.856355D+01
   y          0.409894D-01      0.104185D+00      0.347523D+00
   z          0.113617D+01      0.288785D+01      0.963282D+01

 Dipole polarizability, Alpha (input orientation).
 (esu units = cm**3 , SI units = C**2 m**2 J**-1)
 Alpha(0;0):
               (au)            (10**-24 esu)      (10**-40 SI)
   iso        0.574668D+03      0.851570D+02      0.947499D+02
   aniso      0.399469D+03      0.591952D+02      0.658635D+02
   xx         0.602860D+03      0.893347D+02      0.993982D+02
   yx         0.105675D+03      0.156594D+02      0.174234D+02
   yy         0.583903D+03      0.865255D+02      0.962726D+02
   zx         0.133930D+03      0.198464D+02      0.220820D+02
   zy        -0.151483D+03     -0.224474D+02     -0.249761D+02
   zz         0.537240D+03      0.796108D+02      0.885789D+02

 First dipole hyperpolarizability, Beta (input orientation).
 ||, _|_  parallel and perpendicular components, (z) with respect to z axis,
 vector components x,y,z.  Values do not include the 1/n! factor of 1/2.
 (esu units = statvolt**-1 cm**4 , SI units = C**3 m**3 J**-2)
 Beta(0;0,0):
               (au)            (10**-30 esu)      (10**-50 SI)
   || (z)     0.835533D+02      0.721835D+00      0.267902D+00
   _|_(z)     0.278511D+02      0.240612D+00      0.893007D-01
   x          0.404823D+04      0.349736D+02      0.129801D+02
   y          0.397948D+04      0.343796D+02      0.127597D+02
   z          0.417766D+03      0.360918D+01      0.133951D+01
   ||         0.113840D+04      0.983491D+01      0.365013D+01
   xxx        0.723667D+03      0.625191D+01      0.232034D+01
   xxy        0.112033D+03      0.967875D+00      0.359217D+00
   yxy        0.250882D+02      0.216743D+00      0.804418D-01
   yyy        0.482138D+03      0.416529D+01      0.154591D+01
   xxz        0.689134D+03      0.595358D+01      0.220961D+01
   yxz       -0.106022D+03     -0.915946D+00     -0.339944D+00
   yyz       -0.505075D+03     -0.436346D+01     -0.161945D+01
   zxz        0.600657D+03      0.518921D+01      0.192592D+01
   zyz        0.732325D+03      0.632671D+01      0.234810D+01
   zzz       -0.448033D+02     -0.387066D+00     -0.143656D+00

 ----------------------------------------------------------------------

 Dipole orientation:
    26        -14.53391782          4.93995148         17.11369745
     7        -14.21676130          1.72668896         19.12086723
     7        -10.76214179          5.06128146         16.77938058
     7        -14.84096417          7.98111882         14.93535640
     7        -18.28780026          4.73527941         17.44559037
     6        -16.12549928          0.38867070         20.20207653
     6        -15.16188326         -1.85660072         21.42359318
     6        -12.61828630         -1.84769449         21.04956221
     6        -12.05641920          0.43976277         19.66454416
     6         -9.07474906          3.27660372         17.53674480
     6         -6.53331414          4.00685660         16.89384069
     6         -6.70571576          6.33982158         15.78510806
     6         -9.38553086          6.92450941         15.66898303
     6        -12.92511994          9.35761917         13.91302465
     6        -13.90041418         11.38863142         12.38453493
     6        -16.48119191         11.21631338         12.50782778
     6        -17.01670670          9.06820248         14.12406081
     6        -19.97739275          6.44720111         16.54594009
     6        -22.49275407          5.90382889         17.47103372
     6        -22.27558743          3.82370342         18.96271120
     6        -19.63630773          3.11114584         18.90478920
     6        -18.64651198          1.07813812         20.20841700
     1        -19.94391286         -0.10207718         21.24953512
     6         -9.66657806          1.08494713         18.83947752
     1         -8.13134187         -0.16178093         19.33822523
     6        -10.37690585          8.88135731         14.25504393
     1         -9.06489797         10.18421645         13.39477724
     6        -19.42109330          8.40780975         14.91206041
     1        -20.97733983          9.54872124         14.24977770
     6        -10.68363437         -3.71800562         21.88348998
     1        -11.55762455         -5.25914234         22.92389983
     1         -9.28517258         -2.82329197         23.10384790
     1         -9.69535631         -4.51292642         20.25935753
     6        -16.76308564         -3.75431789         22.75328776
     1        -18.17538189         -4.53698489         21.47373589
     1        -17.75213560         -2.88287939         24.33690748
     1        -15.61880358         -5.29971904         23.47742811
     6         -4.24128931          2.42679884         17.30717327
     1         -4.66294102          0.43868551         16.98394565
     1         -3.54052521          2.62473386         19.23706266
     1         -2.74835513          3.00070692         16.01485320
     6         -4.70934753          7.93186210         14.81491974
     1         -5.20159902          9.09950338         13.20647822
     6         -2.38090438          8.08490116         15.74620921
     1         -1.80042231          7.04800440         17.39585742
     1         -0.97993232          9.30312158         14.91008413
     6        -12.33852377         13.18293748         10.88137433
     1        -10.70552476         12.22764272         10.07192179
     1        -11.65252135         14.72840670         12.06192917
     1        -13.45714591         13.98167604          9.35195909
     6        -18.38444976         12.75353401         11.29173359
     1        -20.10258258         11.77093024         10.76269709
     6        -18.19081555         15.21046765         10.80494810
     1        -16.57006130         16.30182832         11.36715236
     1        -19.68130449         16.22956842          9.86359649
     6        -24.78037543          7.42055239         16.83944662
     1        -25.14560146          7.36819975         14.81213062
     1        -24.52158595          9.38909427         17.38925936
     1        -26.43558623          6.68801528         17.81175882
     6        -24.26343516          2.43906933         20.39926476
     1        -26.09618010          3.33757368         20.16413970
     1        -23.81095274          2.40172924         22.40888980
     1        -24.40841440          0.49164491         19.74185108
     8        -14.74274226          2.41805771         13.66395882
     1        -14.89455352          0.71016467         14.24065812
     1        -14.61073656          2.91922075         12.06473889
     6        -16.07134869         12.09339289         24.70850392
     1        -14.58199124         13.47651248         25.04263537
     1        -16.75845537         11.43293190         26.53430084
     1        -17.61348288         13.01514440         23.71888994
     7        -13.19482192          8.40912827         23.96690021
     1        -12.25821948          8.56283819         25.61579538
     6        -15.11617060          9.95089317         23.16882901
     6        -12.79144034          6.66693998         22.14165198
     1        -11.39341092          5.20926633         22.25185926
     7        -14.34035632          7.01094704         20.23900079
     6        -15.79690375          9.04814247         20.84918707
     1        -17.22706367          9.72229571         19.58756787

 Electric dipole moment (dipole orientation):
 (Debye = 10**-18 statcoulomb cm , SI units = C m)
                  (au)            (Debye)         (10**-30 SI)
   Tot        0.152077D+01      0.386542D+01      0.128937D+02
   x          0.000000D+00      0.000000D+00      0.000000D+00
   y          0.000000D+00      0.000000D+00      0.000000D+00
   z          0.152077D+01      0.386542D+01      0.128937D+02

 Dipole polarizability, Alpha (dipole orientation).
 (esu units = cm**3 , SI units = C**2 m**2 J**-1)
 Alpha(0;0):
               (au)            (10**-24 esu)      (10**-40 SI)
   iso        0.574668D+03      0.851570D+02      0.947499D+02
   aniso      0.399469D+03      0.591952D+02      0.658635D+02
   xx         0.706455D+03      0.104686D+03      0.116479D+03
   yx        -0.223611D+02     -0.331357D+01     -0.368684D+01
   yy         0.594124D+03      0.880402D+02      0.979579D+02
   zx        -0.193109D+02     -0.286158D+01     -0.318393D+01
   zy        -0.178909D+03     -0.265116D+02     -0.294981D+02
   zz         0.423425D+03      0.627451D+02      0.698133D+02

 First dipole hyperpolarizability, Beta (dipole orientation).
 ||, _|_  parallel and perpendicular components, (z) with respect to z axis,
 vector components x,y,z.  Values do not include the 1/n! factor of 1/2.
 (esu units = statvolt**-1 cm**4 , SI units = C**3 m**3 J**-2)
 Beta(0;0,0):
               (au)            (10**-30 esu)      (10**-50 SI)
   || (z)    -0.453867D+03     -0.392106D+01     -0.145526D+01
   _|_(z)    -0.151289D+03     -0.130702D+01     -0.485087D+00
   x          0.334435D+04      0.288926D+02      0.107232D+02
   y          0.400805D+04      0.346264D+02      0.128513D+02
   z         -0.226933D+04     -0.196053D+02     -0.727631D+01
   ||         0.113840D+04      0.983491D+01      0.365013D+01
   xxx        0.165911D+04      0.143334D+02      0.531969D+01
   xxy        0.261543D+03      0.225953D+01      0.838601D+00
   yxy       -0.332971D+03     -0.287661D+01     -0.106763D+01
   yyy        0.524928D+03      0.453497D+01      0.168311D+01
   xxz       -0.167120D+03     -0.144378D+01     -0.535846D+00
   yxz        0.290405D+03      0.250887D+01      0.931143D+00
   yyz       -0.416655D+03     -0.359958D+01     -0.133595D+01
   zxz       -0.211350D+03     -0.182590D+01     -0.677664D+00
   zyz        0.549545D+03      0.474764D+01      0.176204D+01
   zzz       -0.172670D+03     -0.149174D+01     -0.553643D+00

 ----------------------------------------------------------------------
 Unable to Open any file for archive entry.
 1\1\GINC-BGN1033\SP\RAPFD\def2TZVP\C34H36Fe1N6O1\BECSLEIP\10-Sep-2024\
 0\\# polar def2tzvp apfd int=(grid=ultrafine)\\2ycg_II_S\\0,1\Fe,0,-11
 .7371749964,2.7783093936,1.5872685728\N,0,-12.3345854812,1.108978884,2
 .5380964018\N,0,-10.1270266516,2.8581704225,2.7790039306\N,0,-11.07653
 81294,4.3542223431,0.5747766028\N,0,-13.3398451844,2.6544264157,0.4020
 525388\C,0,-13.4768787232,0.4062963266,2.3137839698\C,0,-13.537195051,
 -0.7587088736,3.1674058718\C,0,-12.3995255709,-0.7455409554,3.91338521
 92\C,0,-11.6780849189,0.4477180805,3.5306716296\C,0,-9.7354112156,1.93
 41037876,3.6969353263\C,0,-8.5001869679,2.3249865507,4.3255680802\C,0,
 -8.1660560628,3.5422765727,3.793366285\C,0,-9.1821190751,3.8353648493,
 2.7972632521\C,0,-9.9519184706,5.0781385718,0.8243148162\C,0,-9.789493
 9434,6.1253681956,-0.1517164929\C,0,-10.8546319542,6.021984577,-1.0075
 613462\C,0,-11.6461562978,4.9058744752,-0.5261632238\C,0,-13.682717081
 9,3.5379668788,-0.5718666594\C,0,-15.0057931567,3.2501022018,-1.082438
 1673\C,0,-15.4554362477,2.1722580824,-0.3867132463\C,0,-14.3949300628,
 1.8088299789,0.5281579208\C,0,-14.4725986044,0.7574162772,1.4204159179
 \H,0,-15.3581208061,0.1409476549,1.3928647683\C,0,-10.4392641809,0.790
 1831175,4.0352207743\H,0,-10.0140260946,0.1461551872,4.7897588615\C,0,
 -9.0667179102,4.8449113453,1.8619252254\H,0,-8.2383151307,5.5289119754
 ,1.964360011\C,0,-12.8777855351,4.5547573151,-1.0502619763\H,0,-13.254
 4319852,5.1403664049,-1.8753282467\C,0,-11.9374760297,-1.7124713011,4.
 9497094638\H,0,-12.6572188949,-2.5175662231,5.0758389916\H,0,-11.80834
 90471,-1.2142176216,5.9109198207\H,0,-10.9800345182,-2.1507566641,4.66
 62937546\C,0,-14.6482052729,-1.7522365626,3.1574014846\H,0,-14.7613927
 446,-2.1921416558,2.1663285657\H,0,-15.5912985419,-1.2740586317,3.4234
 379452\H,0,-14.4584522552,-2.5531548113,3.86790221\C,0,-7.7473753079,1
 .5075266127,5.317074468\H,0,-7.8113443307,0.4490033949,5.0694489699\H,
 0,-8.1473861923,1.6435512308,6.3235197012\H,0,-6.6995060065,1.80076201
 96,5.3226839439\C,0,-7.0267415223,4.3813846481,4.0887461683\H,0,-6.649
 8223973,4.9734067738,3.263191648\C,0,-6.4321692433,4.4882437415,5.2731
 059779\H,0,-6.7879609328,3.9664459955,6.144096374\H,0,-5.5775189393,5.
 128300826,5.4175598396\C,0,-8.6336281853,7.0615085533,-0.2226331294\H,
 0,-7.70835508,6.5535076919,0.0449150186\H,0,-8.7688089701,7.8995533191
 ,0.4631569142\H,0,-8.5342557059,7.4561278283,-1.2318288812\C,0,-11.171
 7519923,6.8074437242,-2.1791893052\H,0,-11.6707803012,6.2708269002,-2.
 9781864766\C,0,-10.9107481348,8.1011633232,-2.3386264456\H,0,-10.46130
 71111,8.6952529671,-1.5622925794\H,0,-11.1639613174,8.6187159692,-3.24
 91731107\C,0,-15.6804981195,4.030971956,-2.1577798695\H,0,-15.11272825
 08,3.9723839234,-3.0868898808\H,0,-15.7606942937,5.0814914224,-1.87753
 53907\H,0,-16.6809481265,3.6483844642,-2.3446751364\C,0,-16.7541655769
 ,1.4495570524,-0.4976805673\H,0,-17.3916298825,1.9115364489,-1.2475926
 248\H,0,-17.2816882973,1.4609222621,0.4563819828\H,0,-16.5910176343,0.
 4092902069,-0.7807659608\O,0,-10.621,1.394,0.186\H,0,-10.893,0.498,0.3
 85\H,0,-10.004,1.637,-0.407\C,0,-14.9758335365,6.6621614785,3.94747548
 26\H,0,-14.4966278265,7.4066136593,4.5832990698\H,0,-15.892910249,6.33
 51215147,4.437227028\H,0,-15.2330413153,7.1272521458,3.0010855578\N,0,
 -13.5973047905,4.718362708,4.7178236651\H,0,-13.8055066875,4.828265089
 4,5.696697709\C,0,-14.0684756458,5.512089721,3.7050368287\C,0,-12.8056
 806852,3.7729735422,4.162839142\H,0,-12.2993035457,3.0110787569,4.7185
 54585\N,0,-12.7478055572,3.9194027909,2.8613393686\C,0,-13.5273794411,
 4.9977973966,2.5615969007\H,0,-13.6460368017,5.3286467338,1.5505567036
 \\Version=ES64L-G16RevC.02\State=1-A\HF=-2984.0260079\RMSD=3.313e-09\D
 ipole=-1.0100484,0.0409894,1.1361666\Polar=602.8603114,105.6747058,583
 .9032652,133.9298469,-151.4826267,537.2402169\HyperPolar=723.6665106,1
 12.032693,25.0882036,482.137645,689.133949,-106.0218116,-505.075165,60
 0.6568108,732.3245017,-44.8032997\Quadrupole=-3.8759012,-0.458791,4.33
 46922,-4.3942391,-5.9779138,4.1566994\PG=C01 [X(C34H36Fe1N6O1)]\\@
 The archive entry for this job was punched.


 RESEARCH IS WHAT I AM DOING WHEN I DON'T KNOW WHAT I AM DOING.
     -- WERNER VON BRAUN
 Job cpu time:       2 days  4 hours 53 minutes  7.6 seconds.
 Elapsed time:       0 days  0 hours 45 minutes 46.3 seconds.
 File lengths (MBytes):  RWF=   1208 Int=      0 D2E=      0 Chk=    155 Scr=      1
 Normal termination of Gaussian 16 at Tue Sep 10 11:43:39 2024.
 Initial command:
 /sw/chem/gaussian/g16_C02/a100/g16/l1.exe "/local/becsleip_8010928/Gau-42856.inp" -scrdir="/local/becsleip_8010928/"
 Entering Link 1 = /sw/chem/gaussian/g16_C02/a100/g16/l1.exe PID=     44606.
  
 Copyright (c) 1988-2021, Gaussian, Inc.  All Rights Reserved.
  
 This is part of the Gaussian(R) 16 program.  It is based on
 the Gaussian(R) 09 system (copyright 2009, Gaussian, Inc.),
 the Gaussian(R) 03 system (copyright 2003, Gaussian, Inc.),
 the Gaussian(R) 98 system (copyright 1998, Gaussian, Inc.),
 the Gaussian(R) 94 system (copyright 1995, Gaussian, Inc.),
 the Gaussian 92(TM) system (copyright 1992, Gaussian, Inc.),
 the Gaussian 90(TM) system (copyright 1990, Gaussian, Inc.),
 the Gaussian 88(TM) system (copyright 1988, Gaussian, Inc.),
 the Gaussian 86(TM) system (copyright 1986, Carnegie Mellon
 University), and the Gaussian 82(TM) system (copyright 1983,
 Carnegie Mellon University). Gaussian is a federally registered
 trademark of Gaussian, Inc.
  
 This software contains proprietary and confidential information,
 including trade secrets, belonging to Gaussian, Inc.
  
 This software is provided under written license and may be
 used, copied, transmitted, or stored only in accord with that
 written license.
  
 The following legend is applicable only to US Government
 contracts under FAR:
  
                    RESTRICTED RIGHTS LEGEND
  
 Use, reproduction and disclosure by the US Government is
 subject to restrictions as set forth in subparagraphs (a)
 and (c) of the Commercial Computer Software - Restricted
 Rights clause in FAR 52.227-19.
  
 Gaussian, Inc.
 340 Quinnipiac St., Bldg. 40, Wallingford CT 06492
  
  
 ---------------------------------------------------------------
 Warning -- This program may not be used in any manner that
 competes with the business of Gaussian, Inc. or will provide
 assistance to any competitor of Gaussian, Inc.  The licensee
 of this program is prohibited from giving any competitor of
 Gaussian, Inc. access to this program.  By using this program,
 the user acknowledges that Gaussian, Inc. is engaged in the
 business of creating and licensing software in the field of
 computational chemistry and represents and warrants to the
 licensee that it is not a competitor of Gaussian, Inc. and that
 it will not use this program in any manner prohibited above.
 ---------------------------------------------------------------
  

 Cite this work as:
 Gaussian 16, Revision C.02,
 M. J. Frisch, G. W. Trucks, H. B. Schlegel, G. E. Scuseria, 
 M. A. Robb, J. R. Cheeseman, G. Scalmani, V. Barone, 
 G. A. Petersson, H. Nakatsuji, X. Li, M. Caricato, A. V. Marenich, 
 J. Bloino, B. G. Janesko, R. Gomperts, B. Mennucci, H. P. Hratchian, 
 J. V. Ortiz, A. F. Izmaylov, J. L. Sonnenberg, D. Williams-Young, 
 F. Ding, F. Lipparini, F. Egidi, J. Goings, B. Peng, A. Petrone, 
 T. Henderson, D. Ranasinghe, V. G. Zakrzewski, J. Gao, N. Rega, 
 G. Zheng, W. Liang, M. Hada, M. Ehara, K. Toyota, R. Fukuda, 
[...]
                                                    154(r),150(r),171(r),159(r)
   140. CR (   1) C  67                  1.99940   -10.05862  1526(v),1332(v),1524(v)
                                                    1324(v)
   141. CR (   1) N  71                  1.99938   -14.22037  1352(v),1326(v),1320(v)
                                                    1327(v),1522(v)
   142. CR (   1) C  73                  1.99915   -10.08814  1409(v),1526(g),1532(v)
                                                    1254(v)
   143. CR (   1) C  74                  1.99935   -10.12055  1382(v),1523(v),1531(v)
                                                    151(r),150(r),154(r)
   144. CR (   1) N  76                  1.99931   -14.15150  150(r),151(r),154(r),1350(v)
                                                    1407(v),1528(v),172(r)
                                                    168(r),174(r)
   145. CR (   1) C  77                  1.99898   -10.05801  1522(v),1324(v),1526(g)
                                                    1383(v),1327(v),1434(v)
                                                    150(r),151(r)
   163. LP (   1) N  71                  1.57896    -0.28327  1530(v),1527(v),1353(v)
                                                    1325(v),1319(v)
   164. LP (   1) N  76                  1.61033    -0.36325  150(r),151(r),154(r),1525(v)
                                                    1526(v),1350(v),1528(v)
                                                    1532(v),1529(g),1407(v)
                                                    1384(g),159(r),1531(g)
                                                    170(r),1383(g),183(r),247(r)
                                                    195(r),221(r),273(r),194(r)
                                                    246(r),220(r),1441(r),272(r)
                                                    1445(r),1440(r),1447(r)
                                                    1448(r),244(r),1444(r)
                                                    1438(r),1442(r),218(r)
                                                    192(r),174(r),270(r),175(r)
  1252. RY*(   1) C  67                  0.00118     1.15973   
  1253. RY*(   2) C  67                  0.00078     2.00847   
  1254. RY*(   3) C  67                  0.00051     1.33734   
  1255. RY*(   4) C  67                  0.00012     1.26322   
  1256. RY*(   5) C  67                  0.00008     2.19968   
  1257. RY*(   6) C  67                  0.00007     1.31180   
  1258. RY*(   7) C  67                  0.00001     1.63476   
  1259. RY*(   8) C  67                  0.00001     1.87208   
  1260. RY*(   9) C  67                  0.00001     1.46385   
  1261. RY*(  10) C  67                  0.00001     2.34936   
  1262. RY*(  11) C  67                  0.00001     1.40646   
  1263. RY*(  12) C  67                  0.00000     3.23634   
  1264. RY*(  13) C  67                  0.00000     2.55133   
  1265. RY*(  14) C  67                  0.00000     2.78063   
  1266. RY*(  15) C  67                  0.00000     2.30706   
  1267. RY*(  16) C  67                  0.00000     3.17538   
  1268. RY*(  17) C  67                  0.00000     2.50909   
  1269. RY*(  18) C  67                  0.00000    21.60153   
  1270. RY*(  19) C  67                  0.00001     2.69699   
  1271. RY*(  20) C  67                  0.00000     3.66506   
  1272. RY*(  21) C  67                  0.00001     3.44835   
  1273. RY*(  22) C  67                  0.00000     3.33548   
  1274. RY*(  23) C  67                  0.00000     3.76433   
  1275. RY*(  24) C  67                  0.00000     3.35006   
  1276. RY*(  25) C  67                  0.00000     3.31468   
  1277. RY*(  26) C  67                  0.00000     3.25982   
  1278. RY*(   1) H  68                  0.00075     1.00120   
  1279. RY*(   2) H  68                  0.00015     1.69631   
  1280. RY*(   3) H  68                  0.00008     1.95765   
  1281. RY*(   4) H  68                  0.00006     2.01439   
  1282. RY*(   5) H  68                  0.00000     2.88292   
  1283. RY*(   1) H  69                  0.00073     0.99976   
  1284. RY*(   2) H  69                  0.00015     1.69018   
  1285. RY*(   3) H  69                  0.00008     1.96623   
  1286. RY*(   4) H  69                  0.00006     2.01362   
  1287. RY*(   5) H  69                  0.00000     2.88159   
  1288. RY*(   1) H  70                  0.00024     1.38454   
  1289. RY*(   2) H  70                  0.00012     1.74117   
  1290. RY*(   3) H  70                  0.00008     2.05795   
  1291. RY*(   4) H  70                  0.00002     1.60649   
  1292. RY*(   5) H  70                  0.00001     2.85898   
  1293. RY*(   1) N  71                  0.00281     0.67238   
  1294. RY*(   2) N  71                  0.00224     1.78116   
  1295. RY*(   3) N  71                  0.00099     2.07697   
  1296. RY*(   4) N  71                  0.00078     2.16480   
  1297. RY*(   5) N  71                  0.00052     1.16375   
  1298. RY*(   6) N  71                  0.00027     2.05845   
  1299. RY*(   7) N  71                  0.00020     1.70150   
  1300. RY*(   8) N  71                  0.00006     3.40559   
  1301. RY*(   9) N  71                  0.00006     2.39943   
  1302. RY*(  10) N  71                  0.00006     2.28890   
  1303. RY*(  11) N  71                  0.00005     3.37768   
  1304. RY*(  12) N  71                  0.00001     2.69513   
  1305. RY*(  13) N  71                  0.00001     4.33412   
  1306. RY*(  14) N  71                  0.00000    30.55337   
  1307. RY*(  15) N  71                  0.00000     3.52231   
  1308. RY*(  16) N  71                  0.00000     2.11517   
  1309. RY*(  17) N  71                  0.00000     4.67084   
  1310. RY*(  18) N  71                  0.00001     3.74346   
  1311. RY*(  19) N  71                  0.00001     3.58652   
  1312. RY*(  20) N  71                  0.00000     4.63681   
  1313. RY*(  21) N  71                  0.00000     4.82852   
  1314. RY*(  22) N  71                  0.00000     4.36473   
  1315. RY*(  23) N  71                  0.00000     4.52924   
  1316. RY*(  24) N  71                  0.00000     4.31191   
  1317. RY*(  25) N  71                  0.00000     4.51135   
  1318. RY*(  26) N  71                  0.00000     4.41648   
  1319. RY*(   1) H  72                  0.00058     2.15203   
  1320. RY*(   2) H  72                  0.00039     2.13392   
  1321. RY*(   3) H  72                  0.00030     1.06370   
  1322. RY*(   4) H  72                  0.00021     2.49942   
  1323. RY*(   5) H  72                  0.00001     3.08268   
  1324. RY*(   1) C  73                  0.00406     1.69604   
  1325. RY*(   2) C  73                  0.00261     0.98269   
  1326. RY*(   3) C  73                  0.00191     1.49331   
  1327. RY*(   4) C  73                  0.00162     2.03049   
  1328. RY*(   5) C  73                  0.00123     1.75902   
  1329. RY*(   6) C  73                  0.00110     1.72442   
  1330. RY*(   7) C  73                  0.00037     2.85760   
  1331. RY*(   8) C  73                  0.00018     2.75931   
  1332. RY*(   9) C  73                  0.00016     2.50422   
  1333. RY*(  10) C  73                  0.00007     3.62970   
  1334. RY*(  11) C  73                  0.00003     2.73338   
  1335. RY*(  12) C  73                  0.00002     1.97366   
  1336. RY*(  13) C  73                  0.00001     1.36606   
  1337. RY*(  14) C  73                  0.00001     1.62073   
  1338. RY*(  15) C  73                  0.00001     2.83308   
  1339. RY*(  16) C  73                  0.00000     1.06899   
  1340. RY*(  17) C  73                  0.00000     3.30333   
  1341. RY*(  18) C  73                  0.00000    21.30186   
  1342. RY*(  19) C  73                  0.00001     1.97621   
  1343. RY*(  20) C  73                  0.00000     4.08539   
  1344. RY*(  21) C  73                  0.00000     3.67835   
  1345. RY*(  22) C  73                  0.00000     3.55773   
  1346. RY*(  23) C  73                  0.00000     3.78343   
  1347. RY*(  24) C  73                  0.00000     3.36307   
  1348. RY*(  25) C  73                  0.00000     3.56497   
  1349. RY*(  26) C  73                  0.00000     3.52514   
  1350. RY*(   1) C  74                  0.00409     1.59722   
  1351. RY*(   2) C  74                  0.00330     0.67901   
  1352. RY*(   3) C  74                  0.00201     1.33727   
  1353. RY*(   4) C  74                  0.00127     2.56658   
  1354. RY*(   5) C  74                  0.00080     1.64441   
  1355. RY*(   6) C  74                  0.00039     1.70738   
  1356. RY*(   7) C  74                  0.00025     1.87069   
  1357. RY*(   8) C  74                  0.00009     2.67860   
  1358. RY*(   9) C  74                  0.00005     1.98354   
  1359. RY*(  10) C  74                  0.00005     2.61548   
  1360. RY*(  11) C  74                  0.00004     3.42654   
  1361. RY*(  12) C  74                  0.00003     1.56874   
  1362. RY*(  13) C  74                  0.00002     3.02806   
  1363. RY*(  14) C  74                  0.00001     2.18972   
  1364. RY*(  15) C  74                  0.00001     2.59373   
  1365. RY*(  16) C  74                  0.00001     3.58191   
  1366. RY*(  17) C  74                  0.00001     2.79576   
  1367. RY*(  18) C  74                  0.00001     3.98672   
  1368. RY*(  19) C  74                  0.00000     3.22964   
  1369. RY*(  20) C  74                  0.00000    21.45954   
  1370. RY*(  21) C  74                  0.00001     4.11806   
  1371. RY*(  22) C  74                  0.00000     3.50033   
  1372. RY*(  23) C  74                  0.00000     3.78147   
  1373. RY*(  24) C  74                  0.00000     3.52745   
  1374. RY*(  25) C  74                  0.00000     3.53489   
  1375. RY*(  26) C  74                  0.00000     3.33893   
  1376. RY*(   1) H  75                  0.00059     0.78777   
  1377. RY*(   2) H  75                  0.00029     2.37379   
  1378. RY*(   3) H  75                  0.00021     2.10985   
  1379. RY*(   4) H  75                  0.00012     2.40202   
  1380. RY*(   5) H  75                  0.00002     3.16245   
  1381. RY*(   1) N  76                  0.00752     0.89770   
  1382. RY*(   2) N  76                  0.00734     1.28922   
  1383. RY*(   3) N  76                  0.00593     1.43477   
  1384. RY*(   4) N  76                  0.00077     1.57835   
  1385. RY*(   5) N  76                  0.00073     1.72201   
  1386. RY*(   6) N  76                  0.00056     1.96035   
  1387. RY*(   7) N  76                  0.00037     3.44380   
  1388. RY*(   8) N  76                  0.00033     3.16091   
  1389. RY*(   9) N  76                  0.00012     2.94962   
  1390. RY*(  10) N  76                  0.00009     2.45270   
  1391. RY*(  11) N  76                  0.00009     3.25264   
  1392. RY*(  12) N  76                  0.00008     3.34206   
  1393. RY*(  13) N  76                  0.00006     3.12684   
  1394. RY*(  14) N  76                  0.00004     3.66995   
  1395. RY*(  15) N  76                  0.00002     4.80818   
  1396. RY*(  16) N  76                  0.00001     4.78552   
  1397. RY*(  17) N  76                  0.00000    31.61361   
  1398. RY*(  18) N  76                  0.00001     4.04792   
  1399. RY*(  19) N  76                  0.00000     4.83244   
  1400. RY*(  20) N  76                  0.00000     4.38809   
  1401. RY*(  21) N  76                  0.00001     4.19932   
  1402. RY*(  22) N  76                  0.00000     4.15629   
  1403. RY*(  23) N  76                  0.00000     4.78210   
  1404. RY*(  24) N  76                  0.00000     4.65986   
  1405. RY*(  25) N  76                  0.00000     4.74042   
  1406. RY*(  26) N  76                  0.00000     4.53677   
  1407. RY*(   1) C  77                  0.00397     1.50322   
  1408. RY*(   2) C  77                  0.00262     0.72720   
  1409. RY*(   3) C  77                  0.00170     1.83934   
  1410. RY*(   4) C  77                  0.00069     1.93770   
  1411. RY*(   5) C  77                  0.00058     1.61558   
  1412. RY*(   6) C  77                  0.00048     1.73098   
  1413. RY*(   7) C  77                  0.00044     2.16980   
  1414. RY*(   8) C  77                  0.00024     1.46641   
  1415. RY*(   9) C  77                  0.00020     1.76621   
  1416. RY*(  10) C  77                  0.00017     1.82349   
  1417. RY*(  11) C  77                  0.00011     1.21232   
  1418. RY*(  12) C  77                  0.00006     2.06643   
  1419. RY*(  13) C  77                  0.00006     2.33587   
  1420. RY*(  14) C  77                  0.00003     1.45049   
  1421. RY*(  15) C  77                  0.00003     3.38515   
  1422. RY*(  16) C  77                  0.00003     2.85378   
  1423. RY*(  17) C  77                  0.00002     6.43491   
  1424. RY*(  18) C  77                  0.00000     3.30335   
  1425. RY*(  19) C  77                  0.00000    18.84649   
  1426. RY*(  20) C  77                  0.00001     3.95030   
  1427. RY*(  21) C  77                  0.00001     3.71637   
  1428. RY*(  22) C  77                  0.00000     3.48254   
  1429. RY*(  23) C  77                  0.00000     4.03006   
  1430. RY*(  24) C  77                  0.00000     3.35660   
  1431. RY*(  25) C  77                  0.00000     3.68842   
  1432. RY*(  26) C  77                  0.00000     3.45939   
  1433. RY*(   1) H  78                  0.00051     0.73779   
  1434. RY*(   2) H  78                  0.00033     2.32783   
  1435. RY*(   3) H  78                  0.00025     2.30437   
  1436. RY*(   4) H  78                  0.00008     2.74887   
  1437. RY*(   5) H  78                  0.00001     3.11250   
  1519. BD*(   1) C  67 - H  68          0.01208     0.36006   
  1520. BD*(   1) C  67 - H  69          0.01172     0.35971   
  1521. BD*(   1) C  67 - H  70          0.00344     0.37356   
  1522. BD*(   1) C  67 - C  73          0.01372     0.38978   
  1523. BD*(   1) N  71 - H  72          0.01423     0.36724   
  1524. BD*(   1) N  71 - C  73          0.02721     0.43052   
  1525. BD*(   1) N  71 - C  74          0.02239     0.44820   
  1526. BD*(   1) C  73 - C  77          0.02106     0.56670   
  1527. BD*(   2) C  73 - C  77          0.29989     0.03569  1530(v),1519(v),1520(v)
                                                    1413(g),1328(g),1477(r)
  1528. BD*(   1) C  74 - H  75          0.01774     0.39208   
  1529. BD*(   1) C  74 - N  76          0.01630     0.53809   
  1530. BD*(   2) C  74 - N  76          0.41941    -0.00492  1527(v),1351(g),1381(g)
                                                    1408(v),153(r),1446(r)
                                                    159(r)
  1531. BD*(   1) N  76 - C  77          0.01654     0.48255   
  1532. BD*(   1) C  77 - H  78          0.01472     0.43363   
       -------------------------------
              Total Lewis   42.68795  ( 97.7353%)
        Valence non-Lewis    0.91043  (  2.0845%)
        Rydberg non-Lewis    0.07873  (  0.1803%)
       -------------------------------
            Total unit  4   43.67711  (100.0000%)
           Charge unit  4    0.32289
 Unable to Open any file for archive entry.
 1\1\GINC-BGN1033\SP\RAPFD\def2TZVP\C34H36Fe1N6O1\BECSLEIP\10-Sep-2024\
 0\\# apfd/def2TZVP int=(grid=ultrafine) geom=check guess=read pop=nbo 
 scf=qc\\2ycg_II_S_nbo\\0,1\Fe,0,-11.7371749964,2.7783093936,1.58726857
 28\N,0,-12.3345854812,1.108978884,2.5380964018\N,0,-10.1270266516,2.85
 81704225,2.7790039306\N,0,-11.0765381294,4.3542223431,0.5747766028\N,0
 ,-13.3398451844,2.6544264157,0.4020525388\C,0,-13.4768787232,0.4062963
 266,2.3137839698\C,0,-13.537195051,-0.7587088736,3.1674058718\C,0,-12.
 3995255709,-0.7455409554,3.9133852192\C,0,-11.6780849189,0.4477180805,
 3.5306716296\C,0,-9.7354112156,1.9341037876,3.6969353263\C,0,-8.500186
 9679,2.3249865507,4.3255680802\C,0,-8.1660560628,3.5422765727,3.793366
 285\C,0,-9.1821190751,3.8353648493,2.7972632521\C,0,-9.9519184706,5.07
 81385718,0.8243148162\C,0,-9.7894939434,6.1253681956,-0.1517164929\C,0
 ,-10.8546319542,6.021984577,-1.0075613462\C,0,-11.6461562978,4.9058744
 752,-0.5261632238\C,0,-13.6827170819,3.5379668788,-0.5718666594\C,0,-1
 5.0057931567,3.2501022018,-1.0824381673\C,0,-15.4554362477,2.172258082
 4,-0.3867132463\C,0,-14.3949300628,1.8088299789,0.5281579208\C,0,-14.4
 725986044,0.7574162772,1.4204159179\H,0,-15.3581208061,0.1409476549,1.
 3928647683\C,0,-10.4392641809,0.7901831175,4.0352207743\H,0,-10.014026
 0946,0.1461551872,4.7897588615\C,0,-9.0667179102,4.8449113453,1.861925
 2254\H,0,-8.2383151307,5.5289119754,1.964360011\C,0,-12.8777855351,4.5
 547573151,-1.0502619763\H,0,-13.2544319852,5.1403664049,-1.8753282467\
 C,0,-11.9374760297,-1.7124713011,4.9497094638\H,0,-12.6572188949,-2.51
 75662231,5.0758389916\H,0,-11.8083490471,-1.2142176216,5.9109198207\H,
 0,-10.9800345182,-2.1507566641,4.6662937546\C,0,-14.6482052729,-1.7522
 365626,3.1574014846\H,0,-14.7613927446,-2.1921416558,2.1663285657\H,0,
 -15.5912985419,-1.2740586317,3.4234379452\H,0,-14.4584522552,-2.553154
 8113,3.86790221\C,0,-7.7473753079,1.5075266127,5.317074468\H,0,-7.8113
 443307,0.4490033949,5.0694489699\H,0,-8.1473861923,1.6435512308,6.3235
 197012\H,0,-6.6995060065,1.8007620196,5.3226839439\C,0,-7.0267415223,4
 .3813846481,4.0887461683\H,0,-6.6498223973,4.9734067738,3.263191648\C,
 0,-6.4321692433,4.4882437415,5.2731059779\H,0,-6.7879609328,3.96644599
 55,6.144096374\H,0,-5.5775189393,5.128300826,5.4175598396\C,0,-8.63362
 81853,7.0615085533,-0.2226331294\H,0,-7.70835508,6.5535076919,0.044915
 0186\H,0,-8.7688089701,7.8995533191,0.4631569142\H,0,-8.5342557059,7.4
 561278283,-1.2318288812\C,0,-11.1717519923,6.8074437242,-2.1791893052\
 H,0,-11.6707803012,6.2708269002,-2.9781864766\C,0,-10.9107481348,8.101
 1633232,-2.3386264456\H,0,-10.4613071111,8.6952529671,-1.5622925794\H,
 0,-11.1639613174,8.6187159692,-3.2491731107\C,0,-15.6804981195,4.03097
 1956,-2.1577798695\H,0,-15.1127282508,3.9723839234,-3.0868898808\H,0,-
 15.7606942937,5.0814914224,-1.8775353907\H,0,-16.6809481265,3.64838446
 42,-2.3446751364\C,0,-16.7541655769,1.4495570524,-0.4976805673\H,0,-17
 .3916298825,1.9115364489,-1.2475926248\H,0,-17.2816882973,1.4609222621
 ,0.4563819828\H,0,-16.5910176343,0.4092902069,-0.7807659608\O,0,-10.62
 1,1.394,0.186\H,0,-10.893,0.498,0.385\H,0,-10.004,1.637,-0.407\C,0,-14
 .9758335365,6.6621614785,3.9474754826\H,0,-14.4966278265,7.4066136593,
 4.5832990698\H,0,-15.892910249,6.3351215147,4.437227028\H,0,-15.233041
 3153,7.1272521458,3.0010855578\N,0,-13.5973047905,4.718362708,4.717823
 6651\H,0,-13.8055066875,4.8282650894,5.696697709\C,0,-14.0684756458,5.
 512089721,3.7050368287\C,0,-12.8056806852,3.7729735422,4.162839142\H,0
 ,-12.2993035457,3.0110787569,4.718554585\N,0,-12.7478055572,3.91940279
 09,2.8613393686\C,0,-13.5273794411,4.9977973966,2.5615969007\H,0,-13.6
 460368017,5.3286467338,1.5505567036\\Version=ES64L-G16RevC.02\State=1-
 A\HF=-2984.0260079\RMSD=2.346e-09\Dipole=-1.0100484,0.0409894,1.136166
 6\Quadrupole=-3.8759012,-0.458791,4.3346922,-4.3942391,-5.9779138,4.15
 66994\PG=C01 [X(C34H36Fe1N6O1)]\\@
 The archive entry for this job was punched.


 K N O W I N G  IS A BARRIER WHICH PREVENTS LEARNING

                     -- TEACHING OF THE BENE GESSERIT
 Job cpu time:       0 days  0 hours 45 minutes 53.8 seconds.
 Elapsed time:       0 days  0 hours  0 minutes 55.5 seconds.
 File lengths (MBytes):  RWF=    792 Int=      0 D2E=      0 Chk=    155 Scr=      1
 Normal termination of Gaussian 16 at Tue Sep 10 11:44:37 2024.
