 Entering Gaussian System, Link 0=g16
 Input=2yli12.com
 Output=2yli12.log
 Initial command:
 /sw/chem/gaussian/g16_C02/a100/g16/l1.exe "/local/becsleip_8011351/Gau-4030842.inp" -scrdir="/local/becsleip_8011351/"
 Entering Link 1 = /sw/chem/gaussian/g16_C02/a100/g16/l1.exe PID=   4030843.
  
 Copyright (c) 1988-2021, Gaussian, Inc.  All Rights Reserved.
  
 This is part of the Gaussian(R) 16 program.  It is based on
 the Gaussian(R) 09 system (copyright 2009, Gaussian, Inc.),
 the Gaussian(R) 03 system (copyright 2003, Gaussian, Inc.),
 the Gaussian(R) 98 system (copyright 1998, Gaussian, Inc.),
 the Gaussian(R) 94 system (copyright 1995, Gaussian, Inc.),
 the Gaussian 92(TM) system (copyright 1992, Gaussian, Inc.),
 the Gaussian 90(TM) system (copyright 1990, Gaussian, Inc.),
 the Gaussian 88(TM) system (copyright 1988, Gaussian, Inc.),
 the Gaussian 86(TM) system (copyright 1986, Carnegie Mellon
 University), and the Gaussian 82(TM) system (copyright 1983,
 Carnegie Mellon University). Gaussian is a federally registered
 trademark of Gaussian, Inc.
  
 This software contains proprietary and confidential information,
 including trade secrets, belonging to Gaussian, Inc.
  
 This software is provided under written license and may be
 used, copied, transmitted, or stored only in accord with that
 written license.
  
 The following legend is applicable only to US Government
 contracts under FAR:
  
                    RESTRICTED RIGHTS LEGEND
  
 Use, reproduction and disclosure by the US Government is
 subject to restrictions as set forth in subparagraphs (a)
 and (c) of the Commercial Computer Software - Restricted
 Rights clause in FAR 52.227-19.
  
 Gaussian, Inc.
 340 Quinnipiac St., Bldg. 40, Wallingford CT 06492
  
  
 ---------------------------------------------------------------
 Warning -- This program may not be used in any manner that
 competes with the business of Gaussian, Inc. or will provide
 assistance to any competitor of Gaussian, Inc.  The licensee
 of this program is prohibited from giving any competitor of
 Gaussian, Inc. access to this program.  By using this program,
 the user acknowledges that Gaussian, Inc. is engaged in the
 business of creating and licensing software in the field of
 computational chemistry and represents and warrants to the
 licensee that it is not a competitor of Gaussian, Inc. and that
 it will not use this program in any manner prohibited above.
 ---------------------------------------------------------------
  

 Cite this work as:
 Gaussian 16, Revision C.02,
 M. J. Frisch, G. W. Trucks, H. B. Schlegel, G. E. Scuseria, 
 M. A. Robb, J. R. Cheeseman, G. Scalmani, V. Barone, 
 G. A. Petersson, H. Nakatsuji, X. Li, M. Caricato, A. V. Marenich, 
 J. Bloino, B. G. Janesko, R. Gomperts, B. Mennucci, H. P. Hratchian, 
 J. V. Ortiz, A. F. Izmaylov, J. L. Sonnenberg, D. Williams-Young, 
 F. Ding, F. Lipparini, F. Egidi, J. Goings, B. Peng, A. Petrone, 
 T. Henderson, D. Ranasinghe, V. G. Zakrzewski, J. Gao, N. Rega, 
 G. Zheng, W. Liang, M. Hada, M. Ehara, K. Toyota, R. Fukuda, 
 J. Hasegawa, M. Ishida, T. Nakajima, Y. Honda, O. Kitao, H. Nakai, 
 T. Vreven, K. Throssell, J. A. Montgomery, Jr., J. E. Peralta, 
 F. Ogliaro, M. J. Bearpark, J. J. Heyd, E. N. Brothers, K. N. Kudin, 
 V. N. Staroverov, T. A. Keith, R. Kobayashi, J. Normand, 
 K. Raghavachari, A. P. Rendell, J. C. Burant, S. S. Iyengar, 
 J. Tomasi, M. Cossi, J. M. Millam, M. Klene, C. Adamo, R. Cammi, 
 J. W. Ochterski, R. L. Martin, K. Morokuma, O. Farkas, 
 J. B. Foresman, and D. J. Fox, Gaussian, Inc., Wallingford CT, 2019.
 
 ******************************************
 Gaussian 16:  ES64L-G16RevC.02  7-Dec-2021
                10-Sep-2024 
 ******************************************
 %mem=16GB
 %CPU=0-71
 SetSPE:  set environment variable "OMP_PROC_BIND" = "true"
 SetSPE:  set environment variable "OMP_PLACES" = "{0},{1},{2},{3},{4},{5},{6},{7},{8},{9},{10},{11},{12},{13},{14},{15},{16},{17},{18},{19},{20},{21},{22},{23},{24},{25},{26},{27},{28},{29},{30},{31},{32},{33},{34},{35},{36},{37},{38},{39},{40},{41},{42},{43},{44},{45},{46},{47},{48},{49},{50},{51},{52},{53},{54},{55},{56},{57},{58},{59},{60},{61},{62},{63},{64},{65},{66},{67},{68},{69},{70},{71}"
 Will use up to   72 processors via shared memory.
 %gpucpu=0,1,2,3=0,1,2,3
 Will use    4 GPUs:
 Thread  CPU   GPU
      0    0     0
      1    1     1
      2    2     2
      3    3     3
      4    4    -1
      5    5    -1
      6    6    -1
      7    7    -1
      8    8    -1
      9    9    -1
     10   10    -1
     11   11    -1
     12   12    -1
     13   13    -1
     14   14    -1
     15   15    -1
     16   16    -1
     17   17    -1
     18   18    -1
     19   19    -1
     20   20    -1
     21   21    -1
     22   22    -1
     23   23    -1
     24   24    -1
     25   25    -1
     26   26    -1
     27   27    -1
     28   28    -1
     29   29    -1
     30   30    -1
     31   31    -1
     32   32    -1
     33   33    -1
     34   34    -1
     35   35    -1
     36   36    -1
     37   37    -1
     38   38    -1
     39   39    -1
     40   40    -1
     41   41    -1
     42   42    -1
     43   43    -1
     44   44    -1
     45   45    -1
     46   46    -1
     47   47    -1
     48   48    -1
     49   49    -1
     50   50    -1
     51   51    -1
     52   52    -1
     53   53    -1
     54   54    -1
     55   55    -1
     56   56    -1
     57   57    -1
     58   58    -1
     59   59    -1
     60   60    -1
     61   61    -1
     62   62    -1
     63   63    -1
     64   64    -1
     65   65    -1
     66   66    -1
     67   67    -1
     68   68    -1
     69   69    -1
     70   70    -1
     71   71    -1
 SetGPE:  set environment variable "OMP_PROC_BIND" = "true"
 SetGPE:  set environment variable "OMP_PLACES" = "{0},{1},{2},{3},{4},{5},{6},{7},{8},{9},{10},{11},{12},{13},{14},{15},{16},{17},{18},{19},{20},{21},{22},{23},{24},{25},{26},{27},{28},{29},{30},{31},{32},{33},{34},{35},{36},{37},{38},{39},{40},{41},{42},{43},{44},{45},{46},{47},{48},{49},{50},{51},{52},{53},{54},{55},{56},{57},{58},{59},{60},{61},{62},{63},{64},{65},{66},{67},{68},{69},{70},{71}"
 %oldchk=2yli_II_Sre.chk
 %chk=2yli_III_Dn.chk
 Properties for Device   0
 Minimum vector length:                              32
 Maximum vector length:                            1024
 Number of SMPs:                                    108
 Maximum number of threads per SMP:                2048
 Number of ASync Engines:                             5
 Memory:                                           9207742464
 Properties for Device   1
 Minimum vector length:                              32
 Maximum vector length:                            1024
 Number of SMPs:                                    108
 Maximum number of threads per SMP:                2048
 Number of ASync Engines:                             5
 Memory:                                           9207742464
 Properties for Device   2
 Minimum vector length:                              32
 Maximum vector length:                            1024
 Number of SMPs:                                    108
 Maximum number of threads per SMP:                2048
 Number of ASync Engines:                             5
 Memory:                                           9207742464
 Properties for Device   3
 Minimum vector length:                              32
 Maximum vector length:                            1024
 Number of SMPs:                                    108
 Maximum number of threads per SMP:                2048
 Number of ASync Engines:                             5
 Memory:                                           9207742464
   8286968217 words of memory will be used on each GPU.
 Copying data from "2yli_II_Sre.chk" to current chk file "2yli_III_Dn.chk"
 IOpt=  2 FromEx=T IUOpen= 4 IOptOp= 5 NList=   0 IFRang= 0 IUIn= 4 IUOut= 2.
 --------------------------------------------------------------
 # apfd/def2TZVP guess=read scf=maxcycle=999 geom=check pop=nbo
 --------------------------------------------------------------
 1/29=2,38=1,172=1/1;
 2/12=2,40=1/2;
 3/5=44,7=101,11=2,14=-4,25=1,30=1,74=-44,116=-2/1,2,3;
 4/5=1/1;
 5/5=2,7=999,38=6/2;
 6/7=2,8=2,9=2,10=2,28=1,40=1/1,7;
 99/5=1,9=1/99;
 ----------
 2yli_III_D
 ----------
 Structure from the checkpoint file:  "2yli_III_Dn.chk"
 Charge =  1 Multiplicity = 2
 Z-Matrix found in chk file.
 Fe,0,6.7599486685,38.9330152162,21.7423595988
 N,0,7.5345570481,37.797881057,20.2949830978
 N,0,7.3640926813,37.6000775966,23.0946300483
 N,0,5.7333662232,39.9073979584,23.1605320404
 N,0,5.9547657289,40.1378297312,20.3624127537
 C,0,7.4896845623,38.0322941709,18.9526612729
 C,0,8.1194006054,36.9579126646,18.2191469332
 C,0,8.5421038616,36.0597223322,19.1482363754
 C,0,8.1659244698,36.5989658305,20.4355613349
 C,0,8.0399214326,36.4378473228,22.8733769774
 C,0,8.3119995246,35.752587672,24.1164790987
 C,0,7.7467973509,36.5046391304,25.0975769105
 C,0,7.1424912684,37.6412433156,24.4386714838
 C,0,5.7361373906,39.6456028301,24.4952577073
 C,0,4.8897502081,40.5805864338,25.2087766754
 C,0,4.3621310916,41.4121964087,24.2577262926
 C,0,4.8952676936,40.9715310362,22.9944258527
 C,0,5.1284685656,41.1998610006,20.5670969437
 C,0,4.8872853855,41.9141959064,19.3294452073
 C,0,5.5405363675,41.2091551025,18.3542091808
 C,0,6.1790758304,40.1015056358,19.0164627373
 C,0,6.9145776777,39.1346540997,18.3540058399
 H,0,6.9818255178,39.2081117861,17.2792001285
 C,0,8.4344849853,35.970249872,21.6358534891
 H,0,8.9588109029,35.0277944271,21.6003130928
 C,0,6.4212948153,38.6119958255,25.1050061079
 H,0,6.3293202875,38.5138499011,26.1758206173
 C,0,4.6160134405,41.5863638422,21.7887760533
 H,0,3.9355918407,42.4237427908,21.8020587416
 C,0,8.2288908129,36.9049779744,16.7338277449
 H,0,8.7840082138,37.7644790717,16.3567291891
 H,0,7.2389636871,36.9153353605,16.2774460437
 H,0,8.7420980996,36.0006666382,16.4165963947
 C,0,9.2403281004,34.7576708115,18.9551220636
 H,0,8.6418394174,33.9401446058,19.3572891263
 H,0,10.2016043014,34.758006781,19.4694694644
 H,0,9.4163925953,34.5656037312,17.8996221412
 C,0,5.6663447557,41.5284711201,16.9052064194
 H,0,4.9630156236,40.9386814662,16.3153078024
 H,0,6.6715012772,41.3118324074,16.5459122211
 H,0,5.4555935535,42.5824798848,16.7365678343
 C,0,4.1007635933,43.1234426108,19.2179705849
 H,0,4.146142763,43.7888929121,20.072389798
 C,0,3.3481509189,43.4629286912,18.1767498114
 H,0,3.2272379768,42.8201490432,17.3224671553
 H,0,2.8002404346,44.390473282,18.1567954931
 C,0,3.4674619055,42.586688036,24.4476930056
 H,0,2.4327735357,42.3273522638,24.2182190059
 H,0,3.762073,43.4062357103,23.7939174311
 H,0,3.5159660442,42.9295769857,25.4791191216
 C,0,4.696763728,40.5880129856,26.6427806984
 H,0,5.5567529333,40.2920588894,27.2328503372
 C,0,3.569900506,40.9148153245,27.266557137
 H,0,2.6717128515,41.1684017489,26.731239633
 H,0,3.5001498563,40.911590967,28.341750841
 C,0,7.7052008296,36.2653141812,26.5677582643
 H,0,6.6747716997,36.1634974051,26.9095888348
 H,0,8.1598856653,37.0979657222,27.1056206433
 H,0,8.2428557676,35.3559863607,26.8262157871
 C,0,9.0537504214,34.4642822552,24.2202967071
 H,0,9.1500750455,34.156697716,25.2589373138
 H,0,10.0534996871,34.5634233955,23.7961732188
 H,0,8.5313007347,33.6767533553,23.676361791
 C,0,11.0505273782,41.9177413056,23.7163395006
 H,0,12.0595086478,41.5524981198,23.52590816
 H,0,10.7990614772,41.7209196759,24.75360953
 H,0,11.0415627431,42.9951805957,23.5530560951
 N,0,10.1373923789,41.3182689749,21.4636342187
 H,0,10.831058585,41.8230366898,20.936492563
 C,0,10.0697129403,41.2423226822,22.8297570345
 C,0,9.108562279,40.6000787008,20.9602294926
 H,0,8.9124598934,40.4830458413,19.9134288424
 N,0,8.3906021782,40.0719956921,21.9252716041
 C,0,8.9792537834,40.4643981147,23.0950283438
 H,0,8.5796619538,40.1618130155,24.0416329634
 Recover connectivity data from disk.
 Stoichiometry    C34H34FeN6(1+,2)
 Framework group  C1[X(C34H34FeN6)]
 Deg. of freedom   219
 Full point group                 C1      NOp   1
 Largest Abelian subgroup         C1      NOp   1
 Largest concise Abelian subgroup C1      NOp   1
                         Standard orientation:                         
 ---------------------------------------------------------------------
 Center     Atomic      Atomic             Coordinates (Angstroms)
 Number     Number       Type             X           Y           Z
 ---------------------------------------------------------------------
      1         26           0        0.047090   -0.205749   -0.317071
      2          7           0        1.243119   -1.797093   -0.460542
      3          7           0       -1.540517   -1.400221   -0.469019
      4          7           0       -1.143742    1.397972   -0.473607
      5          7           0        1.643168    0.997992   -0.404789
      6          6           0        2.606345   -1.802598   -0.479905
      7          6           0        3.115376   -3.145215   -0.644667
      8          6           0        2.027646   -3.956209   -0.732773
      9          6           0        0.870251   -3.097714   -0.619102
     10          6           0       -1.552116   -2.756210   -0.601828
     11          6           0       -2.905852   -3.258688   -0.663662
     12          6           0       -3.718814   -2.170706   -0.609097
     13          6           0       -2.848611   -1.020061   -0.509225
     14          6           0       -2.503526    1.404684   -0.504906
     15          6           0       -3.013332    2.757845   -0.598342
     16          6           0       -1.913741    3.572676   -0.635804
     17          6           0       -0.765600    2.706178   -0.562979
     18          6           0        1.656243    2.358151   -0.453462
     19          6           0        3.009222    2.866904   -0.349324
     20          6           0        3.822956    1.766564   -0.304674
     21          6           0        2.953961    0.619825   -0.359771
     22          6           0        3.410367   -0.686388   -0.370560
     23          1           0        4.478528   -0.841777   -0.367252
     24          6           0       -0.430965   -3.559930   -0.655189
     25          1           0       -0.581205   -4.622342   -0.769695
     26          6           0       -3.308452    0.281633   -0.484199
     27          1           0       -4.376631    0.430927   -0.522144
     28          6           0        0.538589    3.162603   -0.544021
     29          1           0        0.695136    4.227612   -0.618872
     30          6           0        4.562810   -3.493011   -0.714933
     31          1           0        5.077828   -3.188213    0.196635
     32          1           0        5.036654   -2.986880   -1.556152
     33          1           0        4.696663   -4.564428   -0.841210
     34          6           0        1.962233   -5.432346   -0.924841
     35          1           0        1.431300   -5.674424   -1.845593
     36          1           0        1.434060   -5.903914   -0.095828
     37          1           0        2.960174   -5.859785   -0.982974
     38          6           0        5.302550    1.712879   -0.145548
     39          1           0        5.790816    1.551733   -1.107905
     40          1           0        5.592154    0.900023    0.519102
     41          1           0        5.666478    2.649916    0.270754
     42          6           0        3.359053    4.270222   -0.308871
     43          1           0        2.640263    4.915341    0.183143
     44          6           0        4.462376    4.806954   -0.819181
     45          1           0        5.186975    4.223647   -1.359823
     46          1           0        4.664979    5.862030   -0.737271
     47          6           0       -1.863969    5.059874   -0.677199
     48          1           0       -1.661500    5.413253   -1.689436
     49          1           0       -1.078200    5.438212   -0.025045
     50          1           0       -2.815918    5.474153   -0.351728
     51          6           0       -4.416701    3.109156   -0.626675
     52          1           0       -5.071207    2.471598   -0.043157
     53          6           0       -4.943157    4.123570   -1.304559
     54          1           0       -4.349322    4.758264   -1.938701
     55          1           0       -5.998766    4.336622   -1.269702
     56          6           0       -5.206551   -2.098295   -0.651940
     57          1           0       -5.536770   -1.528288   -1.520875
     58          1           0       -5.593275   -1.607722    0.241998
     59          1           0       -5.639966   -3.093990   -0.711034
     60          6           0       -3.261591   -4.700582   -0.786519
     61          1           0       -4.340999   -4.832838   -0.793476
     62          1           0       -2.850261   -5.268410    0.048699
     63          1           0       -2.859024   -5.116894   -1.710447
     64          6           0       -1.447295    0.022132    5.061511
     65          1           0       -1.350975   -0.884214    5.658979
     66          1           0       -2.496822    0.179263    4.834119
     67          1           0       -1.089110    0.862126    5.656264
     68          7           0        0.678319   -0.296587    3.777749
     69          1           0        1.272490   -0.379963    4.586359
     70          6           0       -0.676586   -0.095440    3.798023
     71          6           0        1.065749   -0.358122    2.483988
     72          1           0        2.077701   -0.509007    2.165979
     73          7           0        0.037523   -0.207945    1.680345
     74          6           0       -1.054080   -0.043775    2.486740
     75          1           0       -2.030385    0.099642    2.070144
 ---------------------------------------------------------------------
 Rotational constants (GHZ):           0.0942580           0.0921559           0.0594476
 Standard basis: def2TZVP (5D, 7F)
 There are  1696 symmetry adapted cartesian basis functions of A   symmetry.
 There are  1489 symmetry adapted basis functions of A   symmetry.
  1489 basis functions,  2414 primitive gaussians,  1696 cartesian basis functions
   153 alpha electrons      152 beta electrons
       nuclear repulsion energy      5568.0983684038 Hartrees.
 NAtoms=   75 NActive=   75 NUniq=   75 SFac= 1.00D+00 NAtFMM=   60 NAOKFM=T Big=T
 Integral buffers will be    131072 words long.
 Raffenetti 2 integral format.
 Two-electron integral symmetry is turned on.
 R6APFD:  NTU= -4 IXU= 1 FactS= 1.050
 Nuclear repulsion after empirical dispersion term =     5567.9655459199 Hartrees.
 One-electron integrals computed using PRISM.
   1 Symmetry operations used in ECPInt.
 ECPInt:  NShTT=  174936 NPrTT=  542361 LenC2=  137199 LenP2D=  281737.
 LDataN:  DoStor=T MaxTD1= 6 Len=  172
 Number of processors reduced to  24 by ecpmxn.
 NBasis=  1489 RedAO= T EigKep=  3.13D-06  NBF=  1489
 NBsUse=  1489 1.00D-06 EigRej= -1.00D+00 NBFU=  1489
 Initial guess from the checkpoint file:  "2yli_III_Dn.chk"
 B after Tr=     0.000000   -0.000000   -0.000000
         Rot=    1.000000   -0.000000   -0.000000   -0.000000 Ang=   0.00 deg.
 Initial guess <Sx>= 0.0000 <Sy>= 0.0000 <Sz>= 0.5000 <S**2>= 0.9062 S= 0.5753
 Requested convergence on RMS density matrix=1.00D-08 within 999 cycles.
 Requested convergence on MAX density matrix=1.00D-06.
 Requested convergence on             energy=1.00D-06.
 No special actions if energy rises.
 Restarting incremental Fock formation.
 Restarting incremental Fock formation.
 Restarting incremental Fock formation.
 Restarting incremental Fock formation.
 Restarting incremental Fock formation.
 Restarting incremental Fock formation.
 Restarting incremental Fock formation.
 SCF Done:  E(UAPFD) =  -2907.40487160     A.U. after  152 cycles
            NFock=152  Conv=0.23D-08     -V/T= 2.0035
 <Sx>= 0.0000 <Sy>= 0.0000 <Sz>= 0.5000 <S**2>= 0.8764 S= 0.5613
 <L.S>=  0.00000000000    
 Annihilation of the first spin contaminant:
 S**2 before annihilation     0.8764,   after     0.7543

 **********************************************************************

            Population analysis using the SCF Density.

 **********************************************************************

 Orbital symmetries:
 Alpha Orbitals:
       Occupied  (A) (A) (A) (A) (A) (A) (A) (A) (A) (A) (A) (A)
                 (A) (A) (A) (A) (A) (A) (A) (A) (A) (A) (A) (A)
                 (A) (A) (A) (A) (A) (A) (A) (A) (A) (A) (A) (A)
                 (A) (A) (A) (A) (A) (A) (A) (A) (A) (A) (A) (A)
                 (A) (A) (A) (A) (A) (A) (A) (A) (A) (A) (A) (A)
                 (A) (A) (A) (A) (A) (A) (A) (A) (A) (A) (A) (A)
                 (A) (A) (A) (A) (A) (A) (A) (A) (A) (A) (A) (A)
                 (A) (A) (A) (A) (A) (A) (A) (A) (A) (A) (A) (A)
                 (A) (A) (A) (A) (A) (A) (A) (A) (A) (A) (A) (A)
                 (A) (A) (A) (A) (A) (A) (A) (A) (A) (A) (A) (A)
                 (A) (A) (A) (A) (A) (A) (A) (A) (A) (A) (A) (A)
                 (A) (A) (A) (A) (A) (A) (A) (A) (A) (A) (A) (A)
                 (A) (A) (A) (A) (A) (A) (A) (A) (A)
       Virtual   (A) (A) (A) (A) (A) (A) (A) (A) (A) (A) (A) (A)
                 (A) (A) (A) (A) (A) (A) (A) (A) (A) (A) (A) (A)
                 (A) (A) (A) (A) (A) (A) (A) (A) (A) (A) (A) (A)
                 (A) (A) (A) (A) (A) (A) (A) (A) (A) (A) (A) (A)
                 (A) (A) (A) (A) (A) (A) (A) (A) (A) (A) (A) (A)
                 (A) (A) (A) (A) (A) (A) (A) (A) (A) (A) (A) (A)
                 (A) (A) (A) (A) (A) (A) (A) (A) (A) (A) (A) (A)
                 (A) (A) (A) (A) (A) (A) (A) (A) (A) (A) (A) (A)
                 (A) (A) (A) (A) (A) (A) (A) (A) (A) (A) (A) (A)
                 (A) (A) (A) (A) (A) (A) (A) (A) (A) (A) (A) (A)
                 (A) (A) (A) (A) (A) (A) (A) (A) (A) (A) (A) (A)
                 (A) (A) (A) (A) (A) (A) (A) (A) (A) (A) (A) (A)
                 (A) (A) (A) (A) (A) (A) (A) (A) (A) (A) (A) (A)
                 (A) (A) (A) (A) (A) (A) (A) (A) (A) (A) (A) (A)
                 (A) (A) (A) (A) (A) (A) (A) (A) (A) (A) (A) (A)
                 (A) (A) (A) (A) (A) (A) (A) (A) (A) (A) (A) (A)
                 (A) (A) (A) (A) (A) (A) (A) (A) (A) (A) (A) (A)
                 (A) (A) (A) (A) (A) (A) (A) (A) (A) (A) (A) (A)
                 (A) (A) (A) (A) (A) (A) (A) (A) (A) (A) (A) (A)
                 (A) (A) (A) (A) (A) (A) (A) (A) (A) (A) (A) (A)
                 (A) (A) (A) (A) (A) (A) (A) (A) (A) (A) (A) (A)
                 (A) (A) (A) (A) (A) (A) (A) (A) (A) (A) (A) (A)
                 (A) (A) (A) (A) (A) (A) (A) (A) (A) (A) (A) (A)
                 (A) (A) (A) (A) (A) (A) (A) (A) (A) (A) (A) (A)
                 (A) (A) (A) (A) (A) (A) (A) (A) (A) (A) (A) (A)
                 (A) (A) (A) (A) (A) (A) (A) (A) (A) (A) (A) (A)
                 (A) (A) (A) (A) (A) (A) (A) (A) (A) (A) (A) (A)
                 (A) (A) (A) (A) (A) (A) (A) (A) (A) (A) (A) (A)
                 (A) (A) (A) (A) (A) (A) (A) (A) (A) (A) (A) (A)
                 (A) (A) (A) (A) (A) (A) (A) (A) (A) (A) (A) (A)
                 (A) (A) (A) (A) (A) (A) (A) (A) (A) (A) (A) (A)
                 (A) (A) (A) (A) (A) (A) (A) (A) (A) (A) (A) (A)
                 (A) (A) (A) (A) (A) (A) (A) (A) (A) (A) (A) (A)
                 (A) (A) (A) (A) (A) (A) (A) (A) (A) (A) (A) (A)
                 (A) (A) (A) (A) (A) (A) (A) (A) (A) (A) (A) (A)
                 (A) (A) (A) (A) (A) (A) (A) (A) (A) (A) (A) (A)
                 (A) (A) (A) (A) (A) (A) (A) (A) (A) (A) (A) (A)
                 (A) (A) (A) (A) (A) (A) (A) (A) (A) (A) (A) (A)
                 (A) (A) (A) (A) (A) (A) (A) (A) (A) (A) (A) (A)
                 (A) (A) (A) (A) (A) (A) (A) (A) (A) (A) (A) (A)
                 (A) (A) (A) (A) (A) (A) (A) (A) (A) (A) (A) (A)
                 (A) (A) (A) (A) (A) (A) (A) (A) (A) (A) (A) (A)
                 (A) (A) (A) (A) (A) (A) (A) (A) (A) (A) (A) (A)
                 (A) (A) (A) (A) (A) (A) (A) (A) (A) (A) (A) (A)
                 (A) (A) (A) (A) (A) (A) (A) (A) (A) (A) (A) (A)
                 (A) (A) (A) (A) (A) (A) (A) (A) (A) (A) (A) (A)
                 (A) (A) (A) (A) (A) (A) (A) (A) (A) (A) (A) (A)
                 (A) (A) (A) (A) (A) (A) (A) (A) (A) (A) (A) (A)
                 (A) (A) (A) (A) (A) (A) (A) (A) (A) (A) (A) (A)
                 (A) (A) (A) (A) (A) (A) (A) (A) (A) (A) (A) (A)
                 (A) (A) (A) (A) (A) (A) (A) (A) (A) (A) (A) (A)
                 (A) (A) (A) (A) (A) (A) (A) (A) (A) (A) (A) (A)
                 (A) (A) (A) (A) (A) (A) (A) (A) (A) (A) (A) (A)
                 (A) (A) (A) (A) (A) (A) (A) (A) (A) (A) (A) (A)
                 (A) (A) (A) (A) (A) (A) (A) (A) (A) (A) (A) (A)
                 (A) (A) (A) (A) (A) (A) (A) (A) (A) (A) (A) (A)
                 (A) (A) (A) (A) (A) (A) (A) (A) (A) (A) (A) (A)
                 (A) (A) (A) (A) (A) (A) (A) (A) (A) (A) (A) (A)
                 (A) (A) (A) (A) (A) (A) (A) (A) (A) (A) (A) (A)
                 (A) (A) (A) (A) (A) (A) (A) (A) (A) (A) (A) (A)
                 (A) (A) (A) (A) (A) (A) (A) (A) (A) (A) (A) (A)
                 (A) (A) (A) (A) (A) (A) (A) (A) (A) (A) (A) (A)
                 (A) (A) (A) (A) (A) (A) (A) (A) (A) (A) (A) (A)
                 (A) (A) (A) (A) (A) (A) (A) (A) (A) (A) (A) (A)
                 (A) (A) (A) (A) (A) (A) (A) (A) (A) (A) (A) (A)
                 (A) (A) (A) (A) (A) (A) (A) (A) (A) (A) (A) (A)
                 (A) (A) (A) (A) (A) (A) (A) (A) (A) (A) (A) (A)
                 (A) (A) (A) (A) (A) (A) (A) (A) (A) (A) (A) (A)
                 (A) (A) (A) (A) (A) (A) (A) (A) (A) (A) (A) (A)
                 (A) (A) (A) (A) (A) (A) (A) (A) (A) (A) (A) (A)
                 (A) (A) (A) (A) (A) (A) (A) (A) (A) (A) (A) (A)
                 (A) (A) (A) (A) (A) (A) (A) (A) (A) (A) (A) (A)
                 (A) (A) (A) (A) (A) (A) (A) (A) (A) (A) (A) (A)
                 (A) (A) (A) (A) (A) (A) (A) (A) (A) (A) (A) (A)
                 (A) (A) (A) (A) (A) (A) (A) (A) (A) (A) (A) (A)
                 (A) (A) (A) (A) (A) (A) (A) (A) (A) (A) (A) (A)
                 (A) (A) (A) (A) (A) (A) (A) (A) (A) (A) (A) (A)
                 (A) (A) (A) (A) (A) (A) (A) (A) (A) (A) (A) (A)
                 (A) (A) (A) (A) (A) (A) (A) (A) (A) (A) (A) (A)
                 (A) (A) (A) (A) (A) (A) (A) (A) (A) (A) (A) (A)
                 (A) (A) (A) (A) (A) (A) (A) (A) (A) (A) (A) (A)
                 (A) (A) (A) (A) (A) (A) (A) (A) (A) (A) (A) (A)
                 (A) (A) (A) (A) (A) (A) (A) (A) (A) (A) (A) (A)
                 (A) (A) (A) (A) (A) (A) (A) (A) (A) (A) (A) (A)
                 (A) (A) (A) (A) (A) (A) (A) (A) (A) (A) (A) (A)
                 (A) (A) (A) (A) (A) (A) (A) (A) (A) (A) (A) (A)
                 (A) (A) (A) (A) (A) (A) (A) (A) (A) (A) (A) (A)
                 (A) (A) (A) (A) (A) (A) (A) (A) (A) (A) (A) (A)
                 (A) (A) (A) (A) (A) (A) (A) (A) (A) (A) (A) (A)
                 (A) (A) (A) (A) (A) (A) (A) (A) (A) (A) (A) (A)
                 (A) (A) (A) (A) (A) (A) (A) (A) (A) (A) (A) (A)
                 (A) (A) (A) (A) (A) (A) (A) (A) (A) (A) (A) (A)
                 (A) (A) (A) (A) (A) (A) (A) (A) (A) (A) (A) (A)
                 (A) (A) (A) (A) (A) (A) (A) (A) (A) (A) (A) (A)
                 (A) (A) (A) (A) (A) (A) (A) (A) (A) (A) (A) (A)
                 (A) (A) (A) (A) (A) (A) (A) (A) (A) (A) (A) (A)
                 (A) (A) (A) (A) (A) (A) (A) (A) (A) (A) (A) (A)
                 (A) (A) (A) (A) (A) (A) (A) (A) (A) (A) (A) (A)
                 (A) (A) (A) (A) (A) (A) (A) (A) (A) (A) (A) (A)
                 (A) (A) (A) (A) (A) (A) (A) (A) (A) (A) (A) (A)
                 (A) (A) (A) (A) (A) (A) (A) (A) (A) (A) (A) (A)
                 (A) (A) (A) (A) (A) (A) (A) (A) (A) (A) (A) (A)
                 (A) (A) (A) (A) (A) (A) (A) (A) (A) (A) (A) (A)
                 (A) (A) (A) (A) (A) (A) (A) (A) (A) (A) (A) (A)
                 (A) (A) (A) (A) (A) (A) (A) (A) (A) (A) (A) (A)
                 (A) (A) (A) (A) (A) (A) (A) (A) (A) (A) (A) (A)
                 (A) (A) (A) (A) (A) (A) (A) (A) (A) (A) (A) (A)
                 (A) (A) (A) (A) (A) (A) (A) (A) (A) (A) (A) (A)
                 (A) (A) (A) (A) (A) (A) (A) (A) (A) (A) (A) (A)
                 (A) (A) (A) (A) (A) (A) (A) (A) (A) (A) (A) (A)
                 (A) (A) (A) (A) (A) (A) (A) (A) (A) (A) (A) (A)
                 (A) (A) (A) (A)
 Beta  Orbitals:
       Occupied  (A) (A) (A) (A) (A) (A) (A) (A) (A) (A) (A) (A)
                 (A) (A) (A) (A) (A) (A) (A) (A) (A) (A) (A) (A)
                 (A) (A) (A) (A) (A) (A) (A) (A) (A) (A) (A) (A)
                 (A) (A) (A) (A) (A) (A) (A) (A) (A) (A) (A) (A)
                 (A) (A) (A) (A) (A) (A) (A) (A) (A) (A) (A) (A)
                 (A) (A) (A) (A) (A) (A) (A) (A) (A) (A) (A) (A)
                 (A) (A) (A) (A) (A) (A) (A) (A) (A) (A) (A) (A)
                 (A) (A) (A) (A) (A) (A) (A) (A) (A) (A) (A) (A)
                 (A) (A) (A) (A) (A) (A) (A) (A) (A) (A) (A) (A)
                 (A) (A) (A) (A) (A) (A) (A) (A) (A) (A) (A) (A)
                 (A) (A) (A) (A) (A) (A) (A) (A) (A) (A) (A) (A)
                 (A) (A) (A) (A) (A) (A) (A) (A) (A) (A) (A) (A)
                 (A) (A) (A) (A) (A) (A) (A) (A)
       Virtual   (A) (A) (A) (A) (A) (A) (A) (A) (A) (A) (A) (A)
                 (A) (A) (A) (A) (A) (A) (A) (A) (A) (A) (A) (A)
                 (A) (A) (A) (A) (A) (A) (A) (A) (A) (A) (A) (A)
                 (A) (A) (A) (A) (A) (A) (A) (A) (A) (A) (A) (A)
                 (A) (A) (A) (A) (A) (A) (A) (A) (A) (A) (A) (A)
                 (A) (A) (A) (A) (A) (A) (A) (A) (A) (A) (A) (A)
                 (A) (A) (A) (A) (A) (A) (A) (A) (A) (A) (A) (A)
                 (A) (A) (A) (A) (A) (A) (A) (A) (A) (A) (A) (A)
                 (A) (A) (A) (A) (A) (A) (A) (A) (A) (A) (A) (A)
                 (A) (A) (A) (A) (A) (A) (A) (A) (A) (A) (A) (A)
                 (A) (A) (A) (A) (A) (A) (A) (A) (A) (A) (A) (A)
                 (A) (A) (A) (A) (A) (A) (A) (A) (A) (A) (A) (A)
                 (A) (A) (A) (A) (A) (A) (A) (A) (A) (A) (A) (A)
                 (A) (A) (A) (A) (A) (A) (A) (A) (A) (A) (A) (A)
                 (A) (A) (A) (A) (A) (A) (A) (A) (A) (A) (A) (A)
                 (A) (A) (A) (A) (A) (A) (A) (A) (A) (A) (A) (A)
                 (A) (A) (A) (A) (A) (A) (A) (A) (A) (A) (A) (A)
                 (A) (A) (A) (A) (A) (A) (A) (A) (A) (A) (A) (A)
                 (A) (A) (A) (A) (A) (A) (A) (A) (A) (A) (A) (A)
                 (A) (A) (A) (A) (A) (A) (A) (A) (A) (A) (A) (A)
                 (A) (A) (A) (A) (A) (A) (A) (A) (A) (A) (A) (A)
                 (A) (A) (A) (A) (A) (A) (A) (A) (A) (A) (A) (A)
                 (A) (A) (A) (A) (A) (A) (A) (A) (A) (A) (A) (A)
                 (A) (A) (A) (A) (A) (A) (A) (A) (A) (A) (A) (A)
                 (A) (A) (A) (A) (A) (A) (A) (A) (A) (A) (A) (A)
                 (A) (A) (A) (A) (A) (A) (A) (A) (A) (A) (A) (A)
                 (A) (A) (A) (A) (A) (A) (A) (A) (A) (A) (A) (A)
                 (A) (A) (A) (A) (A) (A) (A) (A) (A) (A) (A) (A)
                 (A) (A) (A) (A) (A) (A) (A) (A) (A) (A) (A) (A)
                 (A) (A) (A) (A) (A) (A) (A) (A) (A) (A) (A) (A)
                 (A) (A) (A) (A) (A) (A) (A) (A) (A) (A) (A) (A)
                 (A) (A) (A) (A) (A) (A) (A) (A) (A) (A) (A) (A)
                 (A) (A) (A) (A) (A) (A) (A) (A) (A) (A) (A) (A)
                 (A) (A) (A) (A) (A) (A) (A) (A) (A) (A) (A) (A)
                 (A) (A) (A) (A) (A) (A) (A) (A) (A) (A) (A) (A)
                 (A) (A) (A) (A) (A) (A) (A) (A) (A) (A) (A) (A)
                 (A) (A) (A) (A) (A) (A) (A) (A) (A) (A) (A) (A)
                 (A) (A) (A) (A) (A) (A) (A) (A) (A) (A) (A) (A)
                 (A) (A) (A) (A) (A) (A) (A) (A) (A) (A) (A) (A)
                 (A) (A) (A) (A) (A) (A) (A) (A) (A) (A) (A) (A)
                 (A) (A) (A) (A) (A) (A) (A) (A) (A) (A) (A) (A)
                 (A) (A) (A) (A) (A) (A) (A) (A) (A) (A) (A) (A)
                 (A) (A) (A) (A) (A) (A) (A) (A) (A) (A) (A) (A)
                 (A) (A) (A) (A) (A) (A) (A) (A) (A) (A) (A) (A)
                 (A) (A) (A) (A) (A) (A) (A) (A) (A) (A) (A) (A)
                 (A) (A) (A) (A) (A) (A) (A) (A) (A) (A) (A) (A)
                 (A) (A) (A) (A) (A) (A) (A) (A) (A) (A) (A) (A)
                 (A) (A) (A) (A) (A) (A) (A) (A) (A) (A) (A) (A)
                 (A) (A) (A) (A) (A) (A) (A) (A) (A) (A) (A) (A)
                 (A) (A) (A) (A) (A) (A) (A) (A) (A) (A) (A) (A)
                 (A) (A) (A) (A) (A) (A) (A) (A) (A) (A) (A) (A)
                 (A) (A) (A) (A) (A) (A) (A) (A) (A) (A) (A) (A)
                 (A) (A) (A) (A) (A) (A) (A) (A) (A) (A) (A) (A)
                 (A) (A) (A) (A) (A) (A) (A) (A) (A) (A) (A) (A)
                 (A) (A) (A) (A) (A) (A) (A) (A) (A) (A) (A) (A)
                 (A) (A) (A) (A) (A) (A) (A) (A) (A) (A) (A) (A)
                 (A) (A) (A) (A) (A) (A) (A) (A) (A) (A) (A) (A)
                 (A) (A) (A) (A) (A) (A) (A) (A) (A) (A) (A) (A)
                 (A) (A) (A) (A) (A) (A) (A) (A) (A) (A) (A) (A)
                 (A) (A) (A) (A) (A) (A) (A) (A) (A) (A) (A) (A)
                 (A) (A) (A) (A) (A) (A) (A) (A) (A) (A) (A) (A)
                 (A) (A) (A) (A) (A) (A) (A) (A) (A) (A) (A) (A)
                 (A) (A) (A) (A) (A) (A) (A) (A) (A) (A) (A) (A)
                 (A) (A) (A) (A) (A) (A) (A) (A) (A) (A) (A) (A)
                 (A) (A) (A) (A) (A) (A) (A) (A) (A) (A) (A) (A)
                 (A) (A) (A) (A) (A) (A) (A) (A) (A) (A) (A) (A)
                 (A) (A) (A) (A) (A) (A) (A) (A) (A) (A) (A) (A)
                 (A) (A) (A) (A) (A) (A) (A) (A) (A) (A) (A) (A)
                 (A) (A) (A) (A) (A) (A) (A) (A) (A) (A) (A) (A)
                 (A) (A) (A) (A) (A) (A) (A) (A) (A) (A) (A) (A)
                 (A) (A) (A) (A) (A) (A) (A) (A) (A) (A) (A) (A)
                 (A) (A) (A) (A) (A) (A) (A) (A) (A) (A) (A) (A)
                 (A) (A) (A) (A) (A) (A) (A) (A) (A) (A) (A) (A)
                 (A) (A) (A) (A) (A) (A) (A) (A) (A) (A) (A) (A)
                 (A) (A) (A) (A) (A) (A) (A) (A) (A) (A) (A) (A)
                 (A) (A) (A) (A) (A) (A) (A) (A) (A) (A) (A) (A)
                 (A) (A) (A) (A) (A) (A) (A) (A) (A) (A) (A) (A)
                 (A) (A) (A) (A) (A) (A) (A) (A) (A) (A) (A) (A)
                 (A) (A) (A) (A) (A) (A) (A) (A) (A) (A) (A) (A)
                 (A) (A) (A) (A) (A) (A) (A) (A) (A) (A) (A) (A)
                 (A) (A) (A) (A) (A) (A) (A) (A) (A) (A) (A) (A)
                 (A) (A) (A) (A) (A) (A) (A) (A) (A) (A) (A) (A)
                 (A) (A) (A) (A) (A) (A) (A) (A) (A) (A) (A) (A)
                 (A) (A) (A) (A) (A) (A) (A) (A) (A) (A) (A) (A)
                 (A) (A) (A) (A) (A) (A) (A) (A) (A) (A) (A) (A)
                 (A) (A) (A) (A) (A) (A) (A) (A) (A) (A) (A) (A)
                 (A) (A) (A) (A) (A) (A) (A) (A) (A) (A) (A) (A)
                 (A) (A) (A) (A) (A) (A) (A) (A) (A) (A) (A) (A)
                 (A) (A) (A) (A) (A) (A) (A) (A) (A) (A) (A) (A)
                 (A) (A) (A) (A) (A) (A) (A) (A) (A) (A) (A) (A)
                 (A) (A) (A) (A) (A) (A) (A) (A) (A) (A) (A) (A)
                 (A) (A) (A) (A) (A) (A) (A) (A) (A) (A) (A) (A)
                 (A) (A) (A) (A) (A) (A) (A) (A) (A) (A) (A) (A)
                 (A) (A) (A) (A) (A) (A) (A) (A) (A) (A) (A) (A)
                 (A) (A) (A) (A) (A) (A) (A) (A) (A) (A) (A) (A)
                 (A) (A) (A) (A) (A) (A) (A) (A) (A) (A) (A) (A)
                 (A) (A) (A) (A) (A) (A) (A) (A) (A) (A) (A) (A)
                 (A) (A) (A) (A) (A) (A) (A) (A) (A) (A) (A) (A)
                 (A) (A) (A) (A) (A) (A) (A) (A) (A) (A) (A) (A)
                 (A) (A) (A) (A) (A) (A) (A) (A) (A) (A) (A) (A)
                 (A) (A) (A) (A) (A) (A) (A) (A) (A) (A) (A) (A)
                 (A) (A) (A) (A) (A) (A) (A) (A) (A) (A) (A) (A)
                 (A) (A) (A) (A) (A) (A) (A) (A) (A) (A) (A) (A)
                 (A) (A) (A) (A) (A) (A) (A) (A) (A) (A) (A) (A)
                 (A) (A) (A) (A) (A) (A) (A) (A) (A) (A) (A) (A)
                 (A) (A) (A) (A) (A) (A) (A) (A) (A) (A) (A) (A)
                 (A) (A) (A) (A) (A) (A) (A) (A) (A) (A) (A) (A)
                 (A) (A) (A) (A) (A) (A) (A) (A) (A) (A) (A) (A)
                 (A) (A) (A) (A) (A) (A) (A) (A) (A) (A) (A) (A)
                 (A) (A) (A) (A) (A) (A) (A) (A) (A) (A) (A) (A)
                 (A) (A) (A) (A) (A) (A) (A) (A) (A) (A) (A) (A)
                 (A) (A) (A) (A) (A)
 The electronic state is 2-A.
 Alpha  occ. eigenvalues -- -256.38961 -30.25685 -26.10415 -26.10001 -26.07537
 Alpha  occ. eigenvalues --  -14.53911 -14.51042 -14.47170 -14.47046 -14.46716
 Alpha  occ. eigenvalues --  -14.46542 -10.38644 -10.35689 -10.33322 -10.33311
 Alpha  occ. eigenvalues --  -10.33307 -10.33218 -10.33194 -10.33104 -10.32988
 Alpha  occ. eigenvalues --  -10.32906 -10.32894 -10.30881 -10.30421 -10.30382
 Alpha  occ. eigenvalues --  -10.30254 -10.30171 -10.30122 -10.30098 -10.30097
 Alpha  occ. eigenvalues --  -10.30021 -10.29943 -10.29691 -10.29615 -10.29572
 Alpha  occ. eigenvalues --  -10.29192 -10.28899 -10.28216 -10.28207 -10.28176
 Alpha  occ. eigenvalues --  -10.28080 -10.27975 -10.27912 -10.27716 -10.27525
 Alpha  occ. eigenvalues --   -3.64579  -2.43217  -2.42119  -2.36648  -1.17926
 Alpha  occ. eigenvalues --   -1.09449  -1.08605  -1.08191  -1.07379  -1.03782
 Alpha  occ. eigenvalues --   -0.94084  -0.92766  -0.92264  -0.91852  -0.91695
 Alpha  occ. eigenvalues --   -0.91455  -0.91211  -0.91147  -0.87167  -0.85909
 Alpha  occ. eigenvalues --   -0.85809  -0.84692  -0.83242  -0.83139  -0.81628
 Alpha  occ. eigenvalues --   -0.80607  -0.78948  -0.78751  -0.78420  -0.76951
 Alpha  occ. eigenvalues --   -0.75643  -0.75569  -0.73483  -0.71146  -0.70416
 Alpha  occ. eigenvalues --   -0.69396  -0.68716  -0.67947  -0.65614  -0.64909
 Alpha  occ. eigenvalues --   -0.64062  -0.63812  -0.62383  -0.62225  -0.61888
 Alpha  occ. eigenvalues --   -0.59995  -0.59745  -0.59463  -0.58750  -0.58563
 Alpha  occ. eigenvalues --   -0.56464  -0.55866  -0.55565  -0.55292  -0.54890
 Alpha  occ. eigenvalues --   -0.54602  -0.54545  -0.54381  -0.53901  -0.53772
 Alpha  occ. eigenvalues --   -0.53501  -0.53083  -0.53023  -0.52733  -0.52450
 Alpha  occ. eigenvalues --   -0.52346  -0.51096  -0.51012  -0.50903  -0.50762
 Alpha  occ. eigenvalues --   -0.50721  -0.50612  -0.50440  -0.50090  -0.49963
 Alpha  occ. eigenvalues --   -0.49524  -0.49214  -0.49021  -0.48673  -0.48593
 Alpha  occ. eigenvalues --   -0.48264  -0.47978  -0.47711  -0.47203  -0.46808
 Alpha  occ. eigenvalues --   -0.46656  -0.46203  -0.45319  -0.44957  -0.44254
 Alpha  occ. eigenvalues --   -0.43948  -0.43537  -0.43129  -0.42479  -0.42304
 Alpha  occ. eigenvalues --   -0.41078  -0.40390  -0.39973  -0.39588  -0.37982
 Alpha  occ. eigenvalues --   -0.37631  -0.35972  -0.34750  -0.33783  -0.33150
 Alpha  occ. eigenvalues --   -0.32468  -0.30830  -0.29395
 Alpha virt. eigenvalues --   -0.22692  -0.18183  -0.18155  -0.15384  -0.12483
 Alpha virt. eigenvalues --   -0.10924  -0.09315  -0.08075  -0.06993  -0.06897
 Alpha virt. eigenvalues --   -0.05955  -0.05360  -0.04421  -0.03723  -0.03211
 Alpha virt. eigenvalues --   -0.02982  -0.02746  -0.02582  -0.02413  -0.01397
 Alpha virt. eigenvalues --   -0.00895  -0.00385  -0.00133  -0.00039   0.00336
 Alpha virt. eigenvalues --    0.00451   0.01271   0.01344   0.01665   0.01986
 Alpha virt. eigenvalues --    0.02341   0.02546   0.02783   0.02955   0.03239
 Alpha virt. eigenvalues --    0.03257   0.03460   0.03595   0.03931   0.04019
 Alpha virt. eigenvalues --    0.04296   0.04369   0.04692   0.05010   0.05247
 Alpha virt. eigenvalues --    0.05474   0.05644   0.05769   0.06478   0.06644
 Alpha virt. eigenvalues --    0.06839   0.06924   0.07318   0.07462   0.07642
 Alpha virt. eigenvalues --    0.07675   0.08081   0.08175   0.08298   0.08406
 Alpha virt. eigenvalues --    0.08771   0.08908   0.09149   0.09389   0.09734
 Alpha virt. eigenvalues --    0.10306   0.10448   0.10782   0.11038   0.11142
 Alpha virt. eigenvalues --    0.11404   0.11583   0.11930   0.12265   0.12444
 Alpha virt. eigenvalues --    0.12964   0.13216   0.13273   0.13530   0.13597
 Alpha virt. eigenvalues --    0.14233   0.14252   0.14832   0.15213   0.15639
 Alpha virt. eigenvalues --    0.15834   0.16361   0.16520   0.16848   0.16908
 Alpha virt. eigenvalues --    0.17218   0.17271   0.17474   0.17663   0.17905
 Alpha virt. eigenvalues --    0.18192   0.18668   0.18884   0.19237   0.19345
 Alpha virt. eigenvalues --    0.19820   0.20237   0.20504   0.20576   0.20697
 Alpha virt. eigenvalues --    0.21262   0.21395   0.21554   0.21748   0.22062
 Alpha virt. eigenvalues --    0.22222   0.22717   0.22894   0.22995   0.23274
 Alpha virt. eigenvalues --    0.23787   0.23953   0.24146   0.24634   0.24681
 Alpha virt. eigenvalues --    0.24894   0.25387   0.25508   0.26031   0.26428
 Alpha virt. eigenvalues --    0.26729   0.26897   0.26958   0.27589   0.27814
 Alpha virt. eigenvalues --    0.28214   0.28278   0.28439   0.28765   0.28975
 Alpha virt. eigenvalues --    0.29456   0.29797   0.29943   0.30137   0.30278
 Alpha virt. eigenvalues --    0.30479   0.30731   0.30999   0.31275   0.31476
 Alpha virt. eigenvalues --    0.31730   0.31909   0.32073   0.32346   0.32508
 Alpha virt. eigenvalues --    0.32606   0.32879   0.33050   0.33276   0.33680
 Alpha virt. eigenvalues --    0.33904   0.34044   0.34449   0.34706   0.34874
 Alpha virt. eigenvalues --    0.35168   0.35338   0.35639   0.35790   0.36009
 Alpha virt. eigenvalues --    0.36567   0.36741   0.36966   0.37067   0.37371
 Alpha virt. eigenvalues --    0.37547   0.37776   0.38092   0.38126   0.38407
 Alpha virt. eigenvalues --    0.38546   0.38708   0.38981   0.39177   0.39257
 Alpha virt. eigenvalues --    0.39480   0.39618   0.40041   0.40380   0.40713
 Alpha virt. eigenvalues --    0.40891   0.41161   0.41410   0.41437   0.41981
 Alpha virt. eigenvalues --    0.42044   0.42200   0.42464   0.42524   0.42701
 Alpha virt. eigenvalues --    0.43023   0.43286   0.43407   0.43543   0.43720
 Alpha virt. eigenvalues --    0.43989   0.44129   0.44327   0.44591   0.44817
 Alpha virt. eigenvalues --    0.45231   0.45502   0.45731   0.46108   0.46242
 Alpha virt. eigenvalues --    0.46732   0.46924   0.46990   0.47273   0.47846
 Alpha virt. eigenvalues --    0.47979   0.48408   0.48572   0.48767   0.49032
 Alpha virt. eigenvalues --    0.49380   0.49774   0.50138   0.50301   0.50542
 Alpha virt. eigenvalues --    0.50921   0.50976   0.51706   0.51886   0.52585
 Alpha virt. eigenvalues --    0.52901   0.53266   0.53505   0.53762   0.53935
 Alpha virt. eigenvalues --    0.54512   0.54554   0.54657   0.55074   0.55178
 Alpha virt. eigenvalues --    0.55560   0.56088   0.56411   0.56570   0.56969
 Alpha virt. eigenvalues --    0.57544   0.57579   0.57697   0.58045   0.58332
 Alpha virt. eigenvalues --    0.58897   0.59160   0.59384   0.59835   0.60242
 Alpha virt. eigenvalues --    0.60338   0.60635   0.60931   0.61566   0.61770
 Alpha virt. eigenvalues --    0.62172   0.62395   0.62663   0.63017   0.63245
 Alpha virt. eigenvalues --    0.63445   0.63833   0.63956   0.64645   0.64747
 Alpha virt. eigenvalues --    0.65121   0.65265   0.65619   0.65960   0.66252
 Alpha virt. eigenvalues --    0.67118   0.67193   0.67411   0.67564   0.68512
 Alpha virt. eigenvalues --    0.68594   0.68793   0.68960   0.69702   0.69919
 Alpha virt. eigenvalues --    0.70172   0.70748   0.71070   0.71367   0.71606
 Alpha virt. eigenvalues --    0.72293   0.72716   0.72973   0.73505   0.74145
 Alpha virt. eigenvalues --    0.74316   0.74562   0.74907   0.75132   0.75409
 Alpha virt. eigenvalues --    0.75824   0.76566   0.76746   0.77500   0.77728
 Alpha virt. eigenvalues --    0.78141   0.78555   0.78782   0.79117   0.79433
 Alpha virt. eigenvalues --    0.79848   0.80378   0.80853   0.81252   0.81693
 Alpha virt. eigenvalues --    0.81996   0.82129   0.82579   0.83049   0.83431
 Alpha virt. eigenvalues --    0.83825   0.83959   0.84817   0.84885   0.85542
 Alpha virt. eigenvalues --    0.85653   0.86085   0.86270   0.87068   0.87506
 Alpha virt. eigenvalues --    0.87722   0.88000   0.88540   0.88742   0.88989
 Alpha virt. eigenvalues --    0.89362   0.90230   0.90403   0.90666   0.91178
 Alpha virt. eigenvalues --    0.91359   0.91564   0.91870   0.92100   0.92274
 Alpha virt. eigenvalues --    0.92512   0.92721   0.92749   0.93821   0.94028
 Alpha virt. eigenvalues --    0.94089   0.94494   0.94634   0.95025   0.95334
 Alpha virt. eigenvalues --    0.95563   0.95669   0.96233   0.96319   0.97125
 Alpha virt. eigenvalues --    0.97650   0.98074   0.98376   0.98782   0.98978
 Alpha virt. eigenvalues --    0.99367   0.99979   1.00595   1.01449   1.01698
 Alpha virt. eigenvalues --    1.01851   1.02346   1.02903   1.03309   1.03583
 Alpha virt. eigenvalues --    1.04256   1.04784   1.05012   1.06111   1.06313
 Alpha virt. eigenvalues --    1.06345   1.07310   1.07639   1.07964   1.08457
 Alpha virt. eigenvalues --    1.08710   1.09065   1.09328   1.09958   1.10507
 Alpha virt. eigenvalues --    1.10687   1.10792   1.11199   1.11309   1.11773
 Alpha virt. eigenvalues --    1.12545   1.12936   1.13133   1.14027   1.14220
 Alpha virt. eigenvalues --    1.15383   1.15732   1.16285   1.16358   1.16851
 Alpha virt. eigenvalues --    1.17219   1.17726   1.17940   1.18287   1.18411
 Alpha virt. eigenvalues --    1.18775   1.18982   1.19230   1.19494   1.19871
 Alpha virt. eigenvalues --    1.20036   1.20533   1.20999   1.21061   1.21623
 Alpha virt. eigenvalues --    1.22014   1.23076   1.23774   1.24980   1.25093
 Alpha virt. eigenvalues --    1.26043   1.26811   1.27461   1.27733   1.28006
 Alpha virt. eigenvalues --    1.28638   1.29155   1.29646   1.30211   1.30715
 Alpha virt. eigenvalues --    1.30779   1.31290   1.32282   1.32891   1.33935
 Alpha virt. eigenvalues --    1.34202   1.34697   1.35060   1.35329   1.36286
 Alpha virt. eigenvalues --    1.36427   1.37069   1.37215   1.37346   1.37740
 Alpha virt. eigenvalues --    1.38397   1.38493   1.39519   1.39647   1.39870
 Alpha virt. eigenvalues --    1.39998   1.40583   1.40628   1.41047   1.41231
 Alpha virt. eigenvalues --    1.41805   1.41925   1.41981   1.42394   1.42690
 Alpha virt. eigenvalues --    1.43023   1.43182   1.43342   1.43679   1.43811
 Alpha virt. eigenvalues --    1.43833   1.44323   1.45035   1.45194   1.45576
 Alpha virt. eigenvalues --    1.45831   1.46218   1.46475   1.46770   1.47095
 Alpha virt. eigenvalues --    1.47239   1.47507   1.47638   1.47842   1.48083
 Alpha virt. eigenvalues --    1.48241   1.48436   1.48767   1.49169   1.49411
 Alpha virt. eigenvalues --    1.49646   1.49895   1.50543   1.50946   1.51280
 Alpha virt. eigenvalues --    1.51525   1.51765   1.52104   1.52314   1.52535
 Alpha virt. eigenvalues --    1.53101   1.53200   1.53754   1.53823   1.54192
 Alpha virt. eigenvalues --    1.54678   1.54810   1.55078   1.55415   1.55949
 Alpha virt. eigenvalues --    1.56063   1.56389   1.56884   1.57016   1.57753
 Alpha virt. eigenvalues --    1.57786   1.58079   1.58293   1.58513   1.59472
 Alpha virt. eigenvalues --    1.59806   1.60025   1.60292   1.60789   1.61024
 Alpha virt. eigenvalues --    1.61208   1.61492   1.62409   1.62673   1.63079
 Alpha virt. eigenvalues --    1.63310   1.63837   1.64274   1.65280   1.65927
 Alpha virt. eigenvalues --    1.66594   1.67517   1.68107   1.68451   1.69228
 Alpha virt. eigenvalues --    1.69796   1.70126   1.70643   1.70852   1.71200
 Alpha virt. eigenvalues --    1.71505   1.72402   1.72836   1.73392   1.74315
 Alpha virt. eigenvalues --    1.74611   1.75251   1.75729   1.75773   1.76158
 Alpha virt. eigenvalues --    1.76525   1.77004   1.77363   1.78027   1.78050
 Alpha virt. eigenvalues --    1.78550   1.78602   1.78863   1.79627   1.80216
 Alpha virt. eigenvalues --    1.80914   1.81312   1.82007   1.82221   1.82658
 Alpha virt. eigenvalues --    1.83044   1.83476   1.84105   1.84740   1.85134
 Alpha virt. eigenvalues --    1.86441   1.86701   1.87043   1.87590   1.88218
 Alpha virt. eigenvalues --    1.88489   1.89439   1.89499   1.90033   1.90463
 Alpha virt. eigenvalues --    1.90954   1.91084   1.91605   1.91893   1.92080
 Alpha virt. eigenvalues --    1.92211   1.92939   1.93298   1.93889   1.94580
 Alpha virt. eigenvalues --    1.95020   1.95571   1.96278   1.97275   1.97683
 Alpha virt. eigenvalues --    1.98014   1.98264   1.99000   1.99219   1.99661
 Alpha virt. eigenvalues --    2.00033   2.00232   2.00982   2.01063   2.01477
 Alpha virt. eigenvalues --    2.01994   2.02318   2.02873   2.03550   2.03743
 Alpha virt. eigenvalues --    2.04506   2.05050   2.05704   2.05880   2.06412
 Alpha virt. eigenvalues --    2.06881   2.07275   2.08002   2.08153   2.08547
 Alpha virt. eigenvalues --    2.08872   2.09363   2.09834   2.10546   2.10979
 Alpha virt. eigenvalues --    2.11436   2.12205   2.13031   2.13167   2.13686
 Alpha virt. eigenvalues --    2.14488   2.15269   2.15576   2.15733   2.16039
 Alpha virt. eigenvalues --    2.16331   2.16789   2.17432   2.17841   2.18488
 Alpha virt. eigenvalues --    2.18888   2.19222   2.20138   2.20357   2.20917
 Alpha virt. eigenvalues --    2.21102   2.21336   2.22129   2.22845   2.23418
 Alpha virt. eigenvalues --    2.23963   2.24607   2.25321   2.25609   2.25967
 Alpha virt. eigenvalues --    2.26330   2.27263   2.27517   2.27743   2.28068
 Alpha virt. eigenvalues --    2.28257   2.28603   2.28899   2.29471   2.29679
 Alpha virt. eigenvalues --    2.29999   2.30596   2.30723   2.31102   2.31483
 Alpha virt. eigenvalues --    2.32108   2.32282   2.32942   2.33857   2.34399
 Alpha virt. eigenvalues --    2.34484   2.35062   2.35363   2.35754   2.35882
 Alpha virt. eigenvalues --    2.36492   2.36839   2.37039   2.37308   2.37867
 Alpha virt. eigenvalues --    2.38353   2.39154   2.39543   2.40317   2.40454
 Alpha virt. eigenvalues --    2.40917   2.42122   2.42603   2.42957   2.43290
 Alpha virt. eigenvalues --    2.43732   2.43926   2.44463   2.44706   2.45291
 Alpha virt. eigenvalues --    2.45957   2.46147   2.46380   2.46757   2.47179
 Alpha virt. eigenvalues --    2.47366   2.47667   2.47844   2.48429   2.48851
 Alpha virt. eigenvalues --    2.49048   2.49923   2.50032   2.50496   2.50761
 Alpha virt. eigenvalues --    2.51056   2.51775   2.51960   2.52492   2.52547
 Alpha virt. eigenvalues --    2.53384   2.53737   2.53952   2.54634   2.55155
 Alpha virt. eigenvalues --    2.55353   2.55800   2.56418   2.56812   2.56871
 Alpha virt. eigenvalues --    2.57166   2.57990   2.58643   2.58795   2.59211
 Alpha virt. eigenvalues --    2.59370   2.60258   2.60307   2.60629   2.61045
 Alpha virt. eigenvalues --    2.61442   2.61811   2.62707   2.62855   2.63433
 Alpha virt. eigenvalues --    2.63988   2.64198   2.64604   2.65147   2.65732
 Alpha virt. eigenvalues --    2.66114   2.66597   2.66827   2.67220   2.67798
 Alpha virt. eigenvalues --    2.68072   2.68793   2.69364   2.69816   2.70290
 Alpha virt. eigenvalues --    2.70659   2.71169   2.71870   2.72390   2.72542
 Alpha virt. eigenvalues --    2.73236   2.73425   2.73584   2.74030   2.74621
 Alpha virt. eigenvalues --    2.74927   2.75202   2.75887   2.76098   2.76323
 Alpha virt. eigenvalues --    2.76743   2.77173   2.77725   2.78190   2.78413
 Alpha virt. eigenvalues --    2.78744   2.79118   2.79661   2.79960   2.80158
 Alpha virt. eigenvalues --    2.80690   2.80950   2.81598   2.81789   2.82262
 Alpha virt. eigenvalues --    2.82398   2.82622   2.82945   2.83562   2.83803
 Alpha virt. eigenvalues --    2.84266   2.84768   2.85188   2.85772   2.86163
 Alpha virt. eigenvalues --    2.86724   2.86831   2.87014   2.87129   2.87631
 Alpha virt. eigenvalues --    2.88005   2.88517   2.89020   2.89409   2.89614
 Alpha virt. eigenvalues --    2.90404   2.90677   2.91044   2.91077   2.91356
 Alpha virt. eigenvalues --    2.91993   2.92321   2.92863   2.93049   2.93995
 Alpha virt. eigenvalues --    2.94098   2.94736   2.95244   2.95714   2.96055
 Alpha virt. eigenvalues --    2.96235   2.96603   2.96801   2.97174   2.97318
 Alpha virt. eigenvalues --    2.97766   2.98389   2.98690   2.98703   2.99092
 Alpha virt. eigenvalues --    2.99231   3.00077   3.00393   3.00576   3.00780
 Alpha virt. eigenvalues --    3.00913   3.01140   3.01827   3.02043   3.02448
 Alpha virt. eigenvalues --    3.02901   3.03518   3.03957   3.04070   3.04285
 Alpha virt. eigenvalues --    3.04614   3.04826   3.05481   3.05632   3.06228
 Alpha virt. eigenvalues --    3.06767   3.07081   3.07444   3.07643   3.07943
 Alpha virt. eigenvalues --    3.08407   3.08575   3.08832   3.09252   3.09524
 Alpha virt. eigenvalues --    3.09736   3.10196   3.10597   3.10782   3.11193
 Alpha virt. eigenvalues --    3.11425   3.11434   3.12312   3.12733   3.12952
 Alpha virt. eigenvalues --    3.13323   3.13491   3.13839   3.14037   3.14238
 Alpha virt. eigenvalues --    3.14861   3.14960   3.15123   3.15368   3.15570
 Alpha virt. eigenvalues --    3.16065   3.16233   3.16643   3.16878   3.17151
 Alpha virt. eigenvalues --    3.17507   3.17647   3.18100   3.18242   3.18725
 Alpha virt. eigenvalues --    3.18977   3.19093   3.19168   3.19701   3.20011
 Alpha virt. eigenvalues --    3.20690   3.20841   3.21018   3.21334   3.21527
 Alpha virt. eigenvalues --    3.21804   3.22197   3.22308   3.22600   3.23060
 Alpha virt. eigenvalues --    3.23080   3.23278   3.23748   3.24046   3.24360
 Alpha virt. eigenvalues --    3.24549   3.24649   3.24840   3.25263   3.25779
 Alpha virt. eigenvalues --    3.25996   3.26165   3.26581   3.26673   3.27034
 Alpha virt. eigenvalues --    3.27325   3.27555   3.27731   3.27981   3.28310
 Alpha virt. eigenvalues --    3.28525   3.28712   3.29005   3.29358   3.29800
 Alpha virt. eigenvalues --    3.30582   3.30770   3.30899   3.31437   3.32037
 Alpha virt. eigenvalues --    3.32197   3.32411   3.32935   3.33722   3.33919
 Alpha virt. eigenvalues --    3.34795   3.35149   3.35357   3.35732   3.35815
 Alpha virt. eigenvalues --    3.36586   3.37093   3.37301   3.37897   3.38263
 Alpha virt. eigenvalues --    3.38658   3.38826   3.39064   3.40649   3.41007
 Alpha virt. eigenvalues --    3.41572   3.41680   3.42037   3.42282   3.42515
 Alpha virt. eigenvalues --    3.43462   3.43940   3.44933   3.45246   3.45395
 Alpha virt. eigenvalues --    3.45914   3.46033   3.46761   3.47254   3.47584
 Alpha virt. eigenvalues --    3.47925   3.48790   3.48939   3.49303   3.49964
 Alpha virt. eigenvalues --    3.50594   3.50985   3.51352   3.51839   3.52136
 Alpha virt. eigenvalues --    3.53085   3.53475   3.54077   3.54306   3.54850
 Alpha virt. eigenvalues --    3.55750   3.55907   3.56261   3.56659   3.57545
 Alpha virt. eigenvalues --    3.57855   3.58100   3.58702   3.59532   3.59598
 Alpha virt. eigenvalues --    3.60472   3.60668   3.60918   3.61532   3.61832
 Alpha virt. eigenvalues --    3.62191   3.62743   3.63156   3.63292   3.63686
 Alpha virt. eigenvalues --    3.63762   3.64289   3.64690   3.65095   3.65470
 Alpha virt. eigenvalues --    3.66306   3.66776   3.67166   3.67331   3.67981
 Alpha virt. eigenvalues --    3.68790   3.68999   3.69717   3.70611   3.70890
 Alpha virt. eigenvalues --    3.71598   3.72237   3.72840   3.73349   3.73573
 Alpha virt. eigenvalues --    3.74094   3.75605   3.76105   3.76338   3.77034
 Alpha virt. eigenvalues --    3.77258   3.77709   3.78079   3.78321   3.79449
 Alpha virt. eigenvalues --    3.79493   3.80984   3.81428   3.81971   3.82043
 Alpha virt. eigenvalues --    3.82249   3.82541   3.83104   3.85019   3.85559
 Alpha virt. eigenvalues --    3.86490   3.86832   3.87533   3.88166   3.88637
 Alpha virt. eigenvalues --    3.89438   3.89659   3.89942   3.90261   3.90846
 Alpha virt. eigenvalues --    3.91749   3.92667   3.93126   3.93254   3.94034
 Alpha virt. eigenvalues --    3.94967   3.95143   3.95394   3.96600   3.96955
 Alpha virt. eigenvalues --    3.97613   3.98343   3.98677   3.99256   4.00188
 Alpha virt. eigenvalues --    4.01445   4.01600   4.02178   4.02783   4.03243
 Alpha virt. eigenvalues --    4.03850   4.04045   4.05499   4.05657   4.06512
 Alpha virt. eigenvalues --    4.07067   4.07851   4.08328   4.08815   4.09004
 Alpha virt. eigenvalues --    4.09733   4.10051   4.11288   4.12076   4.12612
 Alpha virt. eigenvalues --    4.12858   4.13428   4.14161   4.14279   4.15180
 Alpha virt. eigenvalues --    4.15256   4.15614   4.15898   4.16151   4.17700
 Alpha virt. eigenvalues --    4.18117   4.18714   4.20129   4.20774   4.21486
 Alpha virt. eigenvalues --    4.21676   4.22368   4.23079   4.23115   4.24247
 Alpha virt. eigenvalues --    4.24603   4.24828   4.26051   4.27151   4.27904
 Alpha virt. eigenvalues --    4.29006   4.29300   4.29768   4.30215   4.30841
 Alpha virt. eigenvalues --    4.30942   4.31089   4.31679   4.32167   4.32646
 Alpha virt. eigenvalues --    4.32969   4.33830   4.34217   4.34339   4.34693
 Alpha virt. eigenvalues --    4.35015   4.35407   4.36553   4.37520   4.37747
 Alpha virt. eigenvalues --    4.39385   4.40472   4.41080   4.41692   4.42649
 Alpha virt. eigenvalues --    4.43374   4.44331   4.45350   4.45479   4.46514
 Alpha virt. eigenvalues --    4.46881   4.47949   4.48135   4.50016   4.50888
 Alpha virt. eigenvalues --    4.52573   4.53414   4.54297   4.54454   4.57099
 Alpha virt. eigenvalues --    4.57384   4.58276   4.58321   4.58935   4.59269
 Alpha virt. eigenvalues --    4.59976   4.60860   4.61763   4.63173   4.63375
 Alpha virt. eigenvalues --    4.63711   4.64388   4.65794   4.66566   4.67740
 Alpha virt. eigenvalues --    4.68174   4.68962   4.69721   4.71105   4.71937
 Alpha virt. eigenvalues --    4.72633   4.72797   4.73220   4.73483   4.73962
 Alpha virt. eigenvalues --    4.74351   4.74778   4.75955   4.76755   4.78331
 Alpha virt. eigenvalues --    4.78428   4.79772   4.80594   4.80966   4.81824
 Alpha virt. eigenvalues --    4.82101   4.82924   4.83162   4.83785   4.84190
 Alpha virt. eigenvalues --    4.85951   4.87513   4.87918   4.89558   4.89877
 Alpha virt. eigenvalues --    4.90649   4.91682   4.91873   4.92771   4.93096
 Alpha virt. eigenvalues --    4.93942   4.94942   4.95887   4.96689   4.97483
 Alpha virt. eigenvalues --    4.98282   4.98540   5.01878   5.02815   5.04935
 Alpha virt. eigenvalues --    5.06217   5.06905   5.07702   5.09332   5.09878
 Alpha virt. eigenvalues --    5.10238   5.11264   5.12224   5.12495   5.12897
 Alpha virt. eigenvalues --    5.14460   5.16123   5.17062   5.17756   5.21588
 Alpha virt. eigenvalues --    5.23932   5.24406   5.25433   5.25964   5.26247
 Alpha virt. eigenvalues --    5.27241   5.27460   5.27937   5.29953   5.30678
 Alpha virt. eigenvalues --    5.31568   5.34124   5.36645   5.36891   5.38013
 Alpha virt. eigenvalues --    5.38551   5.39617   5.39890   5.41909   5.43108
 Alpha virt. eigenvalues --    5.45586   5.49347   5.49966   5.50579   5.51454
 Alpha virt. eigenvalues --    5.51890   5.53296   5.55053   5.55153   5.56614
 Alpha virt. eigenvalues --    5.57454   5.59738   5.63821   5.64882   5.65592
 Alpha virt. eigenvalues --    5.66461   5.66736   5.67208   5.76075   5.76799
 Alpha virt. eigenvalues --    5.79875   5.82630   5.89427   5.89747   5.90996
 Alpha virt. eigenvalues --    5.95511   5.96750   5.99813   6.00175   6.01448
 Alpha virt. eigenvalues --    6.04145   6.06220   6.15349   6.21599   6.22313
 Alpha virt. eigenvalues --    6.28908  22.26477  22.27162  22.34236  22.36679
 Alpha virt. eigenvalues --   22.37193  22.43278  22.44194  22.53167  22.53788
 Alpha virt. eigenvalues --   22.63508  22.72086  22.77061  22.79239  22.82257
 Alpha virt. eigenvalues --   22.82568  22.84396  22.85424  22.92672  22.93669
 Alpha virt. eigenvalues --   22.94141  23.05139  23.15656  23.16313  23.19370
 Alpha virt. eigenvalues --   23.20427  23.26232  23.31019  23.39844  23.40316
 Alpha virt. eigenvalues --   23.44997  23.64146  23.68555  23.69222  23.78470
 Alpha virt. eigenvalues --   32.28063  32.54393  32.73943  32.80448  32.84591
 Alpha virt. eigenvalues --   32.94955
  Beta  occ. eigenvalues -- -256.38921 -30.23330 -26.07682 -26.07571 -26.06804
  Beta  occ. eigenvalues --  -14.53908 -14.51143 -14.47247 -14.47123 -14.46831
  Beta  occ. eigenvalues --  -14.46648 -10.38627 -10.35693 -10.33311 -10.33311
  Beta  occ. eigenvalues --  -10.33285 -10.33190 -10.33172 -10.33093 -10.32971
  Beta  occ. eigenvalues --  -10.32896 -10.32883 -10.30882 -10.30422 -10.30403
  Beta  occ. eigenvalues --  -10.30296 -10.30206 -10.30139 -10.30099 -10.30075
  Beta  occ. eigenvalues --  -10.30000 -10.29940 -10.29691 -10.29615 -10.29578
  Beta  occ. eigenvalues --  -10.29200 -10.28898 -10.28217 -10.28208 -10.28178
  Beta  occ. eigenvalues --  -10.28080 -10.27975 -10.27899 -10.27717 -10.27528
  Beta  occ. eigenvalues --   -3.58840  -2.35267  -2.34692  -2.33696  -1.17948
  Beta  occ. eigenvalues --   -1.09510  -1.08632  -1.08298  -1.07450  -1.03847
  Beta  occ. eigenvalues --   -0.94118  -0.92751  -0.92288  -0.91836  -0.91701
  Beta  occ. eigenvalues --   -0.91477  -0.91256  -0.91190  -0.87163  -0.85923
  Beta  occ. eigenvalues --   -0.85891  -0.84693  -0.83246  -0.83145  -0.81635
  Beta  occ. eigenvalues --   -0.80622  -0.78953  -0.78762  -0.78449  -0.76995
  Beta  occ. eigenvalues --   -0.75648  -0.75579  -0.73491  -0.71146  -0.70425
  Beta  occ. eigenvalues --   -0.69394  -0.68746  -0.67958  -0.65618  -0.64926
  Beta  occ. eigenvalues --   -0.64066  -0.63800  -0.62406  -0.62260  -0.61908
  Beta  occ. eigenvalues --   -0.60002  -0.59715  -0.59396  -0.58768  -0.58563
  Beta  occ. eigenvalues --   -0.56478  -0.55865  -0.55538  -0.55251  -0.54840
  Beta  occ. eigenvalues --   -0.54537  -0.54516  -0.54368  -0.53910  -0.53795
  Beta  occ. eigenvalues --   -0.53464  -0.53043  -0.52983  -0.52737  -0.52436
  Beta  occ. eigenvalues --   -0.52327  -0.50995  -0.50982  -0.50797  -0.50748
  Beta  occ. eigenvalues --   -0.50677  -0.50497  -0.50231  -0.50081  -0.49955
  Beta  occ. eigenvalues --   -0.49500  -0.49104  -0.48852  -0.48582  -0.48544
  Beta  occ. eigenvalues --   -0.48143  -0.47847  -0.47563  -0.47065  -0.46710
  Beta  occ. eigenvalues --   -0.46182  -0.45322  -0.44835  -0.44587  -0.44030
  Beta  occ. eigenvalues --   -0.43597  -0.43071  -0.42608  -0.42337  -0.40515
  Beta  occ. eigenvalues --   -0.39900  -0.39228  -0.38530  -0.37727  -0.37347
  Beta  occ. eigenvalues --   -0.35912  -0.34946  -0.33946  -0.33242  -0.32276
  Beta  occ. eigenvalues --   -0.30884  -0.29242
  Beta virt. eigenvalues --   -0.21130  -0.19167  -0.18233  -0.17169  -0.12537
  Beta virt. eigenvalues --   -0.12239  -0.10672  -0.09230  -0.08079  -0.06909
  Beta virt. eigenvalues --   -0.06862  -0.05988  -0.05262  -0.04412  -0.03639
  Beta virt. eigenvalues --   -0.03183  -0.02825  -0.02662  -0.02476  -0.02332
  Beta virt. eigenvalues --   -0.01375  -0.00821  -0.00321  -0.00126  -0.00036
  Beta virt. eigenvalues --    0.00368   0.00584   0.01286   0.01344   0.01680
  Beta virt. eigenvalues --    0.01986   0.02339   0.02543   0.02797   0.02960
  Beta virt. eigenvalues --    0.03229   0.03265   0.03461   0.03598   0.03937
  Beta virt. eigenvalues --    0.04011   0.04294   0.04371   0.04690   0.05006
  Beta virt. eigenvalues --    0.05263   0.05472   0.05649   0.05768   0.06474
  Beta virt. eigenvalues --    0.06656   0.06849   0.06930   0.07338   0.07470
  Beta virt. eigenvalues --    0.07649   0.07676   0.08115   0.08244   0.08354
  Beta virt. eigenvalues --    0.08437   0.08776   0.08930   0.09162   0.09443
  Beta virt. eigenvalues --    0.09971   0.10304   0.10453   0.10798   0.11049
  Beta virt. eigenvalues --    0.11143   0.11413   0.11619   0.11987   0.12307
  Beta virt. eigenvalues --    0.12455   0.12981   0.13221   0.13281   0.13546
  Beta virt. eigenvalues --    0.13612   0.14263   0.14279   0.14893   0.15244
  Beta virt. eigenvalues --    0.15711   0.15856   0.16396   0.16524   0.16856
  Beta virt. eigenvalues --    0.16928   0.17224   0.17281   0.17529   0.17681
  Beta virt. eigenvalues --    0.17925   0.18267   0.18744   0.18886   0.19240
  Beta virt. eigenvalues --    0.19371   0.19878   0.20248   0.20548   0.20597
  Beta virt. eigenvalues --    0.20722   0.21270   0.21397   0.21560   0.21763
  Beta virt. eigenvalues --    0.22107   0.22248   0.22747   0.22911   0.23016
  Beta virt. eigenvalues --    0.23299   0.23823   0.23963   0.24153   0.24642
  Beta virt. eigenvalues --    0.24710   0.24986   0.25397   0.25508   0.26060
  Beta virt. eigenvalues --    0.26537   0.26901   0.26941   0.26972   0.27630
  Beta virt. eigenvalues --    0.27817   0.28217   0.28282   0.28451   0.28807
  Beta virt. eigenvalues --    0.29006   0.29476   0.29813   0.29952   0.30148
  Beta virt. eigenvalues --    0.30333   0.30492   0.30741   0.31015   0.31315
  Beta virt. eigenvalues --    0.31498   0.31758   0.31941   0.32104   0.32354
  Beta virt. eigenvalues --    0.32543   0.32616   0.32907   0.33094   0.33299
  Beta virt. eigenvalues --    0.33688   0.33945   0.34044   0.34467   0.34726
  Beta virt. eigenvalues --    0.34925   0.35231   0.35374   0.35653   0.35845
  Beta virt. eigenvalues --    0.36031   0.36598   0.36790   0.36991   0.37124
  Beta virt. eigenvalues --    0.37374   0.37566   0.37788   0.38108   0.38139
  Beta virt. eigenvalues --    0.38417   0.38619   0.38731   0.39004   0.39231
  Beta virt. eigenvalues --    0.39280   0.39492   0.39623   0.40051   0.40400
  Beta virt. eigenvalues --    0.40719   0.40897   0.41166   0.41413   0.41486
  Beta virt. eigenvalues --    0.41996   0.42045   0.42272   0.42480   0.42565
  Beta virt. eigenvalues --    0.42747   0.43036   0.43348   0.43411   0.43551
  Beta virt. eigenvalues --    0.43737   0.44043   0.44176   0.44346   0.44603
  Beta virt. eigenvalues --    0.44840   0.45271   0.45618   0.45738   0.46113
  Beta virt. eigenvalues --    0.46261   0.46759   0.46945   0.46996   0.47291
  Beta virt. eigenvalues --    0.47878   0.47995   0.48412   0.48605   0.48777
  Beta virt. eigenvalues --    0.49037   0.49406   0.49817   0.50157   0.50330
  Beta virt. eigenvalues --    0.50560   0.50940   0.50992   0.51700   0.51896
  Beta virt. eigenvalues --    0.52607   0.52913   0.53306   0.53528   0.53792
  Beta virt. eigenvalues --    0.53952   0.54529   0.54571   0.54668   0.55091
  Beta virt. eigenvalues --    0.55237   0.55579   0.56096   0.56429   0.56584
  Beta virt. eigenvalues --    0.56971   0.57544   0.57581   0.57772   0.58094
  Beta virt. eigenvalues --    0.58351   0.58916   0.59190   0.59419   0.59964
  Beta virt. eigenvalues --    0.60254   0.60374   0.60691   0.60971   0.61578
  Beta virt. eigenvalues --    0.61795   0.62222   0.62408   0.62705   0.63020
  Beta virt. eigenvalues --    0.63275   0.63459   0.63841   0.63986   0.64655
  Beta virt. eigenvalues --    0.64740   0.65160   0.65298   0.65666   0.65973
  Beta virt. eigenvalues --    0.66274   0.67162   0.67205   0.67434   0.67623
  Beta virt. eigenvalues --    0.68534   0.68608   0.68815   0.68987   0.69737
  Beta virt. eigenvalues --    0.69971   0.70185   0.70764   0.71092   0.71377
  Beta virt. eigenvalues --    0.71607   0.72316   0.72730   0.73014   0.73512
  Beta virt. eigenvalues --    0.74160   0.74325   0.74615   0.74910   0.75314
  Beta virt. eigenvalues --    0.75433   0.75837   0.76587   0.76804   0.77524
  Beta virt. eigenvalues --    0.77733   0.78168   0.78554   0.78813   0.79137
  Beta virt. eigenvalues --    0.79500   0.79862   0.80394   0.80913   0.81275
  Beta virt. eigenvalues --    0.81729   0.81996   0.82156   0.82585   0.83095
  Beta virt. eigenvalues --    0.83461   0.83857   0.83961   0.84838   0.84920
  Beta virt. eigenvalues --    0.85545   0.85655   0.86144   0.86308   0.87124
  Beta virt. eigenvalues --    0.87513   0.87781   0.88040   0.88573   0.88839
  Beta virt. eigenvalues --    0.89005   0.89384   0.90256   0.90445   0.90693
  Beta virt. eigenvalues --    0.91210   0.91377   0.91637   0.91894   0.92138
  Beta virt. eigenvalues --    0.92292   0.92527   0.92727   0.92791   0.93859
  Beta virt. eigenvalues --    0.94022   0.94123   0.94553   0.94677   0.95059
  Beta virt. eigenvalues --    0.95396   0.95583   0.95731   0.96261   0.96890
  Beta virt. eigenvalues --    0.97219   0.97722   0.98089   0.98404   0.98807
  Beta virt. eigenvalues --    0.99056   0.99405   0.99989   1.00763   1.01557
  Beta virt. eigenvalues --    1.01742   1.01893   1.02458   1.02934   1.03378
  Beta virt. eigenvalues --    1.03707   1.04329   1.04885   1.05046   1.06152
  Beta virt. eigenvalues --    1.06343   1.06366   1.07337   1.07666   1.08004
  Beta virt. eigenvalues --    1.08475   1.08737   1.09079   1.09354   1.10032
  Beta virt. eigenvalues --    1.10575   1.10724   1.10825   1.11211   1.11350
  Beta virt. eigenvalues --    1.11815   1.12602   1.13034   1.13155   1.14126
  Beta virt. eigenvalues --    1.14332   1.15483   1.15780   1.16351   1.16418
  Beta virt. eigenvalues --    1.16862   1.17257   1.17742   1.18060   1.18314
  Beta virt. eigenvalues --    1.18433   1.18796   1.18992   1.19260   1.19546
  Beta virt. eigenvalues --    1.19904   1.20064   1.20589   1.21047   1.21117
  Beta virt. eigenvalues --    1.21665   1.22065   1.23125   1.23789   1.24986
  Beta virt. eigenvalues --    1.25129   1.26068   1.26874   1.27501   1.27792
  Beta virt. eigenvalues --    1.28059   1.28679   1.29198   1.29783   1.30235
  Beta virt. eigenvalues --    1.30746   1.30814   1.31298   1.32308   1.32913
  Beta virt. eigenvalues --    1.33932   1.34216   1.34719   1.35049   1.35340
  Beta virt. eigenvalues --    1.36329   1.36464   1.37098   1.37244   1.37359
  Beta virt. eigenvalues --    1.37760   1.38424   1.38517   1.39545   1.39689
  Beta virt. eigenvalues --    1.39887   1.40032   1.40626   1.40650   1.41092
  Beta virt. eigenvalues --    1.41285   1.41840   1.41961   1.42010   1.42412
  Beta virt. eigenvalues --    1.42712   1.43061   1.43202   1.43348   1.43704
  Beta virt. eigenvalues --    1.43826   1.44035   1.44342   1.45036   1.45209
  Beta virt. eigenvalues --    1.45598   1.45849   1.46236   1.46482   1.46775
  Beta virt. eigenvalues --    1.47120   1.47254   1.47553   1.47658   1.47859
  Beta virt. eigenvalues --    1.48108   1.48256   1.48441   1.48775   1.49179
  Beta virt. eigenvalues --    1.49431   1.49653   1.49899   1.50557   1.50967
  Beta virt. eigenvalues --    1.51301   1.51531   1.51779   1.52120   1.52330
  Beta virt. eigenvalues --    1.52529   1.53105   1.53198   1.53764   1.53832
  Beta virt. eigenvalues --    1.54220   1.54710   1.54836   1.55093   1.55425
  Beta virt. eigenvalues --    1.55969   1.56061   1.56399   1.56887   1.57028
  Beta virt. eigenvalues --    1.57760   1.57789   1.58087   1.58302   1.58540
  Beta virt. eigenvalues --    1.59473   1.59813   1.60030   1.60306   1.60820
  Beta virt. eigenvalues --    1.61043   1.61260   1.61503   1.62461   1.62670
  Beta virt. eigenvalues --    1.63080   1.63328   1.63868   1.64274   1.65299
  Beta virt. eigenvalues --    1.65927   1.66633   1.67530   1.68105   1.68460
  Beta virt. eigenvalues --    1.69225   1.69796   1.70143   1.70645   1.70899
  Beta virt. eigenvalues --    1.71192   1.71510   1.72392   1.72844   1.73389
  Beta virt. eigenvalues --    1.74312   1.74650   1.75239   1.75756   1.75778
  Beta virt. eigenvalues --    1.76158   1.76515   1.77010   1.77369   1.78030
  Beta virt. eigenvalues --    1.78057   1.78578   1.78599   1.78886   1.79627
  Beta virt. eigenvalues --    1.80265   1.80922   1.81354   1.82057   1.82253
  Beta virt. eigenvalues --    1.82704   1.83082   1.83513   1.84156   1.84747
  Beta virt. eigenvalues --    1.85151   1.86467   1.86737   1.87092   1.87612
  Beta virt. eigenvalues --    1.88271   1.88529   1.89485   1.89512   1.90063
  Beta virt. eigenvalues --    1.90485   1.90963   1.91123   1.91627   1.91938
  Beta virt. eigenvalues --    1.92136   1.92224   1.92947   1.93327   1.93960
  Beta virt. eigenvalues --    1.94653   1.95052   1.95572   1.96291   1.97303
  Beta virt. eigenvalues --    1.97737   1.98098   1.98292   1.99049   1.99309
  Beta virt. eigenvalues --    1.99841   2.00047   2.00289   2.01031   2.01101
  Beta virt. eigenvalues --    2.01583   2.02038   2.02421   2.02962   2.03587
  Beta virt. eigenvalues --    2.03833   2.04581   2.05063   2.05733   2.05892
  Beta virt. eigenvalues --    2.06429   2.06930   2.07281   2.08017   2.08162
  Beta virt. eigenvalues --    2.08561   2.08967   2.09373   2.09855   2.10665
  Beta virt. eigenvalues --    2.11288   2.11467   2.12207   2.13027   2.13481
  Beta virt. eigenvalues --    2.13694   2.14639   2.15353   2.15586   2.15762
  Beta virt. eigenvalues --    2.16066   2.16385   2.16807   2.17451   2.17848
  Beta virt. eigenvalues --    2.18547   2.18896   2.19251   2.20190   2.20377
  Beta virt. eigenvalues --    2.20954   2.21119   2.21356   2.22139   2.22869
  Beta virt. eigenvalues --    2.23426   2.23975   2.24608   2.25325   2.25615
  Beta virt. eigenvalues --    2.25976   2.26340   2.27302   2.27551   2.27758
  Beta virt. eigenvalues --    2.28083   2.28287   2.28741   2.28903   2.29478
  Beta virt. eigenvalues --    2.29762   2.30004   2.30634   2.30741   2.31164
  Beta virt. eigenvalues --    2.31541   2.32124   2.32307   2.32966   2.34104
  Beta virt. eigenvalues --    2.34475   2.34510   2.35068   2.35420   2.35847
  Beta virt. eigenvalues --    2.36052   2.36508   2.36877   2.37094   2.37299
  Beta virt. eigenvalues --    2.37855   2.38369   2.39179   2.39588   2.40359
  Beta virt. eigenvalues --    2.40484   2.40937   2.42120   2.42625   2.42975
  Beta virt. eigenvalues --    2.43297   2.43736   2.43938   2.44503   2.44711
  Beta virt. eigenvalues --    2.45311   2.45959   2.46153   2.46403   2.46769
  Beta virt. eigenvalues --    2.47225   2.47400   2.47687   2.47831   2.48434
  Beta virt. eigenvalues --    2.48851   2.49062   2.49922   2.50051   2.50503
  Beta virt. eigenvalues --    2.50762   2.51053   2.51796   2.51969   2.52506
  Beta virt. eigenvalues --    2.52554   2.53395   2.53746   2.53969   2.54656
  Beta virt. eigenvalues --    2.55162   2.55359   2.55823   2.56441   2.56823
  Beta virt. eigenvalues --    2.56880   2.57191   2.58011   2.58655   2.58799
  Beta virt. eigenvalues --    2.59225   2.59388   2.60276   2.60312   2.60715
  Beta virt. eigenvalues --    2.61059   2.61461   2.61823   2.62722   2.62895
  Beta virt. eigenvalues --    2.63440   2.64019   2.64265   2.64637   2.65166
  Beta virt. eigenvalues --    2.65740   2.66113   2.66630   2.66872   2.67238
  Beta virt. eigenvalues --    2.67840   2.68079   2.68781   2.69375   2.69797
  Beta virt. eigenvalues --    2.70297   2.70677   2.71238   2.71999   2.72390
  Beta virt. eigenvalues --    2.72594   2.73250   2.73413   2.73624   2.74047
  Beta virt. eigenvalues --    2.74624   2.74944   2.75267   2.75906   2.76149
  Beta virt. eigenvalues --    2.76357   2.76770   2.77212   2.77719   2.78287
  Beta virt. eigenvalues --    2.78486   2.78743   2.79173   2.79690   2.79978
  Beta virt. eigenvalues --    2.80200   2.80768   2.80989   2.81648   2.81800
  Beta virt. eigenvalues --    2.82283   2.82409   2.82640   2.82973   2.83580
  Beta virt. eigenvalues --    2.83832   2.84294   2.84788   2.85213   2.85782
  Beta virt. eigenvalues --    2.86193   2.86726   2.86845   2.87030   2.87153
  Beta virt. eigenvalues --    2.87663   2.88028   2.88529   2.89017   2.89447
  Beta virt. eigenvalues --    2.89643   2.90408   2.90704   2.91060   2.91097
  Beta virt. eigenvalues --    2.91371   2.92010   2.92354   2.92872   2.93060
  Beta virt. eigenvalues --    2.94011   2.94111   2.94745   2.95257   2.95727
  Beta virt. eigenvalues --    2.96067   2.96241   2.96618   2.96816   2.97196
  Beta virt. eigenvalues --    2.97346   2.97785   2.98434   2.98716   2.98747
  Beta virt. eigenvalues --    2.99121   2.99257   3.00088   3.00402   3.00604
  Beta virt. eigenvalues --    3.00793   3.00919   3.01154   3.01831   3.02052
  Beta virt. eigenvalues --    3.02478   3.02923   3.03537   3.03987   3.04074
  Beta virt. eigenvalues --    3.04299   3.04620   3.04828   3.05504   3.05641
  Beta virt. eigenvalues --    3.06244   3.06781   3.07091   3.07454   3.07659
  Beta virt. eigenvalues --    3.07961   3.08428   3.08594   3.08858   3.09268
  Beta virt. eigenvalues --    3.09539   3.09780   3.10218   3.10610   3.10790
  Beta virt. eigenvalues --    3.11203   3.11440   3.11480   3.12342   3.12749
  Beta virt. eigenvalues --    3.12972   3.13346   3.13519   3.13866   3.14044
  Beta virt. eigenvalues --    3.14256   3.14883   3.14988   3.15139   3.15383
  Beta virt. eigenvalues --    3.15603   3.16077   3.16255   3.16642   3.16887
  Beta virt. eigenvalues --    3.17195   3.17517   3.17679   3.18110   3.18266
  Beta virt. eigenvalues --    3.18752   3.18984   3.19098   3.19185   3.19711
  Beta virt. eigenvalues --    3.20015   3.20710   3.20857   3.21035   3.21354
  Beta virt. eigenvalues --    3.21547   3.21839   3.22204   3.22318   3.22648
  Beta virt. eigenvalues --    3.23057   3.23096   3.23301   3.23783   3.24067
  Beta virt. eigenvalues --    3.24368   3.24566   3.24663   3.24861   3.25314
  Beta virt. eigenvalues --    3.25825   3.26058   3.26192   3.26630   3.26688
  Beta virt. eigenvalues --    3.27061   3.27341   3.27577   3.27842   3.28002
  Beta virt. eigenvalues --    3.28321   3.28544   3.28732   3.29038   3.29375
  Beta virt. eigenvalues --    3.29851   3.30625   3.30790   3.30938   3.31452
  Beta virt. eigenvalues --    3.32065   3.32224   3.32511   3.32969   3.33768
  Beta virt. eigenvalues --    3.33950   3.34802   3.35210   3.35427   3.35754
  Beta virt. eigenvalues --    3.35846   3.36596   3.37097   3.37317   3.37908
  Beta virt. eigenvalues --    3.38301   3.38675   3.38841   3.39082   3.40663
  Beta virt. eigenvalues --    3.41023   3.41633   3.41712   3.42095   3.42303
  Beta virt. eigenvalues --    3.42570   3.43484   3.43954   3.44978   3.45297
  Beta virt. eigenvalues --    3.45469   3.45974   3.46193   3.46830   3.47326
  Beta virt. eigenvalues --    3.47715   3.48000   3.48844   3.49006   3.49424
  Beta virt. eigenvalues --    3.50066   3.50669   3.51107   3.51395   3.52016
  Beta virt. eigenvalues --    3.52193   3.53198   3.53590   3.54108   3.54352
  Beta virt. eigenvalues --    3.55146   3.55841   3.55954   3.56488   3.56751
  Beta virt. eigenvalues --    3.57559   3.57904   3.58213   3.58722   3.59576
  Beta virt. eigenvalues --    3.59640   3.60486   3.60705   3.60937   3.61574
  Beta virt. eigenvalues --    3.61886   3.62277   3.62793   3.63350   3.63721
  Beta virt. eigenvalues --    3.63790   3.63969   3.64447   3.64853   3.65303
  Beta virt. eigenvalues --    3.65498   3.66467   3.66975   3.67513   3.67992
  Beta virt. eigenvalues --    3.68232   3.69015   3.69483   3.70015   3.70777
  Beta virt. eigenvalues --    3.71511   3.71739   3.72301   3.72922   3.73426
  Beta virt. eigenvalues --    3.73710   3.74490   3.75818   3.76291   3.76875
  Beta virt. eigenvalues --    3.77129   3.77340   3.77827   3.78255   3.78401
  Beta virt. eigenvalues --    3.79527   3.79621   3.81041   3.81506   3.82150
  Beta virt. eigenvalues --    3.82206   3.82328   3.82827   3.83341   3.85201
  Beta virt. eigenvalues --    3.85733   3.86700   3.86893   3.87692   3.88338
  Beta virt. eigenvalues --    3.88752   3.89597   3.89857   3.90078   3.90329
  Beta virt. eigenvalues --    3.91369   3.92058   3.93167   3.93424   3.93562
  Beta virt. eigenvalues --    3.94468   3.95211   3.95229   3.95538   3.96952
  Beta virt. eigenvalues --    3.97698   3.98068   3.98809   3.99109   3.99863
  Beta virt. eigenvalues --    4.01331   4.01895   4.02228   4.02828   4.03206
  Beta virt. eigenvalues --    4.03985   4.04167   4.04382   4.05632   4.05824
  Beta virt. eigenvalues --    4.06660   4.07371   4.08079   4.08478   4.08896
  Beta virt. eigenvalues --    4.09161   4.09791   4.10271   4.11373   4.12195
[...]
  1280. RY*(   1) C  70                  0.00208     1.59592   
  1281. RY*(   2) C  70                  0.00152     1.20981   
  1282. RY*(   3) C  70                  0.00096     1.26834   
  1283. RY*(   4) C  70                  0.00080     2.07991   
  1284. RY*(   5) C  70                  0.00060     1.92865   
  1285. RY*(   6) C  70                  0.00051     1.99194   
  1286. RY*(   7) C  70                  0.00021     2.34791   
  1287. RY*(   8) C  70                  0.00015     1.79824   
  1288. RY*(   9) C  70                  0.00007     2.71200   
  1289. RY*(  10) C  70                  0.00004     2.97534   
  1290. RY*(  11) C  70                  0.00003     3.06680   
  1291. RY*(  12) C  70                  0.00000    18.66451   
  1292. RY*(  13) C  70                  0.00000     1.20371   
  1293. RY*(  14) C  70                  0.00001     4.52081   
  1294. RY*(  15) C  70                  0.00000     2.64629   
  1295. RY*(  16) C  70                  0.00001     2.05462   
  1296. RY*(  17) C  70                  0.00000     3.42215   
  1297. RY*(  18) C  70                  0.00000     1.11850   
  1298. RY*(  19) C  70                  0.00001     1.95222   
  1299. RY*(  20) C  70                  0.00000     3.42804   
  1300. RY*(  21) C  70                  0.00001     3.49793   
  1301. RY*(  22) C  70                  0.00000     3.47529   
  1302. RY*(  23) C  70                  0.00000     3.71787   
  1303. RY*(  24) C  70                  0.00000     3.33985   
  1304. RY*(  25) C  70                  0.00000     3.43157   
  1305. RY*(  26) C  70                  0.00000     3.39703   
  1306. RY*(   1) C  71                  0.00197     1.50437   
  1307. RY*(   2) C  71                  0.00133     0.54933   
  1308. RY*(   3) C  71                  0.00099     1.15462   
  1309. RY*(   4) C  71                  0.00054     2.43892   
  1310. RY*(   5) C  71                  0.00038     1.52623   
  1311. RY*(   6) C  71                  0.00020     1.57639   
  1312. RY*(   7) C  71                  0.00014     1.58269   
  1313. RY*(   8) C  71                  0.00007     2.78330   
  1314. RY*(   9) C  71                  0.00002     3.45261   
  1315. RY*(  10) C  71                  0.00003     2.03137   
  1316. RY*(  11) C  71                  0.00001     2.09384   
  1317. RY*(  12) C  71                  0.00001     1.41125   
  1318. RY*(  13) C  71                  0.00001     2.07478   
  1319. RY*(  14) C  71                  0.00000    21.49772   
  1320. RY*(  15) C  71                  0.00001     2.47069   
  1321. RY*(  16) C  71                  0.00000     3.46231   
  1322. RY*(  17) C  71                  0.00000     2.65306   
  1323. RY*(  18) C  71                  0.00000     2.81898   
  1324. RY*(  19) C  71                  0.00001     2.67409   
  1325. RY*(  20) C  71                  0.00001     3.72361   
  1326. RY*(  21) C  71                  0.00000     4.00407   
  1327. RY*(  22) C  71                  0.00000     3.37774   
  1328. RY*(  23) C  71                  0.00000     3.73110   
  1329. RY*(  24) C  71                  0.00000     3.41713   
  1330. RY*(  25) C  71                  0.00000     3.49307   
  1331. RY*(  26) C  71                  0.00000     3.25160   
  1332. RY*(   1) H  72                  0.00030     0.77684   
  1333. RY*(   2) H  72                  0.00014     2.20168   
  1334. RY*(   3) H  72                  0.00010     1.97923   
  1335. RY*(   4) H  72                  0.00005     2.29748   
  1336. RY*(   5) H  72                  0.00001     3.02526   
  1337. RY*(   1) N  73                  0.00345     1.03471   
  1338. RY*(   2) N  73                  0.00295     1.39651   
  1339. RY*(   3) N  73                  0.00153     0.92338   
  1340. RY*(   4) N  73                  0.00065     1.26933   
  1341. RY*(   5) N  73                  0.00039     1.87650   
  1342. RY*(   6) N  73                  0.00024     2.14283   
  1343. RY*(   7) N  73                  0.00019     2.33048   
  1344. RY*(   8) N  73                  0.00016     3.00481   
  1345. RY*(   9) N  73                  0.00007     2.92648   
  1346. RY*(  10) N  73                  0.00005     2.52758   
  1347. RY*(  11) N  73                  0.00003     3.26391   
  1348. RY*(  12) N  73                  0.00004     2.84104   
  1349. RY*(  13) N  73                  0.00003     2.86894   
  1350. RY*(  14) N  73                  0.00000    31.32578   
  1351. RY*(  15) N  73                  0.00000     4.22941   
  1352. RY*(  16) N  73                  0.00001     3.96049   
  1353. RY*(  17) N  73                  0.00000     4.25050   
  1354. RY*(  18) N  73                  0.00001     4.63209   
  1355. RY*(  19) N  73                  0.00001     3.45241   
  1356. RY*(  20) N  73                  0.00000     4.27082   
  1357. RY*(  21) N  73                  0.00001     4.80517   
  1358. RY*(  22) N  73                  0.00000     3.94597   
  1359. RY*(  23) N  73                  0.00000     4.42476   
  1360. RY*(  24) N  73                  0.00000     4.49333   
  1361. RY*(  25) N  73                  0.00000     4.54121   
  1362. RY*(  26) N  73                  0.00000     4.39064   
  1363. RY*(   1) C  74                  0.00197     0.68448   
  1364. RY*(   2) C  74                  0.00178     1.52376   
  1365. RY*(   3) C  74                  0.00081     1.68414   
  1366. RY*(   4) C  74                  0.00033     1.92893   
  1367. RY*(   5) C  74                  0.00028     1.63641   
  1368. RY*(   6) C  74                  0.00022     1.59165   
  1369. RY*(   7) C  74                  0.00022     1.66072   
  1370. RY*(   8) C  74                  0.00011     1.81459   
  1371. RY*(   9) C  74                  0.00008     1.95106   
  1372. RY*(  10) C  74                  0.00006     1.54815   
  1373. RY*(  11) C  74                  0.00003     1.97517   
  1374. RY*(  12) C  74                  0.00004     1.64537   
  1375. RY*(  13) C  74                  0.00002     3.05104   
  1376. RY*(  14) C  74                  0.00002     2.35482   
  1377. RY*(  15) C  74                  0.00000     3.05084   
  1378. RY*(  16) C  74                  0.00000    21.00511   
  1379. RY*(  17) C  74                  0.00000     3.64672   
  1380. RY*(  18) C  74                  0.00001     2.28254   
  1381. RY*(  19) C  74                  0.00001     1.31439   
  1382. RY*(  20) C  74                  0.00000     3.79472   
  1383. RY*(  21) C  74                  0.00000     3.92085   
  1384. RY*(  22) C  74                  0.00000     3.33661   
  1385. RY*(  23) C  74                  0.00000     3.59687   
  1386. RY*(  24) C  74                  0.00000     3.24217   
  1387. RY*(  25) C  74                  0.00000     3.50039   
  1388. RY*(  26) C  74                  0.00000     3.30889   
  1389. RY*(   1) H  75                  0.00032     0.85996   
  1390. RY*(   2) H  75                  0.00013     2.11029   
  1391. RY*(   3) H  75                  0.00011     2.17698   
  1392. RY*(   4) H  75                  0.00003     2.57465   
  1393. RY*(   5) H  75                  0.00001     2.97398   
  1394. BD*(   1)Fe   1 - N   3          0.05287     0.19283   
  1395. BD*(   1)Fe   1 - N   5          0.05189     0.19209   
  1396. BD*(   1)Fe   1 - N  73          0.04819     0.02974   
  1397. BD*(   1) N   2 - C   6          0.01341     0.38748   
  1398. BD*(   2) N   2 - C   6          0.32496    -0.10883  1444(v),1412(v),1417(v)
                                                    290(g),152(r),184(g),704(v)
                                                    1404(r)
  1399. BD*(   1) N   2 - C   9          0.01321     0.39016   
  1400. BD*(   1) N   3 - C  10          0.01370     0.38309   
  1401. BD*(   2) N   3 - C  10          0.33092    -0.11046  1417(v),1421(v),1426(v)
                                                    150(v),394(g),152(v),1407(r)
                                                    212(g),735(v)
  1402. BD*(   1) N   3 - C  13          0.01343     0.38171   
  1403. BD*(   1) N   4 - C  14          0.01296     0.39104   
  1404. BD*(   2) N   4 - C  14          0.31520    -0.10718  1426(v),1430(v),1435(v)
                                                    498(g),152(r),236(g),1398(r)
  1405. BD*(   1) N   4 - C  17          0.01335     0.38609   
  1406. BD*(   1) N   5 - C  18          0.01306     0.38428   
  1407. BD*(   2) N   5 - C  18          0.32964    -0.11121  1435(v),1439(v),1444(v)
                                                    150(v),602(g),152(v),264(g)
                                                    1401(r),801(v)
  1408. BD*(   1) N   5 - C  21          0.01368     0.37737   
  1409. BD*(   1) C   6 - C   7          0.01750     0.38257   
  1410. BD*(   1) C   6 - C  22          0.01028     0.46598   
  1411. BD*(   1) C   7 - C   8          0.01150     0.50451   
  1412. BD*(   2) C   7 - C   8          0.11674    -0.03352  1417(v),1398(v),1450(v)
                                                    1452(v),1453(v),1449(v)
  1413. BD*(   1) C   7 - C  30          0.00809     0.31773   
  1414. BD*(   1) C   8 - C   9          0.01719     0.38240   
  1415. BD*(   1) C   8 - C  34          0.00804     0.31896   
  1416. BD*(   1) C   9 - C  24          0.01016     0.46644   
  1417. BD*(   2) C   9 - C  24          0.19742    -0.06271  1401(v),1412(v),1398(v)
                                                    1435(r),735(g),1426(r)
                                                    370(g),1444(r)
  1418. BD*(   1) C  10 - C  11          0.01719     0.38016   
  1419. BD*(   1) C  10 - C  24          0.01015     0.46670   
  1420. BD*(   1) C  11 - C  12          0.01153     0.50233   
  1421. BD*(   2) C  11 - C  12          0.11971    -0.03525  1426(v),1401(v),1476(v)
                                                    1471(v),1472(v),1475(v)
  1422. BD*(   1) C  11 - C  60          0.00804     0.31632   
  1423. BD*(   1) C  12 - C  13          0.01743     0.37954   
  1424. BD*(   1) C  12 - C  56          0.00805     0.31589   
  1425. BD*(   1) C  13 - C  26          0.01038     0.46459   
  1426. BD*(   2) C  13 - C  26          0.19566    -0.06494  1404(v),1421(v),1401(v)
                                                    1417(r),1435(r),766(g)
  1427. BD*(   1) C  14 - C  15          0.01711     0.38004   
  1428. BD*(   1) C  14 - C  26          0.01035     0.46392   
  1429. BD*(   1) C  15 - C  16          0.01260     0.48931   
  1430. BD*(   2) C  15 - C  16          0.13502    -0.03691  1468(v),1435(v),1404(v)
                                                    1463(v),1464(v)
  1431. BD*(   1) C  15 - C  51          0.01335     0.39863   
  1432. BD*(   1) C  16 - C  17          0.01679     0.38895   
  1433. BD*(   1) C  16 - C  47          0.00766     0.32129   
  1434. BD*(   1) C  17 - C  28          0.01033     0.46583   
  1435. BD*(   2) C  17 - C  28          0.19751    -0.06267  1407(v),1430(v),1404(v)
                                                    1417(r),1426(r),798(g)
                                                    578(g),1444(r)
  1436. BD*(   1) C  18 - C  19          0.01680     0.37567   
  1437. BD*(   1) C  18 - C  28          0.01012     0.46701   
  1438. BD*(   1) C  19 - C  20          0.01267     0.48541   
  1439. BD*(   2) C  19 - C  20          0.14058    -0.04093  1460(v),1444(v),1407(v)
                                                    1455(v),1456(v)
  1440. BD*(   1) C  19 - C  42          0.01332     0.39553   
  1441. BD*(   1) C  20 - C  21          0.01696     0.38639   
  1442. BD*(   1) C  20 - C  38          0.00776     0.31571   
  1443. BD*(   1) C  21 - C  22          0.01048     0.45886   
  1444. BD*(   2) C  21 - C  22          0.20712    -0.06855  1398(v),1439(v),1407(v)
                                                    704(g),681(g),1435(r)
                                                    1417(r)
  1445. BD*(   1) C  22 - H  23          0.00625     0.32753   
  1446. BD*(   1) C  24 - H  25          0.00595     0.32741   
  1447. BD*(   1) C  26 - H  27          0.00636     0.32877   
  1448. BD*(   1) C  28 - H  29          0.00629     0.32774   
  1449. BD*(   1) C  30 - H  31          0.00467     0.28926   
  1450. BD*(   1) C  30 - H  32          0.00470     0.29234   
  1451. BD*(   1) C  30 - H  33          0.00300     0.30464   
  1452. BD*(   1) C  34 - H  35          0.00464     0.29312   
  1453. BD*(   1) C  34 - H  36          0.00460     0.29147   
  1454. BD*(   1) C  34 - H  37          0.00301     0.30510   
  1455. BD*(   1) C  38 - H  39          0.00531     0.28840   
  1456. BD*(   1) C  38 - H  40          0.00437     0.29154   
  1457. BD*(   1) C  38 - H  41          0.00364     0.30229   
  1458. BD*(   1) C  42 - H  43          0.01023     0.32977   
  1459. BD*(   1) C  42 - C  44          0.00368     0.54056   
  1460. BD*(   2) C  42 - C  44          0.02809    -0.03221   
  1461. BD*(   1) C  44 - H  45          0.00511     0.34729   
  1462. BD*(   1) C  44 - H  46          0.00383     0.35115   
  1463. BD*(   1) C  47 - H  48          0.00535     0.29322   
  1464. BD*(   1) C  47 - H  49          0.00450     0.29687   
  1465. BD*(   1) C  47 - H  50          0.00370     0.30712   
  1466. BD*(   1) C  51 - H  52          0.01043     0.33162   
  1467. BD*(   1) C  51 - C  53          0.00366     0.54348   
  1468. BD*(   2) C  51 - C  53          0.02956    -0.02920   
  1469. BD*(   1) C  53 - H  54          0.00509     0.35067   
  1470. BD*(   1) C  53 - H  55          0.00385     0.35397   
  1471. BD*(   1) C  56 - H  57          0.00450     0.29125   
  1472. BD*(   1) C  56 - H  58          0.00439     0.28861   
  1473. BD*(   1) C  56 - H  59          0.00299     0.30274   
  1474. BD*(   1) C  60 - H  61          0.00299     0.30277   
  1475. BD*(   1) C  60 - H  62          0.00434     0.28976   
  1476. BD*(   1) C  60 - H  63          0.00445     0.29089   
  1477. BD*(   1) C  64 - H  65          0.00491     0.26583   
  1478. BD*(   1) C  64 - H  66          0.00152     0.27747   
  1479. BD*(   1) C  64 - H  67          0.00487     0.26601   
  1480. BD*(   1) C  64 - C  70          0.00602     0.28263   
  1481. BD*(   1) N  68 - H  69          0.00637     0.25724   
  1482. BD*(   1) N  68 - C  70          0.01370     0.31149   
  1483. BD*(   1) N  68 - C  71          0.01011     0.32101   
  1484. BD*(   1) C  70 - C  74          0.01033     0.44437   
  1485. BD*(   1) C  71 - H  72          0.00855     0.26411   
  1486. BD*(   1) C  71 - N  73          0.00805     0.40215   
  1487. BD*(   1) N  73 - C  74          0.00777     0.34845   
  1488. BD*(   2) N  73 - C  74          0.34277    -0.14496  91(v),156(v),150(v),1363(g)
                                                    1307(v),1339(g),1381(g)
                                                    1341(g),151(v)
  1489. BD*(   1) C  74 - H  75          0.00697     0.30648   
       -------------------------------
              Total Lewis  147.23929  ( 96.8680%)
        Valence non-Lewis    4.48336  (  2.9496%)
        Rydberg non-Lewis    0.27736  (  0.1825%)
       -------------------------------
            Total unit  1  152.00000  (100.0000%)
           Charge unit  1    1.00000
 Unable to Open any file for archive entry.
 1\1\GINC-BGN1036\SP\UAPFD\def2TZVP\C34H34Fe1N6(1+,2)\BECSLEIP\10-Sep-2
 024\0\\# apfd/def2TZVP guess=read scf=maxcycle=999 geom=check pop=nbo\
 \2yli_III_D\\1,2\Fe,0,6.7599486685,38.9330152162,21.7423595988\N,0,7.5
 345570481,37.797881057,20.2949830978\N,0,7.3640926813,37.6000775966,23
 .0946300483\N,0,5.7333662232,39.9073979584,23.1605320404\N,0,5.9547657
 289,40.1378297312,20.3624127537\C,0,7.4896845623,38.0322941709,18.9526
 612729\C,0,8.1194006054,36.9579126646,18.2191469332\C,0,8.5421038616,3
 6.0597223322,19.1482363754\C,0,8.1659244698,36.5989658305,20.435561334
 9\C,0,8.0399214326,36.4378473228,22.8733769774\C,0,8.3119995246,35.752
 587672,24.1164790987\C,0,7.7467973509,36.5046391304,25.0975769105\C,0,
 7.1424912684,37.6412433156,24.4386714838\C,0,5.7361373906,39.645602830
 1,24.4952577073\C,0,4.8897502081,40.5805864338,25.2087766754\C,0,4.362
 1310916,41.4121964087,24.2577262926\C,0,4.8952676936,40.9715310362,22.
 9944258527\C,0,5.1284685656,41.1998610006,20.5670969437\C,0,4.88728538
 55,41.9141959064,19.3294452073\C,0,5.5405363675,41.2091551025,18.35420
 91808\C,0,6.1790758304,40.1015056358,19.0164627373\C,0,6.9145776777,39
 .1346540997,18.3540058399\H,0,6.9818255178,39.2081117861,17.2792001285
 \C,0,8.4344849853,35.970249872,21.6358534891\H,0,8.9588109029,35.02779
 44271,21.6003130928\C,0,6.4212948153,38.6119958255,25.1050061079\H,0,6
 .3293202875,38.5138499011,26.1758206173\C,0,4.6160134405,41.5863638422
 ,21.7887760533\H,0,3.9355918407,42.4237427908,21.8020587416\C,0,8.2288
 908129,36.9049779744,16.7338277449\H,0,8.7840082138,37.7644790717,16.3
 567291891\H,0,7.2389636871,36.9153353605,16.2774460437\H,0,8.742098099
 6,36.0006666382,16.4165963947\C,0,9.2403281004,34.7576708115,18.955122
 0636\H,0,8.6418394174,33.9401446058,19.3572891263\H,0,10.2016043014,34
 .758006781,19.4694694644\H,0,9.4163925953,34.5656037312,17.8996221412\
 C,0,5.6663447557,41.5284711201,16.9052064194\H,0,4.9630156236,40.93868
 14662,16.3153078024\H,0,6.6715012772,41.3118324074,16.5459122211\H,0,5
 .4555935535,42.5824798848,16.7365678343\C,0,4.1007635933,43.1234426108
 ,19.2179705849\H,0,4.146142763,43.7888929121,20.072389798\C,0,3.348150
 9189,43.4629286912,18.1767498114\H,0,3.2272379768,42.8201490432,17.322
 4671553\H,0,2.8002404346,44.390473282,18.1567954931\C,0,3.4674619055,4
 2.586688036,24.4476930056\H,0,2.4327735357,42.3273522638,24.2182190059
 \H,0,3.762073,43.4062357103,23.7939174311\H,0,3.5159660442,42.92957698
 57,25.4791191216\C,0,4.696763728,40.5880129856,26.6427806984\H,0,5.556
 7529333,40.2920588894,27.2328503372\C,0,3.569900506,40.9148153245,27.2
 66557137\H,0,2.6717128515,41.1684017489,26.731239633\H,0,3.5001498563,
 40.911590967,28.341750841\C,0,7.7052008296,36.2653141812,26.5677582643
 \H,0,6.6747716997,36.1634974051,26.9095888348\H,0,8.1598856653,37.0979
 657222,27.1056206433\H,0,8.2428557676,35.3559863607,26.8262157871\C,0,
 9.0537504214,34.4642822552,24.2202967071\H,0,9.1500750455,34.156697716
 ,25.2589373138\H,0,10.0534996871,34.5634233955,23.7961732188\H,0,8.531
 3007347,33.6767533553,23.676361791\C,0,11.0505273782,41.9177413056,23.
 7163395006\H,0,12.0595086478,41.5524981198,23.52590816\H,0,10.79906147
 72,41.7209196759,24.75360953\H,0,11.0415627431,42.9951805957,23.553056
 0951\N,0,10.1373923789,41.3182689749,21.4636342187\H,0,10.831058585,41
 .8230366898,20.936492563\C,0,10.0697129403,41.2423226822,22.8297570345
 \C,0,9.108562279,40.6000787008,20.9602294926\H,0,8.9124598934,40.48304
 58413,19.9134288424\N,0,8.3906021782,40.0719956921,21.9252716041\C,0,8
 .9792537834,40.4643981147,23.0950283438\H,0,8.5796619538,40.1618130155
 ,24.0416329634\\Version=ES64L-G16RevC.02\State=2-A\HF=-2907.4048716\S2
 =0.876389\S2-1=0.\S2A=0.754311\RMSD=2.349e-09\Dipole=2.2197589,0.96628
 47,-0.2090608\Quadrupole=-7.0390826,-1.9085689,8.9476516,-8.0889406,-2
 .3662453,-3.6514986\PG=C01 [X(C34H34Fe1N6)]\\@
 The archive entry for this job was punched.


 THE BEST WAY TO CONVINCE A FOOL THAT HE IS WRONG 
 IS TO LET HIM HAVE HIS OWN WAY.

                                         JOSH BILLINGS
 Job cpu time:       3 days 20 hours 38 minutes 33.2 seconds.
 Elapsed time:       0 days  1 hours 24 minutes  5.1 seconds.
 File lengths (MBytes):  RWF=   2047 Int=      0 D2E=      0 Chk=    186 Scr=      1
 Normal termination of Gaussian 16 at Tue Sep 10 16:05:51 2024.
=      0 D2E=      0 Chk=    186 Scr=      1
 Normal termination of Gaussian 16 at Tue Sep 10 15:41:03 2024.
