 Entering Gaussian System, Link 0=g16
 Input=2z6s01.com
 Output=2z6s01.log
 Initial command:
 /sw/chem/gaussian/g16_C02/a100/g16/l1.exe "/local/becsleip_8010939/Gau-3034941.inp" -scrdir="/local/becsleip_8010939/"
 Entering Link 1 = /sw/chem/gaussian/g16_C02/a100/g16/l1.exe PID=   3034942.
  
 Copyright (c) 1988-2021, Gaussian, Inc.  All Rights Reserved.
  
 This is part of the Gaussian(R) 16 program.  It is based on
 the Gaussian(R) 09 system (copyright 2009, Gaussian, Inc.),
 the Gaussian(R) 03 system (copyright 2003, Gaussian, Inc.),
 the Gaussian(R) 98 system (copyright 1998, Gaussian, Inc.),
 the Gaussian(R) 94 system (copyright 1995, Gaussian, Inc.),
 the Gaussian 92(TM) system (copyright 1992, Gaussian, Inc.),
 the Gaussian 90(TM) system (copyright 1990, Gaussian, Inc.),
 the Gaussian 88(TM) system (copyright 1988, Gaussian, Inc.),
 the Gaussian 86(TM) system (copyright 1986, Carnegie Mellon
 University), and the Gaussian 82(TM) system (copyright 1983,
 Carnegie Mellon University). Gaussian is a federally registered
 trademark of Gaussian, Inc.
  
 This software contains proprietary and confidential information,
 including trade secrets, belonging to Gaussian, Inc.
  
 This software is provided under written license and may be
 used, copied, transmitted, or stored only in accord with that
 written license.
  
 The following legend is applicable only to US Government
 contracts under FAR:
  
                    RESTRICTED RIGHTS LEGEND
  
 Use, reproduction and disclosure by the US Government is
 subject to restrictions as set forth in subparagraphs (a)
 and (c) of the Commercial Computer Software - Restricted
 Rights clause in FAR 52.227-19.
  
 Gaussian, Inc.
 340 Quinnipiac St., Bldg. 40, Wallingford CT 06492
  
  
 ---------------------------------------------------------------
 Warning -- This program may not be used in any manner that
 competes with the business of Gaussian, Inc. or will provide
 assistance to any competitor of Gaussian, Inc.  The licensee
 of this program is prohibited from giving any competitor of
 Gaussian, Inc. access to this program.  By using this program,
 the user acknowledges that Gaussian, Inc. is engaged in the
 business of creating and licensing software in the field of
 computational chemistry and represents and warrants to the
 licensee that it is not a competitor of Gaussian, Inc. and that
 it will not use this program in any manner prohibited above.
 ---------------------------------------------------------------
  

 Cite this work as:
 Gaussian 16, Revision C.02,
 M. J. Frisch, G. W. Trucks, H. B. Schlegel, G. E. Scuseria, 
 M. A. Robb, J. R. Cheeseman, G. Scalmani, V. Barone, 
 G. A. Petersson, H. Nakatsuji, X. Li, M. Caricato, A. V. Marenich, 
 J. Bloino, B. G. Janesko, R. Gomperts, B. Mennucci, H. P. Hratchian, 
 J. V. Ortiz, A. F. Izmaylov, J. L. Sonnenberg, D. Williams-Young, 
 F. Ding, F. Lipparini, F. Egidi, J. Goings, B. Peng, A. Petrone, 
 T. Henderson, D. Ranasinghe, V. G. Zakrzewski, J. Gao, N. Rega, 
 G. Zheng, W. Liang, M. Hada, M. Ehara, K. Toyota, R. Fukuda, 
 J. Hasegawa, M. Ishida, T. Nakajima, Y. Honda, O. Kitao, H. Nakai, 
 T. Vreven, K. Throssell, J. A. Montgomery, Jr., J. E. Peralta, 
 F. Ogliaro, M. J. Bearpark, J. J. Heyd, E. N. Brothers, K. N. Kudin, 
 V. N. Staroverov, T. A. Keith, R. Kobayashi, J. Normand, 
 K. Raghavachari, A. P. Rendell, J. C. Burant, S. S. Iyengar, 
 J. Tomasi, M. Cossi, J. M. Millam, M. Klene, C. Adamo, R. Cammi, 
 J. W. Ochterski, R. L. Martin, K. Morokuma, O. Farkas, 
 J. B. Foresman, and D. J. Fox, Gaussian, Inc., Wallingford CT, 2019.
 
 ******************************************
 Gaussian 16:  ES64L-G16RevC.02  7-Dec-2021
                10-Sep-2024 
 ******************************************
 %mem=16GB
 %CPU=0-71
 SetSPE:  set environment variable "OMP_PROC_BIND" = "true"
 SetSPE:  set environment variable "OMP_PLACES" = "{0},{1},{2},{3},{4},{5},{6},{7},{8},{9},{10},{11},{12},{13},{14},{15},{16},{17},{18},{19},{20},{21},{22},{23},{24},{25},{26},{27},{28},{29},{30},{31},{32},{33},{34},{35},{36},{37},{38},{39},{40},{41},{42},{43},{44},{45},{46},{47},{48},{49},{50},{51},{52},{53},{54},{55},{56},{57},{58},{59},{60},{61},{62},{63},{64},{65},{66},{67},{68},{69},{70},{71}"
 Will use up to   72 processors via shared memory.
 %gpucpu=0,1,2,3=0,1,2,3
 Will use    4 GPUs:
 Thread  CPU   GPU
      0    0     0
      1    1     1
      2    2     2
      3    3     3
      4    4    -1
      5    5    -1
      6    6    -1
      7    7    -1
      8    8    -1
      9    9    -1
     10   10    -1
     11   11    -1
     12   12    -1
     13   13    -1
     14   14    -1
     15   15    -1
     16   16    -1
     17   17    -1
     18   18    -1
     19   19    -1
     20   20    -1
     21   21    -1
     22   22    -1
     23   23    -1
     24   24    -1
     25   25    -1
     26   26    -1
     27   27    -1
     28   28    -1
     29   29    -1
     30   30    -1
     31   31    -1
     32   32    -1
     33   33    -1
     34   34    -1
     35   35    -1
     36   36    -1
     37   37    -1
     38   38    -1
     39   39    -1
     40   40    -1
     41   41    -1
     42   42    -1
     43   43    -1
     44   44    -1
     45   45    -1
     46   46    -1
     47   47    -1
     48   48    -1
     49   49    -1
     50   50    -1
     51   51    -1
     52   52    -1
     53   53    -1
     54   54    -1
     55   55    -1
     56   56    -1
     57   57    -1
     58   58    -1
     59   59    -1
     60   60    -1
     61   61    -1
     62   62    -1
     63   63    -1
     64   64    -1
     65   65    -1
     66   66    -1
     67   67    -1
     68   68    -1
     69   69    -1
     70   70    -1
     71   71    -1
 SetGPE:  set environment variable "OMP_PROC_BIND" = "true"
 SetGPE:  set environment variable "OMP_PLACES" = "{0},{1},{2},{3},{4},{5},{6},{7},{8},{9},{10},{11},{12},{13},{14},{15},{16},{17},{18},{19},{20},{21},{22},{23},{24},{25},{26},{27},{28},{29},{30},{31},{32},{33},{34},{35},{36},{37},{38},{39},{40},{41},{42},{43},{44},{45},{46},{47},{48},{49},{50},{51},{52},{53},{54},{55},{56},{57},{58},{59},{60},{61},{62},{63},{64},{65},{66},{67},{68},{69},{70},{71}"
 %chk=2z6s_II_O.chk
 Properties for Device   0
 Minimum vector length:                              32
 Maximum vector length:                            1024
 Number of SMPs:                                    108
 Maximum number of threads per SMP:                2048
 Number of ASync Engines:                             5
 Memory:                                           9207742464
 Properties for Device   1
 Minimum vector length:                              32
 Maximum vector length:                            1024
 Number of SMPs:                                    108
 Maximum number of threads per SMP:                2048
 Number of ASync Engines:                             5
 Memory:                                           9207742464
 Properties for Device   2
 Minimum vector length:                              32
 Maximum vector length:                            1024
 Number of SMPs:                                    108
 Maximum number of threads per SMP:                2048
 Number of ASync Engines:                             5
 Memory:                                           9207742464
 Properties for Device   3
 Minimum vector length:                              32
 Maximum vector length:                            1024
 Number of SMPs:                                    108
 Maximum number of threads per SMP:                2048
 Number of ASync Engines:                             5
 Memory:                                           9207742464
   8286968217 words of memory will be used on each GPU.
 ------------------------------------------
 # polar def2tzvp apfd int=(grid=ultrafine)
 ------------------------------------------
 1/38=1,172=1/1;
 2/12=2,17=6,18=5,40=1/2;
 3/5=44,7=101,11=2,25=1,30=1,74=-44,75=-5/1,2,3;
 4//1;
 5/5=2,38=5,98=1/2;
 8/6=4,10=90,11=11/1;
 10/6=1,13=10/2;
 6/7=2,8=2,9=2,10=2,28=1/1;
 99/5=1,9=1/99;
 ---------
 2z6s_II_S
 ---------
 Symbolic Z-matrix:
 Charge =  0 Multiplicity = 1
 Fe                   -0.62377   27.02126   15.32252 
 N                    -2.00227   28.33578   15.99508 
 N                    -2.08193   25.71282   14.8245 
 N                     0.76774   25.6909   14.67629 
 N                     0.83497   28.32574   15.83231 
 C                    -1.77467   29.5727   16.50651 
 C                    -3.03041   30.22347   16.81245 
 C                    -4.01359   29.33787   16.48747 
 C                    -3.34885   28.16186   15.96823 
 C                    -3.41572   25.89808   14.99977 
 C                    -4.14565   24.73848   14.54898 
 C                    -3.20924   23.83546   14.11861 
 C                    -1.91913   24.47871   14.28592 
 C                     0.54054   24.42809   14.23094 
 C                     1.78584   23.72638   14.05155 
 C                     2.7758    24.59411   14.4316 
 C                     2.10842   25.821    14.82283 
 C                     2.16954   28.09961   15.74866 
 C                     2.90445   29.21759   16.30467 
 C                     1.97377   30.10897   16.74189 
 C                     0.68102   29.52959   16.43939 
 C                    -0.52897   30.12581   16.74663 
 H                    -0.50095   31.10344   17.20289 
 C                    -4.00846   27.02472   15.54241 
 H                    -5.0846    27.02134   15.63064 
 C                    -0.70656   23.87293   14.00522 
 H                    -0.73821   22.86176   13.62814 
 C                     2.76921   26.9594   15.25018 
 H                     3.84718   26.91656   15.29483 
 C                    -5.49153   29.47972   16.61574 
 H                    -5.7564    30.45434   17.01605 
 H                    -5.88129   28.71608   17.28678 
 H                    -5.98153   29.35747   15.65043 
 C                    -3.14451   31.58587   17.40163 
 H                    -2.63698   32.32258   16.78058 
 H                    -2.68224   31.60471   18.38701 
 H                    -4.18571   31.87969   17.50553 
 C                    -5.62744   24.60743   14.54277 
 H                    -6.09161   25.55174   14.26553 
 H                    -6.00005   24.32465   15.527 
 H                    -5.92755   23.84428   13.82928 
 C                    -3.4049    22.51661   13.55652 
 H                    -2.69433   22.22225   12.79398 
 C                    -4.35145   21.66     13.9239 
 H                    -5.03626   21.8729   14.72372 
 H                    -4.44989   20.69543   13.45926 
 C                     1.91707   22.34588   13.51407 
 H                     1.20186   22.17272   12.71065 
 H                     1.72649   21.61412   14.29872 
 H                     2.922     22.18279   13.12874 
 C                     4.20772   24.39095   14.44678 
 H                     4.80858   25.26312   14.21983 
 C                     4.81745   23.2452   14.73007 
 H                     4.27295   22.36136   15.01425 
 H                     5.8918    23.16288   14.72506 
 C                     4.38808   29.29562   16.376 
 H                     4.82163   29.19472   15.38398 
 H                     4.78286   28.49622   16.99777 
 H                     4.70549   30.24554   16.79571 
 C                     2.16682   31.41434   17.42991 
 H                     1.69063   32.21624   16.86876 
 H                     3.22287   31.64491   17.53281 
 H                     1.72372   31.38724   18.42344 
 O                    -0.61667   26.32171   16.85651 
 O                     0.49802   26.0675   17.42817 
 C                    -0.03335   28.39781   9.65629 
 H                     0.41011   29.36094   9.40528 
 H                    -0.88297   28.23006   8.99522 
 H                     0.70248   27.62039   9.47984 
 N                    -1.38765   29.24179   11.58651 
 H                    -1.86051   29.96431   11.06818 
 C                    -0.45891   28.37059   11.07734 
 C                    -1.54516   28.95286   12.89549 
 H                    -2.21332   29.47672   13.54828 
 N                    -0.77821   27.95481   13.24807 
 C                    -0.09416   27.58132   12.13051 
 H                     0.60849   26.77517   12.16195 
 
 Stoichiometry    C34H34FeN6O2
 Framework group  C1[X(C34H34FeN6O2)]
 Deg. of freedom   225
 Full point group                 C1      NOp   1
 Largest Abelian subgroup         C1      NOp   1
 Largest concise Abelian subgroup C1      NOp   1
                         Standard orientation:                         
 ---------------------------------------------------------------------
 Center     Atomic      Atomic             Coordinates (Angstroms)
 Number     Number       Type             X           Y           Z
 ---------------------------------------------------------------------
      1         26           0       -0.150455   -0.124640   -0.327137
      2          7           0       -2.134893   -0.465636   -0.489213
      3          7           0       -0.468366    1.871426   -0.357464
      4          7           0        1.847740    0.212395   -0.195223
      5          7           0        0.167672   -2.121623   -0.309221
      6          6           0       -2.760655   -1.670318   -0.511400
      7          6           0       -4.194501   -1.485202   -0.572972
      8          6           0       -4.409251   -0.140064   -0.604717
      9          6           0       -3.104697    0.483492   -0.542929
     10          6           0       -1.673738    2.486951   -0.468132
     11          6           0       -1.505074    3.919463   -0.479863
     12          6           0       -0.156959    4.150672   -0.398123
     13          6           0        0.472859    2.846558   -0.304551
     14          6           0        2.474461    1.416348   -0.243987
     15          6           0        3.901965    1.237591   -0.318944
     16          6           0        4.120550   -0.114794   -0.344911
     17          6           0        2.812248   -0.736342   -0.268994
     18          6           0        1.377356   -2.734630   -0.298748
     19          6           0        1.213891   -4.170628   -0.400097
     20          6           0       -0.124516   -4.398725   -0.492408
     21          6           0       -0.763907   -3.100081   -0.436849
     22          6           0       -2.130727   -2.902586   -0.519015
     23          1           0       -2.757436   -3.778582   -0.586724
     24          6           0       -2.897936    1.849536   -0.568910
     25          1           0       -3.772831    2.475076   -0.664470
     26          6           0        1.841522    2.646689   -0.250548
     27          1           0        2.467519    3.526152   -0.268833
     28          6           0        2.605389   -2.104482   -0.243956
     29          1           0        3.479722   -2.736445   -0.288950
     30          6           0       -5.695086    0.608539   -0.689102
     31          1           0       -6.541795   -0.071885   -0.709135
     32          1           0       -5.716490    1.209216   -1.596892
     33          1           0       -5.812297    1.281697    0.159421
     34          6           0       -5.180115   -2.599702   -0.625631
     35          1           0       -5.060165   -3.266363    0.227130
     36          1           0       -5.030829   -3.185571   -1.530888
     37          1           0       -6.198398   -2.219813   -0.626933
     38          6           0       -2.611287    4.912312   -0.538682
     39          1           0       -3.456300    4.576049    0.058752
     40          1           0       -2.957067    5.053679   -1.562384
     41          1           0       -2.268266    5.870253   -0.156318
     42          6           0        0.551293    5.411769   -0.358302
     43          1           0        1.445726    5.427630    0.252238
     44          6           0        0.202739    6.507479   -1.023615
     45          1           0       -0.633017    6.525269   -1.698292
     46          1           0        0.767695    7.418791   -0.944143
     47          6           0        4.900506    2.339769   -0.320829
     48          1           0        4.598197    3.138331    0.355858
     49          1           0        4.995852    2.762892   -1.320494
     50          1           0        5.875599    1.968720   -0.010225
     51          6           0        5.373952   -0.832921   -0.416959
     52          1           0        5.408307   -1.773328    0.119380
     53          6           0        6.447580   -0.437227   -1.091883
     54          1           0        6.452630    0.460796   -1.685135
     55          1           0        7.351844   -1.023022   -1.105099
     56          6           0        2.337748   -5.144721   -0.421234
     57          1           0        2.950569   -5.036639    0.470396
     58          1           0        2.972574   -4.976275   -1.287328
     59          1           0        1.965192   -6.163941   -0.461749
     60          6           0       -0.853912   -5.685727   -0.654412
     61          1           0       -1.567908   -5.824926    0.155222
     62          1           0       -0.163891   -6.524097   -0.654125
     63          1           0       -1.402340   -5.693785   -1.594268
     64          8           0       -0.074373   -0.067449   -2.010436
     65          8           0        0.837059   -0.721881   -2.622780
     66          6           0        0.742530    0.185526    5.456972
     67          1           0        0.605084   -0.720075    6.047129
     68          1           0        0.299838    1.018855    6.001583
     69          1           0        1.805954    0.369306    5.345896
     70          7           0       -1.223080   -0.195875    3.952627
     71          1           0       -1.898634   -0.291085    4.693482
     72          6           0        0.117620    0.039846    4.119263
     73          6           0       -1.462636   -0.276311    2.626789
     74          1           0       -2.429698   -0.454938    2.202646
     75          7           0       -0.361775   -0.105363    1.943031
     76          6           0        0.631416    0.090620    2.854905
     77          1           0        1.640577    0.253861    2.539426
 ---------------------------------------------------------------------
 Rotational constants (GHZ):           0.0885478           0.0876654           0.0590629
 Standard basis: def2TZVP (5D, 7F)
 There are  1768 symmetry adapted cartesian basis functions of A   symmetry.
 There are  1551 symmetry adapted basis functions of A   symmetry.
  1551 basis functions,  2516 primitive gaussians,  1768 cartesian basis functions
   161 alpha electrons      161 beta electrons
       nuclear repulsion energy      6177.6048813721 Hartrees.
 NAtoms=   77 NActive=   77 NUniq=   77 SFac= 1.00D+00 NAtFMM=   60 NAOKFM=T Big=T
 Integral buffers will be    131072 words long.
 Raffenetti 2 integral format.
 Two-electron integral symmetry is turned on.
 R6APFD:  NTU= -4 IXU= 1 FactS= 1.050
 Nuclear repulsion after empirical dispersion term =     6177.4528864174 Hartrees.
 One-electron integrals computed using PRISM.
   1 Symmetry operations used in ECPInt.
 ECPInt:  NShTT=  188191 NPrTT=  584825 LenC2=  147376 LenP2D=  301615.
 LDataN:  DoStor=T MaxTD1= 6 Len=  172
 Number of processors reduced to  23 by ecpmxn.
 NBasis=  1551 RedAO= T EigKep=  3.15D-06  NBF=  1551
 NBsUse=  1551 1.00D-06 EigRej= -1.00D+00 NBFU=  1551
 ExpMin= 4.20D-02 ExpMax= 3.01D+05 ExpMxC= 2.91D+03 IAcc=3 IRadAn=         5 AccDes= 0.00D+00
 Harris functional with IExCor= 3731 and IRadAn=       5 diagonalized for initial guess.
 HarFok:  IExCor= 3731 AccDes= 0.00D+00 IRadAn=         5 IDoV= 1 UseB2=F ITyADJ=14
 ICtDFT=  3500011 ScaDFX=  1.000000  1.000000  1.000000  1.000000
 FoFCou: FMM=F IPFlag=           0 FMFlag=      100000 FMFlg1=        2001
         NFxFlg=           0 DoJE=T BraDBF=F KetDBF=T FulRan=T
         wScrn=  0.000000 ICntrl=       500 IOpCl=  0 I1Cent=   200000004 NGrid=           0
         NMat0=    1 NMatS0=      1 NMatT0=    0 NMatD0=    1 NMtDS0=    0 NMtDT0=    0
 Petite list used in FoFCou.
 Requested convergence on RMS density matrix=1.00D-08 within 128 cycles.
 Requested convergence on MAX density matrix=1.00D-06.
 Requested convergence on             energy=1.00D-06.
 No special actions if energy rises.
 EnCoef did     2 forward-backward iterations
 EnCoef did   100 forward-backward iterations
 EnCoef did   100 forward-backward iterations
 EnCoef did     2 forward-backward iterations
 EnCoef did    12 forward-backward iterations
 Restarting incremental Fock formation.
 SCF Done:  E(RAPFD) =  -3057.87708752     A.U. after   28 cycles
            NFock= 28  Conv=0.66D-08     -V/T= 2.0035
 DoSCS=F DFT=T ScalE2(SS,OS)=  1.000000  1.000000
 Range of M.O.s used for correlation:     1  1551
 NBasis=  1551 NAE=   161 NBE=   161 NFC=     0 NFV=     0
 NROrb=   1551 NOA=   161 NOB=   161 NVA=  1390 NVB=  1390

 **** Warning!!: The largest alpha MO coefficient is  0.43415237D+02


 **** Warning!!: The smallest alpha delta epsilon is  0.80787770D-01

          Differentiating once with respect to electric field.
                with respect to dipole field.
          Electric field/nuclear overlap derivatives assumed to be zero.
          There are     3 degrees of freedom in the 1st order CPHF.  IDoFFX=0 NUNeed=     3.
      3 vectors produced by pass  0 Test12= 7.46D-12 3.33D-08 XBig12= 1.98D+03 2.85D+01.
 AX will form     3 AO Fock derivatives at one time.
      3 vectors produced by pass  1 Test12= 7.46D-12 3.33D-08 XBig12= 3.30D+03 1.80D+01.
      3 vectors produced by pass  2 Test12= 7.46D-12 3.33D-08 XBig12= 2.28D+03 6.65D+00.
      3 vectors produced by pass  3 Test12= 7.46D-12 3.33D-08 XBig12= 1.41D+03 7.99D+00.
      3 vectors produced by pass  4 Test12= 7.46D-12 3.33D-08 XBig12= 6.06D+02 6.89D+00.
      3 vectors produced by pass  5 Test12= 7.46D-12 3.33D-08 XBig12= 5.04D+02 6.78D+00.
      3 vectors produced by pass  6 Test12= 7.46D-12 3.33D-08 XBig12= 3.54D+02 4.25D+00.
      3 vectors produced by pass  7 Test12= 7.46D-12 3.33D-08 XBig12= 1.26D+02 2.37D+00.
      3 vectors produced by pass  8 Test12= 7.46D-12 3.33D-08 XBig12= 6.56D+01 1.65D+00.
      3 vectors produced by pass  9 Test12= 7.46D-12 3.33D-08 XBig12= 3.09D+01 1.28D+00.
      3 vectors produced by pass 10 Test12= 7.46D-12 3.33D-08 XBig12= 1.85D+01 9.00D-01.
      3 vectors produced by pass 11 Test12= 7.46D-12 3.33D-08 XBig12= 7.05D+00 7.96D-01.
      3 vectors produced by pass 12 Test12= 7.46D-12 3.33D-08 XBig12= 6.20D+00 7.77D-01.
      3 vectors produced by pass 13 Test12= 7.46D-12 3.33D-08 XBig12= 2.83D+00 2.98D-01.
      3 vectors produced by pass 14 Test12= 7.46D-12 3.33D-08 XBig12= 1.12D+00 1.83D-01.
      3 vectors produced by pass 15 Test12= 7.46D-12 3.33D-08 XBig12= 2.94D-01 1.46D-01.
      3 vectors produced by pass 16 Test12= 7.46D-12 3.33D-08 XBig12= 1.18D-01 1.04D-01.
      3 vectors produced by pass 17 Test12= 7.46D-12 3.33D-08 XBig12= 2.85D-02 5.49D-02.
      3 vectors produced by pass 18 Test12= 7.46D-12 3.33D-08 XBig12= 8.10D-03 3.29D-02.
      3 vectors produced by pass 19 Test12= 7.46D-12 3.33D-08 XBig12= 2.38D-03 1.46D-02.
      3 vectors produced by pass 20 Test12= 7.46D-12 3.33D-08 XBig12= 9.08D-04 9.14D-03.
      3 vectors produced by pass 21 Test12= 7.46D-12 3.33D-08 XBig12= 2.85D-04 5.43D-03.
      3 vectors produced by pass 22 Test12= 7.46D-12 3.33D-08 XBig12= 6.23D-05 1.58D-03.
      3 vectors produced by pass 23 Test12= 7.46D-12 3.33D-08 XBig12= 9.78D-06 3.72D-04.
      3 vectors produced by pass 24 Test12= 7.46D-12 3.33D-08 XBig12= 3.23D-06 2.36D-04.
      3 vectors produced by pass 25 Test12= 7.46D-12 3.33D-08 XBig12= 4.66D-07 8.17D-05.
      3 vectors produced by pass 26 Test12= 7.46D-12 3.33D-08 XBig12= 8.82D-08 3.89D-05.
      3 vectors produced by pass 27 Test12= 7.46D-12 3.33D-08 XBig12= 1.66D-08 2.30D-05.
      3 vectors produced by pass 28 Test12= 7.46D-12 3.33D-08 XBig12= 2.24D-09 1.13D-05.
      3 vectors produced by pass 29 Test12= 7.46D-12 3.33D-08 XBig12= 2.97D-10 4.29D-06.
      3 vectors produced by pass 30 Test12= 7.46D-12 3.33D-08 XBig12= 4.79D-11 1.09D-06.
      3 vectors produced by pass 31 Test12= 7.46D-12 3.33D-08 XBig12= 9.31D-12 4.98D-07.
      3 vectors produced by pass 32 Test12= 7.46D-12 3.33D-08 XBig12= 1.75D-12 2.15D-07.
      1 vectors produced by pass 33 Test12= 7.46D-12 3.33D-08 XBig12= 2.83D-13 6.18D-08.
 InvSVY:  IOpt=1 It=  1 EMax= 2.84D-14
 Solved reduced A of dimension   100 with     3 vectors.
 Isotropic polarizability for W=    0.000000      583.22 Bohr**3.
 End of Minotr F.D. properties file   721 does not exist.
 End of Minotr F.D. properties file   722 does not exist.
 End of Minotr F.D. properties file   788 does not exist.

 **********************************************************************

            Population analysis using the SCF Density.

 **********************************************************************

 Orbital symmetries:
       Occupied  (A) (A) (A) (A) (A) (A) (A) (A) (A) (A) (A) (A)
                 (A) (A) (A) (A) (A) (A) (A) (A) (A) (A) (A) (A)
                 (A) (A) (A) (A) (A) (A) (A) (A) (A) (A) (A) (A)
                 (A) (A) (A) (A) (A) (A) (A) (A) (A) (A) (A) (A)
                 (A) (A) (A) (A) (A) (A) (A) (A) (A) (A) (A) (A)
                 (A) (A) (A) (A) (A) (A) (A) (A) (A) (A) (A) (A)
                 (A) (A) (A) (A) (A) (A) (A) (A) (A) (A) (A) (A)
                 (A) (A) (A) (A) (A) (A) (A) (A) (A) (A) (A) (A)
                 (A) (A) (A) (A) (A) (A) (A) (A) (A) (A) (A) (A)
                 (A) (A) (A) (A) (A) (A) (A) (A) (A) (A) (A) (A)
                 (A) (A) (A) (A) (A) (A) (A) (A) (A) (A) (A) (A)
                 (A) (A) (A) (A) (A) (A) (A) (A) (A) (A) (A) (A)
                 (A) (A) (A) (A) (A) (A) (A) (A) (A) (A) (A) (A)
                 (A) (A) (A) (A) (A)
       Virtual   (A) (A) (A) (A) (A) (A) (A) (A) (A) (A) (A) (A)
                 (A) (A) (A) (A) (A) (A) (A) (A) (A) (A) (A) (A)
                 (A) (A) (A) (A) (A) (A) (A) (A) (A) (A) (A) (A)
                 (A) (A) (A) (A) (A) (A) (A) (A) (A) (A) (A) (A)
                 (A) (A) (A) (A) (A) (A) (A) (A) (A) (A) (A) (A)
                 (A) (A) (A) (A) (A) (A) (A) (A) (A) (A) (A) (A)
                 (A) (A) (A) (A) (A) (A) (A) (A) (A) (A) (A) (A)
                 (A) (A) (A) (A) (A) (A) (A) (A) (A) (A) (A) (A)
                 (A) (A) (A) (A) (A) (A) (A) (A) (A) (A) (A) (A)
                 (A) (A) (A) (A) (A) (A) (A) (A) (A) (A) (A) (A)
                 (A) (A) (A) (A) (A) (A) (A) (A) (A) (A) (A) (A)
                 (A) (A) (A) (A) (A) (A) (A) (A) (A) (A) (A) (A)
                 (A) (A) (A) (A) (A) (A) (A) (A) (A) (A) (A) (A)
                 (A) (A) (A) (A) (A) (A) (A) (A) (A) (A) (A) (A)
                 (A) (A) (A) (A) (A) (A) (A) (A) (A) (A) (A) (A)
                 (A) (A) (A) (A) (A) (A) (A) (A) (A) (A) (A) (A)
                 (A) (A) (A) (A) (A) (A) (A) (A) (A) (A) (A) (A)
                 (A) (A) (A) (A) (A) (A) (A) (A) (A) (A) (A) (A)
                 (A) (A) (A) (A) (A) (A) (A) (A) (A) (A) (A) (A)
                 (A) (A) (A) (A) (A) (A) (A) (A) (A) (A) (A) (A)
                 (A) (A) (A) (A) (A) (A) (A) (A) (A) (A) (A) (A)
                 (A) (A) (A) (A) (A) (A) (A) (A) (A) (A) (A) (A)
                 (A) (A) (A) (A) (A) (A) (A) (A) (A) (A) (A) (A)
                 (A) (A) (A) (A) (A) (A) (A) (A) (A) (A) (A) (A)
                 (A) (A) (A) (A) (A) (A) (A) (A) (A) (A) (A) (A)
                 (A) (A) (A) (A) (A) (A) (A) (A) (A) (A) (A) (A)
                 (A) (A) (A) (A) (A) (A) (A) (A) (A) (A) (A) (A)
                 (A) (A) (A) (A) (A) (A) (A) (A) (A) (A) (A) (A)
                 (A) (A) (A) (A) (A) (A) (A) (A) (A) (A) (A) (A)
                 (A) (A) (A) (A) (A) (A) (A) (A) (A) (A) (A) (A)
                 (A) (A) (A) (A) (A) (A) (A) (A) (A) (A) (A) (A)
                 (A) (A) (A) (A) (A) (A) (A) (A) (A) (A) (A) (A)
                 (A) (A) (A) (A) (A) (A) (A) (A) (A) (A) (A) (A)
                 (A) (A) (A) (A) (A) (A) (A) (A) (A) (A) (A) (A)
                 (A) (A) (A) (A) (A) (A) (A) (A) (A) (A) (A) (A)
                 (A) (A) (A) (A) (A) (A) (A) (A) (A) (A) (A) (A)
                 (A) (A) (A) (A) (A) (A) (A) (A) (A) (A) (A) (A)
                 (A) (A) (A) (A) (A) (A) (A) (A) (A) (A) (A) (A)
                 (A) (A) (A) (A) (A) (A) (A) (A) (A) (A) (A) (A)
                 (A) (A) (A) (A) (A) (A) (A) (A) (A) (A) (A) (A)
                 (A) (A) (A) (A) (A) (A) (A) (A) (A) (A) (A) (A)
                 (A) (A) (A) (A) (A) (A) (A) (A) (A) (A) (A) (A)
                 (A) (A) (A) (A) (A) (A) (A) (A) (A) (A) (A) (A)
                 (A) (A) (A) (A) (A) (A) (A) (A) (A) (A) (A) (A)
                 (A) (A) (A) (A) (A) (A) (A) (A) (A) (A) (A) (A)
                 (A) (A) (A) (A) (A) (A) (A) (A) (A) (A) (A) (A)
                 (A) (A) (A) (A) (A) (A) (A) (A) (A) (A) (A) (A)
                 (A) (A) (A) (A) (A) (A) (A) (A) (A) (A) (A) (A)
                 (A) (A) (A) (A) (A) (A) (A) (A) (A) (A) (A) (A)
                 (A) (A) (A) (A) (A) (A) (A) (A) (A) (A) (A) (A)
                 (A) (A) (A) (A) (A) (A) (A) (A) (A) (A) (A) (A)
                 (A) (A) (A) (A) (A) (A) (A) (A) (A) (A) (A) (A)
                 (A) (A) (A) (A) (A) (A) (A) (A) (A) (A) (A) (A)
                 (A) (A) (A) (A) (A) (A) (A) (A) (A) (A) (A) (A)
                 (A) (A) (A) (A) (A) (A) (A) (A) (A) (A) (A) (A)
                 (A) (A) (A) (A) (A) (A) (A) (A) (A) (A) (A) (A)
                 (A) (A) (A) (A) (A) (A) (A) (A) (A) (A) (A) (A)
                 (A) (A) (A) (A) (A) (A) (A) (A) (A) (A) (A) (A)
                 (A) (A) (A) (A) (A) (A) (A) (A) (A) (A) (A) (A)
                 (A) (A) (A) (A) (A) (A) (A) (A) (A) (A) (A) (A)
                 (A) (A) (A) (A) (A) (A) (A) (A) (A) (A) (A) (A)
                 (A) (A) (A) (A) (A) (A) (A) (A) (A) (A) (A) (A)
                 (A) (A) (A) (A) (A) (A) (A) (A) (A) (A) (A) (A)
                 (A) (A) (A) (A) (A) (A) (A) (A) (A) (A) (A) (A)
                 (A) (A) (A) (A) (A) (A) (A) (A) (A) (A) (A) (A)
                 (A) (A) (A) (A) (A) (A) (A) (A) (A) (A) (A) (A)
                 (A) (A) (A) (A) (A) (A) (A) (A) (A) (A) (A) (A)
                 (A) (A) (A) (A) (A) (A) (A) (A) (A) (A) (A) (A)
                 (A) (A) (A) (A) (A) (A) (A) (A) (A) (A) (A) (A)
                 (A) (A) (A) (A) (A) (A) (A) (A) (A) (A) (A) (A)
                 (A) (A) (A) (A) (A) (A) (A) (A) (A) (A) (A) (A)
                 (A) (A) (A) (A) (A) (A) (A) (A) (A) (A) (A) (A)
                 (A) (A) (A) (A) (A) (A) (A) (A) (A) (A) (A) (A)
                 (A) (A) (A) (A) (A) (A) (A) (A) (A) (A) (A) (A)
                 (A) (A) (A) (A) (A) (A) (A) (A) (A) (A) (A) (A)
                 (A) (A) (A) (A) (A) (A) (A) (A) (A) (A) (A) (A)
                 (A) (A) (A) (A) (A) (A) (A) (A) (A) (A) (A) (A)
                 (A) (A) (A) (A) (A) (A) (A) (A) (A) (A) (A) (A)
                 (A) (A) (A) (A) (A) (A) (A) (A) (A) (A) (A) (A)
                 (A) (A) (A) (A) (A) (A) (A) (A) (A) (A) (A) (A)
                 (A) (A) (A) (A) (A) (A) (A) (A) (A) (A) (A) (A)
                 (A) (A) (A) (A) (A) (A) (A) (A) (A) (A) (A) (A)
                 (A) (A) (A) (A) (A) (A) (A) (A) (A) (A) (A) (A)
                 (A) (A) (A) (A) (A) (A) (A) (A) (A) (A) (A) (A)
                 (A) (A) (A) (A) (A) (A) (A) (A) (A) (A) (A) (A)
                 (A) (A) (A) (A) (A) (A) (A) (A) (A) (A) (A) (A)
                 (A) (A) (A) (A) (A) (A) (A) (A) (A) (A) (A) (A)
                 (A) (A) (A) (A) (A) (A) (A) (A) (A) (A) (A) (A)
                 (A) (A) (A) (A) (A) (A) (A) (A) (A) (A) (A) (A)
                 (A) (A) (A) (A) (A) (A) (A) (A) (A) (A) (A) (A)
                 (A) (A) (A) (A) (A) (A) (A) (A) (A) (A) (A) (A)
                 (A) (A) (A) (A) (A) (A) (A) (A) (A) (A) (A) (A)
                 (A) (A) (A) (A) (A) (A) (A) (A) (A) (A) (A) (A)
                 (A) (A) (A) (A) (A) (A) (A) (A) (A) (A) (A) (A)
                 (A) (A) (A) (A) (A) (A) (A) (A) (A) (A) (A) (A)
                 (A) (A) (A) (A) (A) (A) (A) (A) (A) (A) (A) (A)
                 (A) (A) (A) (A) (A) (A) (A) (A) (A) (A) (A) (A)
                 (A) (A) (A) (A) (A) (A) (A) (A) (A) (A) (A) (A)
                 (A) (A) (A) (A) (A) (A) (A) (A) (A) (A) (A) (A)
                 (A) (A) (A) (A) (A) (A) (A) (A) (A) (A) (A) (A)
                 (A) (A) (A) (A) (A) (A) (A) (A) (A) (A) (A) (A)
                 (A) (A) (A) (A) (A) (A) (A) (A) (A) (A) (A) (A)
                 (A) (A) (A) (A) (A) (A) (A) (A) (A) (A) (A) (A)
                 (A) (A) (A) (A) (A) (A) (A) (A) (A) (A) (A) (A)
                 (A) (A) (A) (A) (A) (A) (A) (A) (A) (A) (A) (A)
                 (A) (A) (A) (A) (A) (A) (A) (A) (A) (A) (A) (A)
                 (A) (A) (A) (A) (A) (A) (A) (A) (A) (A) (A) (A)
                 (A) (A) (A) (A) (A) (A) (A) (A) (A) (A) (A) (A)
                 (A) (A) (A) (A) (A) (A) (A) (A) (A) (A) (A) (A)
                 (A) (A) (A) (A) (A) (A) (A) (A) (A) (A) (A) (A)
                 (A) (A) (A) (A) (A) (A) (A) (A) (A) (A) (A) (A)
                 (A) (A) (A) (A) (A) (A) (A) (A) (A) (A) (A) (A)
                 (A) (A) (A) (A) (A) (A) (A) (A) (A) (A) (A) (A)
                 (A) (A) (A) (A) (A) (A) (A) (A) (A) (A) (A) (A)
                 (A) (A) (A) (A) (A) (A) (A) (A) (A) (A) (A) (A)
                 (A) (A) (A) (A) (A) (A) (A) (A) (A) (A)
 The electronic state is 1-A.
 Alpha  occ. eigenvalues -- -256.24361 -30.09972 -25.94354 -25.94088 -25.92967
 Alpha  occ. eigenvalues --  -19.27294 -19.19543 -14.42350 -14.36263 -14.34445
 Alpha  occ. eigenvalues --  -14.34373 -14.34356 -14.34135 -10.26118 -10.24323
 Alpha  occ. eigenvalues --  -10.21987 -10.21885 -10.21838 -10.21734 -10.21718
 Alpha  occ. eigenvalues --  -10.21683 -10.21676 -10.21627 -10.21571 -10.21426
 Alpha  occ. eigenvalues --  -10.19905 -10.19872 -10.19695 -10.19571 -10.19544
 Alpha  occ. eigenvalues --  -10.19465 -10.19238 -10.19232 -10.19215 -10.19181
 Alpha  occ. eigenvalues --  -10.19141 -10.19140 -10.19132 -10.19129 -10.19054
 Alpha  occ. eigenvalues --  -10.18910 -10.18897 -10.18737 -10.18704 -10.18691
 Alpha  occ. eigenvalues --  -10.18469 -10.18467  -3.46846  -2.24082  -2.23113
 Alpha  occ. eigenvalues --   -2.21370  -1.17790  -1.05922  -0.97769  -0.96958
 Alpha  occ. eigenvalues --   -0.96737  -0.95911  -0.91241  -0.82857  -0.82372
 Alpha  occ. eigenvalues --   -0.82088  -0.81392  -0.81002  -0.80848  -0.80236
 Alpha  occ. eigenvalues --   -0.80174  -0.78620  -0.77232  -0.76152  -0.74847
 Alpha  occ. eigenvalues --   -0.74596  -0.73711  -0.72331  -0.71493  -0.70577
 Alpha  occ. eigenvalues --   -0.68830  -0.68523  -0.68393  -0.64904  -0.64868
 Alpha  occ. eigenvalues --   -0.64775  -0.61857  -0.61095  -0.60512  -0.58494
 Alpha  occ. eigenvalues --   -0.57475  -0.56446  -0.55131  -0.54279  -0.53879
 Alpha  occ. eigenvalues --   -0.53301  -0.51873  -0.51740  -0.51334  -0.49407
 Alpha  occ. eigenvalues --   -0.49291  -0.48504  -0.48245  -0.48108  -0.48018
 Alpha  occ. eigenvalues --   -0.46415  -0.46255  -0.45437  -0.45201  -0.44993
 Alpha  occ. eigenvalues --   -0.44893  -0.44323  -0.44057  -0.43922  -0.43661
 Alpha  occ. eigenvalues --   -0.43581  -0.43405  -0.43263  -0.42997  -0.42951
 Alpha  occ. eigenvalues --   -0.42874  -0.42537  -0.42085  -0.42006  -0.41696
 Alpha  occ. eigenvalues --   -0.40719  -0.40694  -0.40574  -0.40231  -0.40077
 Alpha  occ. eigenvalues --   -0.39516  -0.39299  -0.39258  -0.38989  -0.38421
 Alpha  occ. eigenvalues --   -0.38183  -0.37768  -0.37574  -0.36881  -0.36786
 Alpha  occ. eigenvalues --   -0.36180  -0.35892  -0.35050  -0.34626  -0.34271
 Alpha  occ. eigenvalues --   -0.33420  -0.32627  -0.32071  -0.31889  -0.31041
 Alpha  occ. eigenvalues --   -0.30292  -0.29746  -0.29431  -0.27383  -0.27270
 Alpha  occ. eigenvalues --   -0.25819  -0.25329  -0.24745  -0.24407  -0.23398
 Alpha  occ. eigenvalues --   -0.22883  -0.22482  -0.21404  -0.21178  -0.19021
 Alpha  occ. eigenvalues --   -0.18437
 Alpha virt. eigenvalues --   -0.10358  -0.07240  -0.07156  -0.02390  -0.00614
 Alpha virt. eigenvalues --   -0.00141   0.00182   0.00937   0.01816   0.02262
 Alpha virt. eigenvalues --    0.03716   0.04559   0.04911   0.05131   0.05204
 Alpha virt. eigenvalues --    0.05761   0.06010   0.06725   0.07326   0.07685
 Alpha virt. eigenvalues --    0.07789   0.08062   0.08736   0.09021   0.09252
 Alpha virt. eigenvalues --    0.09366   0.09728   0.10690   0.10774   0.11078
 Alpha virt. eigenvalues --    0.11306   0.11469   0.11770   0.11853   0.11965
 Alpha virt. eigenvalues --    0.12360   0.12659   0.12862   0.13059   0.13178
 Alpha virt. eigenvalues --    0.13372   0.13782   0.13835   0.13985   0.14281
 Alpha virt. eigenvalues --    0.14377   0.14765   0.15050   0.15221   0.15300
 Alpha virt. eigenvalues --    0.15604   0.15739   0.15821   0.16051   0.16331
 Alpha virt. eigenvalues --    0.16600   0.16911   0.17133   0.17238   0.17593
 Alpha virt. eigenvalues --    0.17803   0.17957   0.18408   0.19164   0.19433
 Alpha virt. eigenvalues --    0.19539   0.19646   0.19897   0.20302   0.20348
 Alpha virt. eigenvalues --    0.20701   0.20918   0.21136   0.21502   0.22030
 Alpha virt. eigenvalues --    0.22086   0.22177   0.22671   0.22965   0.23113
 Alpha virt. eigenvalues --    0.23259   0.24047   0.24324   0.24728   0.25045
 Alpha virt. eigenvalues --    0.25283   0.25476   0.25962   0.26099   0.26242
 Alpha virt. eigenvalues --    0.26771   0.26805   0.27098   0.27231   0.27502
 Alpha virt. eigenvalues --    0.28065   0.28346   0.28447   0.28482   0.29079
 Alpha virt. eigenvalues --    0.29185   0.29442   0.29492   0.29661   0.29905
 Alpha virt. eigenvalues --    0.30310   0.30515   0.30704   0.31300   0.31507
 Alpha virt. eigenvalues --    0.31811   0.31935   0.32391   0.32489   0.33107
 Alpha virt. eigenvalues --    0.33293   0.33730   0.33769   0.34012   0.34495
 Alpha virt. eigenvalues --    0.34780   0.35286   0.35376   0.35619   0.36091
 Alpha virt. eigenvalues --    0.36203   0.36594   0.36685   0.36711   0.36850
 Alpha virt. eigenvalues --    0.37193   0.37502   0.37926   0.38354   0.38592
 Alpha virt. eigenvalues --    0.38669   0.38858   0.39186   0.39325   0.39499
 Alpha virt. eigenvalues --    0.39549   0.39954   0.40103   0.40597   0.40805
 Alpha virt. eigenvalues --    0.40860   0.41073   0.41316   0.41429   0.41784
 Alpha virt. eigenvalues --    0.41852   0.41976   0.42269   0.42498   0.42555
 Alpha virt. eigenvalues --    0.43085   0.43187   0.43595   0.43807   0.44149
 Alpha virt. eigenvalues --    0.44308   0.44453   0.44638   0.44929   0.45266
 Alpha virt. eigenvalues --    0.45621   0.45785   0.45911   0.46096   0.46349
 Alpha virt. eigenvalues --    0.46513   0.46916   0.47242   0.47266   0.47433
 Alpha virt. eigenvalues --    0.47709   0.47813   0.48001   0.48297   0.48565
 Alpha virt. eigenvalues --    0.48637   0.48888   0.49096   0.49313   0.49516
 Alpha virt. eigenvalues --    0.49697   0.49902   0.49947   0.50559   0.50617
 Alpha virt. eigenvalues --    0.50888   0.50971   0.51410   0.51491   0.51655
 Alpha virt. eigenvalues --    0.52000   0.52339   0.52525   0.52733   0.52876
 Alpha virt. eigenvalues --    0.53030   0.53306   0.53680   0.53772   0.54028
 Alpha virt. eigenvalues --    0.54425   0.54534   0.54923   0.55066   0.55357
 Alpha virt. eigenvalues --    0.55760   0.56004   0.56187   0.56436   0.56768
 Alpha virt. eigenvalues --    0.56805   0.57227   0.57771   0.57945   0.58131
 Alpha virt. eigenvalues --    0.58410   0.58530   0.58922   0.59313   0.59528
 Alpha virt. eigenvalues --    0.59666   0.60347   0.60656   0.61249   0.61311
 Alpha virt. eigenvalues --    0.61554   0.61932   0.62124   0.62346   0.62556
 Alpha virt. eigenvalues --    0.63053   0.63371   0.63409   0.63855   0.64156
 Alpha virt. eigenvalues --    0.64520   0.64847   0.64878   0.65259   0.65554
 Alpha virt. eigenvalues --    0.65909   0.66309   0.66661   0.66703   0.66953
 Alpha virt. eigenvalues --    0.67180   0.67430   0.67822   0.68072   0.68477
 Alpha virt. eigenvalues --    0.68642   0.69250   0.69661   0.69837   0.70552
 Alpha virt. eigenvalues --    0.70598   0.71225   0.71360   0.71755   0.72218
 Alpha virt. eigenvalues --    0.72425   0.72697   0.72884   0.73031   0.73402
 Alpha virt. eigenvalues --    0.73830   0.74471   0.74592   0.75159   0.75325
 Alpha virt. eigenvalues --    0.75532   0.76199   0.76395   0.76866   0.77413
 Alpha virt. eigenvalues --    0.77611   0.77846   0.78099   0.78174   0.78692
 Alpha virt. eigenvalues --    0.78903   0.79228   0.79273   0.79840   0.80132
 Alpha virt. eigenvalues --    0.80768   0.80937   0.81026   0.81156   0.81895
 Alpha virt. eigenvalues --    0.82093   0.82215   0.82636   0.83022   0.83421
 Alpha virt. eigenvalues --    0.83680   0.83948   0.84614   0.84848   0.85222
 Alpha virt. eigenvalues --    0.85771   0.86416   0.86672   0.87480   0.87782
 Alpha virt. eigenvalues --    0.87852   0.88430   0.88793   0.89183   0.89248
 Alpha virt. eigenvalues --    0.89586   0.90145   0.90456   0.90899   0.91016
 Alpha virt. eigenvalues --    0.91624   0.91754   0.92039   0.92385   0.92713
 Alpha virt. eigenvalues --    0.93018   0.93427   0.94168   0.94418   0.94756
 Alpha virt. eigenvalues --    0.95238   0.95571   0.95772   0.96082   0.96640
 Alpha virt. eigenvalues --    0.97103   0.97452   0.97655   0.97853   0.98426
 Alpha virt. eigenvalues --    0.98601   0.99020   0.99100   0.99309   0.99597
 Alpha virt. eigenvalues --    1.00234   1.00885   1.01023   1.01288   1.01581
 Alpha virt. eigenvalues --    1.01840   1.02162   1.02414   1.02912   1.03013
 Alpha virt. eigenvalues --    1.03300   1.03467   1.03987   1.04325   1.04541
 Alpha virt. eigenvalues --    1.05134   1.05376   1.05804   1.06155   1.06346
 Alpha virt. eigenvalues --    1.06855   1.07346   1.07729   1.07913   1.08203
 Alpha virt. eigenvalues --    1.09004   1.09404   1.09785   1.10155   1.10261
 Alpha virt. eigenvalues --    1.10876   1.11439   1.12173   1.12313   1.13319
 Alpha virt. eigenvalues --    1.13725   1.13820   1.14364   1.14488   1.15004
 Alpha virt. eigenvalues --    1.16163   1.16500   1.16586   1.17428   1.17607
 Alpha virt. eigenvalues --    1.17902   1.18356   1.18506   1.18563   1.19020
 Alpha virt. eigenvalues --    1.19359   1.19581   1.20022   1.20427   1.20778
 Alpha virt. eigenvalues --    1.21150   1.21667   1.21696   1.22565   1.22936
 Alpha virt. eigenvalues --    1.23565   1.24159   1.24368   1.24561   1.25258
 Alpha virt. eigenvalues --    1.26087   1.26476   1.26741   1.27169   1.27605
 Alpha virt. eigenvalues --    1.27839   1.28173   1.28568   1.28872   1.29294
 Alpha virt. eigenvalues --    1.29545   1.29748   1.30077   1.30465   1.30942
 Alpha virt. eigenvalues --    1.31505   1.31921   1.32187   1.32696   1.33110
 Alpha virt. eigenvalues --    1.33509   1.34587   1.34706   1.35536   1.36114
 Alpha virt. eigenvalues --    1.36740   1.37378   1.37626   1.37880   1.38245
 Alpha virt. eigenvalues --    1.38744   1.39669   1.39953   1.40416   1.40999
 Alpha virt. eigenvalues --    1.41351   1.41735   1.42211   1.42876   1.43407
 Alpha virt. eigenvalues --    1.43786   1.44206   1.45041   1.45847   1.46268
 Alpha virt. eigenvalues --    1.46649   1.47102   1.47441   1.47658   1.47961
 Alpha virt. eigenvalues --    1.48345   1.49027   1.49253   1.49333   1.49504
 Alpha virt. eigenvalues --    1.50185   1.50204   1.50517   1.51012   1.51048
 Alpha virt. eigenvalues --    1.51244   1.51544   1.51904   1.52099   1.52515
 Alpha virt. eigenvalues --    1.52873   1.53007   1.53467   1.53685   1.53876
 Alpha virt. eigenvalues --    1.54180   1.54380   1.54427   1.54621   1.54918
 Alpha virt. eigenvalues --    1.55240   1.55360   1.55682   1.55914   1.56345
 Alpha virt. eigenvalues --    1.56751   1.56856   1.57303   1.57536   1.57893
 Alpha virt. eigenvalues --    1.57946   1.58326   1.58508   1.58782   1.58972
 Alpha virt. eigenvalues --    1.59472   1.59949   1.60165   1.60561   1.60712
 Alpha virt. eigenvalues --    1.61151   1.61372   1.61611   1.62131   1.62210
 Alpha virt. eigenvalues --    1.62468   1.62696   1.63199   1.63513   1.63972
 Alpha virt. eigenvalues --    1.64185   1.64292   1.64756   1.64884   1.65240
 Alpha virt. eigenvalues --    1.65517   1.65834   1.66289   1.66689   1.67033
 Alpha virt. eigenvalues --    1.67558   1.67614   1.67982   1.68118   1.68484
 Alpha virt. eigenvalues --    1.68988   1.69410   1.70022   1.70376   1.70607
 Alpha virt. eigenvalues --    1.70999   1.71185   1.71886   1.72664   1.72739
 Alpha virt. eigenvalues --    1.72997   1.73360   1.73784   1.74021   1.74364
 Alpha virt. eigenvalues --    1.74908   1.75795   1.76114   1.76935   1.77476
 Alpha virt. eigenvalues --    1.77830   1.78962   1.79350   1.80333   1.80544
 Alpha virt. eigenvalues --    1.80983   1.81416   1.81797   1.82209   1.82660
 Alpha virt. eigenvalues --    1.83065   1.83265   1.83711   1.84507   1.84973
 Alpha virt. eigenvalues --    1.85473   1.85664   1.86019   1.86330   1.86987
 Alpha virt. eigenvalues --    1.87035   1.87516   1.87979   1.88136   1.88351
 Alpha virt. eigenvalues --    1.89466   1.89673   1.90769   1.90825   1.91099
 Alpha virt. eigenvalues --    1.91688   1.92282   1.92639   1.93436   1.93844
 Alpha virt. eigenvalues --    1.94084   1.94815   1.95176   1.95885   1.96222
 Alpha virt. eigenvalues --    1.97135   1.97281   1.97811   1.98291   1.98724
 Alpha virt. eigenvalues --    1.99001   1.99219   1.99552   1.99637   2.00151
 Alpha virt. eigenvalues --    2.00716   2.01017   2.01302   2.01767   2.02821
 Alpha virt. eigenvalues --    2.03170   2.03930   2.04347   2.05016   2.05517
 Alpha virt. eigenvalues --    2.05873   2.06264   2.06875   2.07521   2.08082
 Alpha virt. eigenvalues --    2.08165   2.08950   2.09181   2.09408   2.09713
 Alpha virt. eigenvalues --    2.10265   2.10707   2.11433   2.11758   2.12173
 Alpha virt. eigenvalues --    2.12772   2.13367   2.13566   2.13738   2.14070
 Alpha virt. eigenvalues --    2.14549   2.14875   2.15678   2.16188   2.16720
 Alpha virt. eigenvalues --    2.17010   2.17172   2.18039   2.18327   2.18624
 Alpha virt. eigenvalues --    2.18962   2.19262   2.19347   2.19919   2.20993
 Alpha virt. eigenvalues --    2.21376   2.22167   2.22847   2.23006   2.23611
 Alpha virt. eigenvalues --    2.24021   2.24342   2.24831   2.25268   2.25488
 Alpha virt. eigenvalues --    2.25764   2.26403   2.27133   2.27204   2.27763
 Alpha virt. eigenvalues --    2.28021   2.28208   2.28536   2.28921   2.29254
 Alpha virt. eigenvalues --    2.30347   2.30435   2.31303   2.31551   2.31771
 Alpha virt. eigenvalues --    2.33293   2.33359   2.33833   2.34132   2.34736
 Alpha virt. eigenvalues --    2.34930   2.35151   2.35518   2.35879   2.35919
 Alpha virt. eigenvalues --    2.36857   2.37097   2.37298   2.38314   2.38357
 Alpha virt. eigenvalues --    2.38793   2.38816   2.39362   2.39694   2.40218
 Alpha virt. eigenvalues --    2.40560   2.41293   2.41787   2.42202   2.42542
 Alpha virt. eigenvalues --    2.43206   2.43627   2.44227   2.44930   2.45120
 Alpha virt. eigenvalues --    2.45252   2.45353   2.46097   2.46604   2.47040
 Alpha virt. eigenvalues --    2.47073   2.47562   2.47753   2.48755   2.48907
 Alpha virt. eigenvalues --    2.49573   2.50088   2.50540   2.51709   2.51922
 Alpha virt. eigenvalues --    2.52216   2.52579   2.52844   2.52894   2.53866
 Alpha virt. eigenvalues --    2.54141   2.54563   2.54975   2.55732   2.56164
 Alpha virt. eigenvalues --    2.56374   2.56418   2.56634   2.56641   2.57318
 Alpha virt. eigenvalues --    2.57588   2.58399   2.58956   2.59037   2.59472
 Alpha virt. eigenvalues --    2.59815   2.60075   2.60743   2.60970   2.61671
 Alpha virt. eigenvalues --    2.61838   2.62316   2.62494   2.63293   2.63515
 Alpha virt. eigenvalues --    2.63803   2.64465   2.64888   2.65247   2.65682
 Alpha virt. eigenvalues --    2.65822   2.66235   2.66858   2.67198   2.67536
 Alpha virt. eigenvalues --    2.67686   2.68644   2.68867   2.69497   2.69809
 Alpha virt. eigenvalues --    2.70214   2.70855   2.70964   2.71394   2.71637
 Alpha virt. eigenvalues --    2.72054   2.72826   2.72966   2.74009   2.74346
 Alpha virt. eigenvalues --    2.74618   2.74808   2.75395   2.75713   2.75841
 Alpha virt. eigenvalues --    2.76565   2.77372   2.77709   2.78693   2.78872
 Alpha virt. eigenvalues --    2.79044   2.79404   2.80231   2.80410   2.80745
 Alpha virt. eigenvalues --    2.81333   2.81714   2.81865   2.82615   2.82818
 Alpha virt. eigenvalues --    2.83181   2.83383   2.84052   2.84106   2.84803
 Alpha virt. eigenvalues --    2.84856   2.85334   2.85846   2.86765   2.87407
 Alpha virt. eigenvalues --    2.87542   2.87693   2.88260   2.88601   2.88717
 Alpha virt. eigenvalues --    2.89173   2.89561   2.89902   2.90089   2.90642
 Alpha virt. eigenvalues --    2.90801   2.91205   2.91746   2.92029   2.92475
 Alpha virt. eigenvalues --    2.92705   2.93332   2.93556   2.94060   2.94130
 Alpha virt. eigenvalues --    2.94739   2.95002   2.95226   2.95496   2.95639
 Alpha virt. eigenvalues --    2.96309   2.96688   2.96854   2.97556   2.97614
 Alpha virt. eigenvalues --    2.97932   2.97990   2.98722   2.99215   2.99795
 Alpha virt. eigenvalues --    3.00017   3.00181   3.00673   3.01136   3.01364
 Alpha virt. eigenvalues --    3.01689   3.02162   3.02205   3.02829   3.03147
 Alpha virt. eigenvalues --    3.03812   3.04064   3.04669   3.04747   3.05259
 Alpha virt. eigenvalues --    3.05947   3.06071   3.06243   3.06702   3.07251
 Alpha virt. eigenvalues --    3.07333   3.07844   3.07924   3.08353   3.08497
 Alpha virt. eigenvalues --    3.08880   3.09053   3.09616   3.09922   3.10348
 Alpha virt. eigenvalues --    3.10818   3.11285   3.11580   3.11891   3.12004
 Alpha virt. eigenvalues --    3.12248   3.12442   3.13058   3.13306   3.13447
 Alpha virt. eigenvalues --    3.13849   3.14416   3.14699   3.14839   3.15146
 Alpha virt. eigenvalues --    3.15619   3.16100   3.16178   3.16650   3.16855
 Alpha virt. eigenvalues --    3.17238   3.17473   3.18179   3.18607   3.18955
 Alpha virt. eigenvalues --    3.19154   3.19312   3.19587   3.19930   3.20600
 Alpha virt. eigenvalues --    3.20716   3.21184   3.21519   3.21651   3.21959
 Alpha virt. eigenvalues --    3.22409   3.22821   3.22885   3.23442   3.23964
 Alpha virt. eigenvalues --    3.24152   3.24253   3.24587   3.24706   3.24890
 Alpha virt. eigenvalues --    3.25614   3.25695   3.25937   3.26111   3.26224
 Alpha virt. eigenvalues --    3.26511   3.26904   3.27018   3.27255   3.27838
 Alpha virt. eigenvalues --    3.28063   3.28286   3.28666   3.28833   3.29335
 Alpha virt. eigenvalues --    3.29481   3.29795   3.30124   3.30242   3.30278
 Alpha virt. eigenvalues --    3.30678   3.31066   3.31202   3.31539   3.32147
 Alpha virt. eigenvalues --    3.32405   3.32568   3.32747   3.33105   3.33368
 Alpha virt. eigenvalues --    3.34085   3.34138   3.34449   3.34519   3.35048
 Alpha virt. eigenvalues --    3.35099   3.35430   3.35719   3.35775   3.36304
 Alpha virt. eigenvalues --    3.36477   3.36733   3.37107   3.37323   3.37371
 Alpha virt. eigenvalues --    3.37862   3.38087   3.38186   3.38712   3.38819
 Alpha virt. eigenvalues --    3.39090   3.39755   3.39989   3.40225   3.40670
 Alpha virt. eigenvalues --    3.40737   3.41133   3.41821   3.42541   3.42860
 Alpha virt. eigenvalues --    3.43300   3.43502   3.43901   3.44319   3.44869
 Alpha virt. eigenvalues --    3.45048   3.45279   3.45746   3.45983   3.46526
 Alpha virt. eigenvalues --    3.47196   3.47328   3.47901   3.48561   3.48859
 Alpha virt. eigenvalues --    3.48961   3.49625   3.50481   3.50736   3.51007
 Alpha virt. eigenvalues --    3.51483   3.52200   3.53026   3.53413   3.54160
 Alpha virt. eigenvalues --    3.54236   3.54790   3.55122   3.55309   3.56015
 Alpha virt. eigenvalues --    3.56557   3.56658   3.57298   3.57772   3.58253
 Alpha virt. eigenvalues --    3.58438   3.58975   3.59179   3.60443   3.60827
 Alpha virt. eigenvalues --    3.61077   3.61806   3.62331   3.62604   3.63015
 Alpha virt. eigenvalues --    3.63437   3.63975   3.64495   3.65179   3.65650
 Alpha virt. eigenvalues --    3.65928   3.66158   3.66954   3.67528   3.68205
 Alpha virt. eigenvalues --    3.68250   3.68822   3.69345   3.69511   3.70224
 Alpha virt. eigenvalues --    3.70452   3.70776   3.70854   3.71489   3.71640
 Alpha virt. eigenvalues --    3.72176   3.72893   3.73558   3.73660   3.73826
 Alpha virt. eigenvalues --    3.74516   3.74708   3.74744   3.75156   3.75940
 Alpha virt. eigenvalues --    3.76305   3.76981   3.77448   3.78015   3.79116
 Alpha virt. eigenvalues --    3.79468   3.79889   3.80553   3.80849   3.81302
 Alpha virt. eigenvalues --    3.81783   3.82188   3.82773   3.83909   3.84534
 Alpha virt. eigenvalues --    3.85156   3.85610   3.85906   3.86636   3.86671
 Alpha virt. eigenvalues --    3.87812   3.88351   3.89085   3.89531   3.90187
 Alpha virt. eigenvalues --    3.90382   3.90597   3.91057   3.91746   3.92450
 Alpha virt. eigenvalues --    3.93306   3.93646   3.95306   3.95922   3.96388
 Alpha virt. eigenvalues --    3.97082   3.97627   3.98546   3.98917   3.99005
 Alpha virt. eigenvalues --    3.99574   3.99918   4.00101   4.01043   4.01338
 Alpha virt. eigenvalues --    4.02012   4.02766   4.03208   4.03297   4.03964
 Alpha virt. eigenvalues --    4.04230   4.04639   4.05416   4.06259   4.06868
 Alpha virt. eigenvalues --    4.07712   4.08832   4.09758   4.10093   4.10394
 Alpha virt. eigenvalues --    4.11404   4.11801   4.12068   4.13011   4.13615
 Alpha virt. eigenvalues --    4.14197   4.14973   4.15208   4.16134   4.16841
 Alpha virt. eigenvalues --    4.17600   4.17808   4.18574   4.18862   4.19263
 Alpha virt. eigenvalues --    4.19468   4.20251   4.21329   4.21605   4.22189
 Alpha virt. eigenvalues --    4.22770   4.22974   4.24289   4.24345   4.24871
 Alpha virt. eigenvalues --    4.25263   4.26099   4.26279   4.27240   4.27607
 Alpha virt. eigenvalues --    4.27851   4.28769   4.29011   4.30122   4.31328
 Alpha virt. eigenvalues --    4.31423   4.32443   4.32712   4.33047   4.33714
 Alpha virt. eigenvalues --    4.34228   4.35188   4.35550   4.36019   4.36643
 Alpha virt. eigenvalues --    4.38364   4.38897   4.39425   4.40242   4.40703
 Alpha virt. eigenvalues --    4.41040   4.41144   4.41468   4.41711   4.42329
 Alpha virt. eigenvalues --    4.42866   4.43959   4.43997   4.44368   4.44884
 Alpha virt. eigenvalues --    4.44902   4.45395   4.46082   4.46666   4.47448
 Alpha virt. eigenvalues --    4.48091   4.49113   4.49469   4.50757   4.51725
 Alpha virt. eigenvalues --    4.52142   4.53568   4.53982   4.54977   4.55612
 Alpha virt. eigenvalues --    4.56201   4.57095   4.57189   4.57910   4.58431
 Alpha virt. eigenvalues --    4.60168   4.61047   4.62692   4.63173   4.64408
 Alpha virt. eigenvalues --    4.64706   4.66217   4.67173   4.67742   4.68643
 Alpha virt. eigenvalues --    4.68749   4.68955   4.70814   4.71277   4.71998
 Alpha virt. eigenvalues --    4.72706   4.72814   4.73416   4.74512   4.74743
 Alpha virt. eigenvalues --    4.75649   4.76332   4.76937   4.77271   4.79156
 Alpha virt. eigenvalues --    4.80260   4.80675   4.81180   4.81729   4.82877
 Alpha virt. eigenvalues --    4.83188   4.83394   4.83819   4.84975   4.85493
 Alpha virt. eigenvalues --    4.86468   4.86669   4.87794   4.88249   4.88446
 Alpha virt. eigenvalues --    4.89465   4.90518   4.91478   4.91797   4.92636
 Alpha virt. eigenvalues --    4.93440   4.93876   4.94807   4.95625   4.95992
 Alpha virt. eigenvalues --    4.96490   4.96565   4.97208   4.99202   5.00481
 Alpha virt. eigenvalues --    5.01026   5.01366   5.01950   5.02957   5.03964
 Alpha virt. eigenvalues --    5.05200   5.05601   5.05731   5.06490   5.06773
 Alpha virt. eigenvalues --    5.06910   5.08310   5.09091   5.09957   5.10072
 Alpha virt. eigenvalues --    5.12794   5.14623   5.15493   5.16940   5.18499
 Alpha virt. eigenvalues --    5.19066   5.19335   5.20166   5.20515   5.21432
 Alpha virt. eigenvalues --    5.21924   5.22575   5.25554   5.25574   5.25791
 Alpha virt. eigenvalues --    5.28015   5.28490   5.28898   5.29509   5.31358
 Alpha virt. eigenvalues --    5.35123   5.35234   5.36291   5.36994   5.37505
 Alpha virt. eigenvalues --    5.38423   5.39272   5.39435   5.40198   5.40736
 Alpha virt. eigenvalues --    5.41152   5.42840   5.43366   5.46541   5.47765
 Alpha virt. eigenvalues --    5.48159   5.49076   5.50146   5.50551   5.51434
 Alpha virt. eigenvalues --    5.52111   5.53414   5.58626   5.60361   5.61018
 Alpha virt. eigenvalues --    5.62159   5.63030   5.63917   5.65559   5.66299
 Alpha virt. eigenvalues --    5.67383   5.68315   5.69018   5.69515   5.72935
 Alpha virt. eigenvalues --    5.76741   5.77583   5.77979   5.79061   5.81622
 Alpha virt. eigenvalues --    5.82793   5.87987   5.88072   5.90581   5.92333
 Alpha virt. eigenvalues --    5.96442   6.01150   6.01954   6.02716   6.08069
 Alpha virt. eigenvalues --    6.11950   6.12127   6.12518   6.14444   6.17866
 Alpha virt. eigenvalues --    6.19742   6.24811   6.33465   6.34608   6.35390
 Alpha virt. eigenvalues --    6.37155   6.42333   6.44140   6.47166   6.52271
 Alpha virt. eigenvalues --    6.53246   6.61910   6.67197   6.92638   7.16173
 Alpha virt. eigenvalues --    7.33099   7.48324   8.66695  22.35740  22.36419
 Alpha virt. eigenvalues --   22.43811  22.46463  22.47392  22.52998  22.53711
 Alpha virt. eigenvalues --   22.62531  22.63798  22.75806  22.85562  22.87557
 Alpha virt. eigenvalues --   22.92160  22.93830  22.95086  22.95353  22.97749
 Alpha virt. eigenvalues --   23.02906  23.03651  23.05699  23.14782  23.26379
 Alpha virt. eigenvalues --   23.29239  23.31614  23.32104  23.40828  23.41143
 Alpha virt. eigenvalues --   23.50177  23.51073  23.55240  23.73260  23.78593
 Alpha virt. eigenvalues --   23.79093  23.88727  32.39803  32.64918  32.93861
 Alpha virt. eigenvalues --   32.96162  32.98414  33.13262  43.89469  44.22774
          Condensed to atoms (all electrons):
 Mulliken charges:
               1
     1  Fe  -0.228940
     2  N   -0.000111
     3  N    0.039475
     4  N   -0.067158
     5  N    0.012447
     6  C    0.232405
     7  C   -0.044294
     8  C   -0.030286
     9  C    0.213826
    10  C    0.265184
    11  C   -0.057956
    12  C    0.045098
    13  C    0.230214
    14  C    0.244090
    15  C   -0.053140
    16  C    0.060427
    17  C    0.269235
    18  C    0.235349
    19  C   -0.025593
    20  C   -0.063780
    21  C    0.263660
    22  C   -0.455584
    23  H    0.140122
    24  C   -0.461762
    25  H    0.133739
    26  C   -0.435068
    27  H    0.116765
    28  C   -0.451203
    29  H    0.120995
    30  C   -0.412212
    31  H    0.121431
    32  H    0.142068
    33  H    0.133141
    34  C   -0.411715
    35  H    0.132742
    36  H    0.141706
    37  H    0.121304
    38  C   -0.442928
    39  H    0.124415
    40  H    0.146086
    41  H    0.157103
    42  C   -0.213534
    43  H    0.111119
    44  C   -0.279009
    45  H    0.141459
    46  H    0.123272
    47  C   -0.449946
    48  H    0.127391
    49  H    0.151089
    50  H    0.156482
    51  C   -0.208540
    52  H    0.110432
    53  C   -0.278851
    54  H    0.142290
    55  H    0.123053
    56  C   -0.417892
    57  H    0.134173
    58  H    0.146253
    59  H    0.119589
    60  C   -0.411759
    61  H    0.131182
    62  H    0.120998
    63  H    0.142221
    64  O    0.047496
    65  O   -0.213746
    66  C   -0.390893
    67  H    0.136053
    68  H    0.136372
    69  H    0.146894
    70  N   -0.226423
    71  H    0.235718
    72  C    0.157368
    73  C    0.035560
    74  H    0.174901
    75  N   -0.133778
    76  C   -0.180785
    77  H    0.152495
 Sum of Mulliken charges =  -0.00000
 Mulliken charges with hydrogens summed into heavy atoms:
               1
     1  Fe  -0.228940
     2  N   -0.000111
     3  N    0.039475
     4  N   -0.067158
     5  N    0.012447
     6  C    0.232405
     7  C   -0.044294
     8  C   -0.030286
     9  C    0.213826
    10  C    0.265184
    11  C   -0.057956
    12  C    0.045098
    13  C    0.230214
    14  C    0.244090
    15  C   -0.053140
    16  C    0.060427
    17  C    0.269235
    18  C    0.235349
    19  C   -0.025593
    20  C   -0.063780
    21  C    0.263660
    22  C   -0.315463
    24  C   -0.328023
    26  C   -0.318303
    28  C   -0.330207
    30  C   -0.015572
    34  C   -0.015963
    38  C   -0.015325
    42  C   -0.102415
    44  C   -0.014279
    47  C   -0.014984
    51  C   -0.098108
    53  C   -0.013508
    56  C   -0.017877
    60  C   -0.017358
    64  O    0.047496
    65  O   -0.213746
    66  C    0.028426
    70  N    0.009295
    72  C    0.157368
    73  C    0.210461
    75  N   -0.133778
    76  C   -0.028289
 Electronic spatial extent (au):  <R**2>=          20491.0421
 Charge=              0.0000 electrons
 Dipole moment (field-independent basis, Debye):
    X=             -2.6167    Y=             -0.7668    Z=              7.4170  Tot=              7.9024
 Quadrupole moment (field-independent basis, Debye-Ang):
   XX=           -230.8275   YY=           -238.9954   ZZ=           -240.4784
   XY=              2.2461   XZ=             -3.6377   YZ=             -2.7729
 Traceless Quadrupole moment (field-independent basis, Debye-Ang):
   XX=              5.9396   YY=             -2.2283   ZZ=             -3.7113
   XY=              2.2461   XZ=             -3.6377   YZ=             -2.7729
 Octapole moment (field-independent basis, Debye-Ang**2):
  XXX=            -44.1746  YYY=            -50.3748  ZZZ=            176.7097  XYY=              3.4554
  XXY=             -7.6041  XXZ=             -1.0134  XZZ=            -47.8796  YZZ=             -2.9578
  YYZ=            -32.0606  XYZ=              5.1655
 Hexadecapole moment (field-independent basis, Debye-Ang**3):
 XXXX=         -11665.1052 YYYY=         -11529.1286 ZZZZ=          -3359.5384 XXXY=            -10.7908
 XXXZ=           -104.1331 YYYX=             22.1309 YYYZ=            -20.3138 ZZZX=           -150.8547
 ZZZY=            -25.8172 XXYY=          -3846.7320 XXZZ=          -2646.9292 YYZZ=          -2749.7281
 XXYZ=            -31.6852 YYXZ=             53.8980 ZZXY=             27.3112
 N-N= 6.177452886417D+03 E-N=-1.954134613214D+04  KE= 3.047250606536D+03
  Exact polarizability:     714.784       0.845     704.909      -0.763      -5.278     329.958
 Approx polarizability:    1373.460      -1.923    1325.886     -14.385       8.125     617.440

 ----------------------------------------------------------------------

 Electric dipole moment (input orientation):
 (Debye = 10**-18 statcoulomb cm , SI units = C m)
                  (au)            (Debye)         (10**-30 SI)
   Tot        0.310904D+01      0.790239D+01      0.263596D+02
   x         -0.605866D+00     -0.153996D+01     -0.513675D+01
   y          0.186980D+01      0.475255D+01      0.158528D+02
   z         -0.240893D+01     -0.612288D+01     -0.204237D+02

 Dipole polarizability, Alpha (input orientation).
 (esu units = cm**3 , SI units = C**2 m**2 J**-1)
 Alpha(0;0):
               (au)            (10**-24 esu)      (10**-40 SI)
   iso        0.583217D+03      0.864238D+02      0.961595D+02
   aniso      0.380100D+03      0.563250D+02      0.626700D+02
   xx         0.710385D+03      0.105268D+03      0.117127D+03
   yx        -0.522013D+01     -0.773543D+00     -0.860683D+00
   yy         0.662006D+03      0.980992D+02      0.109150D+03
   zx        -0.186642D+00     -0.276575D-01     -0.307732D-01
   zy         0.125429D+03      0.185866D+02      0.206804D+02
   zz         0.377259D+03      0.559040D+02      0.622016D+02

 First dipole hyperpolarizability, Beta (input orientation).
 ||, _|_  parallel and perpendicular components, (z) with respect to z axis,
 vector components x,y,z.  Values do not include the 1/n! factor of 1/2.
 (esu units = statvolt**-1 cm**4 , SI units = C**3 m**3 J**-2)
 Beta(0;0,0):
               (au)            (10**-30 esu)      (10**-50 SI)
   || (z)    -0.408393D+01     -0.352820D-01     -0.130946D-01
   _|_(z)    -0.136131D+01     -0.117607D-01     -0.436486D-02
   x         -0.980046D+02     -0.846683D+00     -0.314238D+00
   y         -0.446175D+04     -0.385461D+02     -0.143060D+02
   z         -0.204197D+02     -0.176410D+00     -0.654728D-01
   ||         0.892575D+03      0.771116D+01      0.286192D+01
   xxx        0.286242D+03      0.247290D+01      0.917794D+00
   xxy       -0.965481D+03     -0.834100D+01     -0.309568D+01
   yxy       -0.262829D+03     -0.227064D+01     -0.842726D+00
   yyy       -0.527939D+03     -0.456098D+01     -0.169276D+01
   xxz       -0.138794D+03     -0.119907D+01     -0.445022D+00
   yxz       -0.123523D+03     -0.106714D+01     -0.396059D+00
   yyz        0.111559D+02      0.963779D-01      0.357697D-01
   zxz       -0.560803D+02     -0.484490D+00     -0.179814D+00
   zyz        0.616860D+01      0.532919D-01      0.197788D-01
   zzz        0.120831D+03      0.104389D+01      0.387428D+00

 ----------------------------------------------------------------------

 Dipole orientation:
    26         -3.42427827        -57.99279411          8.50415753
     7         -6.05716077        -60.56298861          9.52096931
     7         -6.10071207        -55.27613362          8.28328109
     7         -0.77900119        -55.43031722          7.42596574
     7         -0.75159660        -60.71693900          8.70305290
     6         -5.67024708        -63.03371395         10.09408691
     6         -8.02393251        -64.20387096         10.84815604
     6         -9.83295319        -62.37937504         10.67957244
     6         -8.55919741        -60.10275467          9.85850493
     6         -8.60870646        -55.58763330          8.72838080
     6         -9.93726131        -53.23947867          8.33935424
     6         -8.15975187        -51.50851056          7.59836211
     6         -5.75531746        -52.82749924          7.60935629
     6         -1.19273169        -52.99576839          6.72653959
     6          1.08868453        -51.89149227          5.73311694
     6          2.88772896        -53.75254326          5.79826823
     6          1.66257584        -55.95991512          6.86555523
     6          1.71901245        -60.44817797          8.07708295
     6          3.01281740        -62.85390007          8.26292774
     6          1.24195144        -64.57585773          8.97852765
     6         -1.10962320        -63.19901220          9.23903489
     6         -3.38599477        -64.29427498          9.91236520
     1         -3.38020791        -66.28726789         10.34506392
     6         -9.76410085        -57.82553613          9.43255305
     1        -11.78711159        -57.78644584          9.69581758
     6         -3.48513251        -51.74832938          6.88535472
     1         -3.53098067        -49.79439886          6.29994282
     6          2.86924926        -58.24091001          7.29027949
     1          4.84095320        -58.36170664          6.77924851
     6        -12.59564242        -62.55414428         11.19723598
     1        -13.11125754        -64.44248050         11.81629598
     1        -13.65882565        -62.11914510          9.49036809
     1        -13.16157216        -61.21199107         12.65213684
     6         -8.28190479        -66.90914432         11.57586397
     1         -7.02270172        -67.37510933         13.13556210
     1         -7.78755222        -68.11503929          9.98425757
     1        -10.20898400        -67.33937714         12.14108088
     6        -12.69159090        -52.85032499          8.74517878
     1        -13.33004531        -53.89815941         10.39524923
     1        -13.77838885        -53.49693763          7.11992292
     1        -13.07906717        -50.85376413          9.03306411
     6         -8.47916392        -48.86093061          6.99455906
     1         -6.92104143        -47.64007820          7.51485706
     6        -10.47180475        -47.87145969          5.83170437
     1        -12.00618138        -49.01532282          5.15476148
     1        -10.60309982        -45.87980332          5.45203487
     6          1.35702841        -49.21989999          4.90283661
     1          0.30866221        -47.95702938          6.14578807
     1          0.62433438        -48.98684796          2.99251663
     1          3.33698410        -48.66199011          4.91162229
     6          5.50483953        -53.64280605          5.01785066
     1          6.80839929        -54.77214698          6.12007957
     6          6.38511834        -52.31693030          3.07638794
     1          5.16322838        -51.24211557          1.85632812
     1          8.36347154        -52.32144302          2.59452440
     6          5.73996469        -63.23751162          7.70080920
     1          6.89445002        -62.01238358          8.87897243
     1          6.14129578        -62.79061877          5.73652328
     1          6.29091052        -65.18338449          8.04896794
     6          1.50847371        -67.34596657          9.38359824
     1          0.93456505        -67.85535809         11.29192230
     1          3.45229426        -67.94160823          9.10606147
     1          0.31980295        -68.37903598          8.06126277
     8         -4.06333553        -58.68448296          5.46045528
     8         -2.24418239        -59.09078283          3.92404102
     6         -0.07403029        -53.69803705         18.14756772
     1          0.95869171        -54.91724862         19.44637401
     1         -1.42271468        -52.58830565         19.23772876
     1          1.25471814        -52.41958567         17.25142410
     7         -3.18402350        -56.99257175         16.77927208
     1         -3.77743438        -57.43160902         18.53348323
     6         -1.38771154        -55.21897369         16.19266809
     6         -3.99338304        -58.02584100         14.59233209
     1         -5.40404470        -59.47256528         14.47793356
     7         -2.82945449        -57.02055325         12.65937053
     6         -1.19950150        -55.27386293         13.61930707
     1         -0.01227675        -54.18431528         12.39834269

 Electric dipole moment (dipole orientation):
 (Debye = 10**-18 statcoulomb cm , SI units = C m)
                  (au)            (Debye)         (10**-30 SI)
   Tot        0.310904D+01      0.790239D+01      0.263596D+02
   x          0.000000D+00      0.000000D+00      0.000000D+00
   y          0.000000D+00      0.000000D+00      0.000000D+00
   z          0.310904D+01      0.790239D+01      0.263596D+02

 Dipole polarizability, Alpha (dipole orientation).
 (esu units = cm**3 , SI units = C**2 m**2 J**-1)
 Alpha(0;0):
               (au)            (10**-24 esu)      (10**-40 SI)
   iso        0.583217D+03      0.864238D+02      0.961595D+02
   aniso      0.380100D+03      0.563250D+02      0.626700D+02
   xx         0.693692D+03      0.102795D+03      0.114374D+03
   yx        -0.178200D+02     -0.264065D+01     -0.293812D+01
   yy         0.678785D+03      0.100586D+03      0.111917D+03
   zx        -0.762078D+02     -0.112928D+02     -0.125650D+02
   zy        -0.100684D+03     -0.149199D+02     -0.166006D+02
   zz         0.377173D+03      0.558913D+02      0.621874D+02

 First dipole hyperpolarizability, Beta (dipole orientation).
 ||, _|_  parallel and perpendicular components, (z) with respect to z axis,
 vector components x,y,z.  Values do not include the 1/n! factor of 1/2.
 (esu units = statvolt**-1 cm**4 , SI units = C**3 m**3 J**-2)
 Beta(0;0,0):
               (au)            (10**-30 esu)      (10**-50 SI)
   || (z)    -0.529681D+03     -0.457603D+01     -0.169835D+01
   _|_(z)    -0.176560D+03     -0.152534D+01     -0.566116D+00
   x         -0.386554D+03     -0.333953D+01     -0.123943D+01
   y          0.357125D+04      0.308528D+02      0.114507D+02
   z         -0.264840D+04     -0.228802D+02     -0.849174D+01
   ||         0.892575D+03      0.771116D+01      0.286192D+01
   xxx        0.161486D+03      0.139512D+01      0.517784D+00
   xxy        0.788221D+03      0.680962D+01      0.252732D+01
   yxy       -0.439116D+03     -0.379362D+01     -0.140796D+01
   yyy        0.293635D+03      0.253678D+01      0.941500D+00
   xxz       -0.493662D+03     -0.426486D+01     -0.158286D+01
   yxz       -0.539992D+02     -0.466511D+00     -0.173141D+00
   yyz       -0.167340D+03     -0.144568D+01     -0.536552D+00
   zxz        0.148778D+03      0.128533D+01      0.477037D+00
   zyz        0.108559D+03      0.937866D+00      0.348080D+00
   zzz       -0.221800D+03     -0.191618D+01     -0.711170D+00

 ----------------------------------------------------------------------
 Unable to Open any file for archive entry.
 1\1\GINC-BGN1027\SP\RAPFD\def2TZVP\C34H34Fe1N6O2\BECSLEIP\10-Sep-2024\
 0\\# polar def2tzvp apfd int=(grid=ultrafine)\\2z6s_II_S\\0,1\Fe,0,-0.
 6237737698,27.0212633595,15.3225161713\N,0,-2.0022680528,28.3357780979
 ,15.9950824895\N,0,-2.0819295188,25.7128177787,14.8244999751\N,0,0.767
 7384157,25.6908992407,14.6762944745\N,0,0.8349671881,28.3257357975,15.
 8323137483\C,0,-1.7746683333,29.5726992895,16.5065059733\C,0,-3.030406
 7829,30.2234656167,16.8124467912\C,0,-4.013585917,29.3378740028,16.487
 471994\C,0,-3.3488486184,28.1618557413,15.9682337499\C,0,-3.4157204979
 ,25.8980789291,14.9997672444\C,0,-4.1456541583,24.7384840211,14.548975
 9892\C,0,-3.2092362823,23.8354557755,14.1186116013\C,0,-1.9191326892,2
 4.4787118004,14.2859221702\C,0,0.5405408121,24.4280857331,14.230937799
 9\C,0,1.7858390453,23.7263777721,14.0515543476\C,0,2.7757954424,24.594
 1054035,14.4316002253\C,0,2.1084168155,25.8210045006,14.8228347709\C,0
 ,2.1695431371,28.0996136299,15.7486625779\C,0,2.9044455232,29.21758688
 22,16.3046654687\C,0,1.9737716394,30.1089697624,16.7418883458\C,0,0.68
 10222295,29.5295890309,16.4393945325\C,0,-0.5289700039,30.1258061717,1
 6.7466315004\H,0,-0.5009519025,31.1034351127,17.2028927661\C,0,-4.0084
 622671,27.0247181034,15.5424066204\H,0,-5.0846018837,27.0213408994,15.
 630640981\C,0,-0.7065565603,23.872932872,14.0052206674\H,0,-0.73820752
 34,22.8617614526,13.628136699\C,0,2.7692056143,26.9594044172,15.250184
 5409\H,0,3.8471810467,26.9165629084,15.2948317186\C,0,-5.4915325396,29
 .4797191803,16.6157372555\H,0,-5.7563998379,30.4543423758,17.016048852
 7\H,0,-5.8812915681,28.7160758637,17.2867753728\H,0,-5.9815336088,29.3
 574682392,15.650427337\C,0,-3.1445099331,31.5858742486,17.4016330204\H
 ,0,-2.6369826463,32.3225774053,16.780577436\H,0,-2.6822394146,31.60470
 69269,18.3870110458\H,0,-4.1857091171,31.8796885019,17.5055323137\C,0,
 -5.62744407,24.6074273287,14.5427661199\H,0,-6.0916141626,25.551743445
 7,14.2655269386\H,0,-6.0000528029,24.3246542067,15.527000566\H,0,-5.92
 75545106,23.8442835403,13.8292806427\C,0,-3.4048955428,22.5166124088,1
 3.5565246455\H,0,-2.6943297302,22.222254126,12.7939821444\C,0,-4.35145
 33057,21.6600038432,13.9238967106\H,0,-5.0362589587,21.8729012433,14.7
 237151782\H,0,-4.4498881813,20.6954289032,13.4592607536\C,0,1.91706757
 61,22.3458789324,13.5140736711\H,0,1.2018616473,22.1727216821,12.71064
 74101\H,0,1.7264910071,21.6141230563,14.2987189364\H,0,2.9219953149,22
 .1827938268,13.1287395113\C,0,4.2077216551,24.3909520319,14.4467765211
 \H,0,4.8085750573,25.2631198563,14.2198349284\C,0,4.8174548373,23.2452
 015468,14.7300663863\H,0,4.2729508057,22.361361709,15.0142512813\H,0,5
 .8918024476,23.1628802979,14.7250614539\C,0,4.3880826426,29.2956180311
 ,16.3759973203\H,0,4.821633333,29.1947195285,15.3839842495\H,0,4.78285
 88631,28.4962153655,16.9977715351\H,0,4.7054851891,30.2455384748,16.79
 5707284\C,0,2.166816959,31.4143442023,17.4299072637\H,0,1.6906254788,3
 2.2162394947,16.8687649324\H,0,3.2228671982,31.6449073835,17.532813551
 6\H,0,1.7237193194,31.3872440326,18.4234354908\O,0,-0.6166698082,26.32
 17072485,16.8565065846\O,0,0.4980225469,26.0674995318,17.4281677025\C,
 0,-0.0333540896,28.3978128234,9.6562949105\H,0,0.4101136867,29.3609431
 88,9.4052845911\H,0,-0.8829738857,28.2300589385,8.9952208\H,0,0.702482
 9003,27.620388048,9.4798354178\N,0,-1.3876543196,29.2417855656,11.5865
 098245\H,0,-1.8605111052,29.9643101171,11.068176737\C,0,-0.4589099245,
 28.3705868622,11.0773382457\C,0,-1.5451571996,28.9528634873,12.8954859
 635\H,0,-2.2133241609,29.4767201721,13.5482814575\N,0,-0.7782089063,27
 .954805566,13.2480669046\C,0,-0.0941563574,27.5813177427,12.1305112793
 \H,0,0.6084890733,26.7751653661,12.1619455861\\Version=ES64L-G16RevC.0
 2\State=1-A\HF=-3057.8770875\RMSD=6.572e-09\Dipole=-0.6058661,1.869795
 2,-2.4089271\Polar=710.3851383,-5.2201269,662.0059619,-0.1866423,125.4
 285191,377.2591776\HyperPolar=286.2415826,-965.4807346,-262.8294729,-5
 27.9391359,-138.7935181,-123.5228389,11.1558514,-56.0803058,6.1686048,
 120.8311115\Quadrupole=0.576982,3.760615,-4.3375971,-3.4553296,-0.3333
 211,-0.7666474\PG=C01 [X(C34H34Fe1N6O2)]\\@
 The archive entry for this job was punched.


 THE ... SCIENTISTS WERE WRONG ... THE MOST PERSISTENT PRINCIPLES 
 OF THE UNIVERSE WERE ACCIDENT AND ERROR.

                          -- FRANK HERBERT IN DUNE
 Job cpu time:       2 days 11 hours 16 minutes 43.1 seconds.
 Elapsed time:       0 days  0 hours 51 minutes 33.5 seconds.
 File lengths (MBytes):  RWF=   1238 Int=      0 D2E=      0 Chk=    158 Scr=      1
 Normal termination of Gaussian 16 at Tue Sep 10 12:31:33 2024.
 Initial command:
 /sw/chem/gaussian/g16_C02/a100/g16/l1.exe "/local/becsleip_8010939/Gau-3034941.inp" -scrdir="/local/becsleip_8010939/"
 Entering Link 1 = /sw/chem/gaussian/g16_C02/a100/g16/l1.exe PID=   3036798.
  
 Copyright (c) 1988-2021, Gaussian, Inc.  All Rights Reserved.
  
 This is part of the Gaussian(R) 16 program.  It is based on
 the Gaussian(R) 09 system (copyright 2009, Gaussian, Inc.),
 the Gaussian(R) 03 system (copyright 2003, Gaussian, Inc.),
 the Gaussian(R) 98 system (copyright 1998, Gaussian, Inc.),
 the Gaussian(R) 94 system (copyright 1995, Gaussian, Inc.),
 the Gaussian 92(TM) system (copyright 1992, Gaussian, Inc.),
 the Gaussian 90(TM) system (copyright 1990, Gaussian, Inc.),
 the Gaussian 88(TM) system (copyright 1988, Gaussian, Inc.),
 the Gaussian 86(TM) system (copyright 1986, Carnegie Mellon
 University), and the Gaussian 82(TM) system (copyright 1983,
 Carnegie Mellon University). Gaussian is a federally registered
 trademark of Gaussian, Inc.
  
 This software contains proprietary and confidential information,
 including trade secrets, belonging to Gaussian, Inc.
  
 This software is provided under written license and may be
 used, copied, transmitted, or stored only in accord with that
 written license.
  
 The following legend is applicable only to US Government
 contracts under FAR:
  
                    RESTRICTED RIGHTS LEGEND
  
 Use, reproduction and disclosure by the US Government is
 subject to restrictions as set forth in subparagraphs (a)
 and (c) of the Commercial Computer Software - Restricted
 Rights clause in FAR 52.227-19.
  
 Gaussian, Inc.
 340 Quinnipiac St., Bldg. 40, Wallingford CT 06492
  
  
 ---------------------------------------------------------------
 Warning -- This program may not be used in any manner that
 competes with the business of Gaussian, Inc. or will provide
 assistance to any competitor of Gaussian, Inc.  The licensee
 of this program is prohibited from giving any competitor of
 Gaussian, Inc. access to this program.  By using this program,
 the user acknowledges that Gaussian, Inc. is engaged in the
 business of creating and licensing software in the field of
 computational chemistry and represents and warrants to the
 licensee that it is not a competitor of Gaussian, Inc. and that
[...]
   146. CR (   1) N  70                  1.99938   -14.22747  1367(v),1341(v),1335(v)
                                                    1342(v),1541(v)
   147. CR (   1) C  72                  1.99915   -10.09570  1424(v),1545(g),1551(v)
                                                    1269(v),1312(v)
   148. CR (   1) C  73                  1.99939   -10.12820  1542(v),1392(v),1397(v)
                                                    153(r),1457(r)
   149. CR (   1) N  75                  1.99936   -14.15772  153(r),1365(v),1422(v)
                                                    1547(v),1424(v),1457(r)
   150. CR (   1) C  76                  1.99901   -10.06594  1541(v),1339(v),1545(g)
                                                    1397(v),1449(v),1342(v)
                                                    153(r),1457(r)
   162. LP (   1) N  70                  1.57551    -0.29091  1549(v),1546(v),1368(v)
                                                    1340(v),1334(v),1366(v)
   163. LP (   1) N  75                  1.71311    -0.37776  153(r),1544(v),1457(r)
                                                    1545(v),1365(v),1547(v)
                                                    1551(v),1422(v),1548(g)
                                                    174(r),243(r),154(r),1223(r)
                                                    175(r),192(r),1217(r),272(r)
                                                    194(r),220(r),155(r),269(r)
                                                    1215(r),176(r),171(r)
                                                    1462(r),1463(r),1468(r)
                                                    1467(r),1459(r),1461(r)
                                                    1465(r)
  1267. RY*(   1) C  66                  0.00124     1.13909   
  1268. RY*(   2) C  66                  0.00076     1.99859   
  1269. RY*(   3) C  66                  0.00054     1.29687   
  1270. RY*(   4) C  66                  0.00012     1.24283   
  1271. RY*(   5) C  66                  0.00007     1.09486   
  1272. RY*(   6) C  66                  0.00008     2.37315   
  1273. RY*(   7) C  66                  0.00000    21.58388   
  1274. RY*(   8) C  66                  0.00001     1.92359   
  1275. RY*(   9) C  66                  0.00001     1.30022   
  1276. RY*(  10) C  66                  0.00001     1.35050   
  1277. RY*(  11) C  66                  0.00000     2.75395   
  1278. RY*(  12) C  66                  0.00000     3.29644   
  1279. RY*(  13) C  66                  0.00000     2.65167   
  1280. RY*(  14) C  66                  0.00001     1.38707   
  1281. RY*(  15) C  66                  0.00000     2.39157   
  1282. RY*(  16) C  66                  0.00000     3.06491   
  1283. RY*(  17) C  66                  0.00000     2.45637   
  1284. RY*(  18) C  66                  0.00001     2.63187   
  1285. RY*(  19) C  66                  0.00000     2.66592   
  1286. RY*(  20) C  66                  0.00000     3.73134   
  1287. RY*(  21) C  66                  0.00001     3.48068   
  1288. RY*(  22) C  66                  0.00000     3.28176   
  1289. RY*(  23) C  66                  0.00000     3.59560   
  1290. RY*(  24) C  66                  0.00000     3.41436   
  1291. RY*(  25) C  66                  0.00000     3.45627   
  1292. RY*(  26) C  66                  0.00000     3.23753   
  1293. RY*(   1) H  67                  0.00075     0.99644   
  1294. RY*(   2) H  67                  0.00014     1.68909   
  1295. RY*(   3) H  67                  0.00008     1.95937   
  1296. RY*(   4) H  67                  0.00006     2.00930   
  1297. RY*(   5) H  67                  0.00000     2.86551   
  1298. RY*(   1) H  68                  0.00074     0.99933   
  1299. RY*(   2) H  68                  0.00014     1.69004   
  1300. RY*(   3) H  68                  0.00008     1.96014   
  1301. RY*(   4) H  68                  0.00006     2.00522   
  1302. RY*(   5) H  68                  0.00000     2.86647   
  1303. RY*(   1) H  69                  0.00025     1.27657   
  1304. RY*(   2) H  69                  0.00014     1.65629   
  1305. RY*(   3) H  69                  0.00008     2.05289   
  1306. RY*(   4) H  69                  0.00003     1.72769   
  1307. RY*(   5) H  69                  0.00001     2.88176   
  1308. RY*(   1) N  70                  0.00275     0.66524   
  1309. RY*(   2) N  70                  0.00241     1.75665   
  1310. RY*(   3) N  70                  0.00114     1.99127   
  1311. RY*(   4) N  70                  0.00068     2.32287   
  1312. RY*(   5) N  70                  0.00052     1.10226   
  1313. RY*(   6) N  70                  0.00024     2.18845   
  1314. RY*(   7) N  70                  0.00020     1.72211   
  1315. RY*(   8) N  70                  0.00007     2.30519   
  1316. RY*(   9) N  70                  0.00006     2.37401   
  1317. RY*(  10) N  70                  0.00005     3.27376   
  1318. RY*(  11) N  70                  0.00005     3.38802   
  1319. RY*(  12) N  70                  0.00000     2.29855   
  1320. RY*(  13) N  70                  0.00001     4.21655   
  1321. RY*(  14) N  70                  0.00001     2.58178   
  1322. RY*(  15) N  70                  0.00000    30.62557   
  1323. RY*(  16) N  70                  0.00000     2.68080   
  1324. RY*(  17) N  70                  0.00000     4.78241   
  1325. RY*(  18) N  70                  0.00000     4.16845   
  1326. RY*(  19) N  70                  0.00001     3.82878   
  1327. RY*(  20) N  70                  0.00000     4.65069   
  1328. RY*(  21) N  70                  0.00000     4.43119   
  1329. RY*(  22) N  70                  0.00000     4.37991   
  1330. RY*(  23) N  70                  0.00000     4.58417   
  1331. RY*(  24) N  70                  0.00000     4.29982   
  1332. RY*(  25) N  70                  0.00000     4.49821   
  1333. RY*(  26) N  70                  0.00000     4.37631   
  1334. RY*(   1) H  71                  0.00056     2.14128   
  1335. RY*(   2) H  71                  0.00040     2.10783   
  1336. RY*(   3) H  71                  0.00031     1.09095   
  1337. RY*(   4) H  71                  0.00021     2.46493   
  1338. RY*(   5) H  71                  0.00001     3.05960   
  1339. RY*(   1) C  72                  0.00415     1.67042   
  1340. RY*(   2) C  72                  0.00257     0.97517   
  1341. RY*(   3) C  72                  0.00187     1.49244   
  1342. RY*(   4) C  72                  0.00165     1.97559   
  1343. RY*(   5) C  72                  0.00119     1.58540   
  1344. RY*(   6) C  72                  0.00113     1.79087   
  1345. RY*(   7) C  72                  0.00037     2.84391   
  1346. RY*(   8) C  72                  0.00020     2.87210   
  1347. RY*(   9) C  72                  0.00015     2.19625   
  1348. RY*(  10) C  72                  0.00007     3.52959   
  1349. RY*(  11) C  72                  0.00004     2.22553   
  1350. RY*(  12) C  72                  0.00003     2.72463   
  1351. RY*(  13) C  72                  0.00001     1.88561   
  1352. RY*(  14) C  72                  0.00001     2.13164   
  1353. RY*(  15) C  72                  0.00000     2.76781   
  1354. RY*(  16) C  72                  0.00000     1.05732   
  1355. RY*(  17) C  72                  0.00000     3.42462   
  1356. RY*(  18) C  72                  0.00000    20.84412   
  1357. RY*(  19) C  72                  0.00001     1.30626   
  1358. RY*(  20) C  72                  0.00000     3.93356   
  1359. RY*(  21) C  72                  0.00000     3.86763   
  1360. RY*(  22) C  72                  0.00000     3.52269   
  1361. RY*(  23) C  72                  0.00000     3.68868   
  1362. RY*(  24) C  72                  0.00000     3.44284   
  1363. RY*(  25) C  72                  0.00000     3.49118   
  1364. RY*(  26) C  72                  0.00000     3.47768   
  1365. RY*(   1) C  73                  0.00412     1.54225   
  1366. RY*(   2) C  73                  0.00295     0.65587   
  1367. RY*(   3) C  73                  0.00225     1.42722   
  1368. RY*(   4) C  73                  0.00133     2.45376   
  1369. RY*(   5) C  73                  0.00078     1.68680   
  1370. RY*(   6) C  73                  0.00041     1.53288   
  1371. RY*(   7) C  73                  0.00027     1.60349   
  1372. RY*(   8) C  73                  0.00009     3.28475   
  1373. RY*(   9) C  73                  0.00006     2.19251   
  1374. RY*(  10) C  73                  0.00004     2.95869   
  1375. RY*(  11) C  73                  0.00003     1.50194   
  1376. RY*(  12) C  73                  0.00002     1.94221   
  1377. RY*(  13) C  73                  0.00001     2.62209   
  1378. RY*(  14) C  73                  0.00002     3.11183   
  1379. RY*(  15) C  73                  0.00001     2.43908   
  1380. RY*(  16) C  73                  0.00001     3.38913   
  1381. RY*(  17) C  73                  0.00001     2.70274   
  1382. RY*(  18) C  73                  0.00000     3.18440   
  1383. RY*(  19) C  73                  0.00000    21.39893   
  1384. RY*(  20) C  73                  0.00001     3.75178   
  1385. RY*(  21) C  73                  0.00001     4.11114   
  1386. RY*(  22) C  73                  0.00000     3.57187   
  1387. RY*(  23) C  73                  0.00000     3.92527   
  1388. RY*(  24) C  73                  0.00000     3.55637   
  1389. RY*(  25) C  73                  0.00000     3.58248   
  1390. RY*(  26) C  73                  0.00000     3.45173   
  1391. RY*(   1) H  74                  0.00065     0.71044   
  1392. RY*(   2) H  74                  0.00029     2.46373   
  1393. RY*(   3) H  74                  0.00020     2.07866   
  1394. RY*(   4) H  74                  0.00012     2.38777   
  1395. RY*(   5) H  74                  0.00003     3.19583   
  1396. RY*(   1) N  75                  0.00659     1.66770   
  1397. RY*(   2) N  75                  0.00477     1.01821   
  1398. RY*(   3) N  75                  0.00356     0.95483   
  1399. RY*(   4) N  75                  0.00120     1.14861   
  1400. RY*(   5) N  75                  0.00048     3.09303   
  1401. RY*(   6) N  75                  0.00038     2.15961   
  1402. RY*(   7) N  75                  0.00034     3.02925   
  1403. RY*(   8) N  75                  0.00021     2.42010   
  1404. RY*(   9) N  75                  0.00012     3.22104   
  1405. RY*(  10) N  75                  0.00010     2.72687   
  1406. RY*(  11) N  75                  0.00008     3.46723   
  1407. RY*(  12) N  75                  0.00005     3.02013   
  1408. RY*(  13) N  75                  0.00002     3.77081   
  1409. RY*(  14) N  75                  0.00001     1.84453   
  1410. RY*(  15) N  75                  0.00002     4.51634   
  1411. RY*(  16) N  75                  0.00001     4.70860   
  1412. RY*(  17) N  75                  0.00001     4.45339   
  1413. RY*(  18) N  75                  0.00001     5.47690   
  1414. RY*(  19) N  75                  0.00000     4.52930   
  1415. RY*(  20) N  75                  0.00001     4.61621   
  1416. RY*(  21) N  75                  0.00000    30.01884   
  1417. RY*(  22) N  75                  0.00000     4.12891   
  1418. RY*(  23) N  75                  0.00000     4.78697   
  1419. RY*(  24) N  75                  0.00000     4.70619   
  1420. RY*(  25) N  75                  0.00000     4.76799   
  1421. RY*(  26) N  75                  0.00000     4.54267   
  1422. RY*(   1) C  76                  0.00359     1.66088   
  1423. RY*(   2) C  76                  0.00246     0.70950   
  1424. RY*(   3) C  76                  0.00190     1.72722   
  1425. RY*(   4) C  76                  0.00063     2.08342   
  1426. RY*(   5) C  76                  0.00053     1.74058   
  1427. RY*(   6) C  76                  0.00042     2.26133   
  1428. RY*(   7) C  76                  0.00038     1.84430   
  1429. RY*(   8) C  76                  0.00015     1.42795   
  1430. RY*(   9) C  76                  0.00014     1.65876   
  1431. RY*(  10) C  76                  0.00010     2.08321   
  1432. RY*(  11) C  76                  0.00006     2.46051   
  1433. RY*(  12) C  76                  0.00006     1.58299   
  1434. RY*(  13) C  76                  0.00003     1.30657   
  1435. RY*(  14) C  76                  0.00002     1.57533   
  1436. RY*(  15) C  76                  0.00001     2.20941   
  1437. RY*(  16) C  76                  0.00001     3.45634   
  1438. RY*(  17) C  76                  0.00001     3.54750   
  1439. RY*(  18) C  76                  0.00000    21.54064   
  1440. RY*(  19) C  76                  0.00000     3.21322   
  1441. RY*(  20) C  76                  0.00001     3.80252   
  1442. RY*(  21) C  76                  0.00001     4.18319   
  1443. RY*(  22) C  76                  0.00000     3.43686   
  1444. RY*(  23) C  76                  0.00000     3.71709   
  1445. RY*(  24) C  76                  0.00000     3.45172   
  1446. RY*(  25) C  76                  0.00000     3.53204   
  1447. RY*(  26) C  76                  0.00000     3.33272   
  1448. RY*(   1) H  77                  0.00049     0.84787   
  1449. RY*(   2) H  77                  0.00024     2.24173   
  1450. RY*(   3) H  77                  0.00024     2.25288   
  1451. RY*(   4) H  77                  0.00006     2.63240   
  1452. RY*(   5) H  77                  0.00002     3.14626   
  1538. BD*(   1) C  66 - H  67          0.01181     0.35424   
  1539. BD*(   1) C  66 - H  68          0.01175     0.35453   
  1540. BD*(   1) C  66 - H  69          0.00354     0.36808   
  1541. BD*(   1) C  66 - C  72          0.01383     0.38454   
  1542. BD*(   1) N  70 - H  71          0.01469     0.35964   
  1543. BD*(   1) N  70 - C  72          0.02740     0.42146   
  1544. BD*(   1) N  70 - C  73          0.02567     0.44214   
  1545. BD*(   1) C  72 - C  76          0.02252     0.55636   
  1546. BD*(   2) C  72 - C  76          0.29829     0.02718  1549(v),1538(v),1539(v)
                                                    1427(g),1344(g)
  1547. BD*(   1) C  73 - H  74          0.01946     0.38241   
  1548. BD*(   1) C  73 - N  75          0.01255     0.54618   
  1549. BD*(   2) C  73 - N  75          0.40387    -0.00908  1546(v),1366(g),1423(v)
                                                    1454(r),1456(r),1458(r)
                                                    154(r)
  1550. BD*(   1) N  75 - C  76          0.01265     0.48519   
  1551. BD*(   1) C  76 - H  77          0.01533     0.42267   
       -------------------------------
              Total Lewis   42.79596  ( 97.7944%)
        Valence non-Lewis    0.89335  (  2.0414%)
        Rydberg non-Lewis    0.07186  (  0.1642%)
       -------------------------------
            Total unit  2   43.76117  (100.0000%)
           Charge unit  2    0.23883
 Unable to Open any file for archive entry.
 1\1\GINC-BGN1027\SP\RAPFD\def2TZVP\C34H34Fe1N6O2\BECSLEIP\10-Sep-2024\
 0\\# apfd/def2TZVP int=(grid=ultrafine) geom=check guess=read pop=nbo 
 scf=qc\\2z6s_II_S_nbo\\0,1\Fe,0,-0.6237737698,27.0212633595,15.3225161
 713\N,0,-2.0022680528,28.3357780979,15.9950824895\N,0,-2.0819295188,25
 .7128177787,14.8244999751\N,0,0.7677384157,25.6908992407,14.6762944745
 \N,0,0.8349671881,28.3257357975,15.8323137483\C,0,-1.7746683333,29.572
 6992895,16.5065059733\C,0,-3.0304067829,30.2234656167,16.8124467912\C,
 0,-4.013585917,29.3378740028,16.487471994\C,0,-3.3488486184,28.1618557
 413,15.9682337499\C,0,-3.4157204979,25.8980789291,14.9997672444\C,0,-4
 .1456541583,24.7384840211,14.5489759892\C,0,-3.2092362823,23.835455775
 5,14.1186116013\C,0,-1.9191326892,24.4787118004,14.2859221702\C,0,0.54
 05408121,24.4280857331,14.2309377999\C,0,1.7858390453,23.7263777721,14
 .0515543476\C,0,2.7757954424,24.5941054035,14.4316002253\C,0,2.1084168
 155,25.8210045006,14.8228347709\C,0,2.1695431371,28.0996136299,15.7486
 625779\C,0,2.9044455232,29.2175868822,16.3046654687\C,0,1.9737716394,3
 0.1089697624,16.7418883458\C,0,0.6810222295,29.5295890309,16.439394532
 5\C,0,-0.5289700039,30.1258061717,16.7466315004\H,0,-0.5009519025,31.1
 034351127,17.2028927661\C,0,-4.0084622671,27.0247181034,15.5424066204\
 H,0,-5.0846018837,27.0213408994,15.630640981\C,0,-0.7065565603,23.8729
 32872,14.0052206674\H,0,-0.7382075234,22.8617614526,13.628136699\C,0,2
 .7692056143,26.9594044172,15.2501845409\H,0,3.8471810467,26.9165629084
 ,15.2948317186\C,0,-5.4915325396,29.4797191803,16.6157372555\H,0,-5.75
 63998379,30.4543423758,17.0160488527\H,0,-5.8812915681,28.7160758637,1
 7.2867753728\H,0,-5.9815336088,29.3574682392,15.650427337\C,0,-3.14450
 99331,31.5858742486,17.4016330204\H,0,-2.6369826463,32.3225774053,16.7
 80577436\H,0,-2.6822394146,31.6047069269,18.3870110458\H,0,-4.18570911
 71,31.8796885019,17.5055323137\C,0,-5.62744407,24.6074273287,14.542766
 1199\H,0,-6.0916141626,25.5517434457,14.2655269386\H,0,-6.0000528029,2
 4.3246542067,15.527000566\H,0,-5.9275545106,23.8442835403,13.829280642
 7\C,0,-3.4048955428,22.5166124088,13.5565246455\H,0,-2.6943297302,22.2
 22254126,12.7939821444\C,0,-4.3514533057,21.6600038432,13.9238967106\H
 ,0,-5.0362589587,21.8729012433,14.7237151782\H,0,-4.4498881813,20.6954
 289032,13.4592607536\C,0,1.9170675761,22.3458789324,13.5140736711\H,0,
 1.2018616473,22.1727216821,12.7106474101\H,0,1.7264910071,21.614123056
 3,14.2987189364\H,0,2.9219953149,22.1827938268,13.1287395113\C,0,4.207
 7216551,24.3909520319,14.4467765211\H,0,4.8085750573,25.2631198563,14.
 2198349284\C,0,4.8174548373,23.2452015468,14.7300663863\H,0,4.27295080
 57,22.361361709,15.0142512813\H,0,5.8918024476,23.1628802979,14.725061
 4539\C,0,4.3880826426,29.2956180311,16.3759973203\H,0,4.821633333,29.1
 947195285,15.3839842495\H,0,4.7828588631,28.4962153655,16.9977715351\H
 ,0,4.7054851891,30.2455384748,16.795707284\C,0,2.166816959,31.41434420
 23,17.4299072637\H,0,1.6906254788,32.2162394947,16.8687649324\H,0,3.22
 28671982,31.6449073835,17.5328135516\H,0,1.7237193194,31.3872440326,18
 .4234354908\O,0,-0.6166698082,26.3217072485,16.8565065846\O,0,0.498022
 5469,26.0674995318,17.4281677025\C,0,-0.0333540896,28.3978128234,9.656
 2949105\H,0,0.4101136867,29.360943188,9.4052845911\H,0,-0.8829738857,2
 8.2300589385,8.9952208\H,0,0.7024829003,27.620388048,9.4798354178\N,0,
 -1.3876543196,29.2417855656,11.5865098245\H,0,-1.8605111052,29.9643101
 171,11.068176737\C,0,-0.4589099245,28.3705868622,11.0773382457\C,0,-1.
 5451571996,28.9528634873,12.8954859635\H,0,-2.2133241609,29.4767201721
 ,13.5482814575\N,0,-0.7782089063,27.954805566,13.2480669046\C,0,-0.094
 1563574,27.5813177427,12.1305112793\H,0,0.6084890733,26.7751653661,12.
 1619455861\\Version=ES64L-G16RevC.02\State=1-A\HF=-3057.8770875\RMSD=3
 .490e-09\Dipole=-0.6058661,1.8697952,-2.4089271\Quadrupole=0.576982,3.
 760615,-4.3375971,-3.4553296,-0.3333211,-0.7666474\PG=C01 [X(C34H34Fe1
 N6O2)]\\@
 The archive entry for this job was punched.


 THERE IS AN OLD, OLD RECIPE IN MAINE FOR STEWING COOT. PLACE THE
 BIRD IN A KETTLE OF WATER WITH A RED BUILDING BRICK FREE OF MORTAR AND
 BLEMISHES. PARBOIL THE COOT AND BRICK TOGETHER FOR THREE HOURS.
 POUR OFF THE WATER, REFILL THE KETTLE, AND AGAIN PARBOIL FOR THREE HOURS.
 ONCE AGAIN POUR OFF THE WATER, FOR THE LAST TIME ADD FRESH WATER,
 AND LET THE COOT AND BRICK SIMMER TOGETHER OVERNIGHT. IN THE MORNING,
 THROW AWAY THE COOT AND EAT THE BRICK.
 Job cpu time:       0 days  0 hours 49 minutes 27.7 seconds.
 Elapsed time:       0 days  0 hours  1 minutes  5.3 seconds.
 File lengths (MBytes):  RWF=    812 Int=      0 D2E=      0 Chk=    157 Scr=      1
 Normal termination of Gaussian 16 at Tue Sep 10 12:32:40 2024.
