 Entering Gaussian System, Link 0=g16
 Input=2zby16re.com
 Output=2zby16re.log
 Initial command:
 /sw/chem/gaussian/g16_C02/a100/g16/l1.exe "/local/becsleip_8011869/Gau-3209712.inp" -scrdir="/local/becsleip_8011869/"
 Entering Link 1 = /sw/chem/gaussian/g16_C02/a100/g16/l1.exe PID=   3209713.
  
 Copyright (c) 1988-2021, Gaussian, Inc.  All Rights Reserved.
  
 This is part of the Gaussian(R) 16 program.  It is based on
 the Gaussian(R) 09 system (copyright 2009, Gaussian, Inc.),
 the Gaussian(R) 03 system (copyright 2003, Gaussian, Inc.),
 the Gaussian(R) 98 system (copyright 1998, Gaussian, Inc.),
 the Gaussian(R) 94 system (copyright 1995, Gaussian, Inc.),
 the Gaussian 92(TM) system (copyright 1992, Gaussian, Inc.),
 the Gaussian 90(TM) system (copyright 1990, Gaussian, Inc.),
 the Gaussian 88(TM) system (copyright 1988, Gaussian, Inc.),
 the Gaussian 86(TM) system (copyright 1986, Carnegie Mellon
 University), and the Gaussian 82(TM) system (copyright 1983,
 Carnegie Mellon University). Gaussian is a federally registered
 trademark of Gaussian, Inc.
  
 This software contains proprietary and confidential information,
 including trade secrets, belonging to Gaussian, Inc.
  
 This software is provided under written license and may be
 used, copied, transmitted, or stored only in accord with that
 written license.
  
 The following legend is applicable only to US Government
 contracts under FAR:
  
                    RESTRICTED RIGHTS LEGEND
  
 Use, reproduction and disclosure by the US Government is
 subject to restrictions as set forth in subparagraphs (a)
 and (c) of the Commercial Computer Software - Restricted
 Rights clause in FAR 52.227-19.
  
 Gaussian, Inc.
 340 Quinnipiac St., Bldg. 40, Wallingford CT 06492
  
  
 ---------------------------------------------------------------
 Warning -- This program may not be used in any manner that
 competes with the business of Gaussian, Inc. or will provide
 assistance to any competitor of Gaussian, Inc.  The licensee
 of this program is prohibited from giving any competitor of
 Gaussian, Inc. access to this program.  By using this program,
 the user acknowledges that Gaussian, Inc. is engaged in the
 business of creating and licensing software in the field of
 computational chemistry and represents and warrants to the
 licensee that it is not a competitor of Gaussian, Inc. and that
 it will not use this program in any manner prohibited above.
 ---------------------------------------------------------------
  

 Cite this work as:
 Gaussian 16, Revision C.02,
 M. J. Frisch, G. W. Trucks, H. B. Schlegel, G. E. Scuseria, 
 M. A. Robb, J. R. Cheeseman, G. Scalmani, V. Barone, 
 G. A. Petersson, H. Nakatsuji, X. Li, M. Caricato, A. V. Marenich, 
 J. Bloino, B. G. Janesko, R. Gomperts, B. Mennucci, H. P. Hratchian, 
 J. V. Ortiz, A. F. Izmaylov, J. L. Sonnenberg, D. Williams-Young, 
 F. Ding, F. Lipparini, F. Egidi, J. Goings, B. Peng, A. Petrone, 
 T. Henderson, D. Ranasinghe, V. G. Zakrzewski, J. Gao, N. Rega, 
 G. Zheng, W. Liang, M. Hada, M. Ehara, K. Toyota, R. Fukuda, 
 J. Hasegawa, M. Ishida, T. Nakajima, Y. Honda, O. Kitao, H. Nakai, 
 T. Vreven, K. Throssell, J. A. Montgomery, Jr., J. E. Peralta, 
 F. Ogliaro, M. J. Bearpark, J. J. Heyd, E. N. Brothers, K. N. Kudin, 
 V. N. Staroverov, T. A. Keith, R. Kobayashi, J. Normand, 
 K. Raghavachari, A. P. Rendell, J. C. Burant, S. S. Iyengar, 
 J. Tomasi, M. Cossi, J. M. Millam, M. Klene, C. Adamo, R. Cammi, 
 J. W. Ochterski, R. L. Martin, K. Morokuma, O. Farkas, 
 J. B. Foresman, and D. J. Fox, Gaussian, Inc., Wallingford CT, 2019.
 
 ******************************************
 Gaussian 16:  ES64L-G16RevC.02  7-Dec-2021
                10-Sep-2024 
 ******************************************
 %mem=16GB
 %CPU=0-71
 SetSPE:  set environment variable "OMP_PROC_BIND" = "true"
 SetSPE:  set environment variable "OMP_PLACES" = "{0},{1},{2},{3},{4},{5},{6},{7},{8},{9},{10},{11},{12},{13},{14},{15},{16},{17},{18},{19},{20},{21},{22},{23},{24},{25},{26},{27},{28},{29},{30},{31},{32},{33},{34},{35},{36},{37},{38},{39},{40},{41},{42},{43},{44},{45},{46},{47},{48},{49},{50},{51},{52},{53},{54},{55},{56},{57},{58},{59},{60},{61},{62},{63},{64},{65},{66},{67},{68},{69},{70},{71}"
 Will use up to   72 processors via shared memory.
 %gpucpu=0,1,2,3=0,1,2,3
 Will use    4 GPUs:
 Thread  CPU   GPU
      0    0     0
      1    1     1
      2    2     2
      3    3     3
      4    4    -1
      5    5    -1
      6    6    -1
      7    7    -1
      8    8    -1
      9    9    -1
     10   10    -1
     11   11    -1
     12   12    -1
     13   13    -1
     14   14    -1
     15   15    -1
     16   16    -1
     17   17    -1
     18   18    -1
     19   19    -1
     20   20    -1
     21   21    -1
     22   22    -1
     23   23    -1
     24   24    -1
     25   25    -1
     26   26    -1
     27   27    -1
     28   28    -1
     29   29    -1
     30   30    -1
     31   31    -1
     32   32    -1
     33   33    -1
     34   34    -1
     35   35    -1
     36   36    -1
     37   37    -1
     38   38    -1
     39   39    -1
     40   40    -1
     41   41    -1
     42   42    -1
     43   43    -1
     44   44    -1
     45   45    -1
     46   46    -1
     47   47    -1
     48   48    -1
     49   49    -1
     50   50    -1
     51   51    -1
     52   52    -1
     53   53    -1
     54   54    -1
     55   55    -1
     56   56    -1
     57   57    -1
     58   58    -1
     59   59    -1
     60   60    -1
     61   61    -1
     62   62    -1
     63   63    -1
     64   64    -1
     65   65    -1
     66   66    -1
     67   67    -1
     68   68    -1
     69   69    -1
     70   70    -1
     71   71    -1
 SetGPE:  set environment variable "OMP_PROC_BIND" = "true"
 SetGPE:  set environment variable "OMP_PLACES" = "{0},{1},{2},{3},{4},{5},{6},{7},{8},{9},{10},{11},{12},{13},{14},{15},{16},{17},{18},{19},{20},{21},{22},{23},{24},{25},{26},{27},{28},{29},{30},{31},{32},{33},{34},{35},{36},{37},{38},{39},{40},{41},{42},{43},{44},{45},{46},{47},{48},{49},{50},{51},{52},{53},{54},{55},{56},{57},{58},{59},{60},{61},{62},{63},{64},{65},{66},{67},{68},{69},{70},{71}"
 %oldchk=2zby_III_D.chk
 %chk=2zby_III_Dre.chk
 Properties for Device   0
 Minimum vector length:                              32
 Maximum vector length:                            1024
 Number of SMPs:                                    108
 Maximum number of threads per SMP:                2048
 Number of ASync Engines:                             5
 Memory:                                           9207742464
 Properties for Device   1
 Minimum vector length:                              32
 Maximum vector length:                            1024
 Number of SMPs:                                    108
 Maximum number of threads per SMP:                2048
 Number of ASync Engines:                             5
 Memory:                                           9207742464
 Properties for Device   2
 Minimum vector length:                              32
 Maximum vector length:                            1024
 Number of SMPs:                                    108
 Maximum number of threads per SMP:                2048
 Number of ASync Engines:                             5
 Memory:                                           9207742464
 Properties for Device   3
 Minimum vector length:                              32
 Maximum vector length:                            1024
 Number of SMPs:                                    108
 Maximum number of threads per SMP:                2048
 Number of ASync Engines:                             5
 Memory:                                           9207742464
   8286968217 words of memory will be used on each GPU.
 Copying data from "2zby_III_D.chk" to current chk file "2zby_III_Dre.chk"
 IOpt=  2 FromEx=T IUOpen= 4 IOptOp= 5 NList=   0 IFRang= 0 IUIn= 4 IUOut= 2.
 --------------------------------------
 # apfd/gen scf=maxcycle=999 geom=check
 --------------------------------------
 1/29=2,38=1,172=1/1;
 2/12=2,40=1/2;
 3/5=7,11=2,14=-4,25=1,30=1,74=-44/1,2,3;
 4//1;
 5/5=2,7=999,38=5/2;
 6/7=2,8=2,9=2,10=2,28=1/1;
 99/5=1,9=1/99;
 ----------
 2zby_III_H
 ----------
 Structure from the checkpoint file:  "2zby_III_Dre.chk"
 Charge =  1 Multiplicity = 6
 Z-Matrix found in chk file.
 Fe,0,11.0827368617,8.6323342269,12.2829158168
 N,0,11.1297140178,6.625053522,12.0185205763
 N,0,11.918437027,8.3260745263,14.0984475683
 N,0,10.7220721817,10.517584652,12.7705063491
 N,0,9.8859777879,8.7830354824,10.7110489726
 C,0,10.7373744673,5.9646217829,10.8926050503
 C,0,11.0936417517,4.5653879669,10.962482579
 C,0,11.6949894377,4.384602004,12.16822497
 C,0,11.7065352341,5.6784519245,12.8115226097
 C,0,12.41719909,7.1656366118,14.6137319225
 C,0,13.1884260174,7.4148157893,15.801296595
 C,0,13.1626304824,8.7674198842,16.0025141712
 C,0,12.3644809449,9.3156670328,14.9270053077
 C,0,11.3433337299,11.2184793388,13.7621366096
 C,0,11.0663506967,12.624824947,13.6458853714
 C,0,10.2483748177,12.7694625199,12.5584733008
 C,0,10.0768831593,11.4417070897,12.007491858
 C,0,9.2515189698,9.9101258584,10.2822460668
 C,0,8.5103715554,9.6525321938,9.0670670886
 C,0,8.733904609,8.3490101092,8.7535667378
 C,0,9.5932171472,7.824124186,9.7915629505
 C,0,10.0374763838,6.5187418791,9.838614842
 H,0,9.7687963021,5.8683389765,9.0209799801
 C,0,12.2678513378,5.9115233332,14.0492320509
 H,0,12.6904566304,5.0715189838,14.5779569163
 C,0,12.1164780843,10.6645167919,14.7649747948
 H,0,12.5757625093,11.3392825036,15.469987449
 C,0,9.3361281881,11.1534004005,10.8770266844
 H,0,8.8506092663,11.9772079194,10.3790978012
 C,0,12.2457902394,3.140648879,12.7746865474
 H,0,12.0863049749,2.2886477122,12.1188384124
 H,0,11.7610014276,2.9339139154,13.7285964827
 H,0,13.3168564259,3.2410452348,12.9536973541
 C,0,10.813086945,3.5719052948,9.8888428783
 H,0,11.2281857689,3.9056900417,8.9380611694
 H,0,9.7381055949,3.440907148,9.7617438323
 H,0,11.2483074265,2.6061530925,10.1333073248
 C,0,13.851236329,6.3686173296,16.6279990088
 H,0,14.5802267027,5.8125562347,16.0368046526
 H,0,13.1162549275,5.6598069127,17.0097263504
 H,0,14.3611512774,6.8208404648,17.4747340429
 C,0,13.7850450964,9.4982591625,17.0908891437
 H,0,14.7888071484,9.1769532419,17.347899735
 C,0,13.2132645793,10.4677412346,17.7937789881
 H,0,12.199158738,10.7817598966,17.6130715841
 H,0,13.7321710552,10.9631822878,18.5974042739
 C,0,11.5500236295,13.6713696757,14.5876728068
 H,0,12.637452167,13.6489549837,14.6637452805
 H,0,11.1399165006,13.5074898105,15.5846121397
 H,0,11.2422796495,14.6580575592,14.2513572378
 C,0,9.6713041948,14.0059327284,12.0650058232
 H,0,10.3389929035,14.86074953,12.0728098809
 C,0,8.4172816174,14.1676611061,11.6621168531
 H,0,7.6997656383,13.3651502084,11.6890554114
 H,0,8.0551452806,15.1214273811,11.3161317606
 C,0,7.688548689,10.6706027435,8.356106472
 H,0,8.3165080486,11.488700639,8.0025093284
 H,0,6.9350813945,11.087405906,9.0238745716
 H,0,7.1832232572,10.2307213185,7.5001172808
 C,0,8.223231436,7.5502495714,7.6049108006
 H,0,9.0512334988,7.140012695,7.0264816283
 H,0,7.6172923425,8.1666674279,6.945627933
 H,0,7.6116368377,6.7193582919,7.9578507485
 C,0,14.2007158203,7.6978172628,11.4544933763
 H,0,15.2143515419,8.0086953743,11.2222645149
 H,0,13.8742368334,6.9304844641,10.7596033476
 H,0,14.1224389555,7.3298083845,12.4725250407
 S,0,13.0684995991,9.1201669102,11.2232821166
 H,0,13.6631568186,9.8864055075,12.1516408746
 Recover connectivity data from disk.
 Stoichiometry    C31H32FeN4S(1+,6)
 Framework group  C1[X(C31H32FeN4S)]
 Deg. of freedom   201
 Full point group                 C1      NOp   1
 Largest Abelian subgroup         C1      NOp   1
 Largest concise Abelian subgroup C1      NOp   1
                         Standard orientation:                         
 ---------------------------------------------------------------------
 Center     Atomic      Atomic             Coordinates (Angstroms)
 Number     Number       Type             X           Y           Z
 ---------------------------------------------------------------------
      1         26           0       -0.028319   -0.160914   -0.052180
      2          7           0       -1.724850   -1.237064   -0.307069
      3          7           0       -1.136550    1.499994   -0.370852
      4          7           0        1.625626    0.918408   -0.198891
      5          7           0        1.021406   -1.835490   -0.192119
      6          6           0       -1.830053   -2.590777   -0.187992
      7          6           0       -3.213375   -3.008263   -0.230326
      8          6           0       -3.948268   -1.877039   -0.398797
      9          6           0       -3.003144   -0.785001   -0.445751
     10          6           0       -2.492749    1.603163   -0.475630
     11          6           0       -2.915698    2.975336   -0.401835
     12          6           0       -1.781263    3.721426   -0.237219
     13          6           0       -0.682975    2.779189   -0.220234
     14          6           0        1.711554    2.271573   -0.050194
     15          6           0        3.082141    2.685947    0.083328
     16          6           0        3.839577    1.549121    0.003410
     17          6           0        2.903424    0.453775   -0.137154
     18          6           0        2.378947   -1.936885   -0.251657
     19          6           0        2.790158   -3.323210   -0.288034
     20          6           0        1.650369   -4.060574   -0.220246
     21          6           0        0.558335   -3.114294   -0.162142
     22          6           0       -0.772097   -3.474369   -0.099698
     23          1           0       -1.004031   -4.526011   -0.036491
     24          6           0       -3.369785    0.537944   -0.575039
     25          1           0       -4.419571    0.762636   -0.680938
     26          6           0        0.638551    3.142764   -0.051302
     27          1           0        0.846525    4.189198    0.106864
     28          6           0        3.264102   -0.877460   -0.223844
     29          1           0        4.316457   -1.109164   -0.189451
     30          6           0       -5.423612   -1.716403   -0.525889
     31          1           0       -5.920326   -2.682877   -0.499813
     32          1           0       -5.674762   -1.227644   -1.467028
     33          1           0       -5.816081   -1.106005    0.288169
     34          6           0       -3.668602   -4.421935   -0.117544
     35          1           0       -3.279485   -4.879839    0.791641
     36          1           0       -3.315708   -5.005382   -0.968400
     37          1           0       -4.754041   -4.477049   -0.092247
     38          6           0       -4.324807    3.444757   -0.508336
     39          1           0       -4.938212    3.010259    0.282288
     40          1           0       -4.754229    3.152497   -1.466723
     41          1           0       -4.370775    4.527899   -0.429790
     42          6           0       -1.696602    5.166323   -0.131430
     43          1           0       -2.451661    5.628102    0.495845
     44          6           0       -0.816745    5.934409   -0.761335
     45          1           0       -0.085127    5.526983   -1.438396
     46          1           0       -0.816621    7.005246   -0.643660
     47          6           0        3.538772    4.096406    0.218427
     48          1           0        3.061236    4.576202    1.073147
     49          1           0        3.283036    4.668136   -0.674129
     50          1           0        4.616838    4.136726    0.350775
     51          6           0        5.287493    1.466112    0.048433
     52          1           0        5.762905    2.110561    0.780041
     53          6           0        6.044460    0.717925   -0.744199
     54          1           0        5.625027    0.104875   -1.523830
     55          1           0        7.118343    0.714566   -0.658868
     56          6           0        4.206383   -3.774116   -0.379217
     57          1           0        4.766313   -3.453307    0.499536
     58          1           0        4.686811   -3.348542   -1.259801
     59          1           0        4.263851   -4.857507   -0.446506
     60          6           0        1.478344   -5.539970   -0.216899
     61          1           0        0.948838   -5.861160    0.680276
     62          1           0        2.443045   -6.040441   -0.242734
     63          1           0        0.900862   -5.860482   -1.084528
     64          6           0       -1.865503   -0.012419    2.755684
     65          1           0       -1.936801    0.335629    3.781263
     66          1           0       -2.210401   -1.039016    2.682175
     67          1           0       -2.438495    0.617405    2.082670
     68         16           0       -0.105419   -0.020629    2.245304
     69          1           0        0.065816    1.299644    2.418934
 ---------------------------------------------------------------------
 Rotational constants (GHZ):           0.1131480           0.1115065           0.0608920
 General basis read from cards:  (5D, 7F)
 There are   644 symmetry adapted cartesian basis functions of A   symmetry.
 There are   605 symmetry adapted basis functions of A   symmetry.
   605 basis functions,  1246 primitive gaussians,   644 cartesian basis functions
   146 alpha electrons      141 beta electrons
       nuclear repulsion energy      5056.3601469516 Hartrees.
 NAtoms=   69 NActive=   69 NUniq=   69 SFac= 1.00D+00 NAtFMM=   60 NAOKFM=T Big=T
 Integral buffers will be    131072 words long.
 Raffenetti 2 integral format.
 Two-electron integral symmetry is turned on.
 R6APFD:  NTU= -4 IXU= 1 FactS= 1.050
 Nuclear repulsion after empirical dispersion term =     5056.2276643438 Hartrees.
 One-electron integrals computed using PRISM.
 NBasis=   605 RedAO= T EigKep=  2.59D-04  NBF=   605
 NBsUse=   605 1.00D-06 EigRej= -1.00D+00 NBFU=   605
 ExpMin= 4.20D-02 ExpMax= 3.01D+05 ExpMxC= 3.30D+03 IAcc=3 IRadAn=         5 AccDes= 0.00D+00
 Harris functional with IExCor= 3731 and IRadAn=       5 diagonalized for initial guess.
 HarFok:  IExCor= 3731 AccDes= 0.00D+00 IRadAn=         5 IDoV= 1 UseB2=F ITyADJ=14
 ICtDFT=  3500011 ScaDFX=  1.000000  1.000000  1.000000  1.000000
 FoFCou: FMM=F IPFlag=           0 FMFlag=      100000 FMFlg1=        2001
         NFxFlg=           0 DoJE=T BraDBF=F KetDBF=T FulRan=T
         wScrn=  0.000000 ICntrl=       500 IOpCl=  0 I1Cent=   200000004 NGrid=           0
         NMat0=    1 NMatS0=      1 NMatT0=    0 NMatD0=    1 NMtDS0=    0 NMtDT0=    0
 Petite list used in FoFCou.
 Initial guess <Sx>= 0.0000 <Sy>= 0.0000 <Sz>= 2.5000 <S**2>= 8.7500 S= 2.5000
 Requested convergence on RMS density matrix=1.00D-08 within 999 cycles.
 Requested convergence on MAX density matrix=1.00D-06.
 Requested convergence on             energy=1.00D-06.
 No special actions if energy rises.
 EnCoef did   100 forward-backward iterations
 EnCoef did   100 forward-backward iterations
 EnCoef did   100 forward-backward iterations
 EnCoef did   100 forward-backward iterations
 EnCoef did     6 forward-backward iterations
 EnCoef did     4 forward-backward iterations
 EnCoef did     2 forward-backward iterations
 Rare condition: small coef for last iteration:  0.000D+00
 Rare condition: small coef for last iteration:  0.000D+00
 Rare condition: small coef for last iteration:  0.000D+00
 Restarting incremental Fock formation.
 Rare condition: small coef for last iteration:  0.000D+00
 Rare condition: small coef for last iteration:  0.000D+00
 Restarting incremental Fock formation.
 Restarting incremental Fock formation.
 SCF Done:  E(UAPFD) =  -3079.98517610     A.U. after   62 cycles
            NFock= 62  Conv=0.25D-08     -V/T= 2.0032
 <Sx>= 0.0000 <Sy>= 0.0000 <Sz>= 2.5000 <S**2>= 8.8482 S= 2.5163
 <L.S>=  0.00000000000    
 Annihilation of the first spin contaminant:
 S**2 before annihilation     8.8482,   after     8.7528

 **********************************************************************

            Population analysis using the SCF Density.

 **********************************************************************

 Orbital symmetries:
 Alpha Orbitals:
       Occupied  (A) (A) (A) (A) (A) (A) (A) (A) (A) (A) (A) (A)
                 (A) (A) (A) (A) (A) (A) (A) (A) (A) (A) (A) (A)
                 (A) (A) (A) (A) (A) (A) (A) (A) (A) (A) (A) (A)
                 (A) (A) (A) (A) (A) (A) (A) (A) (A) (A) (A) (A)
                 (A) (A) (A) (A) (A) (A) (A) (A) (A) (A) (A) (A)
                 (A) (A) (A) (A) (A) (A) (A) (A) (A) (A) (A) (A)
                 (A) (A) (A) (A) (A) (A) (A) (A) (A) (A) (A) (A)
                 (A) (A) (A) (A) (A) (A) (A) (A) (A) (A) (A) (A)
                 (A) (A) (A) (A) (A) (A) (A) (A) (A) (A) (A) (A)
                 (A) (A) (A) (A) (A) (A) (A) (A) (A) (A) (A) (A)
                 (A) (A) (A) (A) (A) (A) (A) (A) (A) (A) (A) (A)
                 (A) (A) (A) (A) (A) (A) (A) (A) (A) (A) (A) (A)
                 (A) (A)
       Virtual   (A) (A) (A) (A) (A) (A) (A) (A) (A) (A) (A) (A)
                 (A) (A) (A) (A) (A) (A) (A) (A) (A) (A) (A) (A)
                 (A) (A) (A) (A) (A) (A) (A) (A) (A) (A) (A) (A)
                 (A) (A) (A) (A) (A) (A) (A) (A) (A) (A) (A) (A)
                 (A) (A) (A) (A) (A) (A) (A) (A) (A) (A) (A) (A)
                 (A) (A) (A) (A) (A) (A) (A) (A) (A) (A) (A) (A)
                 (A) (A) (A) (A) (A) (A) (A) (A) (A) (A) (A) (A)
                 (A) (A) (A) (A) (A) (A) (A) (A) (A) (A) (A) (A)
                 (A) (A) (A) (A) (A) (A) (A) (A) (A) (A) (A) (A)
                 (A) (A) (A) (A) (A) (A) (A) (A) (A) (A) (A) (A)
                 (A) (A) (A) (A) (A) (A) (A) (A) (A) (A) (A) (A)
                 (A) (A) (A) (A) (A) (A) (A) (A) (A) (A) (A) (A)
                 (A) (A) (A) (A) (A) (A) (A) (A) (A) (A) (A) (A)
                 (A) (A) (A) (A) (A) (A) (A) (A) (A) (A) (A) (A)
                 (A) (A) (A) (A) (A) (A) (A) (A) (A) (A) (A) (A)
                 (A) (A) (A) (A) (A) (A) (A) (A) (A) (A) (A) (A)
                 (A) (A) (A) (A) (A) (A) (A) (A) (A) (A) (A) (A)
                 (A) (A) (A) (A) (A) (A) (A) (A) (A) (A) (A) (A)
                 (A) (A) (A) (A) (A) (A) (A) (A) (A) (A) (A) (A)
                 (A) (A) (A) (A) (A) (A) (A) (A) (A) (A) (A) (A)
                 (A) (A) (A) (A) (A) (A) (A) (A) (A) (A) (A) (A)
                 (A) (A) (A) (A) (A) (A) (A) (A) (A) (A) (A) (A)
                 (A) (A) (A) (A) (A) (A) (A) (A) (A) (A) (A) (A)
                 (A) (A) (A) (A) (A) (A) (A) (A) (A) (A) (A) (A)
                 (A) (A) (A) (A) (A) (A) (A) (A) (A) (A) (A) (A)
                 (A) (A) (A) (A) (A) (A) (A) (A) (A) (A) (A) (A)
                 (A) (A) (A) (A) (A) (A) (A) (A) (A) (A) (A) (A)
                 (A) (A) (A) (A) (A) (A) (A) (A) (A) (A) (A) (A)
                 (A) (A) (A) (A) (A) (A) (A) (A) (A) (A) (A) (A)
                 (A) (A) (A) (A) (A) (A) (A) (A) (A) (A) (A) (A)
                 (A) (A) (A) (A) (A) (A) (A) (A) (A) (A) (A) (A)
                 (A) (A) (A) (A) (A) (A) (A) (A) (A) (A) (A) (A)
                 (A) (A) (A) (A) (A) (A) (A) (A) (A) (A) (A) (A)
                 (A) (A) (A) (A) (A) (A) (A) (A) (A) (A) (A) (A)
                 (A) (A) (A) (A) (A) (A) (A) (A) (A) (A) (A) (A)
                 (A) (A) (A) (A) (A) (A) (A) (A) (A) (A) (A) (A)
                 (A) (A) (A) (A) (A) (A) (A) (A) (A) (A) (A) (A)
                 (A) (A) (A) (A) (A) (A) (A) (A) (A) (A) (A) (A)
                 (A) (A) (A)
 Beta  Orbitals:
       Occupied  (A) (A) (A) (A) (A) (A) (A) (A) (A) (A) (A) (A)
                 (A) (A) (A) (A) (A) (A) (A) (A) (A) (A) (A) (A)
                 (A) (A) (A) (A) (A) (A) (A) (A) (A) (A) (A) (A)
                 (A) (A) (A) (A) (A) (A) (A) (A) (A) (A) (A) (A)
                 (A) (A) (A) (A) (A) (A) (A) (A) (A) (A) (A) (A)
                 (A) (A) (A) (A) (A) (A) (A) (A) (A) (A) (A) (A)
                 (A) (A) (A) (A) (A) (A) (A) (A) (A) (A) (A) (A)
                 (A) (A) (A) (A) (A) (A) (A) (A) (A) (A) (A) (A)
                 (A) (A) (A) (A) (A) (A) (A) (A) (A) (A) (A) (A)
                 (A) (A) (A) (A) (A) (A) (A) (A) (A) (A) (A) (A)
                 (A) (A) (A) (A) (A) (A) (A) (A) (A) (A) (A) (A)
                 (A) (A) (A) (A) (A) (A) (A) (A) (A)
       Virtual   (A) (A) (A) (A) (A) (A) (A) (A) (A) (A) (A) (A)
                 (A) (A) (A) (A) (A) (A) (A) (A) (A) (A) (A) (A)
                 (A) (A) (A) (A) (A) (A) (A) (A) (A) (A) (A) (A)
                 (A) (A) (A) (A) (A) (A) (A) (A) (A) (A) (A) (A)
                 (A) (A) (A) (A) (A) (A) (A) (A) (A) (A) (A) (A)
                 (A) (A) (A) (A) (A) (A) (A) (A) (A) (A) (A) (A)
                 (A) (A) (A) (A) (A) (A) (A) (A) (A) (A) (A) (A)
                 (A) (A) (A) (A) (A) (A) (A) (A) (A) (A) (A) (A)
                 (A) (A) (A) (A) (A) (A) (A) (A) (A) (A) (A) (A)
                 (A) (A) (A) (A) (A) (A) (A) (A) (A) (A) (A) (A)
                 (A) (A) (A) (A) (A) (A) (A) (A) (A) (A) (A) (A)
                 (A) (A) (A) (A) (A) (A) (A) (A) (A) (A) (A) (A)
                 (A) (A) (A) (A) (A) (A) (A) (A) (A) (A) (A) (A)
                 (A) (A) (A) (A) (A) (A) (A) (A) (A) (A) (A) (A)
                 (A) (A) (A) (A) (A) (A) (A) (A) (A) (A) (A) (A)
                 (A) (A) (A) (A) (A) (A) (A) (A) (A) (A) (A) (A)
                 (A) (A) (A) (A) (A) (A) (A) (A) (A) (A) (A) (A)
                 (A) (A) (A) (A) (A) (A) (A) (A) (A) (A) (A) (A)
                 (A) (A) (A) (A) (A) (A) (A) (A) (A) (A) (A) (A)
                 (A) (A) (A) (A) (A) (A) (A) (A) (A) (A) (A) (A)
                 (A) (A) (A) (A) (A) (A) (A) (A) (A) (A) (A) (A)
                 (A) (A) (A) (A) (A) (A) (A) (A) (A) (A) (A) (A)
                 (A) (A) (A) (A) (A) (A) (A) (A) (A) (A) (A) (A)
                 (A) (A) (A) (A) (A) (A) (A) (A) (A) (A) (A) (A)
                 (A) (A) (A) (A) (A) (A) (A) (A) (A) (A) (A) (A)
                 (A) (A) (A) (A) (A) (A) (A) (A) (A) (A) (A) (A)
                 (A) (A) (A) (A) (A) (A) (A) (A) (A) (A) (A) (A)
                 (A) (A) (A) (A) (A) (A) (A) (A) (A) (A) (A) (A)
                 (A) (A) (A) (A) (A) (A) (A) (A) (A) (A) (A) (A)
                 (A) (A) (A) (A) (A) (A) (A) (A) (A) (A) (A) (A)
                 (A) (A) (A) (A) (A) (A) (A) (A) (A) (A) (A) (A)
                 (A) (A) (A) (A) (A) (A) (A) (A) (A) (A) (A) (A)
                 (A) (A) (A) (A) (A) (A) (A) (A) (A) (A) (A) (A)
                 (A) (A) (A) (A) (A) (A) (A) (A) (A) (A) (A) (A)
                 (A) (A) (A) (A) (A) (A) (A) (A) (A) (A) (A) (A)
                 (A) (A) (A) (A) (A) (A) (A) (A) (A) (A) (A) (A)
                 (A) (A) (A) (A) (A) (A) (A) (A) (A) (A) (A) (A)
                 (A) (A) (A) (A) (A) (A) (A) (A) (A) (A) (A) (A)
                 (A) (A) (A) (A) (A) (A) (A) (A)
 The electronic state is 6-A.
 Alpha  occ. eigenvalues -- -256.40522 -89.09133 -30.29334 -26.14097 -26.11987
 Alpha  occ. eigenvalues --  -26.11786 -14.49150 -14.48873 -14.48821 -14.48809
 Alpha  occ. eigenvalues --  -10.36138 -10.36047 -10.36028 -10.35920 -10.35456
 Alpha  occ. eigenvalues --  -10.35211 -10.35199 -10.35095 -10.34849 -10.31918
 Alpha  occ. eigenvalues --  -10.31898 -10.31822 -10.31641 -10.31599 -10.31515
 Alpha  occ. eigenvalues --  -10.31511 -10.31373 -10.31325 -10.31280 -10.30612
 Alpha  occ. eigenvalues --  -10.30307 -10.29624 -10.29490 -10.29462 -10.29332
 Alpha  occ. eigenvalues --  -10.29315 -10.29151 -10.29083 -10.28992 -10.28969
 Alpha  occ. eigenvalues --  -10.28930  -8.12570  -6.07105  -6.06849  -6.06382
 Alpha  occ. eigenvalues --   -3.71506  -2.51730  -2.46130  -2.45748  -1.10897
 Alpha  occ. eigenvalues --   -1.09964  -1.09771  -1.08884  -0.95138  -0.94148
 Alpha  occ. eigenvalues --   -0.93469  -0.93240  -0.92809  -0.92557  -0.92269
 Alpha  occ. eigenvalues --   -0.92150  -0.88336  -0.86895  -0.86469  -0.85564
 Alpha  occ. eigenvalues --   -0.84000  -0.82266  -0.81223  -0.80000  -0.79686
 Alpha  occ. eigenvalues --   -0.79575  -0.79308  -0.76822  -0.76662  -0.72293
 Alpha  occ. eigenvalues --   -0.71583  -0.69741  -0.69550  -0.66586  -0.66282
 Alpha  occ. eigenvalues --   -0.65715  -0.64113  -0.63362  -0.62575  -0.62263
 Alpha  occ. eigenvalues --   -0.60235  -0.60092  -0.59454  -0.59216  -0.58263
 Alpha  occ. eigenvalues --   -0.57618  -0.57275  -0.56552  -0.56369  -0.56094
 Alpha  occ. eigenvalues --   -0.55391  -0.54744  -0.54613  -0.54357  -0.54208
 Alpha  occ. eigenvalues --   -0.53671  -0.52979  -0.52806  -0.52304  -0.52075
 Alpha  occ. eigenvalues --   -0.51990  -0.51782  -0.51577  -0.51472  -0.51334
 Alpha  occ. eigenvalues --   -0.51277  -0.51225  -0.50740  -0.50444  -0.50038
 Alpha  occ. eigenvalues --   -0.49978  -0.49781  -0.49432  -0.49227  -0.49135
 Alpha  occ. eigenvalues --   -0.48894  -0.48306  -0.48070  -0.47582  -0.47174
 Alpha  occ. eigenvalues --   -0.46213  -0.45685  -0.45514  -0.45043  -0.44820
 Alpha  occ. eigenvalues --   -0.44524  -0.44275  -0.43054  -0.42615  -0.40959
 Alpha  occ. eigenvalues --   -0.40560  -0.39706  -0.38992  -0.38090  -0.35138
 Alpha  occ. eigenvalues --   -0.34906  -0.33872  -0.33701  -0.32039  -0.30945
 Alpha  occ. eigenvalues --   -0.22973
 Alpha virt. eigenvalues --   -0.20614  -0.18771  -0.13386  -0.10288  -0.09311
 Alpha virt. eigenvalues --   -0.08791  -0.07054  -0.06157  -0.03964  -0.03159
 Alpha virt. eigenvalues --   -0.02370  -0.01342   0.00058   0.00906   0.01358
 Alpha virt. eigenvalues --    0.01985   0.02377   0.02434   0.02783   0.02872
 Alpha virt. eigenvalues --    0.03667   0.03753   0.04303   0.04674   0.05128
 Alpha virt. eigenvalues --    0.05520   0.05725   0.06174   0.06632   0.06804
 Alpha virt. eigenvalues --    0.07071   0.07427   0.07698   0.08036   0.08524
 Alpha virt. eigenvalues --    0.08691   0.08903   0.09494   0.09668   0.10190
 Alpha virt. eigenvalues --    0.10819   0.11213   0.11250   0.11457   0.11922
 Alpha virt. eigenvalues --    0.12038   0.12378   0.13044   0.13187   0.13449
 Alpha virt. eigenvalues --    0.13607   0.14198   0.14812   0.15338   0.15487
 Alpha virt. eigenvalues --    0.15716   0.16764   0.16825   0.18330   0.18543
 Alpha virt. eigenvalues --    0.19156   0.19454   0.20602   0.20716   0.22388
 Alpha virt. eigenvalues --    0.22663   0.23205   0.23502   0.24174   0.24330
 Alpha virt. eigenvalues --    0.25037   0.25126   0.25902   0.26261   0.27388
 Alpha virt. eigenvalues --    0.28173   0.29982   0.31478   0.31869   0.32345
 Alpha virt. eigenvalues --    0.32742   0.33715   0.34003   0.35167   0.36273
 Alpha virt. eigenvalues --    0.36722   0.37103   0.37529   0.37861   0.38806
 Alpha virt. eigenvalues --    0.39094   0.39854   0.40074   0.41332   0.41505
 Alpha virt. eigenvalues --    0.41784   0.42337   0.42628   0.42956   0.43415
 Alpha virt. eigenvalues --    0.43852   0.44537   0.44736   0.44850   0.46072
 Alpha virt. eigenvalues --    0.46541   0.46975   0.47231   0.47700   0.48874
 Alpha virt. eigenvalues --    0.49173   0.49495   0.49552   0.49969   0.50867
 Alpha virt. eigenvalues --    0.51162   0.51371   0.51518   0.51999   0.52319
 Alpha virt. eigenvalues --    0.52637   0.53654   0.53951   0.54372   0.54804
 Alpha virt. eigenvalues --    0.55239   0.55581   0.55877   0.56806   0.57018
 Alpha virt. eigenvalues --    0.57527   0.58353   0.58537   0.59352   0.59684
 Alpha virt. eigenvalues --    0.59823   0.60663   0.61084   0.61650   0.62066
 Alpha virt. eigenvalues --    0.62153   0.62614   0.63056   0.63992   0.64636
 Alpha virt. eigenvalues --    0.65072   0.65379   0.65538   0.66147   0.66431
 Alpha virt. eigenvalues --    0.66740   0.67114   0.67266   0.67791   0.68186
 Alpha virt. eigenvalues --    0.68393   0.68670   0.69499   0.69981   0.70078
 Alpha virt. eigenvalues --    0.70330   0.70858   0.71660   0.72383   0.72638
 Alpha virt. eigenvalues --    0.73996   0.74980   0.75382   0.76289   0.77111
 Alpha virt. eigenvalues --    0.77426   0.77769   0.78153   0.78489   0.79286
 Alpha virt. eigenvalues --    0.79512   0.79551   0.79980   0.80317   0.80484
 Alpha virt. eigenvalues --    0.80676   0.81448   0.82011   0.82254   0.82446
 Alpha virt. eigenvalues --    0.82895   0.83009   0.83766   0.83906   0.84120
 Alpha virt. eigenvalues --    0.84688   0.85123   0.85486   0.85972   0.86190
 Alpha virt. eigenvalues --    0.86901   0.87597   0.87696   0.88380   0.88933
 Alpha virt. eigenvalues --    0.89221   0.89470   0.89854   0.89919   0.90325
 Alpha virt. eigenvalues --    0.91310   0.91680   0.92080   0.92472   0.93054
 Alpha virt. eigenvalues --    0.93632   0.94202   0.94969   0.95753   0.96424
 Alpha virt. eigenvalues --    0.96894   0.97556   0.99088   1.00634   1.02584
 Alpha virt. eigenvalues --    1.03492   1.03841   1.04728   1.05147   1.05642
 Alpha virt. eigenvalues --    1.06549   1.06825   1.07276   1.07476   1.08490
 Alpha virt. eigenvalues --    1.08892   1.09362   1.09823   1.10165   1.10623
 Alpha virt. eigenvalues --    1.11010   1.11831   1.13150   1.13587   1.14390
 Alpha virt. eigenvalues --    1.14956   1.15822   1.16153   1.16770   1.17669
 Alpha virt. eigenvalues --    1.18304   1.19903   1.20968   1.21775   1.23004
 Alpha virt. eigenvalues --    1.24010   1.24186   1.24722   1.25403   1.25552
 Alpha virt. eigenvalues --    1.25853   1.26230   1.26714   1.27099   1.27287
 Alpha virt. eigenvalues --    1.27973   1.28850   1.30838   1.32307   1.32921
 Alpha virt. eigenvalues --    1.34561   1.34786   1.36134   1.36889   1.37668
 Alpha virt. eigenvalues --    1.40261   1.41429   1.41908   1.42180   1.42749
 Alpha virt. eigenvalues --    1.43408   1.44197   1.45185   1.45720   1.47313
 Alpha virt. eigenvalues --    1.47375   1.48059   1.49171   1.51002   1.51417
 Alpha virt. eigenvalues --    1.52809   1.53421   1.55326   1.56649   1.58068
 Alpha virt. eigenvalues --    1.58295   1.59107   1.59949   1.61495   1.61717
 Alpha virt. eigenvalues --    1.63830   1.65507   1.66066   1.67000   1.68156
 Alpha virt. eigenvalues --    1.68655   1.68891   1.69295   1.69605   1.70094
 Alpha virt. eigenvalues --    1.70767   1.71627   1.72162   1.72837   1.73365
 Alpha virt. eigenvalues --    1.73979   1.74797   1.75854   1.75952   1.76275
 Alpha virt. eigenvalues --    1.76741   1.78921   1.79658   1.79871   1.80385
 Alpha virt. eigenvalues --    1.81268   1.81712   1.82215   1.82416   1.83088
 Alpha virt. eigenvalues --    1.83468   1.83870   1.84555   1.87757   1.88570
 Alpha virt. eigenvalues --    1.88908   1.89308   1.89551   1.90429   1.90837
 Alpha virt. eigenvalues --    1.91113   1.92538   1.93190   1.93818   1.94028
 Alpha virt. eigenvalues --    1.94119   1.96665   1.97662   1.97898   1.98437
 Alpha virt. eigenvalues --    1.99297   2.00518   2.02519   2.03555   2.04180
 Alpha virt. eigenvalues --    2.04903   2.06388   2.07111   2.07649   2.08579
 Alpha virt. eigenvalues --    2.08631   2.09900   2.10619   2.10922   2.12097
 Alpha virt. eigenvalues --    2.12773   2.13079   2.13648   2.14176   2.14299
 Alpha virt. eigenvalues --    2.14595   2.15565   2.15977   2.16810   2.17059
 Alpha virt. eigenvalues --    2.17919   2.18379   2.19183   2.19240   2.20031
 Alpha virt. eigenvalues --    2.21064   2.21191   2.21865   2.22641   2.23389
 Alpha virt. eigenvalues --    2.23740   2.24308   2.24482   2.25200   2.25760
 Alpha virt. eigenvalues --    2.26876   2.28901   2.29584   2.29893   2.30671
 Alpha virt. eigenvalues --    2.31435   2.31657   2.32463   2.32679   2.35204
 Alpha virt. eigenvalues --    2.35471   2.37393   2.38202   2.39006   2.40966
 Alpha virt. eigenvalues --    2.41281   2.41920   2.42271   2.42865   2.43010
 Alpha virt. eigenvalues --    2.43688   2.44498   2.45329   2.46333   2.47490
 Alpha virt. eigenvalues --    2.48242   2.50039   2.51856   2.54811   2.55550
 Alpha virt. eigenvalues --    2.55984   2.57013   2.58609   2.59990   2.60298
 Alpha virt. eigenvalues --    2.65236   2.66517   2.66785   2.67871   2.69977
 Alpha virt. eigenvalues --    2.71778   2.75088   2.75581   2.76759   2.78945
 Alpha virt. eigenvalues --    2.79548   2.81071   2.83447   2.83913   2.85504
 Alpha virt. eigenvalues --    2.85999   2.87511   2.88052   2.88985   2.92790
 Alpha virt. eigenvalues --    2.94524   3.01418   3.01647   3.05297   3.10637
 Alpha virt. eigenvalues --    3.11859   3.16284   3.17034   3.17178   3.26586
 Alpha virt. eigenvalues --    3.28155   3.28537   3.33470   3.34093   3.35772
 Alpha virt. eigenvalues --    3.36750   3.66907   3.83562   3.95624
  Beta  occ. eigenvalues -- -256.40411 -89.09029 -30.23387 -26.07950 -26.07835
  Beta  occ. eigenvalues --  -26.07178 -14.49170 -14.48906 -14.48854 -14.48835
  Beta  occ. eigenvalues --  -10.35968 -10.35857 -10.35843 -10.35734 -10.34976
  Beta  occ. eigenvalues --  -10.34844 -10.34756 -10.34730 -10.34600 -10.31962
  Beta  occ. eigenvalues --  -10.31930 -10.31894 -10.31826 -10.31696 -10.31521
  Beta  occ. eigenvalues --  -10.31319 -10.31288 -10.31136 -10.31114 -10.30618
  Beta  occ. eigenvalues --  -10.30373 -10.29459 -10.29361 -10.29327 -10.29288
  Beta  occ. eigenvalues --  -10.29189 -10.29165 -10.29079 -10.29008 -10.28945
  Beta  occ. eigenvalues --  -10.28852  -8.12456  -6.07032  -6.06726  -6.06129
  Beta  occ. eigenvalues --   -3.57281  -2.33698  -2.33566  -2.30813  -1.10409
  Beta  occ. eigenvalues --   -1.09475  -1.09286  -1.08400  -0.94517  -0.93743
  Beta  occ. eigenvalues --   -0.93218  -0.92992  -0.92573  -0.92241  -0.91996
  Beta  occ. eigenvalues --   -0.91434  -0.87992  -0.86729  -0.86149  -0.85314
  Beta  occ. eigenvalues --   -0.83844  -0.81998  -0.81042  -0.79674  -0.79469
  Beta  occ. eigenvalues --   -0.79281  -0.79156  -0.76371  -0.75986  -0.72036
  Beta  occ. eigenvalues --   -0.71367  -0.69314  -0.69264  -0.66268  -0.66079
  Beta  occ. eigenvalues --   -0.65488  -0.63810  -0.63123  -0.62324  -0.62020
  Beta  occ. eigenvalues --   -0.59781  -0.59499  -0.59323  -0.58983  -0.57519
  Beta  occ. eigenvalues --   -0.57275  -0.56579  -0.55988  -0.55348  -0.54783
  Beta  occ. eigenvalues --   -0.54516  -0.54365  -0.54162  -0.54109  -0.53679
  Beta  occ. eigenvalues --   -0.52805  -0.52123  -0.51957  -0.51727  -0.51557
  Beta  occ. eigenvalues --   -0.51461  -0.51167  -0.51005  -0.50931  -0.50744
  Beta  occ. eigenvalues --   -0.50575  -0.50177  -0.50090  -0.49789  -0.49289
  Beta  occ. eigenvalues --   -0.49120  -0.48876  -0.48660  -0.48323  -0.48097
  Beta  occ. eigenvalues --   -0.47956  -0.47177  -0.46969  -0.46009  -0.45119
  Beta  occ. eigenvalues --   -0.44708  -0.44268  -0.43510  -0.43369  -0.42907
  Beta  occ. eigenvalues --   -0.41814  -0.39976  -0.39388  -0.38318  -0.37915
  Beta  occ. eigenvalues --   -0.37090  -0.35442  -0.34850  -0.33933  -0.33198
  Beta  occ. eigenvalues --   -0.30639
  Beta virt. eigenvalues --   -0.25430  -0.21396  -0.20773  -0.18843  -0.16972
  Beta virt. eigenvalues --   -0.15733  -0.12661  -0.11656  -0.09426  -0.08530
  Beta virt. eigenvalues --   -0.07491  -0.05538  -0.04938  -0.02264  -0.01559
  Beta virt. eigenvalues --   -0.01077  -0.00239   0.00629   0.01282   0.01971
  Beta virt. eigenvalues --    0.02374   0.02524   0.03285   0.03779   0.03878
  Beta virt. eigenvalues --    0.04012   0.04491   0.04727   0.05130   0.05437
  Beta virt. eigenvalues --    0.05796   0.06055   0.06376   0.06782   0.06919
  Beta virt. eigenvalues --    0.07225   0.07548   0.07910   0.08317   0.08705
  Beta virt. eigenvalues --    0.08879   0.09133   0.09712   0.09876   0.10625
  Beta virt. eigenvalues --    0.11088   0.11527   0.11720   0.12202   0.12347
  Beta virt. eigenvalues --    0.12561   0.12985   0.13340   0.13527   0.13874
  Beta virt. eigenvalues --    0.14044   0.14867   0.15078   0.15657   0.15947
  Beta virt. eigenvalues --    0.16698   0.16955   0.17148   0.18681   0.18928
  Beta virt. eigenvalues --    0.19516   0.19982   0.21108   0.21291   0.22716
  Beta virt. eigenvalues --    0.23264   0.23608   0.24033   0.24709   0.25011
  Beta virt. eigenvalues --    0.25286   0.25599   0.26166   0.26743   0.27893
  Beta virt. eigenvalues --    0.28623   0.30865   0.31887   0.32325   0.32817
  Beta virt. eigenvalues --    0.33040   0.34186   0.34650   0.35631   0.36548
  Beta virt. eigenvalues --    0.37074   0.37351   0.37706   0.38578   0.39050
  Beta virt. eigenvalues --    0.39368   0.40205   0.40519   0.41655   0.41837
  Beta virt. eigenvalues --    0.42122   0.42745   0.43243   0.43353   0.43772
  Beta virt. eigenvalues --    0.44296   0.44875   0.45145   0.45334   0.46512
  Beta virt. eigenvalues --    0.47124   0.47370   0.47641   0.48200   0.49387
  Beta virt. eigenvalues --    0.49551   0.49809   0.50065   0.50375   0.51561
  Beta virt. eigenvalues --    0.51749   0.51875   0.52267   0.52576   0.52699
  Beta virt. eigenvalues --    0.53455   0.54049   0.54484   0.54935   0.55265
  Beta virt. eigenvalues --    0.55619   0.55778   0.56181   0.57053   0.57395
  Beta virt. eigenvalues --    0.57967   0.58642   0.59028   0.59796   0.60039
  Beta virt. eigenvalues --    0.60635   0.60913   0.61469   0.62077   0.62347
  Beta virt. eigenvalues --    0.62417   0.63272   0.63628   0.64760   0.65191
  Beta virt. eigenvalues --    0.65284   0.65737   0.66182   0.66680   0.66901
  Beta virt. eigenvalues --    0.67445   0.67602   0.67925   0.68278   0.68498
  Beta virt. eigenvalues --    0.68917   0.69282   0.69848   0.70265   0.70515
  Beta virt. eigenvalues --    0.70646   0.71615   0.72575   0.73270   0.73821
  Beta virt. eigenvalues --    0.75102   0.75888   0.76465   0.76579   0.77289
  Beta virt. eigenvalues --    0.77808   0.77921   0.78326   0.78694   0.79407
  Beta virt. eigenvalues --    0.79669   0.79728   0.80195   0.80512   0.80629
  Beta virt. eigenvalues --    0.80905   0.81692   0.82226   0.82493   0.82643
  Beta virt. eigenvalues --    0.83153   0.83258   0.83945   0.84110   0.84393
  Beta virt. eigenvalues --    0.84898   0.85523   0.85685   0.86344   0.86606
  Beta virt. eigenvalues --    0.87157   0.87822   0.88040   0.88679   0.89176
  Beta virt. eigenvalues --    0.89464   0.89733   0.90096   0.90210   0.90548
  Beta virt. eigenvalues --    0.91583   0.91898   0.92434   0.92786   0.93886
  Beta virt. eigenvalues --    0.94412   0.94579   0.95536   0.96086   0.96685
  Beta virt. eigenvalues --    0.97477   0.98347   0.99363   1.00981   1.02861
  Beta virt. eigenvalues --    1.03678   1.04181   1.05237   1.05771   1.05959
  Beta virt. eigenvalues --    1.06836   1.07020   1.07485   1.07626   1.08757
  Beta virt. eigenvalues --    1.09259   1.09706   1.10084   1.10480   1.11041
  Beta virt. eigenvalues --    1.11641   1.12232   1.13859   1.14196   1.14985
  Beta virt. eigenvalues --    1.15774   1.16572   1.16819   1.17644   1.18435
  Beta virt. eigenvalues --    1.19368   1.20437   1.21560   1.22406   1.23476
  Beta virt. eigenvalues --    1.24563   1.24619   1.25142   1.25789   1.26059
  Beta virt. eigenvalues --    1.26588   1.26685   1.27316   1.27627   1.27812
  Beta virt. eigenvalues --    1.28504   1.29282   1.31469   1.33163   1.33414
  Beta virt. eigenvalues --    1.35178   1.35239   1.36388   1.37385   1.38351
  Beta virt. eigenvalues --    1.40952   1.42001   1.42441   1.42726   1.43169
  Beta virt. eigenvalues --    1.43927   1.44717   1.45687   1.46362   1.47751
  Beta virt. eigenvalues --    1.47949   1.48709   1.49844   1.51639   1.52005
  Beta virt. eigenvalues --    1.53128   1.53671   1.55673   1.57350   1.58508
  Beta virt. eigenvalues --    1.58710   1.59379   1.60271   1.61899   1.62047
  Beta virt. eigenvalues --    1.64457   1.65818   1.66497   1.67389   1.68446
  Beta virt. eigenvalues --    1.69017   1.69166   1.69680   1.69960   1.70714
  Beta virt. eigenvalues --    1.71324   1.71932   1.72576   1.73191   1.73675
  Beta virt. eigenvalues --    1.74254   1.75083   1.76088   1.76217   1.76570
  Beta virt. eigenvalues --    1.77096   1.79256   1.80168   1.80891   1.81040
  Beta virt. eigenvalues --    1.81568   1.82284   1.82655   1.82904   1.83531
  Beta virt. eigenvalues --    1.83963   1.84547   1.86875   1.88095   1.89114
  Beta virt. eigenvalues --    1.89284   1.89563   1.90010   1.90735   1.91430
  Beta virt. eigenvalues --    1.91787   1.93203   1.93520   1.94232   1.94432
  Beta virt. eigenvalues --    1.94923   1.97085   1.98256   1.98735   1.99484
  Beta virt. eigenvalues --    1.99773   2.00875   2.02803   2.04004   2.04380
  Beta virt. eigenvalues --    2.05305   2.06711   2.07725   2.08384   2.08974
  Beta virt. eigenvalues --    2.09900   2.10434   2.11414   2.12340   2.12850
  Beta virt. eigenvalues --    2.13252   2.14014   2.14249   2.14623   2.15032
  Beta virt. eigenvalues --    2.15156   2.15837   2.16545   2.17353   2.17487
  Beta virt. eigenvalues --    2.18376   2.18979   2.19593   2.19710   2.20372
  Beta virt. eigenvalues --    2.21488   2.21805   2.22247   2.23271   2.24093
  Beta virt. eigenvalues --    2.24316   2.24918   2.25159   2.25640   2.26422
  Beta virt. eigenvalues --    2.27365   2.29213   2.30021   2.30206   2.30920
  Beta virt. eigenvalues --    2.31880   2.32253   2.32994   2.33289   2.35815
  Beta virt. eigenvalues --    2.36027   2.38074   2.38659   2.39575   2.41326
  Beta virt. eigenvalues --    2.41825   2.42235   2.42601   2.43221   2.43539
  Beta virt. eigenvalues --    2.43928   2.45034   2.45896   2.46840   2.48087
  Beta virt. eigenvalues --    2.48889   2.50717   2.52333   2.55291   2.56253
  Beta virt. eigenvalues --    2.56705   2.57936   2.59232   2.60438   2.60578
  Beta virt. eigenvalues --    2.65381   2.66935   2.67200   2.68034   2.70186
  Beta virt. eigenvalues --    2.71998   2.75359   2.76039   2.77198   2.79414
  Beta virt. eigenvalues --    2.79993   2.81604   2.83709   2.84994   2.85780
  Beta virt. eigenvalues --    2.86235   2.87709   2.88190   2.89540   2.92940
  Beta virt. eigenvalues --    2.94701   3.01683   3.01869   3.05434   3.10916
  Beta virt. eigenvalues --    3.12162   3.17205   3.17353   3.24173   3.27645
  Beta virt. eigenvalues --    3.28355   3.28971   3.34535   3.34849   3.46029
  Beta virt. eigenvalues --    3.46785   3.70968   3.89533   4.01285
          Condensed to atoms (all electrons):
          Atomic-Atomic Spin Densities.
 Mulliken charges and spin densities:
               1          2
     1  Fe   0.750925   2.819520
     2  N   -0.698265  -0.042608
     3  N   -0.686194  -0.040172
     4  N   -0.707444  -0.038560
     5  N   -0.722784  -0.045361
     6  C    0.352408   0.117825
     7  C    0.037437   0.126790
     8  C    0.052474  -0.037556
     9  C    0.325927   0.307607
    10  C    0.313303   0.316467
    11  C    0.049776  -0.056913
    12  C   -0.002563   0.158414
    13  C    0.347755   0.105935
    14  C    0.339813   0.118274
    15  C    0.039257   0.147827
    16  C    0.010333  -0.032021
    17  C    0.344663   0.321655
    18  C    0.341782   0.332142
    19  C    0.053372  -0.047380
    20  C    0.040771   0.140605
    21  C    0.371724   0.116938
    22  C   -0.341866   0.179998
    23  H    0.188876  -0.010036
    24  C   -0.293507  -0.180422
    25  H    0.197631   0.006387
    26  C   -0.342543   0.206404
    27  H    0.193691  -0.010596
    28  C   -0.284116  -0.189405
    29  H    0.203171   0.006695
    30  C   -0.612953   0.002162
    31  H    0.210546  -0.000762
    32  H    0.213948   0.000165
    33  H    0.204413   0.000287
    34  C   -0.610466  -0.011322
    35  H    0.204108   0.006488
    36  H    0.212983   0.007764
    37  H    0.206594  -0.000261
    38  C   -0.605882   0.003519
    39  H    0.200818  -0.000562
    40  H    0.215740  -0.000407
    41  H    0.210601  -0.000813
    42  C   -0.163595  -0.050463
    43  H    0.190895   0.005258
    44  C   -0.385959   0.081371
    45  H    0.191145  -0.003827
    46  H    0.198791  -0.003915
    47  C   -0.601741  -0.013195
    48  H    0.203799   0.007332
    49  H    0.213566   0.009026
    50  H    0.206264  -0.000207
    51  C   -0.159307  -0.005096
    52  H    0.196438   0.000377
    53  C   -0.386206   0.019437
    54  H    0.189860  -0.000869
    55  H    0.201874  -0.000548
    56  C   -0.613779   0.002887
    57  H    0.212350   0.000087
    58  H    0.209781  -0.000139
    59  H    0.209482  -0.000789
    60  C   -0.610451  -0.012341
    61  H    0.206159   0.007249
    62  H    0.207286  -0.000276
    63  H    0.210564   0.008153
    64  C   -0.689092   0.001200
    65  H    0.249289   0.003712
    66  H    0.248983  -0.000152
    67  H    0.245864   0.001347
    68  S    0.106900   0.139242
    69  H    0.184581   0.000429
 Sum of Mulliken charges =   1.00000   5.00000
 Mulliken charges and spin densities with hydrogens summed into heavy atoms:
               1          2
     1  Fe   0.750925   2.819520
     2  N   -0.698265  -0.042608
     3  N   -0.686194  -0.040172
     4  N   -0.707444  -0.038560
     5  N   -0.722784  -0.045361
     6  C    0.352408   0.117825
     7  C    0.037437   0.126790
     8  C    0.052474  -0.037556
     9  C    0.325927   0.307607
    10  C    0.313303   0.316467
    11  C    0.049776  -0.056913
    12  C   -0.002563   0.158414
    13  C    0.347755   0.105935
    14  C    0.339813   0.118274
    15  C    0.039257   0.147827
    16  C    0.010333  -0.032021
    17  C    0.344663   0.321655
    18  C    0.341782   0.332142
    19  C    0.053372  -0.047380
    20  C    0.040771   0.140605
    21  C    0.371724   0.116938
    22  C   -0.152990   0.169961
    24  C   -0.095876  -0.174035
    26  C   -0.148852   0.195808
    28  C   -0.080945  -0.182710
    30  C    0.015954   0.001851
    34  C    0.013220   0.002668
    38  C    0.021276   0.001738
    42  C    0.027300  -0.045205
    44  C    0.003976   0.073629
    47  C    0.021889   0.002956
    51  C    0.037131  -0.004719
    53  C    0.005528   0.018021
    56  C    0.017833   0.002046
    60  C    0.013559   0.002785
    64  C    0.055044   0.006107
    68  S    0.291481   0.139671
 Electronic spatial extent (au):  <R**2>=          17677.6852
 Charge=              1.0000 electrons
 Dipole moment (field-independent basis, Debye):
    X=             -1.3411    Y=             -0.3107    Z=              2.6314  Tot=              2.9698
 Quadrupole moment (field-independent basis, Debye-Ang):
   XX=           -148.8748   YY=           -157.6046   ZZ=           -220.5957
   XY=             -0.2317   XZ=             -4.7471   YZ=              4.7535
 Traceless Quadrupole moment (field-independent basis, Debye-Ang):
   XX=             26.8169   YY=             18.0871   ZZ=            -44.9040
   XY=             -0.2317   XZ=             -4.7471   YZ=              4.7535
 Octapole moment (field-independent basis, Debye-Ang**2):
  XXX=             27.2980  YYY=            -10.5732  ZZZ=             38.6618  XYY=             -3.1769
  XXY=            -17.5004  XXZ=            -15.5949  XZZ=            -20.7033  YZZ=              3.8824
  YYZ=             -6.3518  XYZ=             10.2403
 Hexadecapole moment (field-independent basis, Debye-Ang**3):
 XXXX=          -9396.6438 YYYY=          -9418.6034 ZZZZ=          -1068.6258 XXXY=            108.1579
 XXXZ=             18.7921 YYYX=           -125.2704 YYYZ=             12.1271 ZZZX=            -70.8445
 ZZZY=             32.7382 XXYY=          -3179.1936 XXZZ=          -2093.4132 YYZZ=          -2113.5148
 XXYZ=             82.3315 YYXZ=            -11.5278 ZZXY=              4.1334
 N-N= 5.056227664344D+03 E-N=-1.732880617943D+04  KE= 3.070233065015D+03
                          Isotropic Fermi Contact Couplings
        Atom                 a.u.       MegaHertz       Gauss      10(-4) cm-1
     1  Fe(57)             0.48424      14.04691       5.01229       4.68554
     2  N(14)             -0.04205      -2.71722      -0.96957      -0.90637
     3  N(14)             -0.03564      -2.30279      -0.82169      -0.76813
     4  N(14)             -0.03627      -2.34383      -0.83634      -0.78182
     5  N(14)             -0.03930      -2.53983      -0.90628      -0.84720
     6  C(13)              0.00889       1.99990       0.71361       0.66709
     7  C(13)              0.01528       3.43452       1.22552       1.14563
     8  C(13)             -0.01135      -2.55244      -0.91077      -0.85140
     9  C(13)              0.04021       9.04150       3.22623       3.01592
    10  C(13)              0.04167       9.36879       3.34302       3.12509
    11  C(13)             -0.01475      -3.31630      -1.18334      -1.10620
    12  C(13)              0.02025       4.55361       1.62484       1.51892
    13  C(13)              0.00642       1.44382       0.51519       0.48161
    14  C(13)              0.00844       1.89664       0.67677       0.63265
    15  C(13)              0.01845       4.14899       1.48046       1.38395
    16  C(13)             -0.01089      -2.44798      -0.87350      -0.81656
    17  C(13)              0.04218       9.48343       3.38392       3.16333
    18  C(13)              0.04374       9.83385       3.50896       3.28022
    19  C(13)             -0.01303      -2.92948      -1.04531      -0.97717
    20  C(13)              0.01738       3.90659       1.39397       1.30310
    21  C(13)              0.00878       1.97352       0.70420       0.65830
    22  C(13)              0.01948       4.38055       1.56309       1.46119
    23  H(1)              -0.00335      -2.99334      -1.06810      -0.99847
    24  C(13)             -0.03139      -7.05780      -2.51840      -2.35423
    25  H(1)               0.00202       1.81008       0.64588       0.60378
    26  C(13)              0.02343       5.26789       1.87971       1.75718
    27  H(1)              -0.00377      -3.36799      -1.20178      -1.12344
    28  C(13)             -0.03334      -7.49500      -2.67440      -2.50006
    29  H(1)               0.00224       2.00231       0.71447       0.66790
    30  C(13)             -0.00006      -0.01415      -0.00505      -0.00472
    31  H(1)              -0.00032      -0.28308      -0.10101      -0.09442
    32  H(1)               0.00051       0.45453       0.16219       0.15162
    33  H(1)               0.00058       0.51424       0.18349       0.17153
    34  C(13)             -0.00483      -1.08674      -0.38777      -0.36250
    35  H(1)               0.00297       2.65874       0.94870       0.88686
    36  H(1)               0.00354       3.16264       1.12851       1.05494
    37  H(1)              -0.00012      -0.10431      -0.03722      -0.03479
    38  C(13)              0.00041       0.09277       0.03310       0.03095
    39  H(1)               0.00021       0.18841       0.06723       0.06285
    40  H(1)               0.00024       0.21443       0.07651       0.07153
    41  H(1)              -0.00032      -0.28505      -0.10171      -0.09508
    42  C(13)             -0.01106      -2.48665      -0.88730      -0.82946
    43  H(1)               0.00229       2.04811       0.73082       0.68318
    44  C(13)              0.01245       2.79826       0.99849       0.93340
    45  H(1)              -0.00128      -1.14402      -0.40821      -0.38160
    46  H(1)              -0.00125      -1.11390      -0.39747      -0.37156
    47  C(13)             -0.00554      -1.24565      -0.44448      -0.41550
    48  H(1)               0.00334       2.98237       1.06418       0.99481
    49  H(1)               0.00419       3.74362       1.33582       1.24874
    50  H(1)              -0.00008      -0.07324      -0.02613      -0.02443
    51  C(13)             -0.00124      -0.27980      -0.09984      -0.09333
    52  H(1)               0.00001       0.00741       0.00264       0.00247
    53  C(13)              0.00278       0.62540       0.22316       0.20861
    54  H(1)              -0.00026      -0.23456      -0.08370      -0.07824
    55  H(1)              -0.00019      -0.17362      -0.06195      -0.05791
    56  C(13)              0.00017       0.03848       0.01373       0.01283
    57  H(1)               0.00047       0.41827       0.14925       0.13952
    58  H(1)               0.00039       0.35151       0.12543       0.11725
    59  H(1)              -0.00033      -0.29522      -0.10534      -0.09847
    60  C(13)             -0.00521      -1.17201      -0.41820      -0.39094
    61  H(1)               0.00344       3.07685       1.09790       1.02633
    62  H(1)              -0.00013      -0.11510      -0.04107      -0.03839
    63  H(1)               0.00374       3.34379       1.19315       1.11537
    64  C(13)             -0.00073      -0.16319      -0.05823      -0.05444
    65  H(1)               0.00260       2.32741       0.83048       0.77634
    66  H(1)              -0.00003      -0.02760      -0.00985      -0.00921
    67  H(1)               0.00103       0.91646       0.32702       0.30570
    68  S(33)              0.14940      10.26321       3.66217       3.42344
    69  H(1)               0.00063       0.56489       0.20157       0.18843
 --------------------------------------------------------
       Center         ----  Spin Dipole Couplings  ----
                      3XX-RR        3YY-RR        3ZZ-RR
 --------------------------------------------------------
     1   Atom       -2.179051     -2.371913      4.550964
     2   Atom       -0.050591     -0.051420      0.102011
     3   Atom       -0.050741     -0.042743      0.093484
     4   Atom       -0.047643     -0.055726      0.103369
     5   Atom       -0.055364     -0.039108      0.094472
     6   Atom       -0.072529     -0.063105      0.135634
     7   Atom       -0.070927     -0.067724      0.138652
     8   Atom        0.013011     -0.003070     -0.009941
     9   Atom       -0.140366     -0.161690      0.302055
    10   Atom       -0.155795     -0.158908      0.314702
    11   Atom        0.015929      0.010470     -0.026399
    12   Atom       -0.091040     -0.076498      0.167539
    13   Atom       -0.074085     -0.051717      0.125803
    14   Atom       -0.073974     -0.063196      0.137170
    15   Atom       -0.083099     -0.079540      0.162639
    16   Atom        0.009159     -0.007156     -0.002003
    17   Atom       -0.145822     -0.175374      0.321196
    18   Atom       -0.165969     -0.170132      0.336101
    19   Atom        0.011608      0.005726     -0.017334
    20   Atom       -0.084779     -0.069530      0.154309
    21   Atom       -0.080213     -0.058149      0.138362
    22   Atom       -0.105024     -0.084812      0.189836
    23   Atom       -0.013753      0.023077     -0.009324
    24   Atom        0.071910      0.066969     -0.138879
    25   Atom        0.004791      0.004560     -0.009351
    26   Atom       -0.114727     -0.090845      0.205571
    27   Atom       -0.015804      0.025275     -0.009471
    28   Atom        0.080643      0.071205     -0.151848
    29   Atom        0.005499      0.004937     -0.010437
    30   Atom        0.006404     -0.004651     -0.001752
    31   Atom        0.005255     -0.001814     -0.003440
    32   Atom        0.006649     -0.003431     -0.003219
    33   Atom        0.007492     -0.003347     -0.004145
    34   Atom        0.000112      0.001603     -0.001715
    35   Atom       -0.000323      0.004870     -0.004548
    36   Atom       -0.000459      0.005198     -0.004739
    37   Atom        0.002806      0.001043     -0.003849
    38   Atom        0.002850     -0.000854     -0.001996
    39   Atom        0.005199     -0.001053     -0.004146
    40   Atom        0.004122     -0.000891     -0.003232
    41   Atom        0.002075      0.001383     -0.003458
    42   Atom       -0.005112      0.024460     -0.019349
    43   Atom       -0.001902      0.006485     -0.004583
    44   Atom        0.021388     -0.031440      0.010052
    45   Atom       -0.001784      0.004496     -0.002712
    46   Atom       -0.004749      0.009803     -0.005054
    47   Atom       -0.000128      0.001970     -0.001842
    48   Atom       -0.000849      0.005394     -0.004545
    49   Atom       -0.000296      0.005524     -0.005228
    50   Atom        0.002941      0.001155     -0.004096
    51   Atom        0.009744     -0.006420     -0.003324
    52   Atom        0.005777     -0.002018     -0.003759
    53   Atom       -0.002536      0.003682     -0.001146
    54   Atom        0.005553     -0.002452     -0.003101
    55   Atom        0.005253     -0.002453     -0.002800
    56   Atom        0.002651     -0.000708     -0.001942
    57   Atom        0.004936     -0.000808     -0.004128
    58   Atom        0.004667     -0.001021     -0.003647
    59   Atom        0.002023      0.001529     -0.003552
    60   Atom       -0.005188      0.006563     -0.001375
    61   Atom       -0.003771      0.008540     -0.004769
    62   Atom       -0.001875      0.005815     -0.003941
    63   Atom       -0.003678      0.008318     -0.004640
    64   Atom        0.002883     -0.017142      0.014259
    65   Atom       -0.001848     -0.007290      0.009139
    66   Atom        0.000497     -0.008262      0.007765
    67   Atom        0.005736     -0.009744      0.004008
    68   Atom       -0.323843     -0.333015      0.656858
    69   Atom       -0.023895      0.002274      0.021621
 --------------------------------------------------------
                        XY            XZ            YZ
 --------------------------------------------------------
     1   Atom       -0.090226     -0.308890      0.200249
     2   Atom        0.003541      0.006378      0.026286
     3   Atom       -0.009418      0.003639     -0.024159
     4   Atom        0.012136     -0.011414     -0.007148
     5   Atom       -0.009128      0.001576     -0.001642
     6   Atom        0.010257     -0.008230      0.025116
     7   Atom        0.007962     -0.013813      0.023395
     8   Atom        0.003166      0.002903      0.000340
     9   Atom        0.005568     -0.027750      0.059893
    10   Atom       -0.013262     -0.027476     -0.044390
    11   Atom       -0.009116      0.008470      0.002093
    12   Atom       -0.004707     -0.019507     -0.020933
    13   Atom       -0.002241     -0.020991     -0.026503
    14   Atom        0.014342     -0.023733     -0.032551
    15   Atom        0.011005     -0.011834     -0.026241
    16   Atom        0.003993     -0.003787     -0.006006
    17   Atom        0.012894     -0.034019     -0.037821
    18   Atom       -0.018290      0.019391     -0.005859
    19   Atom       -0.007990     -0.002106      0.005454
    20   Atom       -0.005635      0.018293      0.000681
    21   Atom       -0.003686      0.013713      0.008569
    22   Atom        0.004738      0.003992      0.023043
    23   Atom        0.008445     -0.000318     -0.001216
    24   Atom       -0.000641      0.028170     -0.008798
    25   Atom        0.000135      0.002773     -0.000747
    26   Atom        0.009525     -0.037301     -0.052747
    27   Atom        0.007243      0.000380      0.004804
    28   Atom       -0.001933      0.001215      0.010725
    29   Atom        0.000469     -0.001215      0.000975
    30   Atom        0.002622      0.000674      0.000470
    31   Atom        0.002792      0.000624      0.000177
    32   Atom        0.000998      0.003226     -0.000123
    33   Atom        0.000748     -0.001248      0.000335
    34   Atom        0.006875     -0.000133      0.000443
    35   Atom        0.005619     -0.001347     -0.003188
    36   Atom        0.005423      0.001141      0.002617
    37   Atom        0.005684     -0.000127     -0.000108
    38   Atom       -0.005850      0.000465     -0.000800
    39   Atom       -0.004462     -0.001243      0.000224
    40   Atom       -0.004430      0.002832     -0.001218
    41   Atom       -0.004401      0.000400     -0.000344
    42   Atom        0.000614     -0.025438      0.000633
    43   Atom       -0.002833     -0.000901      0.000623
    44   Atom       -0.001530      0.058555     -0.001059
    45   Atom       -0.002994     -0.002085     -0.001845
    46   Atom       -0.001104      0.002427      0.000471
    47   Atom        0.007214      0.000401     -0.000071
    48   Atom        0.005296      0.001845      0.003932
    49   Atom        0.005833     -0.000769     -0.002368
    50   Atom        0.006048      0.000817      0.000705
    51   Atom        0.002107     -0.000093      0.002623
    52   Atom        0.002359      0.001464      0.000690
    53   Atom       -0.001591      0.000507     -0.014361
    54   Atom        0.000112     -0.002788      0.001041
    55   Atom        0.000397     -0.000472     -0.000576
    56   Atom       -0.006146     -0.000450      0.000183
    57   Atom       -0.004764      0.001648     -0.000458
    58   Atom       -0.004554     -0.002858      0.001079
    59   Atom       -0.004562     -0.000504      0.000441
    60   Atom       -0.003911      0.000261      0.000439
    61   Atom       -0.001462     -0.000205     -0.003057
    62   Atom       -0.004485     -0.000119      0.000298
    63   Atom       -0.001314      0.000129      0.003498
    64   Atom       -0.000695     -0.021472      0.001880
    65   Atom       -0.000751     -0.007642      0.002631
    66   Atom        0.005407     -0.012715     -0.004113
    67   Atom       -0.006027     -0.016053      0.004041
    68   Atom       -0.003939      0.108860      0.046382
    69   Atom        0.003660      0.001546      0.021274
 --------------------------------------------------------


 ---------------------------------------------------------------------------------
              Anisotropic Spin Dipole Couplings in Principal Axis System
 ---------------------------------------------------------------------------------

       Atom             a.u.   MegaHertz   Gauss  10(-4) cm-1        Axes

              Baa    -2.4084   -41.696   -14.878   -13.908  0.3530  0.9356 -0.0113
     1 Fe(57) Bbb    -2.1628   -37.443   -13.361   -12.490  0.9345 -0.3519  0.0535
              Bcc     4.5711    79.139    28.239    26.398 -0.0461  0.0294  0.9985
 
              Baa    -0.0568    -2.191    -0.782    -0.731 -0.3813  0.9144 -0.1360
     2 N(14)  Bbb    -0.0499    -1.924    -0.686    -0.642  0.9234  0.3698 -0.1028
              Bcc     0.1067     4.115     1.468     1.373  0.0437  0.1648  0.9854
 
              Baa    -0.0578    -2.229    -0.795    -0.744  0.7826  0.6175  0.0798
     3 N(14)  Bbb    -0.0400    -1.544    -0.551    -0.515 -0.6216  0.7677  0.1559
              Bcc     0.0978     3.773     1.346     1.258  0.0350 -0.1716  0.9846
 
              Baa    -0.0645    -2.487    -0.887    -0.830 -0.5871  0.8095 -0.0055
     4 N(14)  Bbb    -0.0402    -1.549    -0.553    -0.517  0.8057  0.5850  0.0932
              Bcc     0.1046     4.035     1.440     1.346 -0.0786 -0.0503  0.9956
 
              Baa    -0.0595    -2.293    -0.818    -0.765  0.9126  0.4089 -0.0050
     5 N(14)  Bbb    -0.0350    -1.352    -0.482    -0.451 -0.4087  0.9125  0.0165
              Bcc     0.0945     3.645     1.301     1.216  0.0113 -0.0131  0.9999
 
              Baa    -0.0811   -10.889    -3.885    -3.632  0.7996 -0.5924  0.0990
     6 C(13)  Bbb    -0.0578    -7.761    -2.769    -2.589  0.5997  0.7964 -0.0779
              Bcc     0.1390    18.650     6.655     6.221 -0.0327  0.1216  0.9920
 
              Baa    -0.0805   -10.800    -3.854    -3.602  0.7308 -0.6723  0.1178
     7 C(13)  Bbb    -0.0616    -8.262    -2.948    -2.756  0.6799  0.7323 -0.0387
              Bcc     0.1420    19.061     6.802     6.358 -0.0603  0.1084  0.9923
 
              Baa    -0.0103    -1.383    -0.493    -0.461 -0.1246  0.0079  0.9922
     8 C(13)  Bbb    -0.0037    -0.492    -0.175    -0.164 -0.1813  0.9830 -0.0306
              Bcc     0.0140     1.874     0.669     0.625  0.9755  0.1837  0.1211
 
              Baa    -0.1720   -23.081    -8.236    -7.699 -0.2867  0.9482 -0.1366
     9 C(13)  Bbb    -0.1393   -18.687    -6.668    -6.233  0.9562  0.2921  0.0205
              Bcc     0.3113    41.768    14.904    13.932 -0.0593  0.1247  0.9904
 
              Baa    -0.1761   -23.634    -8.433    -7.883  0.6388  0.7622  0.1047
    10 C(13)  Bbb    -0.1441   -19.343    -6.902    -6.452  0.7674 -0.6410 -0.0161
              Bcc     0.3203    42.976    15.335    14.335 -0.0549 -0.0906  0.9944
 
              Baa    -0.0284    -3.813    -1.361    -1.272 -0.2066 -0.1008  0.9732
    11 C(13)  Bbb     0.0051     0.678     0.242     0.226  0.5341  0.8218  0.1985
              Bcc     0.0234     3.135     1.119     1.046  0.8198 -0.5608  0.1160
 
              Baa    -0.0948   -12.727    -4.541    -4.245  0.9317  0.3500  0.0972
    12 C(13)  Bbb    -0.0759   -10.180    -3.633    -3.396 -0.3559  0.9331  0.0517
              Bcc     0.1707    22.907     8.174     7.641 -0.0726 -0.0828  0.9939
 
              Baa    -0.0774   -10.382    -3.705    -3.463  0.9677  0.2171  0.1283
    13 C(13)  Bbb    -0.0543    -7.292    -2.602    -2.432 -0.2319  0.9659  0.1151
              Bcc     0.1317    17.674     6.307     5.895 -0.0989 -0.1411  0.9850
 
              Baa    -0.0839   -11.260    -4.018    -3.756  0.8264 -0.5630  0.0058
    14 C(13)  Bbb    -0.0614    -8.243    -2.941    -2.750  0.5508  0.8106  0.1987
              Bcc     0.1453    19.503     6.959     6.506 -0.1166 -0.1610  0.9800
 
              Baa    -0.0928   -12.447    -4.441    -4.152  0.7316 -0.6808 -0.0360
    15 C(13)  Bbb    -0.0734    -9.845    -3.513    -3.284  0.6797  0.7244  0.1146
              Bcc     0.1661    22.292     7.954     7.436 -0.0519 -0.1084  0.9928
 
              Baa    -0.0112    -1.503    -0.536    -0.501 -0.0685  0.8480  0.5256
    16 C(13)  Bbb    -0.0009    -0.116    -0.041    -0.039  0.4652 -0.4388  0.7688
              Bcc     0.0121     1.619     0.578     0.540  0.8826  0.2972 -0.3644
 
              Baa    -0.1814   -24.346    -8.687    -8.121 -0.2960  0.9538  0.0517
    17 C(13)  Bbb    -0.1452   -19.486    -6.953    -6.500  0.9523  0.2905  0.0930
              Bcc     0.3266    43.832    15.640    14.621 -0.0737 -0.0768  0.9943
 
              Baa    -0.1866   -25.040    -8.935    -8.352  0.6720  0.7404 -0.0166
    18 C(13)  Bbb    -0.1503   -20.173    -7.198    -6.729  0.7395 -0.6721 -0.0376
              Bcc     0.3369    45.213    16.133    15.082  0.0390 -0.0130  0.9992
 
              Baa    -0.0186    -2.491    -0.889    -0.831  0.0111 -0.2156  0.9764
    19 C(13)  Bbb     0.0007     0.094     0.034     0.031  0.6034  0.7801  0.1654
              Bcc     0.0179     2.397     0.855     0.799  0.7973 -0.5874 -0.1387
 
              Baa    -0.0879   -11.798    -4.210    -3.935  0.9528  0.2947 -0.0728
    20 C(13)  Bbb    -0.0678    -9.096    -3.246    -3.034 -0.2939  0.9556  0.0213
              Bcc     0.1557    20.894     7.455     6.969  0.0758  0.0011  0.9971
 
              Baa    -0.0818   -10.981    -3.918    -3.663  0.9818  0.1775 -0.0680
    21 C(13)  Bbb    -0.0577    -7.748    -2.765    -2.585 -0.1798  0.9832 -0.0304
              Bcc     0.1396    18.729     6.683     6.247  0.0615  0.0421  0.9972
 
              Baa    -0.1061   -14.236    -5.080    -4.748  0.9751 -0.2216  0.0041
    22 C(13)  Bbb    -0.0857   -11.505    -4.105    -3.838  0.2212  0.9716 -0.0844
              Bcc     0.1918    25.740     9.185     8.586  0.0147  0.0833  0.9964
 
              Baa    -0.0156    -8.322    -2.969    -2.776  0.9770 -0.2131  0.0082
    23 H(1)   Bbb    -0.0094    -4.999    -1.784    -1.668 -0.0002  0.0375  0.9993
              Bcc     0.0250    13.321     4.753     4.443  0.2132  0.9763 -0.0366
 
              Baa    -0.1429   -19.180    -6.844    -6.398 -0.1298  0.0411  0.9907
    24 C(13)  Bbb     0.0670     8.985     3.206     2.997  0.2051  0.9786 -0.0138
              Bcc     0.0760    10.195     3.638     3.401  0.9701 -0.2014  0.1354
 
              Baa    -0.0099    -5.290    -1.888    -1.765 -0.1855  0.0524  0.9812
    25 H(1)   Bbb     0.0046     2.454     0.876     0.819  0.0188  0.9986 -0.0497
              Bcc     0.0053     2.836     1.012     0.946  0.9825 -0.0092  0.1862
 
              Baa    -0.1196   -16.050    -5.727    -5.354  0.9819 -0.1689  0.0852
    26 C(13)  Bbb    -0.0995   -13.350    -4.764    -4.453  0.1508  0.9709  0.1863
              Bcc     0.2191    29.400    10.491     9.807 -0.1142 -0.1701  0.9788
 
              Baa    -0.0171    -9.108    -3.250    -3.038  0.9826 -0.1751  0.0615
    27 H(1)   Bbb    -0.0101    -5.374    -1.918    -1.793 -0.0829 -0.1175  0.9896
              Bcc     0.0271    14.483     5.168     4.831  0.1660  0.9775  0.1300
 
              Baa    -0.1524   -20.447    -7.296    -6.820 -0.0056 -0.0480  0.9988
    28 C(13)  Bbb     0.0713     9.574     3.416     3.193  0.1972  0.9792  0.0481
              Bcc     0.0810    10.873     3.880     3.627  0.9803 -0.1973 -0.0040
 
              Baa    -0.0106    -5.653    -2.017    -1.886  0.0770 -0.0648  0.9949
    29 H(1)   Bbb     0.0048     2.564     0.915     0.855 -0.4419  0.8923  0.0923
              Bcc     0.0058     3.089     1.102     1.030  0.8938  0.4467 -0.0401
 
              Baa    -0.0053    -0.707    -0.252    -0.236 -0.2134  0.9729 -0.0893
    30 C(13)  Bbb    -0.0018    -0.240    -0.086    -0.080 -0.1035  0.0684  0.9923
              Bcc     0.0071     0.947     0.338     0.316  0.9715  0.2210  0.0861
 
              Baa    -0.0035    -1.860    -0.664    -0.620 -0.0803  0.0287  0.9964
    31 H(1)   Bbb    -0.0028    -1.484    -0.530    -0.495 -0.3240  0.9446 -0.0533
              Bcc     0.0063     3.344     1.193     1.115  0.9427  0.3271  0.0666
 
              Baa    -0.0044    -2.330    -0.831    -0.777 -0.2898  0.4215  0.8593
    32 H(1)   Bbb    -0.0033    -1.771    -0.632    -0.591  0.0477  0.9031 -0.4269
              Bcc     0.0077     4.101     1.463     1.368  0.9559  0.0827  0.2818
 
              Baa    -0.0044    -2.368    -0.845    -0.790  0.1195 -0.3650  0.9233
    33 H(1)   Bbb    -0.0032    -1.724    -0.615    -0.575 -0.0217  0.9288  0.3700
              Bcc     0.0077     4.092     1.460     1.365  0.9926  0.0642 -0.1030
 
              Baa    -0.0061    -0.818    -0.292    -0.273  0.7402 -0.6664  0.0899
    34 C(13)  Bbb    -0.0017    -0.226    -0.081    -0.075 -0.0839  0.0412  0.9956
              Bcc     0.0078     1.044     0.373     0.348  0.6671  0.7445  0.0254
 
              Baa    -0.0056    -2.977    -1.062    -0.993 -0.1509  0.3618  0.9200
    35 H(1)   Bbb    -0.0037    -1.988    -0.709    -0.663  0.8443 -0.4368  0.3103
              Bcc     0.0093     4.965     1.772     1.656  0.5141  0.8236 -0.2395
 
              Baa    -0.0054    -2.883    -1.029    -0.962  0.0873 -0.2806  0.9558
    36 H(1)   Bbb    -0.0037    -1.954    -0.697    -0.652  0.8600 -0.4630 -0.2144
              Bcc     0.0091     4.837     1.726     1.614  0.5027  0.8408  0.2009
 
              Baa    -0.0039    -2.055    -0.733    -0.685  0.0233 -0.0051  0.9997
    37 H(1)   Bbb    -0.0038    -2.042    -0.729    -0.681 -0.6503  0.7594  0.0190
              Bcc     0.0077     4.097     1.462     1.367  0.7593  0.6506 -0.0144
 
              Baa    -0.0052    -0.695    -0.248    -0.232  0.5802  0.8059  0.1178
    38 C(13)  Bbb    -0.0020    -0.272    -0.097    -0.091 -0.1436 -0.0411  0.9888
              Bcc     0.0072     0.968     0.345     0.323  0.8017 -0.5906  0.0918
 
              Baa    -0.0044    -2.350    -0.839    -0.784  0.2412  0.2587  0.9354
    39 H(1)   Bbb    -0.0032    -1.728    -0.617    -0.577  0.4003  0.8515 -0.3387
              Bcc     0.0076     4.079     1.455     1.360  0.8840 -0.4562 -0.1019
 
              Baa    -0.0043    -2.275    -0.812    -0.759 -0.4206 -0.2362  0.8760
    40 H(1)   Bbb    -0.0033    -1.766    -0.630    -0.589  0.3531  0.8468  0.3979
              Bcc     0.0076     4.041     1.442     1.348  0.8357 -0.4767  0.2728
 
              Baa    -0.0035    -1.861    -0.664    -0.621 -0.0563  0.0196  0.9982
    41 H(1)   Bbb    -0.0027    -1.433    -0.511    -0.478  0.6776  0.7351  0.0238
              Bcc     0.0062     3.293     1.175     1.099  0.7333 -0.6777  0.0546
 
              Baa    -0.0387    -5.187    -1.851    -1.730  0.6043 -0.0139  0.7966
    42 C(13)  Bbb     0.0142     1.903     0.679     0.635  0.7966 -0.0103 -0.6045
              Bcc     0.0245     3.284     1.172     1.095  0.0166  0.9999  0.0048
 
              Baa    -0.0049    -2.595    -0.926    -0.866  0.3138  0.0262  0.9491
    43 H(1)   Bbb    -0.0026    -1.361    -0.486    -0.454  0.9020  0.3040 -0.3066
              Bcc     0.0074     3.956     1.411     1.319 -0.2965  0.9523  0.0717
 
              Baa    -0.0431    -5.785    -2.064    -1.930 -0.6723 -0.0210  0.7400
    44 C(13)  Bbb    -0.0315    -4.223    -1.507    -1.408 -0.0012  0.9996  0.0272
              Bcc     0.0746    10.008     3.571     3.338  0.7403 -0.0174  0.6721
 
              Baa    -0.0055    -2.940    -1.049    -0.981  0.6457  0.3210  0.6929
    45 H(1)   Bbb    -0.0003    -0.159    -0.057    -0.053 -0.6860 -0.1547  0.7110
              Bcc     0.0058     3.099     1.106     1.034 -0.3354  0.9344 -0.1203
 
              Baa    -0.0074    -3.950    -1.410    -1.318 -0.6877 -0.0639  0.7232
    46 H(1)   Bbb    -0.0025    -1.327    -0.474    -0.443  0.7224  0.0384  0.6904
              Bcc     0.0099     5.278     1.883     1.760 -0.0719  0.9972  0.0197
 
              Baa    -0.0064    -0.858    -0.306    -0.286  0.7548 -0.6515 -0.0766
    47 C(13)  Bbb    -0.0018    -0.244    -0.087    -0.081  0.0444 -0.0659  0.9968
              Bcc     0.0082     1.102     0.393     0.368  0.6545  0.7558  0.0208
 
              Baa    -0.0059    -3.155    -1.126    -1.052 -0.0011 -0.3280  0.9447
    48 H(1)   Bbb    -0.0038    -2.039    -0.728    -0.680  0.8836 -0.4427 -0.1526
              Bcc     0.0097     5.194     1.853     1.732  0.4683  0.8345  0.2903
 
              Baa    -0.0058    -3.097    -1.105    -1.033 -0.1697  0.2846  0.9435
    49 H(1)   Bbb    -0.0037    -1.988    -0.709    -0.663  0.8414 -0.4566  0.2891
              Bcc     0.0095     5.084     1.814     1.696  0.5131  0.8429 -0.1620
 
              Baa    -0.0042    -2.236    -0.798    -0.746 -0.0655 -0.0573  0.9962
    50 H(1)   Bbb    -0.0041    -2.169    -0.774    -0.724 -0.6535  0.7570  0.0006
              Bcc     0.0083     4.405     1.572     1.469  0.7541  0.6510  0.0870
 
              Baa    -0.0081    -1.089    -0.389    -0.363 -0.1053  0.8715 -0.4790
    51 C(13)  Bbb    -0.0019    -0.255    -0.091    -0.085 -0.0786  0.4729  0.8776
              Bcc     0.0100     1.344     0.480     0.448  0.9913  0.1301  0.0187
 
              Baa    -0.0041    -2.164    -0.772    -0.722 -0.0909 -0.2235  0.9705
    52 H(1)   Bbb    -0.0026    -1.400    -0.500    -0.467 -0.2957  0.9366  0.1880
              Bcc     0.0067     3.564     1.272     1.189  0.9509  0.2699  0.1512
 
              Baa    -0.0133    -1.789    -0.638    -0.597  0.0596  0.6471  0.7601
    53 C(13)  Bbb    -0.0026    -0.352    -0.126    -0.118  0.9948  0.0249 -0.0992
              Bcc     0.0160     2.142     0.764     0.714 -0.0831  0.7620 -0.6422
 
              Baa    -0.0045    -2.376    -0.848    -0.792  0.2433 -0.4585  0.8547
    54 H(1)   Bbb    -0.0019    -1.027    -0.366    -0.343  0.1486  0.8884  0.4343
              Bcc     0.0064     3.403     1.214     1.135  0.9585 -0.0214 -0.2843
 
              Baa    -0.0032    -1.724    -0.615    -0.575  0.0173  0.5895  0.8076
    55 H(1)   Bbb    -0.0021    -1.107    -0.395    -0.369 -0.0814  0.8059 -0.5865
              Bcc     0.0053     2.830     1.010     0.944  0.9965  0.0556 -0.0619
 
              Baa    -0.0054    -0.725    -0.259    -0.242  0.6075  0.7935  0.0369
    56 C(13)  Bbb    -0.0020    -0.263    -0.094    -0.088  0.0176 -0.0598  0.9981
              Bcc     0.0074     0.988     0.353     0.330  0.7942 -0.6056 -0.0503
 
              Baa    -0.0045    -2.412    -0.861    -0.805 -0.2919 -0.2612  0.9201
    57 H(1)   Bbb    -0.0033    -1.780    -0.635    -0.594  0.4084  0.8359  0.3668
              Bcc     0.0079     4.192     1.496     1.398  0.8649 -0.4828  0.1374
 
              Baa    -0.0046    -2.457    -0.877    -0.820  0.3830  0.2164  0.8980
    58 H(1)   Bbb    -0.0034    -1.800    -0.642    -0.600  0.3593  0.8607 -0.3606
              Bcc     0.0080     4.258     1.519     1.420  0.8510 -0.4608 -0.2520
 
              Baa    -0.0036    -1.920    -0.685    -0.640  0.0714 -0.0223  0.9972
    59 H(1)   Bbb    -0.0028    -1.490    -0.532    -0.497  0.6856  0.7272 -0.0328
              Bcc     0.0064     3.409     1.217     1.137  0.7245 -0.6860 -0.0672
 
              Baa    -0.0064    -0.859    -0.306    -0.286  0.9540  0.2904 -0.0749
    60 C(13)  Bbb    -0.0014    -0.182    -0.065    -0.061  0.0827 -0.0144  0.9965
              Bcc     0.0078     1.041     0.372     0.347 -0.2883  0.9568  0.0378
 
              Baa    -0.0056    -2.984    -1.065    -0.995  0.2897  0.2309  0.9289
    61 H(1)   Bbb    -0.0038    -2.007    -0.716    -0.670  0.9513  0.0370 -0.3059
              Bcc     0.0094     4.992     1.781     1.665 -0.1050  0.9723 -0.2089
 
              Baa    -0.0040    -2.113    -0.754    -0.705 -0.5123 -0.2600  0.8185
    62 H(1)   Bbb    -0.0039    -2.095    -0.747    -0.699  0.7504  0.3280  0.5738
              Bcc     0.0079     4.208     1.502     1.404 -0.4177  0.9082  0.0271
 
              Baa    -0.0056    -3.005    -1.072    -1.002 -0.2349 -0.2572  0.9374
    63 H(1)   Bbb    -0.0037    -1.968    -0.702    -0.656  0.9673  0.0326  0.2514
              Bcc     0.0093     4.973     1.775     1.659 -0.0952  0.9658  0.2411
 
              Baa    -0.0173    -2.323    -0.829    -0.775 -0.1029  0.9863 -0.1287
    64 C(13)  Bbb    -0.0135    -1.818    -0.649    -0.606  0.7865  0.1599  0.5966
              Bcc     0.0309     4.141     1.478     1.381 -0.6090  0.0398  0.7922
 
              Baa    -0.0078    -4.149    -1.481    -1.384 -0.1696  0.9593 -0.2258
    65 H(1)   Bbb    -0.0056    -3.003    -1.071    -1.002  0.8772  0.2513  0.4092
              Bcc     0.0134     7.152     2.552     2.386 -0.4493  0.1287  0.8841
 
              Baa    -0.0113    -6.026    -2.150    -2.010 -0.6084  0.7556 -0.2428
    66 H(1)   Bbb    -0.0076    -4.077    -1.455    -1.360  0.5223  0.6115  0.5943
              Bcc     0.0189    10.103     3.605     3.370 -0.5976 -0.2348  0.7667
 
              Baa    -0.0125    -6.644    -2.371    -2.216  0.5837  0.7093  0.3951
    67 H(1)   Bbb    -0.0101    -5.380    -1.920    -1.795 -0.3867  0.6708 -0.6329
              Bcc     0.0225    12.024     4.290     4.011  0.7139 -0.2167 -0.6658
 
              Baa    -0.3444   -14.120    -5.038    -4.710  0.7128  0.6927 -0.1096
    68 S(33)  Bbb    -0.3265   -13.385    -4.776    -4.465 -0.6929  0.7198  0.0428
              Bcc     0.6709    27.505     9.815     9.175  0.1085  0.0455  0.9931
 
              Baa    -0.0245   -13.051    -4.657    -4.353  0.9841 -0.1714  0.0461
    69 H(1)   Bbb    -0.0110    -5.890    -2.102    -1.965  0.1687  0.8222 -0.5436
              Bcc     0.0355    18.941     6.759     6.318  0.0553  0.5427  0.8381
 

 ---------------------------------------------------------------------------------

 Unable to Open any file for archive entry.
 1\1\GINC-BGN1023\SP\UAPFD\Gen\C31H32Fe1N4S1(1+,6)\BECSLEIP\10-Sep-2024
 \0\\# apfd/gen scf=maxcycle=999 geom=check\\2zby_III_H\\1,6\Fe,0,11.08
 27368617,8.6323342269,12.2829158168\N,0,11.1297140178,6.625053522,12.0
 185205763\N,0,11.918437027,8.3260745263,14.0984475683\N,0,10.722072181
 7,10.517584652,12.7705063491\N,0,9.8859777879,8.7830354824,10.71104897
 26\C,0,10.7373744673,5.9646217829,10.8926050503\C,0,11.0936417517,4.56
 53879669,10.962482579\C,0,11.6949894377,4.384602004,12.16822497\C,0,11
 .7065352341,5.6784519245,12.8115226097\C,0,12.41719909,7.1656366118,14
 .6137319225\C,0,13.1884260174,7.4148157893,15.801296595\C,0,13.1626304
 824,8.7674198842,16.0025141712\C,0,12.3644809449,9.3156670328,14.92700
 53077\C,0,11.3433337299,11.2184793388,13.7621366096\C,0,11.0663506967,
 12.624824947,13.6458853714\C,0,10.2483748177,12.7694625199,12.55847330
 08\C,0,10.0768831593,11.4417070897,12.007491858\C,0,9.2515189698,9.910
 1258584,10.2822460668\C,0,8.5103715554,9.6525321938,9.0670670886\C,0,8
 .733904609,8.3490101092,8.7535667378\C,0,9.5932171472,7.824124186,9.79
 15629505\C,0,10.0374763838,6.5187418791,9.838614842\H,0,9.7687963021,5
 .8683389765,9.0209799801\C,0,12.2678513378,5.9115233332,14.0492320509\
 H,0,12.6904566304,5.0715189838,14.5779569163\C,0,12.1164780843,10.6645
 167919,14.7649747948\H,0,12.5757625093,11.3392825036,15.469987449\C,0,
 9.3361281881,11.1534004005,10.8770266844\H,0,8.8506092663,11.977207919
 4,10.3790978012\C,0,12.2457902394,3.140648879,12.7746865474\H,0,12.086
 3049749,2.2886477122,12.1188384124\H,0,11.7610014276,2.9339139154,13.7
 285964827\H,0,13.3168564259,3.2410452348,12.9536973541\C,0,10.81308694
 5,3.5719052948,9.8888428783\H,0,11.2281857689,3.9056900417,8.938061169
 4\H,0,9.7381055949,3.440907148,9.7617438323\H,0,11.2483074265,2.606153
 0925,10.1333073248\C,0,13.851236329,6.3686173296,16.6279990088\H,0,14.
 5802267027,5.8125562347,16.0368046526\H,0,13.1162549275,5.6598069127,1
 7.0097263504\H,0,14.3611512774,6.8208404648,17.4747340429\C,0,13.78504
 50964,9.4982591625,17.0908891437\H,0,14.7888071484,9.1769532419,17.347
 899735\C,0,13.2132645793,10.4677412346,17.7937789881\H,0,12.199158738,
 10.7817598966,17.6130715841\H,0,13.7321710552,10.9631822878,18.5974042
 739\C,0,11.5500236295,13.6713696757,14.5876728068\H,0,12.637452167,13.
 6489549837,14.6637452805\H,0,11.1399165006,13.5074898105,15.5846121397
 \H,0,11.2422796495,14.6580575592,14.2513572378\C,0,9.6713041948,14.005
 9327284,12.0650058232\H,0,10.3389929035,14.86074953,12.0728098809\C,0,
 8.4172816174,14.1676611061,11.6621168531\H,0,7.6997656383,13.365150208
 4,11.6890554114\H,0,8.0551452806,15.1214273811,11.3161317606\C,0,7.688
 548689,10.6706027435,8.356106472\H,0,8.3165080486,11.488700639,8.00250
 93284\H,0,6.9350813945,11.087405906,9.0238745716\H,0,7.1832232572,10.2
 307213185,7.5001172808\C,0,8.223231436,7.5502495714,7.6049108006\H,0,9
 .0512334988,7.140012695,7.0264816283\H,0,7.6172923425,8.1666674279,6.9
 45627933\H,0,7.6116368377,6.7193582919,7.9578507485\C,0,14.2007158203,
 7.6978172628,11.4544933763\H,0,15.2143515419,8.0086953743,11.222264514
 9\H,0,13.8742368334,6.9304844641,10.7596033476\H,0,14.1224389555,7.329
 8083845,12.4725250407\S,0,13.0684995991,9.1201669102,11.2232821166\H,0
 ,13.6631568186,9.8864055075,12.1516408746\\Version=ES64L-G16RevC.02\St
 ate=6-A\HF=-3079.9851761\S2=8.848191\S2-1=0.\S2A=8.752817\RMSD=2.456e-
 09\Dipole=1.0197757,-0.2916112,-0.4900578\Quadrupole=-12.8197234,15.43
 82723,-2.6185489,-11.2807198,22.6418637,5.171821\PG=C01 [X(C31H32Fe1N4
 S1)]\\@
 The archive entry for this job was punched.


 THEORY:  SUPPOSITION WHICH HAS SCIENTIFIC BASIS,
          BUT NOT EXPERIMENTALLY PROVEN.
 FACT:    A THEORY WHICH HAS BEEN PROVEN BY ENOUGH 
          MONEY TO PAY FOR THE EXPERIMENTS.

                          --  THE WIZARD OF ID
 Job cpu time:       0 days  2 hours 44 minutes 47.7 seconds.
 Elapsed time:       0 days  0 hours  2 minutes 48.8 seconds.
 File lengths (MBytes):  RWF=    343 Int=      0 D2E=      0 Chk=    150 Scr=      1
 Normal termination of Gaussian 16 at Tue Sep 10 21:11:49 2024.
