 Entering Gaussian System, Link 0=g16
 Input=2zby01.com
 Output=2zby01.log
 Initial command:
 /sw/chem/gaussian/g16_C02/a100/g16/l1.exe "/local/becsleip_8010942/Gau-4029339.inp" -scrdir="/local/becsleip_8010942/"
 Entering Link 1 = /sw/chem/gaussian/g16_C02/a100/g16/l1.exe PID=   4029340.
  
 Copyright (c) 1988-2021, Gaussian, Inc.  All Rights Reserved.
  
 This is part of the Gaussian(R) 16 program.  It is based on
 the Gaussian(R) 09 system (copyright 2009, Gaussian, Inc.),
 the Gaussian(R) 03 system (copyright 2003, Gaussian, Inc.),
 the Gaussian(R) 98 system (copyright 1998, Gaussian, Inc.),
 the Gaussian(R) 94 system (copyright 1995, Gaussian, Inc.),
 the Gaussian 92(TM) system (copyright 1992, Gaussian, Inc.),
 the Gaussian 90(TM) system (copyright 1990, Gaussian, Inc.),
 the Gaussian 88(TM) system (copyright 1988, Gaussian, Inc.),
 the Gaussian 86(TM) system (copyright 1986, Carnegie Mellon
 University), and the Gaussian 82(TM) system (copyright 1983,
 Carnegie Mellon University). Gaussian is a federally registered
 trademark of Gaussian, Inc.
  
 This software contains proprietary and confidential information,
 including trade secrets, belonging to Gaussian, Inc.
  
 This software is provided under written license and may be
 used, copied, transmitted, or stored only in accord with that
 written license.
  
 The following legend is applicable only to US Government
 contracts under FAR:
  
                    RESTRICTED RIGHTS LEGEND
  
 Use, reproduction and disclosure by the US Government is
 subject to restrictions as set forth in subparagraphs (a)
 and (c) of the Commercial Computer Software - Restricted
 Rights clause in FAR 52.227-19.
  
 Gaussian, Inc.
 340 Quinnipiac St., Bldg. 40, Wallingford CT 06492
  
  
 ---------------------------------------------------------------
 Warning -- This program may not be used in any manner that
 competes with the business of Gaussian, Inc. or will provide
 assistance to any competitor of Gaussian, Inc.  The licensee
 of this program is prohibited from giving any competitor of
 Gaussian, Inc. access to this program.  By using this program,
 the user acknowledges that Gaussian, Inc. is engaged in the
 business of creating and licensing software in the field of
 computational chemistry and represents and warrants to the
 licensee that it is not a competitor of Gaussian, Inc. and that
 it will not use this program in any manner prohibited above.
 ---------------------------------------------------------------
  

 Cite this work as:
 Gaussian 16, Revision C.02,
 M. J. Frisch, G. W. Trucks, H. B. Schlegel, G. E. Scuseria, 
 M. A. Robb, J. R. Cheeseman, G. Scalmani, V. Barone, 
 G. A. Petersson, H. Nakatsuji, X. Li, M. Caricato, A. V. Marenich, 
 J. Bloino, B. G. Janesko, R. Gomperts, B. Mennucci, H. P. Hratchian, 
 J. V. Ortiz, A. F. Izmaylov, J. L. Sonnenberg, D. Williams-Young, 
 F. Ding, F. Lipparini, F. Egidi, J. Goings, B. Peng, A. Petrone, 
 T. Henderson, D. Ranasinghe, V. G. Zakrzewski, J. Gao, N. Rega, 
 G. Zheng, W. Liang, M. Hada, M. Ehara, K. Toyota, R. Fukuda, 
 J. Hasegawa, M. Ishida, T. Nakajima, Y. Honda, O. Kitao, H. Nakai, 
 T. Vreven, K. Throssell, J. A. Montgomery, Jr., J. E. Peralta, 
 F. Ogliaro, M. J. Bearpark, J. J. Heyd, E. N. Brothers, K. N. Kudin, 
 V. N. Staroverov, T. A. Keith, R. Kobayashi, J. Normand, 
 K. Raghavachari, A. P. Rendell, J. C. Burant, S. S. Iyengar, 
 J. Tomasi, M. Cossi, J. M. Millam, M. Klene, C. Adamo, R. Cammi, 
 J. W. Ochterski, R. L. Martin, K. Morokuma, O. Farkas, 
 J. B. Foresman, and D. J. Fox, Gaussian, Inc., Wallingford CT, 2019.
 
 ******************************************
 Gaussian 16:  ES64L-G16RevC.02  7-Dec-2021
                10-Sep-2024 
 ******************************************
 %mem=16GB
 %CPU=0-71
 SetSPE:  set environment variable "OMP_PROC_BIND" = "true"
 SetSPE:  set environment variable "OMP_PLACES" = "{0},{1},{2},{3},{4},{5},{6},{7},{8},{9},{10},{11},{12},{13},{14},{15},{16},{17},{18},{19},{20},{21},{22},{23},{24},{25},{26},{27},{28},{29},{30},{31},{32},{33},{34},{35},{36},{37},{38},{39},{40},{41},{42},{43},{44},{45},{46},{47},{48},{49},{50},{51},{52},{53},{54},{55},{56},{57},{58},{59},{60},{61},{62},{63},{64},{65},{66},{67},{68},{69},{70},{71}"
 Will use up to   72 processors via shared memory.
 %gpucpu=0,1,2,3=0,1,2,3
 Will use    4 GPUs:
 Thread  CPU   GPU
      0    0     0
      1    1     1
      2    2     2
      3    3     3
      4    4    -1
      5    5    -1
      6    6    -1
      7    7    -1
      8    8    -1
      9    9    -1
     10   10    -1
     11   11    -1
     12   12    -1
     13   13    -1
     14   14    -1
     15   15    -1
     16   16    -1
     17   17    -1
     18   18    -1
     19   19    -1
     20   20    -1
     21   21    -1
     22   22    -1
     23   23    -1
     24   24    -1
     25   25    -1
     26   26    -1
     27   27    -1
     28   28    -1
     29   29    -1
     30   30    -1
     31   31    -1
     32   32    -1
     33   33    -1
     34   34    -1
     35   35    -1
     36   36    -1
     37   37    -1
     38   38    -1
     39   39    -1
     40   40    -1
     41   41    -1
     42   42    -1
     43   43    -1
     44   44    -1
     45   45    -1
     46   46    -1
     47   47    -1
     48   48    -1
     49   49    -1
     50   50    -1
     51   51    -1
     52   52    -1
     53   53    -1
     54   54    -1
     55   55    -1
     56   56    -1
     57   57    -1
     58   58    -1
     59   59    -1
     60   60    -1
     61   61    -1
     62   62    -1
     63   63    -1
     64   64    -1
     65   65    -1
     66   66    -1
     67   67    -1
     68   68    -1
     69   69    -1
     70   70    -1
     71   71    -1
 SetGPE:  set environment variable "OMP_PROC_BIND" = "true"
 SetGPE:  set environment variable "OMP_PLACES" = "{0},{1},{2},{3},{4},{5},{6},{7},{8},{9},{10},{11},{12},{13},{14},{15},{16},{17},{18},{19},{20},{21},{22},{23},{24},{25},{26},{27},{28},{29},{30},{31},{32},{33},{34},{35},{36},{37},{38},{39},{40},{41},{42},{43},{44},{45},{46},{47},{48},{49},{50},{51},{52},{53},{54},{55},{56},{57},{58},{59},{60},{61},{62},{63},{64},{65},{66},{67},{68},{69},{70},{71}"
 %chk=2zby_II_O.chk
 Properties for Device   0
 Minimum vector length:                              32
 Maximum vector length:                            1024
 Number of SMPs:                                    108
 Maximum number of threads per SMP:                2048
 Number of ASync Engines:                             5
 Memory:                                           9207742464
 Properties for Device   1
 Minimum vector length:                              32
 Maximum vector length:                            1024
 Number of SMPs:                                    108
 Maximum number of threads per SMP:                2048
 Number of ASync Engines:                             5
 Memory:                                           9207742464
 Properties for Device   2
 Minimum vector length:                              32
 Maximum vector length:                            1024
 Number of SMPs:                                    108
 Maximum number of threads per SMP:                2048
 Number of ASync Engines:                             5
 Memory:                                           9207742464
 Properties for Device   3
 Minimum vector length:                              32
 Maximum vector length:                            1024
 Number of SMPs:                                    108
 Maximum number of threads per SMP:                2048
 Number of ASync Engines:                             5
 Memory:                                           9207742464
   8286968217 words of memory will be used on each GPU.
 ------------------------------------------
 # polar def2tzvp apfd int=(grid=ultrafine)
 ------------------------------------------
 1/38=1,172=1/1;
 2/12=2,17=6,18=5,40=1/2;
 3/5=44,7=101,11=2,25=1,30=1,74=-44,75=-5/1,2,3;
 4//1;
 5/5=2,38=5,98=1/2;
 8/6=4,10=90,11=11/1;
 10/6=1,13=10/2;
 6/7=2,8=2,9=2,10=2,28=1/1;
 99/5=1,9=1/99;
 ---------
 2zby_II_S
 ---------
 Symbolic Z-matrix:
 Charge =  0 Multiplicity = 1
 Fe                    11.08274   8.63233   12.28292 
 N                     11.12971   6.62505   12.01852 
 N                     11.91844   8.32607   14.09845 
 N                     10.72207   10.51758   12.77051 
 N                     9.88598   8.78304   10.71105 
 C                     10.73737   5.96462   10.89261 
 C                     11.09364   4.56539   10.96248 
 C                     11.69499   4.3846    12.16822 
 C                     11.70654   5.67845   12.81152 
 C                     12.4172   7.16564   14.61373 
 C                     13.18843   7.41482   15.8013 
 C                     13.16263   8.76742   16.00251 
 C                     12.36448   9.31567   14.92701 
 C                     11.34333   11.21848   13.76214 
 C                     11.06635   12.62482   13.64589 
 C                     10.24837   12.76946   12.55847 
 C                     10.07688   11.44171   12.00749 
 C                     9.25152   9.91013   10.28225 
 C                     8.51037   9.65253   9.06707 
 C                     8.7339    8.34901   8.75357 
 C                     9.59322   7.82412   9.79156 
 C                     10.03748   6.51874   9.83861 
 H                     9.7688    5.86834   9.02098 
 C                     12.26785   5.91152   14.04923 
 H                     12.69046   5.07152   14.57796 
 C                     12.11648   10.66452   14.76497 
 H                     12.57576   11.33928   15.46999 
 C                     9.33613   11.1534   10.87703 
 H                     8.85061   11.97721   10.3791 
 C                     12.24579   3.14065   12.77469 
 H                     12.0863   2.28865   12.11884 
 H                     11.761    2.93391   13.7286 
 H                     13.31686   3.24105   12.9537 
 C                     10.81309   3.57191   9.88884 
 H                     11.22819   3.90569   8.93806 
 H                     9.73811   3.44091   9.76174 
 H                     11.24831   2.60615   10.13331 
 C                     13.85124   6.36862   16.628 
 H                     14.58023   5.81256   16.0368 
 H                     13.11625   5.65981   17.00973 
 H                     14.36115   6.82084   17.47473 
 C                     13.78505   9.49826   17.09089 
 H                     14.78881   9.17695   17.3479 
 C                     13.21326   10.46774   17.79378 
 H                     12.19916   10.78176   17.61307 
 H                     13.73217   10.96318   18.5974 
 C                     11.55002   13.67137   14.58767 
 H                     12.63745   13.64895   14.66375 
 H                     11.13992   13.50749   15.58461 
 H                     11.24228   14.65806   14.25136 
 C                     9.6713    14.00593   12.06501 
 H                     10.33899   14.86075   12.07281 
 C                     8.41728   14.16766   11.66212 
 H                     7.69977   13.36515   11.68906 
 H                     8.05515   15.12143   11.31613 
 C                     7.68855   10.6706   8.35611 
 H                     8.31651   11.4887   8.00251 
 H                     6.93508   11.08741   9.02387 
 H                     7.18322   10.23072   7.50012 
 C                     8.22323   7.55025   7.60491 
 H                     9.05123   7.14001   7.02648 
 H                     7.61729   8.16667   6.94563 
 H                     7.61164   6.71936   7.95785 
 C                     14.20072   7.69782   11.45449 
 H                     15.21435   8.0087    11.22226 
 H                     13.87424   6.93048   10.7596 
 H                     14.12244   7.32981   12.47253 
 S                     13.0685   9.12017   11.22328 
 H                     13.66316   9.88641   12.15164 
 
 Stoichiometry    C31H32FeN4S
 Framework group  C1[X(C31H32FeN4S)]
 Deg. of freedom   201
 Full point group                 C1      NOp   1
 Largest Abelian subgroup         C1      NOp   1
 Largest concise Abelian subgroup C1      NOp   1
                         Standard orientation:                         
 ---------------------------------------------------------------------
 Center     Atomic      Atomic             Coordinates (Angstroms)
 Number     Number       Type             X           Y           Z
 ---------------------------------------------------------------------
      1         26           0       -0.028319   -0.160914   -0.052180
      2          7           0       -1.724850   -1.237064   -0.307069
      3          7           0       -1.136550    1.499994   -0.370852
      4          7           0        1.625626    0.918408   -0.198891
      5          7           0        1.021406   -1.835490   -0.192119
      6          6           0       -1.830053   -2.590777   -0.187992
      7          6           0       -3.213375   -3.008263   -0.230326
      8          6           0       -3.948268   -1.877039   -0.398797
      9          6           0       -3.003144   -0.785001   -0.445751
     10          6           0       -2.492749    1.603163   -0.475630
     11          6           0       -2.915698    2.975336   -0.401835
     12          6           0       -1.781263    3.721426   -0.237219
     13          6           0       -0.682975    2.779189   -0.220234
     14          6           0        1.711554    2.271573   -0.050194
     15          6           0        3.082141    2.685947    0.083328
     16          6           0        3.839577    1.549121    0.003410
     17          6           0        2.903424    0.453775   -0.137154
     18          6           0        2.378947   -1.936885   -0.251657
     19          6           0        2.790158   -3.323210   -0.288034
     20          6           0        1.650369   -4.060574   -0.220246
     21          6           0        0.558335   -3.114294   -0.162142
     22          6           0       -0.772097   -3.474369   -0.099698
     23          1           0       -1.004031   -4.526011   -0.036491
     24          6           0       -3.369785    0.537944   -0.575039
     25          1           0       -4.419571    0.762636   -0.680938
     26          6           0        0.638551    3.142764   -0.051302
     27          1           0        0.846525    4.189198    0.106864
     28          6           0        3.264102   -0.877460   -0.223844
     29          1           0        4.316457   -1.109164   -0.189451
     30          6           0       -5.423612   -1.716403   -0.525889
     31          1           0       -5.920326   -2.682877   -0.499813
     32          1           0       -5.674762   -1.227644   -1.467028
     33          1           0       -5.816081   -1.106005    0.288169
     34          6           0       -3.668602   -4.421935   -0.117544
     35          1           0       -3.279485   -4.879839    0.791641
     36          1           0       -3.315708   -5.005382   -0.968400
     37          1           0       -4.754041   -4.477049   -0.092247
     38          6           0       -4.324807    3.444757   -0.508336
     39          1           0       -4.938212    3.010259    0.282288
     40          1           0       -4.754229    3.152497   -1.466723
     41          1           0       -4.370775    4.527899   -0.429790
     42          6           0       -1.696602    5.166323   -0.131430
     43          1           0       -2.451661    5.628102    0.495845
     44          6           0       -0.816745    5.934409   -0.761335
     45          1           0       -0.085127    5.526983   -1.438396
     46          1           0       -0.816621    7.005246   -0.643660
     47          6           0        3.538772    4.096406    0.218427
     48          1           0        3.061236    4.576202    1.073147
     49          1           0        3.283036    4.668136   -0.674129
     50          1           0        4.616838    4.136726    0.350775
     51          6           0        5.287493    1.466112    0.048433
     52          1           0        5.762905    2.110561    0.780041
     53          6           0        6.044460    0.717925   -0.744199
     54          1           0        5.625027    0.104875   -1.523830
     55          1           0        7.118343    0.714566   -0.658868
     56          6           0        4.206383   -3.774116   -0.379217
     57          1           0        4.766313   -3.453307    0.499536
     58          1           0        4.686811   -3.348542   -1.259801
     59          1           0        4.263851   -4.857507   -0.446506
     60          6           0        1.478344   -5.539970   -0.216899
     61          1           0        0.948838   -5.861160    0.680276
     62          1           0        2.443045   -6.040441   -0.242734
     63          1           0        0.900862   -5.860482   -1.084528
     64          6           0       -1.865503   -0.012419    2.755684
     65          1           0       -1.936801    0.335629    3.781263
     66          1           0       -2.210401   -1.039016    2.682175
     67          1           0       -2.438495    0.617405    2.082670
     68         16           0       -0.105419   -0.020629    2.245304
     69          1           0        0.065816    1.299644    2.418934
 ---------------------------------------------------------------------
 Rotational constants (GHZ):           0.1131480           0.1115065           0.0608920
 Standard basis: def2TZVP (5D, 7F)
 There are  1546 symmetry adapted cartesian basis functions of A   symmetry.
 There are  1359 symmetry adapted basis functions of A   symmetry.
  1359 basis functions,  2212 primitive gaussians,  1546 cartesian basis functions
   144 alpha electrons      144 beta electrons
       nuclear repulsion energy      5056.3601469516 Hartrees.
 NAtoms=   69 NActive=   69 NUniq=   69 SFac= 1.00D+00 NAtFMM=   60 NAOKFM=T Big=T
 Integral buffers will be    131072 words long.
 Raffenetti 2 integral format.
 Two-electron integral symmetry is turned on.
 R6APFD:  NTU= -4 IXU= 1 FactS= 1.050
 Nuclear repulsion after empirical dispersion term =     5056.2276643438 Hartrees.
 One-electron integrals computed using PRISM.
   1 Symmetry operations used in ECPInt.
 ECPInt:  NShTT=  146611 NPrTT=  457451 LenC2=  116359 LenP2D=  242491.
 LDataN:  DoStor=T MaxTD1= 6 Len=  172
 Number of processors reduced to  26 by ecpmxn.
 NBasis=  1359 RedAO= T EigKep=  3.16D-06  NBF=  1359
 NBsUse=  1359 1.00D-06 EigRej= -1.00D+00 NBFU=  1359
 ExpMin= 4.20D-02 ExpMax= 3.01D+05 ExpMxC= 2.91D+03 IAcc=3 IRadAn=         5 AccDes= 0.00D+00
 Harris functional with IExCor= 3731 and IRadAn=       5 diagonalized for initial guess.
 HarFok:  IExCor= 3731 AccDes= 0.00D+00 IRadAn=         5 IDoV= 1 UseB2=F ITyADJ=14
 ICtDFT=  3500011 ScaDFX=  1.000000  1.000000  1.000000  1.000000
 FoFCou: FMM=F IPFlag=           0 FMFlag=      100000 FMFlg1=        2001
         NFxFlg=           0 DoJE=T BraDBF=F KetDBF=T FulRan=T
         wScrn=  0.000000 ICntrl=       500 IOpCl=  0 I1Cent=   200000004 NGrid=           0
         NMat0=    1 NMatS0=      1 NMatT0=    0 NMatD0=    1 NMtDS0=    0 NMtDT0=    0
 Petite list used in FoFCou.
 Requested convergence on RMS density matrix=1.00D-08 within 128 cycles.
 Requested convergence on MAX density matrix=1.00D-06.
 Requested convergence on             energy=1.00D-06.
 No special actions if energy rises.
 EnCoef did     4 forward-backward iterations
 EnCoef did   100 forward-backward iterations
 EnCoef did   100 forward-backward iterations
 EnCoef did   100 forward-backward iterations
 EnCoef did    11 forward-backward iterations
 EnCoef did     5 forward-backward iterations
 Restarting incremental Fock formation.
 SCF Done:  E(RAPFD) =  -3080.76868040     A.U. after   28 cycles
            NFock= 28  Conv=0.26D-08     -V/T= 2.0031
 DoSCS=F DFT=T ScalE2(SS,OS)=  1.000000  1.000000
 Range of M.O.s used for correlation:     1  1359
 NBasis=  1359 NAE=   144 NBE=   144 NFC=     0 NFV=     0
 NROrb=   1359 NOA=   144 NOB=   144 NVA=  1215 NVB=  1215

 **** Warning!!: The largest alpha MO coefficient is  0.47041394D+02

          Differentiating once with respect to electric field.
                with respect to dipole field.
          Electric field/nuclear overlap derivatives assumed to be zero.
          There are     3 degrees of freedom in the 1st order CPHF.  IDoFFX=0 NUNeed=     3.
      3 vectors produced by pass  0 Test12= 5.83D-12 3.33D-08 XBig12= 1.78D+03 2.77D+01.
 AX will form     3 AO Fock derivatives at one time.
      3 vectors produced by pass  1 Test12= 5.83D-12 3.33D-08 XBig12= 1.07D+03 7.23D+00.
      3 vectors produced by pass  2 Test12= 5.83D-12 3.33D-08 XBig12= 5.47D+02 4.01D+00.
      3 vectors produced by pass  3 Test12= 5.83D-12 3.33D-08 XBig12= 2.98D+02 3.50D+00.
      3 vectors produced by pass  4 Test12= 5.83D-12 3.33D-08 XBig12= 1.73D+02 3.95D+00.
      3 vectors produced by pass  5 Test12= 5.83D-12 3.33D-08 XBig12= 9.77D+01 3.48D+00.
      3 vectors produced by pass  6 Test12= 5.83D-12 3.33D-08 XBig12= 6.71D+01 2.81D+00.
      3 vectors produced by pass  7 Test12= 5.83D-12 3.33D-08 XBig12= 3.69D+01 1.33D+00.
      3 vectors produced by pass  8 Test12= 5.83D-12 3.33D-08 XBig12= 1.21D+01 5.17D-01.
      3 vectors produced by pass  9 Test12= 5.83D-12 3.33D-08 XBig12= 5.10D+00 3.80D-01.
      3 vectors produced by pass 10 Test12= 5.83D-12 3.33D-08 XBig12= 2.34D+00 2.89D-01.
      3 vectors produced by pass 11 Test12= 5.83D-12 3.33D-08 XBig12= 9.34D-01 2.76D-01.
      3 vectors produced by pass 12 Test12= 5.83D-12 3.33D-08 XBig12= 3.48D-01 1.86D-01.
      3 vectors produced by pass 13 Test12= 5.83D-12 3.33D-08 XBig12= 1.44D-01 1.22D-01.
      3 vectors produced by pass 14 Test12= 5.83D-12 3.33D-08 XBig12= 4.91D-02 5.90D-02.
      3 vectors produced by pass 15 Test12= 5.83D-12 3.33D-08 XBig12= 1.14D-02 1.70D-02.
      3 vectors produced by pass 16 Test12= 5.83D-12 3.33D-08 XBig12= 2.51D-03 8.07D-03.
      3 vectors produced by pass 17 Test12= 5.83D-12 3.33D-08 XBig12= 4.22D-04 3.48D-03.
      3 vectors produced by pass 18 Test12= 5.83D-12 3.33D-08 XBig12= 9.71D-05 1.96D-03.
      3 vectors produced by pass 19 Test12= 5.83D-12 3.33D-08 XBig12= 2.27D-05 7.51D-04.
      3 vectors produced by pass 20 Test12= 5.83D-12 3.33D-08 XBig12= 4.98D-06 5.81D-04.
      3 vectors produced by pass 21 Test12= 5.83D-12 3.33D-08 XBig12= 8.88D-07 2.07D-04.
      3 vectors produced by pass 22 Test12= 5.83D-12 3.33D-08 XBig12= 2.12D-07 7.48D-05.
      3 vectors produced by pass 23 Test12= 5.83D-12 3.33D-08 XBig12= 3.72D-08 4.24D-05.
      3 vectors produced by pass 24 Test12= 5.83D-12 3.33D-08 XBig12= 3.74D-09 1.14D-05.
      3 vectors produced by pass 25 Test12= 5.83D-12 3.33D-08 XBig12= 4.93D-10 6.08D-06.
      3 vectors produced by pass 26 Test12= 5.83D-12 3.33D-08 XBig12= 8.64D-11 2.09D-06.
      3 vectors produced by pass 27 Test12= 5.83D-12 3.33D-08 XBig12= 1.55D-11 8.98D-07.
      3 vectors produced by pass 28 Test12= 5.83D-12 3.33D-08 XBig12= 1.81D-12 2.53D-07.
      3 vectors produced by pass 29 Test12= 5.83D-12 3.33D-08 XBig12= 2.23D-13 6.97D-08.
 InvSVY:  IOpt=1 It=  1 EMax= 4.97D-14
 Solved reduced A of dimension    90 with     3 vectors.
 Isotropic polarizability for W=    0.000000      532.24 Bohr**3.
 End of Minotr F.D. properties file   721 does not exist.
 End of Minotr F.D. properties file   722 does not exist.
 End of Minotr F.D. properties file   788 does not exist.

 **********************************************************************

            Population analysis using the SCF Density.

 **********************************************************************

 Orbital symmetries:
       Occupied  (A) (A) (A) (A) (A) (A) (A) (A) (A) (A) (A) (A)
                 (A) (A) (A) (A) (A) (A) (A) (A) (A) (A) (A) (A)
                 (A) (A) (A) (A) (A) (A) (A) (A) (A) (A) (A) (A)
                 (A) (A) (A) (A) (A) (A) (A) (A) (A) (A) (A) (A)
                 (A) (A) (A) (A) (A) (A) (A) (A) (A) (A) (A) (A)
                 (A) (A) (A) (A) (A) (A) (A) (A) (A) (A) (A) (A)
                 (A) (A) (A) (A) (A) (A) (A) (A) (A) (A) (A) (A)
                 (A) (A) (A) (A) (A) (A) (A) (A) (A) (A) (A) (A)
                 (A) (A) (A) (A) (A) (A) (A) (A) (A) (A) (A) (A)
                 (A) (A) (A) (A) (A) (A) (A) (A) (A) (A) (A) (A)
                 (A) (A) (A) (A) (A) (A) (A) (A) (A) (A) (A) (A)
                 (A) (A) (A) (A) (A) (A) (A) (A) (A) (A) (A) (A)
       Virtual   (A) (A) (A) (A) (A) (A) (A) (A) (A) (A) (A) (A)
                 (A) (A) (A) (A) (A) (A) (A) (A) (A) (A) (A) (A)
                 (A) (A) (A) (A) (A) (A) (A) (A) (A) (A) (A) (A)
                 (A) (A) (A) (A) (A) (A) (A) (A) (A) (A) (A) (A)
                 (A) (A) (A) (A) (A) (A) (A) (A) (A) (A) (A) (A)
                 (A) (A) (A) (A) (A) (A) (A) (A) (A) (A) (A) (A)
                 (A) (A) (A) (A) (A) (A) (A) (A) (A) (A) (A) (A)
                 (A) (A) (A) (A) (A) (A) (A) (A) (A) (A) (A) (A)
                 (A) (A) (A) (A) (A) (A) (A) (A) (A) (A) (A) (A)
                 (A) (A) (A) (A) (A) (A) (A) (A) (A) (A) (A) (A)
                 (A) (A) (A) (A) (A) (A) (A) (A) (A) (A) (A) (A)
                 (A) (A) (A) (A) (A) (A) (A) (A) (A) (A) (A) (A)
                 (A) (A) (A) (A) (A) (A) (A) (A) (A) (A) (A) (A)
                 (A) (A) (A) (A) (A) (A) (A) (A) (A) (A) (A) (A)
                 (A) (A) (A) (A) (A) (A) (A) (A) (A) (A) (A) (A)
                 (A) (A) (A) (A) (A) (A) (A) (A) (A) (A) (A) (A)
                 (A) (A) (A) (A) (A) (A) (A) (A) (A) (A) (A) (A)
                 (A) (A) (A) (A) (A) (A) (A) (A) (A) (A) (A) (A)
                 (A) (A) (A) (A) (A) (A) (A) (A) (A) (A) (A) (A)
                 (A) (A) (A) (A) (A) (A) (A) (A) (A) (A) (A) (A)
                 (A) (A) (A) (A) (A) (A) (A) (A) (A) (A) (A) (A)
                 (A) (A) (A) (A) (A) (A) (A) (A) (A) (A) (A) (A)
                 (A) (A) (A) (A) (A) (A) (A) (A) (A) (A) (A) (A)
                 (A) (A) (A) (A) (A) (A) (A) (A) (A) (A) (A) (A)
                 (A) (A) (A) (A) (A) (A) (A) (A) (A) (A) (A) (A)
                 (A) (A) (A) (A) (A) (A) (A) (A) (A) (A) (A) (A)
                 (A) (A) (A) (A) (A) (A) (A) (A) (A) (A) (A) (A)
                 (A) (A) (A) (A) (A) (A) (A) (A) (A) (A) (A) (A)
                 (A) (A) (A) (A) (A) (A) (A) (A) (A) (A) (A) (A)
                 (A) (A) (A) (A) (A) (A) (A) (A) (A) (A) (A) (A)
                 (A) (A) (A) (A) (A) (A) (A) (A) (A) (A) (A) (A)
                 (A) (A) (A) (A) (A) (A) (A) (A) (A) (A) (A) (A)
                 (A) (A) (A) (A) (A) (A) (A) (A) (A) (A) (A) (A)
                 (A) (A) (A) (A) (A) (A) (A) (A) (A) (A) (A) (A)
                 (A) (A) (A) (A) (A) (A) (A) (A) (A) (A) (A) (A)
                 (A) (A) (A) (A) (A) (A) (A) (A) (A) (A) (A) (A)
                 (A) (A) (A) (A) (A) (A) (A) (A) (A) (A) (A) (A)
                 (A) (A) (A) (A) (A) (A) (A) (A) (A) (A) (A) (A)
                 (A) (A) (A) (A) (A) (A) (A) (A) (A) (A) (A) (A)
                 (A) (A) (A) (A) (A) (A) (A) (A) (A) (A) (A) (A)
                 (A) (A) (A) (A) (A) (A) (A) (A) (A) (A) (A) (A)
                 (A) (A) (A) (A) (A) (A) (A) (A) (A) (A) (A) (A)
                 (A) (A) (A) (A) (A) (A) (A) (A) (A) (A) (A) (A)
                 (A) (A) (A) (A) (A) (A) (A) (A) (A) (A) (A) (A)
                 (A) (A) (A) (A) (A) (A) (A) (A) (A) (A) (A) (A)
                 (A) (A) (A) (A) (A) (A) (A) (A) (A) (A) (A) (A)
                 (A) (A) (A) (A) (A) (A) (A) (A) (A) (A) (A) (A)
                 (A) (A) (A) (A) (A) (A) (A) (A) (A) (A) (A) (A)
                 (A) (A) (A) (A) (A) (A) (A) (A) (A) (A) (A) (A)
                 (A) (A) (A) (A) (A) (A) (A) (A) (A) (A) (A) (A)
                 (A) (A) (A) (A) (A) (A) (A) (A) (A) (A) (A) (A)
                 (A) (A) (A) (A) (A) (A) (A) (A) (A) (A) (A) (A)
                 (A) (A) (A) (A) (A) (A) (A) (A) (A) (A) (A) (A)
                 (A) (A) (A) (A) (A) (A) (A) (A) (A) (A) (A) (A)
                 (A) (A) (A) (A) (A) (A) (A) (A) (A) (A) (A) (A)
                 (A) (A) (A) (A) (A) (A) (A) (A) (A) (A) (A) (A)
                 (A) (A) (A) (A) (A) (A) (A) (A) (A) (A) (A) (A)
                 (A) (A) (A) (A) (A) (A) (A) (A) (A) (A) (A) (A)
                 (A) (A) (A) (A) (A) (A) (A) (A) (A) (A) (A) (A)
                 (A) (A) (A) (A) (A) (A) (A) (A) (A) (A) (A) (A)
                 (A) (A) (A) (A) (A) (A) (A) (A) (A) (A) (A) (A)
                 (A) (A) (A) (A) (A) (A) (A) (A) (A) (A) (A) (A)
                 (A) (A) (A) (A) (A) (A) (A) (A) (A) (A) (A) (A)
                 (A) (A) (A) (A) (A) (A) (A) (A) (A) (A) (A) (A)
                 (A) (A) (A) (A) (A) (A) (A) (A) (A) (A) (A) (A)
                 (A) (A) (A) (A) (A) (A) (A) (A) (A) (A) (A) (A)
                 (A) (A) (A) (A) (A) (A) (A) (A) (A) (A) (A) (A)
                 (A) (A) (A) (A) (A) (A) (A) (A) (A) (A) (A) (A)
                 (A) (A) (A) (A) (A) (A) (A) (A) (A) (A) (A) (A)
                 (A) (A) (A) (A) (A) (A) (A) (A) (A) (A) (A) (A)
                 (A) (A) (A) (A) (A) (A) (A) (A) (A) (A) (A) (A)
                 (A) (A) (A) (A) (A) (A) (A) (A) (A) (A) (A) (A)
                 (A) (A) (A) (A) (A) (A) (A) (A) (A) (A) (A) (A)
                 (A) (A) (A) (A) (A) (A) (A) (A) (A) (A) (A) (A)
                 (A) (A) (A) (A) (A) (A) (A) (A) (A) (A) (A) (A)
                 (A) (A) (A) (A) (A) (A) (A) (A) (A) (A) (A) (A)
                 (A) (A) (A) (A) (A) (A) (A) (A) (A) (A) (A) (A)
                 (A) (A) (A) (A) (A) (A) (A) (A) (A) (A) (A) (A)
                 (A) (A) (A) (A) (A) (A) (A) (A) (A) (A) (A) (A)
                 (A) (A) (A) (A) (A) (A) (A) (A) (A) (A) (A) (A)
                 (A) (A) (A) (A) (A) (A) (A) (A) (A) (A) (A) (A)
                 (A) (A) (A) (A) (A) (A) (A) (A) (A) (A) (A) (A)
                 (A) (A) (A) (A) (A) (A) (A) (A) (A) (A) (A) (A)
                 (A) (A) (A) (A) (A) (A) (A) (A) (A) (A) (A) (A)
                 (A) (A) (A) (A) (A) (A) (A) (A) (A) (A) (A) (A)
                 (A) (A) (A) (A) (A) (A) (A) (A) (A) (A) (A) (A)
                 (A) (A) (A) (A) (A) (A) (A) (A) (A) (A) (A) (A)
                 (A) (A) (A) (A) (A) (A) (A) (A) (A) (A) (A) (A)
                 (A) (A) (A) (A) (A) (A) (A) (A) (A) (A) (A) (A)
                 (A) (A) (A) (A) (A) (A) (A) (A) (A) (A) (A) (A)
                 (A) (A) (A) (A) (A) (A) (A) (A) (A) (A) (A) (A)
                 (A) (A) (A) (A) (A) (A) (A) (A) (A) (A) (A) (A)
                 (A) (A) (A) (A) (A) (A) (A) (A) (A) (A) (A) (A)
                 (A) (A) (A) (A) (A) (A) (A) (A) (A) (A) (A) (A)
                 (A) (A) (A) (A) (A) (A) (A) (A) (A) (A) (A) (A)
                 (A) (A) (A) (A) (A) (A) (A) (A) (A) (A) (A) (A)
                 (A) (A) (A) (A) (A) (A) (A) (A) (A) (A) (A) (A)
                 (A) (A) (A) (A) (A) (A) (A) (A) (A) (A) (A) (A)
                 (A) (A) (A) (A) (A) (A) (A) (A) (A) (A) (A) (A)
                 (A) (A) (A) (A) (A) (A) (A) (A) (A) (A) (A) (A)
                 (A) (A) (A) (A) (A) (A) (A) (A) (A) (A) (A) (A)
                 (A) (A) (A)
 The electronic state is 1-A.
 Alpha  occ. eigenvalues -- -256.19435 -88.97527 -30.04337 -25.88530 -25.88162
 Alpha  occ. eigenvalues --  -25.88014 -14.34683 -14.34630 -14.34451 -14.34400
 Alpha  occ. eigenvalues --  -10.22715 -10.22012 -10.21877 -10.21807 -10.21716
 Alpha  occ. eigenvalues --  -10.21678 -10.21640 -10.21596 -10.21453 -10.20394
 Alpha  occ. eigenvalues --  -10.20182 -10.19767 -10.19645 -10.19489 -10.19482
 Alpha  occ. eigenvalues --  -10.19408 -10.19348 -10.19346 -10.19314 -10.19298
 Alpha  occ. eigenvalues --  -10.19270 -10.19229 -10.19182 -10.19152 -10.19098
 Alpha  occ. eigenvalues --  -10.19077 -10.19031 -10.18903 -10.18899 -10.18888
 Alpha  occ. eigenvalues --  -10.18704  -8.00228  -5.94791  -5.94517  -5.94032
 Alpha  occ. eigenvalues --   -3.42131  -2.18988  -2.17996  -2.17773  -0.97815
 Alpha  occ. eigenvalues --   -0.96873  -0.96792  -0.95838  -0.83150  -0.82612
 Alpha  occ. eigenvalues --   -0.82216  -0.81493  -0.81095  -0.81040  -0.80448
 Alpha  occ. eigenvalues --   -0.80413  -0.77721  -0.76661  -0.74975  -0.74715
 Alpha  occ. eigenvalues --   -0.73727  -0.71464  -0.70671  -0.68928  -0.68614
 Alpha  occ. eigenvalues --   -0.68507  -0.67202  -0.65026  -0.64935  -0.61518
 Alpha  occ. eigenvalues --   -0.61033  -0.58280  -0.57433  -0.55244  -0.54754
 Alpha  occ. eigenvalues --   -0.54608  -0.52409  -0.51873  -0.51206  -0.51097
 Alpha  occ. eigenvalues --   -0.49028  -0.48669  -0.48089  -0.47419  -0.46871
 Alpha  occ. eigenvalues --   -0.46587  -0.46101  -0.45203  -0.44872  -0.44471
 Alpha  occ. eigenvalues --   -0.44228  -0.43977  -0.43819  -0.43636  -0.43155
 Alpha  occ. eigenvalues --   -0.42306  -0.42169  -0.42071  -0.41754  -0.41430
 Alpha  occ. eigenvalues --   -0.40992  -0.40711  -0.40567  -0.40454  -0.40181
 Alpha  occ. eigenvalues --   -0.40033  -0.39758  -0.39458  -0.39145  -0.38757
 Alpha  occ. eigenvalues --   -0.38238  -0.37928  -0.37879  -0.37405  -0.37147
 Alpha  occ. eigenvalues --   -0.36714  -0.36200  -0.35671  -0.35139  -0.34927
 Alpha  occ. eigenvalues --   -0.34458  -0.32648  -0.32044  -0.31505  -0.31026
 Alpha  occ. eigenvalues --   -0.30082  -0.29545  -0.29268  -0.27554  -0.27295
 Alpha  occ. eigenvalues --   -0.25163  -0.24789  -0.23894  -0.23026  -0.21008
 Alpha  occ. eigenvalues --   -0.19666  -0.19630  -0.19447  -0.18658
 Alpha virt. eigenvalues --   -0.07288  -0.07256  -0.03852  -0.02389  -0.00210
 Alpha virt. eigenvalues --    0.00627   0.01228   0.02819   0.03541   0.03731
 Alpha virt. eigenvalues --    0.04560   0.05351   0.05779   0.05887   0.06619
 Alpha virt. eigenvalues --    0.06989   0.07173   0.07557   0.07778   0.08253
 Alpha virt. eigenvalues --    0.08459   0.08867   0.09342   0.09766   0.10020
 Alpha virt. eigenvalues --    0.10331   0.10730   0.10817   0.10949   0.11319
 Alpha virt. eigenvalues --    0.11679   0.11962   0.12399   0.12602   0.12804
 Alpha virt. eigenvalues --    0.13161   0.13524   0.13796   0.14035   0.14181
 Alpha virt. eigenvalues --    0.14430   0.14536   0.14751   0.14935   0.15178
 Alpha virt. eigenvalues --    0.15330   0.15595   0.15971   0.16158   0.16198
 Alpha virt. eigenvalues --    0.16634   0.16758   0.17099   0.17255   0.17607
 Alpha virt. eigenvalues --    0.17940   0.18322   0.18613   0.18975   0.19138
 Alpha virt. eigenvalues --    0.19250   0.19472   0.19892   0.19956   0.20550
 Alpha virt. eigenvalues --    0.20792   0.20901   0.21329   0.21445   0.22004
 Alpha virt. eigenvalues --    0.22523   0.22681   0.22830   0.23262   0.23458
 Alpha virt. eigenvalues --    0.23990   0.24203   0.24505   0.24810   0.24984
 Alpha virt. eigenvalues --    0.25183   0.25735   0.25974   0.26099   0.26473
 Alpha virt. eigenvalues --    0.26893   0.27112   0.27507   0.27644   0.28157
 Alpha virt. eigenvalues --    0.28447   0.28597   0.28756   0.28887   0.29448
 Alpha virt. eigenvalues --    0.29511   0.29830   0.29959   0.30641   0.31074
 Alpha virt. eigenvalues --    0.31142   0.31555   0.31635   0.31903   0.32297
 Alpha virt. eigenvalues --    0.32729   0.33028   0.33222   0.33460   0.34164
 Alpha virt. eigenvalues --    0.34477   0.34628   0.34965   0.35268   0.35599
 Alpha virt. eigenvalues --    0.35700   0.36078   0.36556   0.36847   0.37000
 Alpha virt. eigenvalues --    0.37621   0.37809   0.37928   0.38420   0.38850
 Alpha virt. eigenvalues --    0.38928   0.39332   0.39756   0.39871   0.40073
 Alpha virt. eigenvalues --    0.40322   0.40637   0.40752   0.40998   0.41186
 Alpha virt. eigenvalues --    0.41247   0.41754   0.42039   0.42279   0.42368
 Alpha virt. eigenvalues --    0.42715   0.42967   0.43191   0.43410   0.43495
 Alpha virt. eigenvalues --    0.43873   0.44085   0.44468   0.44828   0.44961
 Alpha virt. eigenvalues --    0.45147   0.45305   0.45675   0.45920   0.46181
 Alpha virt. eigenvalues --    0.46315   0.46611   0.46771   0.46928   0.47021
 Alpha virt. eigenvalues --    0.47094   0.47410   0.47617   0.47804   0.47968
 Alpha virt. eigenvalues --    0.48261   0.48449   0.48709   0.48923   0.49456
 Alpha virt. eigenvalues --    0.49870   0.50005   0.50313   0.50391   0.50719
 Alpha virt. eigenvalues --    0.50814   0.51164   0.51193   0.51360   0.51708
 Alpha virt. eigenvalues --    0.52148   0.52365   0.52689   0.52971   0.53216
 Alpha virt. eigenvalues --    0.53396   0.53782   0.54257   0.54561   0.55043
 Alpha virt. eigenvalues --    0.55400   0.55589   0.55886   0.56095   0.56432
 Alpha virt. eigenvalues --    0.57035   0.57309   0.57527   0.57753   0.57997
 Alpha virt. eigenvalues --    0.58419   0.58828   0.59238   0.59599   0.59806
 Alpha virt. eigenvalues --    0.60006   0.60748   0.60874   0.61191   0.61778
 Alpha virt. eigenvalues --    0.62081   0.62541   0.62767   0.63039   0.63202
 Alpha virt. eigenvalues --    0.63657   0.63843   0.64267   0.64966   0.64990
 Alpha virt. eigenvalues --    0.65291   0.65373   0.66047   0.66375   0.66501
 Alpha virt. eigenvalues --    0.66681   0.67078   0.67222   0.67281   0.67906
 Alpha virt. eigenvalues --    0.68196   0.68633   0.69308   0.69459   0.69692
 Alpha virt. eigenvalues --    0.70166   0.70460   0.70840   0.71134   0.71687
 Alpha virt. eigenvalues --    0.71961   0.72278   0.72723   0.73024   0.73134
 Alpha virt. eigenvalues --    0.73596   0.73723   0.74110   0.74296   0.74479
 Alpha virt. eigenvalues --    0.74732   0.75280   0.75778   0.76264   0.76462
 Alpha virt. eigenvalues --    0.76923   0.77159   0.77517   0.78323   0.78467
 Alpha virt. eigenvalues --    0.78815   0.79377   0.79850   0.79957   0.80202
 Alpha virt. eigenvalues --    0.80926   0.81166   0.81788   0.82348   0.82450
 Alpha virt. eigenvalues --    0.83250   0.83412   0.83839   0.84189   0.84538
 Alpha virt. eigenvalues --    0.84710   0.85232   0.86273   0.86455   0.86626
 Alpha virt. eigenvalues --    0.87111   0.87707   0.87908   0.88438   0.89112
 Alpha virt. eigenvalues --    0.89298   0.89981   0.90306   0.90574   0.90859
 Alpha virt. eigenvalues --    0.91218   0.91891   0.92591   0.93010   0.93511
 Alpha virt. eigenvalues --    0.93922   0.93997   0.94221   0.94515   0.95202
 Alpha virt. eigenvalues --    0.95775   0.95916   0.96116   0.96206   0.96342
 Alpha virt. eigenvalues --    0.96907   0.97337   0.97653   0.98111   0.98809
 Alpha virt. eigenvalues --    0.99327   0.99689   0.99876   1.00200   1.01085
 Alpha virt. eigenvalues --    1.01365   1.01547   1.01942   1.02040   1.02292
 Alpha virt. eigenvalues --    1.02845   1.03140   1.03453   1.03909   1.04063
 Alpha virt. eigenvalues --    1.04628   1.05153   1.05579   1.05661   1.05898
 Alpha virt. eigenvalues --    1.06326   1.06960   1.07676   1.07745   1.08400
 Alpha virt. eigenvalues --    1.08747   1.09145   1.09390   1.09423   1.10419
 Alpha virt. eigenvalues --    1.10516   1.11051   1.11448   1.11929   1.12552
 Alpha virt. eigenvalues --    1.12929   1.13283   1.14579   1.15230   1.15886
 Alpha virt. eigenvalues --    1.16366   1.16665   1.17408   1.17827   1.18210
 Alpha virt. eigenvalues --    1.18834   1.19439   1.19872   1.20141   1.20186
 Alpha virt. eigenvalues --    1.21032   1.21438   1.22346   1.23014   1.23361
 Alpha virt. eigenvalues --    1.23536   1.24169   1.24602   1.25138   1.25585
 Alpha virt. eigenvalues --    1.26227   1.26390   1.27022   1.27156   1.27696
 Alpha virt. eigenvalues --    1.27859   1.28124   1.28339   1.29010   1.29151
 Alpha virt. eigenvalues --    1.29680   1.29808   1.30123   1.30614   1.30942
 Alpha virt. eigenvalues --    1.31267   1.31674   1.32127   1.33452   1.34514
 Alpha virt. eigenvalues --    1.34938   1.36007   1.36934   1.37159   1.38239
 Alpha virt. eigenvalues --    1.38738   1.39112   1.39474   1.39887   1.40366
 Alpha virt. eigenvalues --    1.41039   1.41389   1.41958   1.42728   1.43316
 Alpha virt. eigenvalues --    1.44585   1.44690   1.45150   1.45787   1.45908
 Alpha virt. eigenvalues --    1.46120   1.47056   1.47623   1.47832   1.48426
 Alpha virt. eigenvalues --    1.48673   1.49229   1.49463   1.50162   1.50641
 Alpha virt. eigenvalues --    1.50814   1.51250   1.51649   1.51797   1.52081
 Alpha virt. eigenvalues --    1.52253   1.52941   1.53104   1.53343   1.53618
 Alpha virt. eigenvalues --    1.53903   1.54376   1.54459   1.54729   1.54919
 Alpha virt. eigenvalues --    1.55092   1.55238   1.55680   1.55913   1.56178
 Alpha virt. eigenvalues --    1.56554   1.56762   1.56835   1.57064   1.57152
 Alpha virt. eigenvalues --    1.57701   1.58221   1.58372   1.58749   1.59103
 Alpha virt. eigenvalues --    1.59259   1.59404   1.60149   1.60310   1.60678
 Alpha virt. eigenvalues --    1.60844   1.61697   1.61947   1.62108   1.62483
 Alpha virt. eigenvalues --    1.62857   1.63505   1.63836   1.64013   1.64156
 Alpha virt. eigenvalues --    1.64828   1.64965   1.65579   1.66025   1.66230
 Alpha virt. eigenvalues --    1.66641   1.66943   1.67522   1.67615   1.67942
 Alpha virt. eigenvalues --    1.68203   1.68421   1.68942   1.69540   1.69716
 Alpha virt. eigenvalues --    1.69936   1.70518   1.70588   1.71039   1.71536
 Alpha virt. eigenvalues --    1.72140   1.72249   1.72568   1.72929   1.73286
 Alpha virt. eigenvalues --    1.73737   1.74071   1.74910   1.75240   1.76313
 Alpha virt. eigenvalues --    1.76922   1.77237   1.77517   1.78444   1.78597
 Alpha virt. eigenvalues --    1.79322   1.79511   1.80358   1.80802   1.80984
 Alpha virt. eigenvalues --    1.81358   1.81891   1.82820   1.83309   1.83635
 Alpha virt. eigenvalues --    1.84536   1.84647   1.85309   1.85838   1.86148
 Alpha virt. eigenvalues --    1.86613   1.87060   1.88180   1.88211   1.88825
 Alpha virt. eigenvalues --    1.89007   1.89327   1.90210   1.90354   1.91065
 Alpha virt. eigenvalues --    1.91622   1.92007   1.92558   1.93108   1.94489
 Alpha virt. eigenvalues --    1.95021   1.95535   1.96050   1.96233   1.97154
 Alpha virt. eigenvalues --    1.97275   1.98160   1.98378   1.98923   1.99414
 Alpha virt. eigenvalues --    1.99967   2.00236   2.00612   2.00707   2.01097
 Alpha virt. eigenvalues --    2.01831   2.02422   2.03010   2.03503   2.03993
 Alpha virt. eigenvalues --    2.04384   2.05464   2.05609   2.06094   2.06762
 Alpha virt. eigenvalues --    2.07440   2.07756   2.08190   2.08885   2.09501
 Alpha virt. eigenvalues --    2.09986   2.10063   2.10292   2.10628   2.11402
 Alpha virt. eigenvalues --    2.12017   2.12208   2.13514   2.14215   2.14708
 Alpha virt. eigenvalues --    2.15009   2.15316   2.15752   2.16205   2.16527
 Alpha virt. eigenvalues --    2.17306   2.17653   2.18331   2.19203   2.19546
 Alpha virt. eigenvalues --    2.20201   2.20857   2.21214   2.21824   2.22766
 Alpha virt. eigenvalues --    2.23248   2.23457   2.23794   2.24795   2.25204
 Alpha virt. eigenvalues --    2.25725   2.26574   2.27242   2.27604   2.27847
 Alpha virt. eigenvalues --    2.28148   2.28564   2.28770   2.29479   2.29735
 Alpha virt. eigenvalues --    2.30248   2.30326   2.31052   2.31839   2.32085
 Alpha virt. eigenvalues --    2.32668   2.33263   2.33879   2.34207   2.34659
 Alpha virt. eigenvalues --    2.35171   2.35468   2.35949   2.36600   2.36922
 Alpha virt. eigenvalues --    2.37068   2.37484   2.37620   2.37933   2.38362
 Alpha virt. eigenvalues --    2.39315   2.39833   2.40141   2.40204   2.40839
 Alpha virt. eigenvalues --    2.40992   2.41676   2.42304   2.42727   2.43222
 Alpha virt. eigenvalues --    2.43718   2.43950   2.44548   2.45164   2.46126
 Alpha virt. eigenvalues --    2.46246   2.46503   2.47499   2.47597   2.48357
 Alpha virt. eigenvalues --    2.48580   2.49149   2.49598   2.50502   2.51036
 Alpha virt. eigenvalues --    2.51454   2.51944   2.52271   2.52627   2.52858
 Alpha virt. eigenvalues --    2.54335   2.54591   2.54781   2.54984   2.55300
 Alpha virt. eigenvalues --    2.55880   2.56122   2.56454   2.56821   2.57407
 Alpha virt. eigenvalues --    2.57565   2.58033   2.58647   2.58909   2.59186
 Alpha virt. eigenvalues --    2.59519   2.59610   2.59998   2.60452   2.60934
 Alpha virt. eigenvalues --    2.61257   2.61794   2.61908   2.62357   2.62935
 Alpha virt. eigenvalues --    2.63726   2.64049   2.64241   2.65108   2.66139
 Alpha virt. eigenvalues --    2.66616   2.67295   2.67840   2.68450   2.68615
 Alpha virt. eigenvalues --    2.68910   2.69301   2.69710   2.69805   2.69989
 Alpha virt. eigenvalues --    2.70880   2.71201   2.72287   2.72564   2.73458
 Alpha virt. eigenvalues --    2.73958   2.74665   2.75174   2.75898   2.75973
 Alpha virt. eigenvalues --    2.76367   2.76801   2.77083   2.77752   2.78538
 Alpha virt. eigenvalues --    2.78892   2.79571   2.79810   2.80567   2.80611
 Alpha virt. eigenvalues --    2.81081   2.81592   2.82026   2.82407   2.82974
 Alpha virt. eigenvalues --    2.83101   2.83459   2.83941   2.84207   2.85163
 Alpha virt. eigenvalues --    2.85321   2.85651   2.86263   2.86885   2.87066
 Alpha virt. eigenvalues --    2.87526   2.88172   2.88293   2.88864   2.89199
 Alpha virt. eigenvalues --    2.89603   2.90153   2.90749   2.91036   2.91333
 Alpha virt. eigenvalues --    2.92047   2.92104   2.92987   2.93133   2.93609
 Alpha virt. eigenvalues --    2.93971   2.94060   2.94348   2.95604   2.95997
 Alpha virt. eigenvalues --    2.96423   2.97295   2.97770   2.98189   2.98725
 Alpha virt. eigenvalues --    2.99206   2.99880   3.00650   3.01128   3.01541
 Alpha virt. eigenvalues --    3.02039   3.02643   3.03238   3.03597   3.03851
 Alpha virt. eigenvalues --    3.04113   3.04556   3.04994   3.05377   3.05620
 Alpha virt. eigenvalues --    3.06210   3.06275   3.07001   3.07278   3.07605
 Alpha virt. eigenvalues --    3.07980   3.08389   3.08977   3.09198   3.09655
 Alpha virt. eigenvalues --    3.10019   3.10266   3.10507   3.10828   3.11037
 Alpha virt. eigenvalues --    3.11675   3.11841   3.12639   3.12718   3.13035
 Alpha virt. eigenvalues --    3.13435   3.13655   3.14025   3.14423   3.14738
 Alpha virt. eigenvalues --    3.15745   3.15835   3.16124   3.16546   3.16736
 Alpha virt. eigenvalues --    3.17049   3.17510   3.17983   3.18868   3.18964
 Alpha virt. eigenvalues --    3.19157   3.19467   3.19667   3.20262   3.20448
 Alpha virt. eigenvalues --    3.20719   3.20771   3.20999   3.22095   3.22489
 Alpha virt. eigenvalues --    3.22592   3.23050   3.23259   3.23903   3.24206
 Alpha virt. eigenvalues --    3.24355   3.24687   3.25028   3.25463   3.25510
 Alpha virt. eigenvalues --    3.25832   3.26393   3.26506   3.26603   3.27534
 Alpha virt. eigenvalues --    3.27750   3.28019   3.28564   3.29204   3.29244
 Alpha virt. eigenvalues --    3.29692   3.29852   3.30274   3.30445   3.30562
 Alpha virt. eigenvalues --    3.30820   3.30896   3.31367   3.31857   3.31958
 Alpha virt. eigenvalues --    3.32337   3.32832   3.33050   3.33125   3.33312
 Alpha virt. eigenvalues --    3.33505   3.34091   3.34407   3.34519   3.35304
 Alpha virt. eigenvalues --    3.35470   3.35587   3.35845   3.36306   3.36609
 Alpha virt. eigenvalues --    3.36730   3.37067   3.37204   3.37651   3.38053
 Alpha virt. eigenvalues --    3.38168   3.38355   3.39146   3.39390   3.39580
 Alpha virt. eigenvalues --    3.39965   3.40388   3.40488   3.41103   3.41612
 Alpha virt. eigenvalues --    3.41847   3.42031   3.42679   3.43241   3.43476
 Alpha virt. eigenvalues --    3.43948   3.44643   3.44937   3.45417   3.45759
 Alpha virt. eigenvalues --    3.46070   3.46295   3.46752   3.47575   3.48573
 Alpha virt. eigenvalues --    3.48809   3.49177   3.49453   3.49887   3.50370
 Alpha virt. eigenvalues --    3.51290   3.51505   3.53143   3.53328   3.53760
 Alpha virt. eigenvalues --    3.54859   3.54980   3.55725   3.56520   3.56878
 Alpha virt. eigenvalues --    3.57346   3.57884   3.58072   3.58649   3.59171
 Alpha virt. eigenvalues --    3.59599   3.60493   3.60959   3.61303   3.61924
 Alpha virt. eigenvalues --    3.62561   3.62608   3.63199   3.63785   3.64231
 Alpha virt. eigenvalues --    3.65077   3.65321   3.66495   3.66880   3.66907
 Alpha virt. eigenvalues --    3.67586   3.68059   3.68945   3.69307   3.70061
 Alpha virt. eigenvalues --    3.70122   3.70746   3.71192   3.71479   3.72035
 Alpha virt. eigenvalues --    3.72140   3.72514   3.72825   3.73980   3.74004
 Alpha virt. eigenvalues --    3.74396   3.74536   3.74662   3.75636   3.75956
 Alpha virt. eigenvalues --    3.76116   3.76918   3.77179   3.78424   3.79193
 Alpha virt. eigenvalues --    3.79483   3.80894   3.81660   3.82838   3.83221
 Alpha virt. eigenvalues --    3.83539   3.84200   3.84374   3.84641   3.85818
 Alpha virt. eigenvalues --    3.86510   3.86974   3.87427   3.87934   3.88824
 Alpha virt. eigenvalues --    3.89386   3.90049   3.90363   3.92145   3.92595
 Alpha virt. eigenvalues --    3.92767   3.93505   3.93871   3.94208   3.96033
 Alpha virt. eigenvalues --    3.96757   3.97536   3.98328   3.98801   3.99091
 Alpha virt. eigenvalues --    3.99364   4.01123   4.01368   4.02096   4.02313
 Alpha virt. eigenvalues --    4.02582   4.03221   4.03416   4.04399   4.05537
 Alpha virt. eigenvalues --    4.06663   4.06879   4.07995   4.08250   4.08943
 Alpha virt. eigenvalues --    4.10248   4.10628   4.11058   4.12479   4.12769
 Alpha virt. eigenvalues --    4.14254   4.14881   4.15087   4.15732   4.16511
 Alpha virt. eigenvalues --    4.16969   4.17702   4.17793   4.18645   4.18839
 Alpha virt. eigenvalues --    4.19148   4.19901   4.20513   4.21013   4.21480
 Alpha virt. eigenvalues --    4.22413   4.23063   4.23525   4.24398   4.24928
 Alpha virt. eigenvalues --    4.25583   4.25798   4.27028   4.27292   4.27904
 Alpha virt. eigenvalues --    4.28657   4.29507   4.29865   4.30656   4.31442
 Alpha virt. eigenvalues --    4.32574   4.33225   4.33457   4.34059   4.35006
 Alpha virt. eigenvalues --    4.35666   4.36098   4.36356   4.36920   4.38137
 Alpha virt. eigenvalues --    4.38665   4.39168   4.39624   4.40064   4.40795
 Alpha virt. eigenvalues --    4.40934   4.41600   4.42338   4.42601   4.43275
 Alpha virt. eigenvalues --    4.43322   4.44092   4.44738   4.44991   4.45454
 Alpha virt. eigenvalues --    4.45743   4.46089   4.47000   4.47682   4.48650
 Alpha virt. eigenvalues --    4.49662   4.52281   4.52435   4.53240   4.54435
 Alpha virt. eigenvalues --    4.54692   4.55899   4.56362   4.58716   4.60004
 Alpha virt. eigenvalues --    4.60904   4.61950   4.62305   4.64403   4.65256
 Alpha virt. eigenvalues --    4.65819   4.66862   4.67453   4.68548   4.68659
 Alpha virt. eigenvalues --    4.69628   4.71196   4.71788   4.72337   4.73988
 Alpha virt. eigenvalues --    4.74833   4.75916   4.77152   4.77910   4.79711
 Alpha virt. eigenvalues --    4.79988   4.80844   4.82870   4.83228   4.83643
 Alpha virt. eigenvalues --    4.84256   4.84318   4.84810   4.86139   4.87396
 Alpha virt. eigenvalues --    4.89255   4.89752   4.90405   4.92416   4.93272
 Alpha virt. eigenvalues --    4.94229   4.95340   4.95810   4.96744   4.97179
 Alpha virt. eigenvalues --    4.99204   5.00264   5.02541   5.02780   5.03480
 Alpha virt. eigenvalues --    5.04424   5.04998   5.06426   5.07114   5.08023
 Alpha virt. eigenvalues --    5.08825   5.09445   5.10174   5.10401   5.15005
 Alpha virt. eigenvalues --    5.17322   5.18927   5.19654   5.19992   5.20645
 Alpha virt. eigenvalues --    5.21441   5.22967   5.24207   5.24581   5.24827
 Alpha virt. eigenvalues --    5.27453   5.35075   5.35485   5.35965   5.37756
 Alpha virt. eigenvalues --    5.38310   5.38649   5.38837   5.39483   5.41908
 Alpha virt. eigenvalues --    5.47748   5.47907   5.49121   5.49658   5.50720
 Alpha virt. eigenvalues --    5.50952   5.51691   5.59105   5.59525   5.60430
 Alpha virt. eigenvalues --    5.61638   5.62438   5.65249   5.66679   5.67935
 Alpha virt. eigenvalues --    5.68746   5.73075   5.73813   5.75099   5.77091
 Alpha virt. eigenvalues --    5.77634   5.85168   5.87137   5.89736   6.00401
 Alpha virt. eigenvalues --    6.00623   6.02240   6.06714   6.08252   6.11334
 Alpha virt. eigenvalues --    6.11732   6.16707   6.24947   6.33216   6.33248
 Alpha virt. eigenvalues --    6.40464   9.04257   9.18819   9.38518  19.49642
 Alpha virt. eigenvalues --   22.31259  22.33279  22.33792  22.45795  22.46255
 Alpha virt. eigenvalues --   22.54143  22.54692  22.61951  22.62571  22.82861
 Alpha virt. eigenvalues --   22.86503  22.87393  22.92615  22.93927  22.95394
 Alpha virt. eigenvalues --   22.95807  23.03785  23.03888  23.14898  23.25350
 Alpha virt. eigenvalues --   23.29229  23.29673  23.35547  23.43084  23.51630
 Alpha virt. eigenvalues --   23.51684  23.56806  23.74905  23.78908  23.78998
 Alpha virt. eigenvalues --   23.88078  32.82034  32.83213  32.87864  33.01396
          Condensed to atoms (all electrons):
 Mulliken charges:
               1
     1  Fe  -0.180669
     2  N   -0.096055
     3  N   -0.091520
     4  N   -0.085472
     5  N   -0.061353
     6  C    0.248205
     7  C   -0.044915
     8  C   -0.024835
     9  C    0.223769
    10  C    0.192191
    11  C   -0.065334
    12  C    0.088758
    13  C    0.248660
    14  C    0.276275
    15  C   -0.109703
    16  C    0.112557
    17  C    0.262548
    18  C    0.252262
    19  C   -0.049684
    20  C   -0.047614
    21  C    0.252629
    22  C   -0.435705
    23  H    0.143138
    24  C   -0.437990
    25  H    0.140770
    26  C   -0.518016
    27  H    0.183036
    28  C   -0.448159
    29  H    0.178796
    30  C   -0.413350
    31  H    0.121784
    32  H    0.139266
    33  H    0.135559
    34  C   -0.415442
    35  H    0.134210
    36  H    0.141559
    37  H    0.121512
    38  C   -0.401625
    39  H    0.135317
    40  H    0.140884
    41  H    0.128852
    42  C   -0.253669
    43  H    0.119739
    44  C   -0.305471
    45  H    0.149717
    46  H    0.125004
    47  C   -0.388443
    48  H    0.134884
    49  H    0.140573
    50  H    0.125689
    51  C   -0.258767
    52  H    0.118651
    53  C   -0.296324
    54  H    0.144106
    55  H    0.124395
    56  C   -0.407905
    57  H    0.139260
    58  H    0.136778
    59  H    0.120520
    60  C   -0.416429
    61  H    0.133875
    62  H    0.121763
    63  H    0.139726
    64  C   -0.340034
    65  H    0.155929
    66  H    0.147604
    67  H    0.165068
    68  S   -0.020641
    69  H    0.169306
 Sum of Mulliken charges =  -0.00000
 Mulliken charges with hydrogens summed into heavy atoms:
               1
     1  Fe  -0.180669
     2  N   -0.096055
     3  N   -0.091520
     4  N   -0.085472
     5  N   -0.061353
     6  C    0.248205
     7  C   -0.044915
     8  C   -0.024835
     9  C    0.223769
    10  C    0.192191
    11  C   -0.065334
    12  C    0.088758
    13  C    0.248660
    14  C    0.276275
    15  C   -0.109703
    16  C    0.112557
    17  C    0.262548
    18  C    0.252262
    19  C   -0.049684
    20  C   -0.047614
    21  C    0.252629
    22  C   -0.292567
    24  C   -0.297220
    26  C   -0.334980
    28  C   -0.269363
    30  C   -0.016741
    34  C   -0.018161
    38  C    0.003428
    42  C   -0.133930
    44  C   -0.030750
    47  C    0.012703
    51  C   -0.140116
    53  C   -0.027823
    56  C   -0.011346
    60  C   -0.021065
    64  C    0.128566
    68  S    0.148665
 Electronic spatial extent (au):  <R**2>=          17772.0440
 Charge=             -0.0000 electrons
 Dipole moment (field-independent basis, Debye):
    X=             -1.6997    Y=             -0.2892    Z=              2.3361  Tot=              2.9035
 Quadrupole moment (field-independent basis, Debye-Ang):
   XX=           -210.5796   YY=           -211.8376   ZZ=           -231.5738
   XY=              0.5406   XZ=             -4.0120   YZ=              4.3707
 Traceless Quadrupole moment (field-independent basis, Debye-Ang):
   XX=              7.4174   YY=              6.1594   ZZ=            -13.5768
   XY=              0.5406   XZ=             -4.0120   YZ=              4.3707
 Octapole moment (field-independent basis, Debye-Ang**2):
  XXX=            -20.9171  YYY=            -30.2273  ZZZ=             28.2852  XYY=              1.1444
  XXY=            -11.9501  XXZ=              3.8783  XZZ=            -15.8844  YZZ=             -0.0516
  YYZ=              8.7634  XYZ=              5.8010
 Hexadecapole moment (field-independent basis, Debye-Ang**3):
 XXXX=         -11278.2697 YYYY=         -11087.8306 ZZZZ=          -1165.2227 XXXY=             -3.8712
 XXXZ=             34.9737 YYYX=              1.7186 YYYZ=             41.0545 ZZZX=            -51.9551
 ZZZY=             29.0810 XXYY=          -3745.0625 XXZZ=          -2214.1925 YYZZ=          -2212.2556
 XXYZ=             76.5587 YYXZ=            -25.8934 ZZXY=              6.3455
 N-N= 5.056227664344D+03 E-N=-1.736617697657D+04  KE= 3.071187136944D+03
  Exact polarizability:     675.433       0.561     667.535      -3.232       1.244     253.766
 Approx polarizability:    1260.988       2.310    1244.870       7.094       7.804     439.804

 ----------------------------------------------------------------------

 Electric dipole moment (input orientation):
 (Debye = 10**-18 statcoulomb cm , SI units = C m)
                  (au)            (Debye)         (10**-30 SI)
   Tot        0.114231D+01      0.290346D+01      0.968490D+01
   x          0.983727D+00      0.250038D+01      0.834038D+01
   y         -0.435926D+00     -0.110801D+01     -0.369593D+01
   z         -0.383563D+00     -0.974920D+00     -0.325198D+01

 Dipole polarizability, Alpha (input orientation).
 (esu units = cm**3 , SI units = C**2 m**2 J**-1)
 Alpha(0;0):
               (au)            (10**-24 esu)      (10**-40 SI)
   iso        0.532244D+03      0.788705D+02      0.877553D+02
   aniso      0.417818D+03      0.619143D+02      0.688890D+02
   xx         0.388738D+03      0.576051D+02      0.640943D+02
   yx        -0.776564D+02     -0.115075D+02     -0.128038D+02
   yy         0.653907D+03      0.968991D+02      0.107815D+03
   zx         0.179133D+03      0.265448D+02      0.295351D+02
   zy         0.462065D+02      0.684709D+01      0.761841D+01
   zz         0.554088D+03      0.821073D+02      0.913567D+02

 First dipole hyperpolarizability, Beta (input orientation).
 ||, _|_  parallel and perpendicular components, (z) with respect to z axis,
 vector components x,y,z.  Values do not include the 1/n! factor of 1/2.
 (esu units = statvolt**-1 cm**4 , SI units = C**3 m**3 J**-2)
 Beta(0;0,0):
               (au)            (10**-30 esu)      (10**-50 SI)
   || (z)     0.496016D+03      0.428519D+01      0.159041D+01
   _|_(z)     0.165339D+03      0.142840D+01      0.530135D+00
   x          0.398343D+03      0.344137D+01      0.127723D+01
   y          0.193273D+04      0.166973D+02      0.619704D+01
   z          0.248008D+04      0.214259D+02      0.795203D+01
   ||         0.633875D+03      0.547618D+01      0.203243D+01
   xxx        0.634321D+02      0.548004D+00      0.203386D+00
   xxy        0.802845D+02      0.693596D+00      0.257421D+00
   yxy       -0.267412D+03     -0.231023D+01     -0.857418D+00
   yyy        0.591998D+03      0.511440D+01      0.189816D+01
   xxz        0.158965D+03      0.137333D+01      0.509699D+00
   yxz        0.288728D+02      0.249439D+00      0.925768D-01
   yyz       -0.140923D+03     -0.121747D+01     -0.451851D+00
   zxz        0.336760D+03      0.290935D+01      0.107978D+01
   zyz       -0.280381D+02     -0.242228D+00     -0.899004D-01
   zzz        0.808651D+03      0.698612D+01      0.259283D+01

 ----------------------------------------------------------------------

 Dipole orientation:
    26         33.31806181        -10.82904887          4.01673932
     7         31.99403910         -7.66190060          5.70851334
     7         36.83269120         -9.39266117          4.44559451
     7         34.68490172        -13.48393512          1.76085415
     7         29.82415510        -11.65993724          2.95787198
     6         29.52490837         -7.17948062          6.26072640
     6         29.28754792         -4.93883607          7.80523262
     6         31.67116636         -4.04450365          8.14915036
     6         33.32930741         -5.76441048          6.82668383
     6         37.55097539         -7.29912016          5.76716185
     6         40.24770677         -7.22081033          6.08900155
     6         41.18234327         -9.34108820          4.94390858
     6         39.01608401        -10.66869835          3.93208594
     6         37.14673294        -14.23775470          1.63721279
     6         37.37857492        -16.56067727          0.24602919
     6         34.98863076        -17.20809618         -0.49944109
     6         33.33051650        -15.29016547          0.52860602
     6         29.11704447        -13.57187562          1.38464774
     6         26.39674544        -13.66991688          1.13534915
     6         25.46841084        -11.80518487          2.63808783
     6         27.63589483        -10.57239668          3.75640194
     6         27.47898451         -8.54714047          5.39090694
     1         25.62014974         -7.91678089          5.94151568
     6         35.92371283         -5.52522488          6.78671611
     1         36.74883382         -3.92609795          7.74473704
     6         39.17105371        -12.94130268          2.65857582
     1         41.01814955        -13.78251679          2.47204612
     6         30.73412983        -15.27558600          0.24834146
     1         29.89871294        -16.79598351         -0.81992459
     6         32.54274384         -1.76878947          9.55777726
     1         30.94525401         -0.73309333         10.32881254
     1         33.59151176         -0.50740326          8.31264370
     1         33.78103075         -2.30669929         11.11482292
     6         26.84260717         -3.90993096          8.74637252
     1         25.79942052         -5.35057427          9.78448645
     1         25.67128207         -3.28124029          7.17208441
     1         27.15726798         -2.30994288          9.99597841
     6         41.66379194         -5.17130440          7.39754993
     1         41.05592223         -5.00033290          9.36003209
     1         41.33767096         -3.36088409          6.47039769
     1         43.68061623         -5.55915941          7.36397575
     6         43.81650640        -10.07609380          4.73916165
     1         44.92909549         -9.81644217          6.44129662
     6         44.93050132        -10.93568363          2.66350597
     1         43.93000415        -11.12323028          0.90137628
     1         46.90482058        -11.43157380          2.64075211
     6         39.80434364        -17.86844363         -0.31916148
     1         40.83176589        -18.28141811          1.41839505
     1         41.00583544        -16.68290322         -1.50096791
     1         39.45709057        -19.62918704         -1.31812989
     6         34.27537767        -19.37751176         -2.01712083
     1         35.24673423        -21.12156495         -1.55194186
     6         32.64083891        -19.35733068         -3.91888136
     1         31.70845766        -17.65312418         -4.52491419
     1         32.21682390        -21.04432876         -4.97648981
     6         25.02228013        -15.51466714         -0.48513059
     1         25.35503233        -17.43905124          0.17119334
     1         25.66944575        -15.38456866         -2.43560804
     1         22.99999152        -15.15639932         -0.44711573
     6         22.79849406        -11.05124360          3.11191258
     1         22.36242054        -11.16262382          5.12226310
     1         21.50285172        -12.28283361          2.09962053
     1         22.47247987         -9.11340162          2.49186338
     6         34.15625547        -11.30265245         10.29047316
     1         34.77488304        -12.46481643         11.86321165
     1         32.39422654        -10.36002789         10.75346011
     1         35.57608950         -9.91248577          9.78250620
    16         33.48958295        -13.33780452          7.56890209
     1         35.85646490        -14.23490307          7.39498997

 Electric dipole moment (dipole orientation):
 (Debye = 10**-18 statcoulomb cm , SI units = C m)
                  (au)            (Debye)         (10**-30 SI)
   Tot        0.114231D+01      0.290346D+01      0.968490D+01
   x          0.000000D+00      0.000000D+00      0.000000D+00
   y          0.000000D+00      0.000000D+00      0.000000D+00
   z          0.114231D+01      0.290346D+01      0.968490D+01

 Dipole polarizability, Alpha (dipole orientation).
 (esu units = cm**3 , SI units = C**2 m**2 J**-1)
 Alpha(0;0):
               (au)            (10**-24 esu)      (10**-40 SI)
   iso        0.532244D+03      0.788705D+02      0.877553D+02
   aniso      0.417818D+03      0.619143D+02      0.688890D+02
   xx         0.667234D+03      0.988738D+02      0.110012D+03
   yx        -0.697146D+01     -0.103306D+01     -0.114944D+01
   yy         0.524216D+03      0.776807D+02      0.864315D+02
   zx         0.111108D+02      0.164645D+01      0.183192D+01
   zy         0.202030D+03      0.299377D+02      0.333102D+02
   zz         0.405284D+03      0.600569D+02      0.668223D+02

 First dipole hyperpolarizability, Beta (dipole orientation).
 ||, _|_  parallel and perpendicular components, (z) with respect to z axis,
 vector components x,y,z.  Values do not include the 1/n! factor of 1/2.
 (esu units = statvolt**-1 cm**4 , SI units = C**3 m**3 J**-2)
 Beta(0;0,0):
               (au)            (10**-30 esu)      (10**-50 SI)
   || (z)    -0.245456D+03     -0.212055D+01     -0.787021D+00
   _|_(z)    -0.818187D+02     -0.706850D+00     -0.262340D+00
   x          0.278847D+04      0.240902D+02      0.894084D+01
   y         -0.873579D+03     -0.754704D+01     -0.280101D+01
   z         -0.122728D+04     -0.106028D+02     -0.393511D+01
   ||         0.633875D+03      0.547618D+01      0.203243D+01
   xxx        0.914442D+03      0.790006D+01      0.293203D+01
   xxy        0.294186D+03      0.254154D+01      0.943267D+00
   yxy        0.181830D+02      0.157087D+00      0.583011D-01
   yyy       -0.358876D+03     -0.310041D+01     -0.115069D+01
   xxz        0.735438D+02      0.635361D+00      0.235808D+00
   yxz       -0.311773D+02     -0.269347D+00     -0.999656D-01
   yyz       -0.313603D+03     -0.270929D+01     -0.100553D+01
   zxz       -0.313473D+01     -0.270816D-01     -0.100511D-01
   zyz       -0.226503D+03     -0.195681D+01     -0.726250D+00
   zzz       -0.169034D+03     -0.146032D+01     -0.541985D+00

 ----------------------------------------------------------------------
 Unable to Open any file for archive entry.
 1\1\GINC-BGN1038\SP\RAPFD\def2TZVP\C31H32Fe1N4S1\BECSLEIP\10-Sep-2024\
 0\\# polar def2tzvp apfd int=(grid=ultrafine)\\2zby_II_S\\0,1\Fe,0,11.
 0827368617,8.6323342269,12.2829158168\N,0,11.1297140178,6.625053522,12
 .0185205763\N,0,11.918437027,8.3260745263,14.0984475683\N,0,10.7220721
 817,10.517584652,12.7705063491\N,0,9.8859777879,8.7830354824,10.711048
 9726\C,0,10.7373744673,5.9646217829,10.8926050503\C,0,11.0936417517,4.
 5653879669,10.962482579\C,0,11.6949894377,4.384602004,12.16822497\C,0,
 11.7065352341,5.6784519245,12.8115226097\C,0,12.41719909,7.1656366118,
 14.6137319225\C,0,13.1884260174,7.4148157893,15.801296595\C,0,13.16263
 04824,8.7674198842,16.0025141712\C,0,12.3644809449,9.3156670328,14.927
 0053077\C,0,11.3433337299,11.2184793388,13.7621366096\C,0,11.066350696
 7,12.624824947,13.6458853714\C,0,10.2483748177,12.7694625199,12.558473
 3008\C,0,10.0768831593,11.4417070897,12.007491858\C,0,9.2515189698,9.9
 101258584,10.2822460668\C,0,8.5103715554,9.6525321938,9.0670670886\C,0
 ,8.733904609,8.3490101092,8.7535667378\C,0,9.5932171472,7.824124186,9.
 7915629505\C,0,10.0374763838,6.5187418791,9.838614842\H,0,9.7687963021
 ,5.8683389765,9.0209799801\C,0,12.2678513378,5.9115233332,14.049232050
 9\H,0,12.6904566304,5.0715189838,14.5779569163\C,0,12.1164780843,10.66
 45167919,14.7649747948\H,0,12.5757625093,11.3392825036,15.469987449\C,
 0,9.3361281881,11.1534004005,10.8770266844\H,0,8.8506092663,11.9772079
 194,10.3790978012\C,0,12.2457902394,3.140648879,12.7746865474\H,0,12.0
 863049749,2.2886477122,12.1188384124\H,0,11.7610014276,2.9339139154,13
 .7285964827\H,0,13.3168564259,3.2410452348,12.9536973541\C,0,10.813086
 945,3.5719052948,9.8888428783\H,0,11.2281857689,3.9056900417,8.9380611
 694\H,0,9.7381055949,3.440907148,9.7617438323\H,0,11.2483074265,2.6061
 530925,10.1333073248\C,0,13.851236329,6.3686173296,16.6279990088\H,0,1
 4.5802267027,5.8125562347,16.0368046526\H,0,13.1162549275,5.6598069127
 ,17.0097263504\H,0,14.3611512774,6.8208404648,17.4747340429\C,0,13.785
 0450964,9.4982591625,17.0908891437\H,0,14.7888071484,9.1769532419,17.3
 47899735\C,0,13.2132645793,10.4677412346,17.7937789881\H,0,12.19915873
 8,10.7817598966,17.6130715841\H,0,13.7321710552,10.9631822878,18.59740
 42739\C,0,11.5500236295,13.6713696757,14.5876728068\H,0,12.637452167,1
 3.6489549837,14.6637452805\H,0,11.1399165006,13.5074898105,15.58461213
 97\H,0,11.2422796495,14.6580575592,14.2513572378\C,0,9.6713041948,14.0
 059327284,12.0650058232\H,0,10.3389929035,14.86074953,12.0728098809\C,
 0,8.4172816174,14.1676611061,11.6621168531\H,0,7.6997656383,13.3651502
 084,11.6890554114\H,0,8.0551452806,15.1214273811,11.3161317606\C,0,7.6
 88548689,10.6706027435,8.356106472\H,0,8.3165080486,11.488700639,8.002
 5093284\H,0,6.9350813945,11.087405906,9.0238745716\H,0,7.1832232572,10
 .2307213185,7.5001172808\C,0,8.223231436,7.5502495714,7.6049108006\H,0
 ,9.0512334988,7.140012695,7.0264816283\H,0,7.6172923425,8.1666674279,6
 .945627933\H,0,7.6116368377,6.7193582919,7.9578507485\C,0,14.200715820
 3,7.6978172628,11.4544933763\H,0,15.2143515419,8.0086953743,11.2222645
 149\H,0,13.8742368334,6.9304844641,10.7596033476\H,0,14.1224389555,7.3
 298083845,12.4725250407\S,0,13.0684995991,9.1201669102,11.2232821166\H
 ,0,13.6631568186,9.8864055075,12.1516408746\\Version=ES64L-G16RevC.02\
 State=1-A\HF=-3080.7686804\RMSD=2.555e-09\Dipole=0.9837267,-0.4359257,
 -0.3835631\Polar=388.7381689,-77.6563567,653.9072643,179.1331777,46.20
 64501,554.0878274\HyperPolar=63.4321441,80.2845146,-267.411653,591.997
 8087,158.9648042,28.872837,-140.9231787,336.760437,-28.03815,808.65128
 61\Quadrupole=-1.3303713,4.4168469,-3.0864756,-3.306685,7.8053265,2.99
 90273\PG=C01 [X(C31H32Fe1N4S1)]\\@
 The archive entry for this job was punched.


 OLD HORSE! OLD HORSE! WHAT BROUGHT YOU HERE?
 FROM SACARAP' TO PORTLAND PIER
 I'VE CARTED STONE THIS MANY A YEAR;
 TILL, KILLED BY BLOWS AND SORE ABUSE,
 THEY SALTED ME DOWN FOR SAILORS' USE.
 THE SAILORS THEY DO ME DESPISE;
 THEY TURN ME OVER AND DAMN MY EYES;
 CUT OFF MY MEAT, AND SCRAPE MY BONES,
 AND PITCH ME OVER TO DAVY JONES.

    SAILORS' COMPLAINT ABOUT THE BEEF
    SERVED ON SHIPBOARD, CIRCA 1835.
 Job cpu time:       1 days 14 hours 13 minutes  6.0 seconds.
 Elapsed time:       0 days  0 hours 33 minutes 23.3 seconds.
 File lengths (MBytes):  RWF=    952 Int=      0 D2E=      0 Chk=    122 Scr=      1
 Normal termination of Gaussian 16 at Tue Sep 10 12:16:39 2024.
 Initial command:
 /sw/chem/gaussian/g16_C02/a100/g16/l1.exe "/local/becsleip_8010942/Gau-4029339.inp" -scrdir="/local/becsleip_8010942/"
 Entering Link 1 = /sw/chem/gaussian/g16_C02/a100/g16/l1.exe PID=   4030879.
  
 Copyright (c) 1988-2021, Gaussian, Inc.  All Rights Reserved.
  
 This is part of the Gaussian(R) 16 program.  It is based on
 the Gaussian(R) 09 system (copyright 2009, Gaussian, Inc.),
 the Gaussian(R) 03 system (copyright 2003, Gaussian, Inc.),
 the Gaussian(R) 98 system (copyright 1998, Gaussian, Inc.),
 the Gaussian(R) 94 system (copyright 1995, Gaussian, Inc.),
 the Gaussian 92(TM) system (copyright 1992, Gaussian, Inc.),
 the Gaussian 90(TM) system (copyright 1990, Gaussian, Inc.),
 the Gaussian 88(TM) system (copyright 1988, Gaussian, Inc.),
 the Gaussian 86(TM) system (copyright 1986, Carnegie Mellon
 University), and the Gaussian 82(TM) system (copyright 1983,
 Carnegie Mellon University). Gaussian is a federally registered
 trademark of Gaussian, Inc.
  
 This software contains proprietary and confidential information,
 including trade secrets, belonging to Gaussian, Inc.
  
 This software is provided under written license and may be
 used, copied, transmitted, or stored only in accord with that
 written license.
  
 The following legend is applicable only to US Government
 contracts under FAR:
  
                    RESTRICTED RIGHTS LEGEND
  
 Use, reproduction and disclosure by the US Government is
 subject to restrictions as set forth in subparagraphs (a)
 and (c) of the Commercial Computer Software - Restricted
 Rights clause in FAR 52.227-19.
  
 Gaussian, Inc.
 340 Quinnipiac St., Bldg. 40, Wallingford CT 06492
  
  
 ---------------------------------------------------------------
 Warning -- This program may not be used in any manner that
 competes with the business of Gaussian, Inc. or will provide
 assistance to any competitor of Gaussian, Inc.  The licensee
 of this program is prohibited from giving any competitor of
 Gaussian, Inc. access to this program.  By using this program,
 the user acknowledges that Gaussian, Inc. is engaged in the
 business of creating and licensing software in the field of
 computational chemistry and represents and warrants to the
 licensee that it is not a competitor of Gaussian, Inc. and that
 it will not use this program in any manner prohibited above.
 ---------------------------------------------------------------
  

 Cite this work as:
 Gaussian 16, Revision C.02,
 M. J. Frisch, G. W. Trucks, H. B. Schlegel, G. E. Scuseria, 
 M. A. Robb, J. R. Cheeseman, G. Scalmani, V. Barone, 
 G. A. Petersson, H. Nakatsuji, X. Li, M. Caricato, A. V. Marenich, 
 J. Bloino, B. G. Janesko, R. Gomperts, B. Mennucci, H. P. Hratchian, 
 J. V. Ortiz, A. F. Izmaylov, J. L. Sonnenberg, D. Williams-Young, 
 F. Ding, F. Lipparini, F. Egidi, J. Goings, B. Peng, A. Petrone, 
 T. Henderson, D. Ranasinghe, V. G. Zakrzewski, J. Gao, N. Rega, 
 G. Zheng, W. Liang, M. Hada, M. Ehara, K. Toyota, R. Fukuda, 
 J. Hasegawa, M. Ishida, T. Nakajima, Y. Honda, O. Kitao, H. Nakai, 
 T. Vreven, K. Throssell, J. A. Montgomery, Jr., J. E. Peralta, 
 F. Ogliaro, M. J. Bearpark, J. J. Heyd, E. N. Brothers, K. N. Kudin, 
 V. N. Staroverov, T. A. Keith, R. Kobayashi, J. Normand, 
 K. Raghavachari, A. P. Rendell, J. C. Burant, S. S. Iyengar, 
 J. Tomasi, M. Cossi, J. M. Millam, M. Klene, C. Adamo, R. Cammi, 
 J. W. Ochterski, R. L. Martin, K. Morokuma, O. Farkas, 
 J. B. Foresman, and D. J. Fox, Gaussian, Inc., Wallingford CT, 2019.
 
 ******************************************
 Gaussian 16:  ES64L-G16RevC.02  7-Dec-2021
                10-Sep-2024 
 ******************************************
 %mem=16GB
 %CPU=0-71
 SetSPE:  set environment variable "OMP_PROC_BIND" = "true"
 SetSPE:  set environment variable "OMP_PLACES" = "{0},{1},{2},{3},{4},{5},{6},{7},{8},{9},{10},{11},{12},{13},{14},{15},{16},{17},{18},{19},{20},{21},{22},{23},{24},{25},{26},{27},{28},{29},{30},{31},{32},{33},{34},{35},{36},{37},{38},{39},{40},{41},{42},{43},{44},{45},{46},{47},{48},{49},{50},{51},{52},{53},{54},{55},{56},{57},{58},{59},{60},{61},{62},{63},{64},{65},{66},{67},{68},{69},{70},{71}"
 Will use up to   72 processors via shared memory.
 %gpucpu=0,1,2,3=0,1,2,3
 Will use    4 GPUs:
 Thread  CPU   GPU
      0    0     0
      1    1     1
      2    2     2
      3    3     3
      4    4    -1
      5    5    -1
      6    6    -1
      7    7    -1
      8    8    -1
      9    9    -1
     10   10    -1
     11   11    -1
     12   12    -1
     13   13    -1
     14   14    -1
     15   15    -1
     16   16    -1
     17   17    -1
     18   18    -1
     19   19    -1
     20   20    -1
     21   21    -1
     22   22    -1
     23   23    -1
     24   24    -1
     25   25    -1
     26   26    -1
     27   27    -1
     28   28    -1
     29   29    -1
     30   30    -1
     31   31    -1
     32   32    -1
     33   33    -1
     34   34    -1
     35   35    -1
     36   36    -1
     37   37    -1
     38   38    -1
     39   39    -1
     40   40    -1
     41   41    -1
     42   42    -1
     43   43    -1
     44   44    -1
     45   45    -1
     46   46    -1
     47   47    -1
     48   48    -1
     49   49    -1
     50   50    -1
     51   51    -1
     52   52    -1
     53   53    -1
     54   54    -1
     55   55    -1
     56   56    -1
     57   57    -1
     58   58    -1
     59   59    -1
     60   60    -1
     61   61    -1
     62   62    -1
     63   63    -1
     64   64    -1
     65   65    -1
     66   66    -1
     67   67    -1
     68   68    -1
     69   69    -1
     70   70    -1
     71   71    -1
 SetGPE:  set environment variable "OMP_PROC_BIND" = "true"
 SetGPE:  set environment variable "OMP_PLACES" = "{0},{1},{2},{3},{4},{5},{6},{7},{8},{9},{10},{11},{12},{13},{14},{15},{16},{17},{18},{19},{20},{21},{22},{23},{24},{25},{26},{27},{28},{29},{30},{31},{32},{33},{34},{35},{36},{37},{38},{39},{40},{41},{42},{43},{44},{45},{46},{47},{48},{49},{50},{51},{52},{53},{54},{55},{56},{57},{58},{59},{60},{61},{62},{63},{64},{65},{66},{67},{68},{69},{70},{71}"
 %oldchk=2zby_II_O.chk
 %chk=2zby_II_Sn.chk
 Properties for Device   0
 Minimum vector length:                              32
 Maximum vector length:                            1024
 Number of SMPs:                                    108
 Maximum number of threads per SMP:                2048
 Number of ASync Engines:                             5
 Memory:                                           9207742464
 Properties for Device   1
 Minimum vector length:                              32
 Maximum vector length:                            1024
 Number of SMPs:                                    108
 Maximum number of threads per SMP:                2048
 Number of ASync Engines:                             5
 Memory:                                           9207742464
 Properties for Device   2
 Minimum vector length:                              32
 Maximum vector length:                            1024
 Number of SMPs:                                    108
 Maximum number of threads per SMP:                2048
 Number of ASync Engines:                             5
 Memory:                                           9207742464
 Properties for Device   3
 Minimum vector length:                              32
 Maximum vector length:                            1024
 Number of SMPs:                                    108
 Maximum number of threads per SMP:                2048
 Number of ASync Engines:                             5
 Memory:                                           9207742464
   8286968217 words of memory will be used on each GPU.
 Copying data from "2zby_II_O.chk" to current chk file "2zby_II_Sn.chk"
 IOpt=  2 FromEx=T IUOpen= 4 IOptOp= 5 NList=   0 IFRang= 0 IUIn= 4 IUOut= 2.
 ----------------------------------------------------------------------
 # apfd/def2TZVP int=(grid=ultrafine) geom=check guess=read pop=nbo scf
 =qc
 ----------------------------------------------------------------------
 1/29=2,38=1,172=1/1;
 2/12=2,40=1/2;
 3/5=44,7=101,11=2,14=-4,25=1,30=1,74=-44,75=-5,116=-2/1,2,3;
 4/5=1/1;
 5/5=2,8=3,38=6/8;
 6/7=2,8=2,9=2,10=2,28=1,40=1/1,7;
 99/5=1,9=1/99;
 -------------
 2zby_II_S_nbo
 -------------
 Structure from the checkpoint file:  "2zby_II_Sn.chk"
 Charge =  0 Multiplicity = 1
 Z-Matrix found in chk file.
 Fe,0,11.0827368617,8.6323342269,12.2829158168
 N,0,11.1297140178,6.625053522,12.0185205763
 N,0,11.918437027,8.3260745263,14.0984475683
 N,0,10.7220721817,10.517584652,12.7705063491
 N,0,9.8859777879,8.7830354824,10.7110489726
 C,0,10.7373744673,5.9646217829,10.8926050503
 C,0,11.0936417517,4.5653879669,10.962482579
 C,0,11.6949894377,4.384602004,12.16822497
 C,0,11.7065352341,5.6784519245,12.8115226097
 C,0,12.41719909,7.1656366118,14.6137319225
[...]
  1061. RY*(  10) C  51                  0.00003     2.45084   
  1062. RY*(  11) C  51                  0.00002     3.03541   
  1063. RY*(  12) C  51                  0.00001     1.51232   
  1064. RY*(  13) C  51                  0.00001     2.83103   
  1065. RY*(  14) C  51                  0.00001     1.67972   
  1066. RY*(  15) C  51                  0.00000     3.45736   
  1067. RY*(  16) C  51                  0.00001     1.55986   
  1068. RY*(  17) C  51                  0.00001     2.66352   
  1069. RY*(  18) C  51                  0.00000    21.36463   
  1070. RY*(  19) C  51                  0.00000     3.17498   
  1071. RY*(  20) C  51                  0.00000     3.46132   
  1072. RY*(  21) C  51                  0.00000     3.80560   
  1073. RY*(  22) C  51                  0.00000     3.48256   
  1074. RY*(  23) C  51                  0.00000     3.57811   
  1075. RY*(  24) C  51                  0.00000     3.77540   
  1076. RY*(  25) C  51                  0.00000     3.69992   
  1077. RY*(  26) C  51                  0.00000     3.87910   
  1078. RY*(   1) H  52                  0.00159     0.65618   
  1079. RY*(   2) H  52                  0.00020     2.27993   
  1080. RY*(   3) H  52                  0.00014     2.23273   
  1081. RY*(   4) H  52                  0.00010     2.74508   
  1082. RY*(   5) H  52                  0.00001     3.08807   
  1083. RY*(   1) C  53                  0.00232     1.27426   
  1084. RY*(   2) C  53                  0.00135     1.04740   
  1085. RY*(   3) C  53                  0.00086     0.55115   
  1086. RY*(   4) C  53                  0.00020     1.11671   
  1087. RY*(   5) C  53                  0.00013     1.01413   
  1088. RY*(   6) C  53                  0.00005     1.36931   
  1089. RY*(   7) C  53                  0.00003     1.42192   
  1090. RY*(   8) C  53                  0.00002     1.63099   
  1091. RY*(   9) C  53                  0.00002     1.55860   
  1092. RY*(  10) C  53                  0.00001     1.80365   
  1093. RY*(  11) C  53                  0.00000     2.74835   
  1094. RY*(  12) C  53                  0.00000    20.81078   
  1095. RY*(  13) C  53                  0.00000     2.99460   
  1096. RY*(  14) C  53                  0.00001     1.88702   
  1097. RY*(  15) C  53                  0.00000     2.98265   
  1098. RY*(  16) C  53                  0.00001     2.12398   
  1099. RY*(  17) C  53                  0.00000     3.05860   
  1100. RY*(  18) C  53                  0.00000     2.07194   
  1101. RY*(  19) C  53                  0.00000     3.09743   
  1102. RY*(  20) C  53                  0.00000     3.41192   
  1103. RY*(  21) C  53                  0.00000     3.51887   
  1104. RY*(  22) C  53                  0.00000     3.39503   
  1105. RY*(  23) C  53                  0.00000     3.42863   
  1106. RY*(  24) C  53                  0.00000     3.60171   
  1107. RY*(  25) C  53                  0.00000     3.60267   
  1108. RY*(  26) C  53                  0.00000     3.36770   
  1109. RY*(   1) H  54                  0.00074     1.21438   
  1110. RY*(   2) H  54                  0.00027     1.55337   
  1111. RY*(   3) H  54                  0.00018     2.17228   
  1112. RY*(   4) H  54                  0.00007     2.37157   
  1113. RY*(   5) H  54                  0.00001     3.10483   
  1114. RY*(   1) H  55                  0.00047     0.76737   
  1115. RY*(   2) H  55                  0.00030     1.79324   
  1116. RY*(   3) H  55                  0.00016     2.13033   
  1117. RY*(   4) H  55                  0.00005     2.48686   
  1118. RY*(   5) H  55                  0.00000     3.08109   
  1119. RY*(   1) C  56                  0.00143     1.32274   
  1120. RY*(   2) C  56                  0.00140     1.20382   
  1121. RY*(   3) C  56                  0.00075     1.37810   
  1122. RY*(   4) C  56                  0.00015     1.08497   
  1123. RY*(   5) C  56                  0.00004     2.01781   
  1124. RY*(   6) C  56                  0.00005     1.54646   
  1125. RY*(   7) C  56                  0.00003     2.15643   
  1126. RY*(   8) C  56                  0.00001     1.56660   
  1127. RY*(   9) C  56                  0.00001     3.28296   
  1128. RY*(  10) C  56                  0.00001     2.68685   
  1129. RY*(  11) C  56                  0.00000    21.00243   
  1130. RY*(  12) C  56                  0.00001     2.40716   
  1131. RY*(  13) C  56                  0.00000     2.33032   
  1132. RY*(  14) C  56                  0.00000     2.64784   
  1133. RY*(  15) C  56                  0.00000     2.40219   
  1134. RY*(  16) C  56                  0.00001     1.78619   
  1135. RY*(  17) C  56                  0.00000     3.03160   
  1136. RY*(  18) C  56                  0.00000     3.42322   
  1137. RY*(  19) C  56                  0.00001     2.58510   
  1138. RY*(  20) C  56                  0.00000     3.22491   
  1139. RY*(  21) C  56                  0.00000     3.88657   
  1140. RY*(  22) C  56                  0.00000     3.62063   
  1141. RY*(  23) C  56                  0.00000     3.34347   
  1142. RY*(  24) C  56                  0.00000     3.41328   
  1143. RY*(  25) C  56                  0.00001     3.66987   
  1144. RY*(  26) C  56                  0.00000     3.66253   
  1145. RY*(   1) H  57                  0.00087     0.94187   
  1146. RY*(   2) H  57                  0.00017     1.81420   
  1147. RY*(   3) H  57                  0.00007     2.13704   
  1148. RY*(   4) H  57                  0.00005     1.98989   
  1149. RY*(   5) H  57                  0.00001     2.97154   
  1150. RY*(   1) H  58                  0.00086     0.91207   
  1151. RY*(   2) H  58                  0.00018     1.84404   
  1152. RY*(   3) H  58                  0.00007     2.15521   
  1153. RY*(   4) H  58                  0.00005     1.98481   
  1154. RY*(   5) H  58                  0.00001     2.97925   
  1155. RY*(   1) H  59                  0.00072     0.86353   
  1156. RY*(   2) H  59                  0.00013     1.69959   
  1157. RY*(   3) H  59                  0.00011     2.15908   
  1158. RY*(   4) H  59                  0.00007     2.08187   
  1159. RY*(   5) H  59                  0.00001     2.99560   
  1160. RY*(   1) C  60                  0.00145     1.26239   
  1161. RY*(   2) C  60                  0.00140     1.25413   
  1162. RY*(   3) C  60                  0.00075     1.37446   
  1163. RY*(   4) C  60                  0.00014     1.08317   
  1164. RY*(   5) C  60                  0.00005     2.04132   
  1165. RY*(   6) C  60                  0.00005     1.51130   
  1166. RY*(   7) C  60                  0.00003     2.27928   
  1167. RY*(   8) C  60                  0.00003     2.26444   
  1168. RY*(   9) C  60                  0.00000    21.09449   
  1169. RY*(  10) C  60                  0.00001     2.79366   
  1170. RY*(  11) C  60                  0.00001     1.78507   
  1171. RY*(  12) C  60                  0.00000     3.04245   
  1172. RY*(  13) C  60                  0.00000     2.24721   
  1173. RY*(  14) C  60                  0.00000     2.06943   
  1174. RY*(  15) C  60                  0.00000     2.41850   
  1175. RY*(  16) C  60                  0.00001     3.23780   
  1176. RY*(  17) C  60                  0.00000     2.68872   
  1177. RY*(  18) C  60                  0.00000     3.22710   
  1178. RY*(  19) C  60                  0.00000     2.36545   
  1179. RY*(  20) C  60                  0.00000     3.21635   
  1180. RY*(  21) C  60                  0.00000     3.74943   
  1181. RY*(  22) C  60                  0.00000     3.67711   
  1182. RY*(  23) C  60                  0.00000     3.32250   
  1183. RY*(  24) C  60                  0.00000     3.42308   
  1184. RY*(  25) C  60                  0.00000     3.65480   
  1185. RY*(  26) C  60                  0.00000     3.47010   
  1186. RY*(   1) H  61                  0.00087     0.90662   
  1187. RY*(   2) H  61                  0.00018     1.83205   
  1188. RY*(   3) H  61                  0.00006     2.09048   
  1189. RY*(   4) H  61                  0.00006     2.04583   
  1190. RY*(   5) H  61                  0.00001     2.96556   
  1191. RY*(   1) H  62                  0.00072     0.85381   
  1192. RY*(   2) H  62                  0.00013     1.70283   
  1193. RY*(   3) H  62                  0.00011     2.16293   
  1194. RY*(   4) H  62                  0.00007     2.08213   
  1195. RY*(   5) H  62                  0.00001     2.99380   
  1196. RY*(   1) H  63                  0.00091     0.90811   
  1197. RY*(   2) H  63                  0.00018     1.82027   
  1198. RY*(   3) H  63                  0.00006     2.09692   
  1199. RY*(   4) H  63                  0.00005     2.03504   
  1200. RY*(   5) H  63                  0.00001     2.97369   
  1276. BD*(   1) N   2 - C   6          0.02568     0.49947   
  1277. BD*(   1) N   2 - C   9          0.02596     0.49949   
  1278. BD*(   2) N   2 - C   9          0.63627     0.00389  1298(v),1291(v),1289(v)
                                                    361(g),142(r),1283(r),177(g)
                                                    728(v),138(r),139(r),141(r)
                                                    1275(r)
  1279. BD*(   1) N   3 - C  10          0.02644     0.49644   
  1280. BD*(   1) N   3 - C  13          0.02600     0.49495   
  1281. BD*(   1) N   4 - C  14          0.02704     0.49648   
  1282. BD*(   1) N   4 - C  17          0.02604     0.50214   
  1283. BD*(   2) N   4 - C  17          0.62002     0.00439  1316(v),1309(v),148(v)
                                                    569(g),142(r),138(r),1278(r)
                                                    229(g),790(v),139(r),141(r)
                                                    1358(r)
  1284. BD*(   1) N   5 - C  18          0.02660     0.50167   
  1285. BD*(   1) N   5 - C  21          0.02614     0.50403   
  1286. BD*(   2) N   5 - C  21          0.61984     0.00780  1289(v),1318(v),1316(v)
                                                    673(g),142(r),255(g),697(v)
                                                    138(r),139(r),140(r),1275(r)
  1287. BD*(   1) C   6 - C   7          0.03558     0.48872   
  1288. BD*(   1) C   6 - C  22          0.02097     0.57621   
  1289. BD*(   2) C   6 - C  22          0.41004     0.04523  1286(v),1291(v),1278(v)
                                                    697(g),1298(r),1316(r)
                                                    285(g),284(g),142(r)
  1290. BD*(   1) C   7 - C   8          0.02276     0.60524   
  1291. BD*(   2) C   7 - C   8          0.24912     0.06631  1289(v),1278(v),1331(v)
                                                    1329(v),1328(v),1330(v)
  1292. BD*(   1) C   7 - C  34          0.01721     0.41258   
  1293. BD*(   1) C   8 - C   9          0.03561     0.48975   
  1294. BD*(   1) C   8 - C  30          0.01724     0.41210   
  1295. BD*(   1) C   9 - C  24          0.02101     0.57821   
  1296. BD*(   1) C  10 - C  11          0.03461     0.49650   
  1297. BD*(   1) C  10 - C  24          0.02136     0.57134   
  1298. BD*(   2) C  10 - C  24          0.43099     0.04091  1278(v),1300(v),145(v)
                                                    1305(r),728(g),1289(r)
                                                    389(g),142(r)
  1299. BD*(   1) C  11 - C  12          0.02254     0.58807   
  1300. BD*(   2) C  11 - C  12          0.28409     0.06152  1338(v),1305(v),1298(v)
                                                    1333(v),1334(v),1336(v)
  1301. BD*(   1) C  11 - C  38          0.01672     0.41150   
  1302. BD*(   1) C  12 - C  13          0.03856     0.48683   
  1303. BD*(   1) C  12 - C  42          0.02691     0.48677   
  1304. BD*(   1) C  13 - C  26          0.02078     0.57508   
  1305. BD*(   2) C  13 - C  26          0.40462     0.04428  1300(v),148(v),145(v)
                                                    1298(r),759(g),1338(r)
                                                    465(g),467(g),142(r)
  1306. BD*(   1) C  14 - C  15          0.03432     0.49729   
  1307. BD*(   1) C  14 - C  26          0.02161     0.57485   
  1308. BD*(   1) C  15 - C  16          0.02225     0.58872   
  1309. BD*(   2) C  15 - C  16          0.28074     0.06354  1346(v),1283(v),148(v)
                                                    1342(v),1341(v),1344(v)
  1310. BD*(   1) C  15 - C  47          0.01654     0.41389   
  1311. BD*(   1) C  16 - C  17          0.03790     0.48718   
  1312. BD*(   1) C  16 - C  51          0.02671     0.48915   
  1313. BD*(   1) C  17 - C  28          0.02068     0.57727   
  1314. BD*(   1) C  18 - C  19          0.03491     0.49013   
  1315. BD*(   1) C  18 - C  28          0.02105     0.57972   
  1316. BD*(   2) C  18 - C  28          0.39224     0.04914  1318(v),1283(v),1286(v)
                                                    790(g),1289(r),597(g),142(r)
  1317. BD*(   1) C  19 - C  20          0.02255     0.60854   
  1318. BD*(   2) C  19 - C  20          0.24410     0.06971  1316(v),1286(v),1349(v)
                                                    1354(v),1352(v),1350(v)
  1319. BD*(   1) C  19 - C  56          0.01699     0.41616   
  1320. BD*(   1) C  20 - C  21          0.03506     0.48987   
  1321. BD*(   1) C  20 - C  60          0.01709     0.41491   
  1322. BD*(   1) C  21 - C  22          0.02083     0.57928   
  1323. BD*(   1) C  22 - H  23          0.01250     0.43122   
  1324. BD*(   1) C  24 - H  25          0.01245     0.43073   
  1325. BD*(   1) C  26 - H  27          0.01424     0.43882   
  1326. BD*(   1) C  28 - H  29          0.01398     0.43987   
  1327. BD*(   1) C  30 - H  31          0.00664     0.38772   
  1328. BD*(   1) C  30 - H  32          0.01048     0.37754   
  1329. BD*(   1) C  30 - H  33          0.01104     0.37498   
  1330. BD*(   1) C  34 - H  35          0.01013     0.37720   
  1331. BD*(   1) C  34 - H  36          0.01131     0.37674   
  1332. BD*(   1) C  34 - H  37          0.00669     0.38767   
  1333. BD*(   1) C  38 - H  39          0.01068     0.37395   
  1334. BD*(   1) C  38 - H  40          0.01052     0.37707   
  1335. BD*(   1) C  38 - H  41          0.00591     0.38800   
  1336. BD*(   1) C  42 - H  43          0.02201     0.41738   
  1337. BD*(   1) C  42 - C  44          0.00723     0.61741   
  1338. BD*(   2) C  42 - C  44          0.06367     0.06625   
  1339. BD*(   1) C  44 - H  45          0.01127     0.43195   
  1340. BD*(   1) C  44 - H  46          0.00891     0.43255   
  1341. BD*(   1) C  47 - H  48          0.01006     0.37853   
  1342. BD*(   1) C  47 - H  49          0.01094     0.37875   
  1343. BD*(   1) C  47 - H  50          0.00596     0.39005   
  1344. BD*(   1) C  51 - H  52          0.02199     0.41976   
  1345. BD*(   1) C  51 - C  53          0.00721     0.62075   
  1346. BD*(   2) C  51 - C  53          0.06367     0.06723   
  1347. BD*(   1) C  53 - H  54          0.01135     0.43326   
  1348. BD*(   1) C  53 - H  55          0.00883     0.43426   
  1349. BD*(   1) C  56 - H  57          0.01091     0.38086   
  1350. BD*(   1) C  56 - H  58          0.01024     0.38161   
  1351. BD*(   1) C  56 - H  59          0.00663     0.39135   
  1352. BD*(   1) C  60 - H  61          0.01055     0.37884   
  1353. BD*(   1) C  60 - H  62          0.00663     0.39037   
  1354. BD*(   1) C  60 - H  63          0.01097     0.37927   
       -------------------------------
              Total Lewis  230.24982  ( 97.2890%)
        Valence non-Lewis    5.92792  (  2.5048%)
        Rydberg non-Lewis    0.48812  (  0.2062%)
       -------------------------------
            Total unit  2  236.66586  (100.0000%)
           Charge unit  2   -0.66586
 Unable to Open any file for archive entry.
 1\1\GINC-BGN1038\SP\RAPFD\def2TZVP\C31H32Fe1N4S1\BECSLEIP\10-Sep-2024\
 0\\# apfd/def2TZVP int=(grid=ultrafine) geom=check guess=read pop=nbo 
 scf=qc\\2zby_II_S_nbo\\0,1\Fe,0,11.0827368617,8.6323342269,12.28291581
 68\N,0,11.1297140178,6.625053522,12.0185205763\N,0,11.918437027,8.3260
 745263,14.0984475683\N,0,10.7220721817,10.517584652,12.7705063491\N,0,
 9.8859777879,8.7830354824,10.7110489726\C,0,10.7373744673,5.9646217829
 ,10.8926050503\C,0,11.0936417517,4.5653879669,10.962482579\C,0,11.6949
 894377,4.384602004,12.16822497\C,0,11.7065352341,5.6784519245,12.81152
 26097\C,0,12.41719909,7.1656366118,14.6137319225\C,0,13.1884260174,7.4
 148157893,15.801296595\C,0,13.1626304824,8.7674198842,16.0025141712\C,
 0,12.3644809449,9.3156670328,14.9270053077\C,0,11.3433337299,11.218479
 3388,13.7621366096\C,0,11.0663506967,12.624824947,13.6458853714\C,0,10
 .2483748177,12.7694625199,12.5584733008\C,0,10.0768831593,11.441707089
 7,12.007491858\C,0,9.2515189698,9.9101258584,10.2822460668\C,0,8.51037
 15554,9.6525321938,9.0670670886\C,0,8.733904609,8.3490101092,8.7535667
 378\C,0,9.5932171472,7.824124186,9.7915629505\C,0,10.0374763838,6.5187
 418791,9.838614842\H,0,9.7687963021,5.8683389765,9.0209799801\C,0,12.2
 678513378,5.9115233332,14.0492320509\H,0,12.6904566304,5.0715189838,14
 .5779569163\C,0,12.1164780843,10.6645167919,14.7649747948\H,0,12.57576
 25093,11.3392825036,15.469987449\C,0,9.3361281881,11.1534004005,10.877
 0266844\H,0,8.8506092663,11.9772079194,10.3790978012\C,0,12.2457902394
 ,3.140648879,12.7746865474\H,0,12.0863049749,2.2886477122,12.118838412
 4\H,0,11.7610014276,2.9339139154,13.7285964827\H,0,13.3168564259,3.241
 0452348,12.9536973541\C,0,10.813086945,3.5719052948,9.8888428783\H,0,1
 1.2281857689,3.9056900417,8.9380611694\H,0,9.7381055949,3.440907148,9.
 7617438323\H,0,11.2483074265,2.6061530925,10.1333073248\C,0,13.8512363
 29,6.3686173296,16.6279990088\H,0,14.5802267027,5.8125562347,16.036804
 6526\H,0,13.1162549275,5.6598069127,17.0097263504\H,0,14.3611512774,6.
 8208404648,17.4747340429\C,0,13.7850450964,9.4982591625,17.0908891437\
 H,0,14.7888071484,9.1769532419,17.347899735\C,0,13.2132645793,10.46774
 12346,17.7937789881\H,0,12.199158738,10.7817598966,17.6130715841\H,0,1
 3.7321710552,10.9631822878,18.5974042739\C,0,11.5500236295,13.67136967
 57,14.5876728068\H,0,12.637452167,13.6489549837,14.6637452805\H,0,11.1
 399165006,13.5074898105,15.5846121397\H,0,11.2422796495,14.6580575592,
 14.2513572378\C,0,9.6713041948,14.0059327284,12.0650058232\H,0,10.3389
 929035,14.86074953,12.0728098809\C,0,8.4172816174,14.1676611061,11.662
 1168531\H,0,7.6997656383,13.3651502084,11.6890554114\H,0,8.0551452806,
 15.1214273811,11.3161317606\C,0,7.688548689,10.6706027435,8.356106472\
 H,0,8.3165080486,11.488700639,8.0025093284\H,0,6.9350813945,11.0874059
 06,9.0238745716\H,0,7.1832232572,10.2307213185,7.5001172808\C,0,8.2232
 31436,7.5502495714,7.6049108006\H,0,9.0512334988,7.140012695,7.0264816
 283\H,0,7.6172923425,8.1666674279,6.945627933\H,0,7.6116368377,6.71935
 82919,7.9578507485\C,0,14.2007158203,7.6978172628,11.4544933763\H,0,15
 .2143515419,8.0086953743,11.2222645149\H,0,13.8742368334,6.9304844641,
 10.7596033476\H,0,14.1224389555,7.3298083845,12.4725250407\S,0,13.0684
 995991,9.1201669102,11.2232821166\H,0,13.6631568186,9.8864055075,12.15
 16408746\\Version=ES64L-G16RevC.02\State=1-A\HF=-3080.7686804\RMSD=1.2
 62e-09\Dipole=0.9837267,-0.4359257,-0.3835631\Quadrupole=-1.3303713,4.
 4168469,-3.0864756,-3.306685,7.8053265,2.9990273\PG=C01 [X(C31H32Fe1N4
 S1)]\\@
 The archive entry for this job was punched.


 IF I HAVE SEEN FARTHER, IT IS BY STANDING ON THE
 SHOULDERS OF GIANTS. -- SIR ISAAC NEWTON
 Job cpu time:       0 days  0 hours 35 minutes 22.3 seconds.
 Elapsed time:       0 days  0 hours  0 minutes 44.6 seconds.
 File lengths (MBytes):  RWF=    624 Int=      0 D2E=      0 Chk=    150 Scr=      1
 Normal termination of Gaussian 16 at Tue Sep 10 12:17:26 2024.
