 Entering Gaussian System, Link 0=g16
 Input=2zon12re.com
 Output=2zon12re.log
 Initial command:
 /sw/chem/gaussian/g16_C02/a100/g16/l1.exe "/local/becsleip_8011305/Gau-2907006.inp" -scrdir="/local/becsleip_8011305/"
 Entering Link 1 = /sw/chem/gaussian/g16_C02/a100/g16/l1.exe PID=   2907007.
  
 Copyright (c) 1988-2021, Gaussian, Inc.  All Rights Reserved.
  
 This is part of the Gaussian(R) 16 program.  It is based on
 the Gaussian(R) 09 system (copyright 2009, Gaussian, Inc.),
 the Gaussian(R) 03 system (copyright 2003, Gaussian, Inc.),
 the Gaussian(R) 98 system (copyright 1998, Gaussian, Inc.),
 the Gaussian(R) 94 system (copyright 1995, Gaussian, Inc.),
 the Gaussian 92(TM) system (copyright 1992, Gaussian, Inc.),
 the Gaussian 90(TM) system (copyright 1990, Gaussian, Inc.),
 the Gaussian 88(TM) system (copyright 1988, Gaussian, Inc.),
 the Gaussian 86(TM) system (copyright 1986, Carnegie Mellon
 University), and the Gaussian 82(TM) system (copyright 1983,
 Carnegie Mellon University). Gaussian is a federally registered
 trademark of Gaussian, Inc.
  
 This software contains proprietary and confidential information,
 including trade secrets, belonging to Gaussian, Inc.
  
 This software is provided under written license and may be
 used, copied, transmitted, or stored only in accord with that
 written license.
  
 The following legend is applicable only to US Government
 contracts under FAR:
  
                    RESTRICTED RIGHTS LEGEND
  
 Use, reproduction and disclosure by the US Government is
 subject to restrictions as set forth in subparagraphs (a)
 and (c) of the Commercial Computer Software - Restricted
 Rights clause in FAR 52.227-19.
  
 Gaussian, Inc.
 340 Quinnipiac St., Bldg. 40, Wallingford CT 06492
  
  
 ---------------------------------------------------------------
 Warning -- This program may not be used in any manner that
 competes with the business of Gaussian, Inc. or will provide
 assistance to any competitor of Gaussian, Inc.  The licensee
 of this program is prohibited from giving any competitor of
 Gaussian, Inc. access to this program.  By using this program,
 the user acknowledges that Gaussian, Inc. is engaged in the
 business of creating and licensing software in the field of
 computational chemistry and represents and warrants to the
 licensee that it is not a competitor of Gaussian, Inc. and that
 it will not use this program in any manner prohibited above.
 ---------------------------------------------------------------
  

 Cite this work as:
 Gaussian 16, Revision C.02,
 M. J. Frisch, G. W. Trucks, H. B. Schlegel, G. E. Scuseria, 
 M. A. Robb, J. R. Cheeseman, G. Scalmani, V. Barone, 
 G. A. Petersson, H. Nakatsuji, X. Li, M. Caricato, A. V. Marenich, 
 J. Bloino, B. G. Janesko, R. Gomperts, B. Mennucci, H. P. Hratchian, 
 J. V. Ortiz, A. F. Izmaylov, J. L. Sonnenberg, D. Williams-Young, 
 F. Ding, F. Lipparini, F. Egidi, J. Goings, B. Peng, A. Petrone, 
 T. Henderson, D. Ranasinghe, V. G. Zakrzewski, J. Gao, N. Rega, 
 G. Zheng, W. Liang, M. Hada, M. Ehara, K. Toyota, R. Fukuda, 
 J. Hasegawa, M. Ishida, T. Nakajima, Y. Honda, O. Kitao, H. Nakai, 
 T. Vreven, K. Throssell, J. A. Montgomery, Jr., J. E. Peralta, 
 F. Ogliaro, M. J. Bearpark, J. J. Heyd, E. N. Brothers, K. N. Kudin, 
 V. N. Staroverov, T. A. Keith, R. Kobayashi, J. Normand, 
 K. Raghavachari, A. P. Rendell, J. C. Burant, S. S. Iyengar, 
 J. Tomasi, M. Cossi, J. M. Millam, M. Klene, C. Adamo, R. Cammi, 
 J. W. Ochterski, R. L. Martin, K. Morokuma, O. Farkas, 
 J. B. Foresman, and D. J. Fox, Gaussian, Inc., Wallingford CT, 2019.
 
 ******************************************
 Gaussian 16:  ES64L-G16RevC.02  7-Dec-2021
                10-Sep-2024 
 ******************************************
 %mem=16GB
 %CPU=0-71
 SetSPE:  set environment variable "OMP_PROC_BIND" = "true"
 SetSPE:  set environment variable "OMP_PLACES" = "{0},{1},{2},{3},{4},{5},{6},{7},{8},{9},{10},{11},{12},{13},{14},{15},{16},{17},{18},{19},{20},{21},{22},{23},{24},{25},{26},{27},{28},{29},{30},{31},{32},{33},{34},{35},{36},{37},{38},{39},{40},{41},{42},{43},{44},{45},{46},{47},{48},{49},{50},{51},{52},{53},{54},{55},{56},{57},{58},{59},{60},{61},{62},{63},{64},{65},{66},{67},{68},{69},{70},{71}"
 Will use up to   72 processors via shared memory.
 %gpucpu=0,1,2,3=0,1,2,3
 Will use    4 GPUs:
 Thread  CPU   GPU
      0    0     0
      1    1     1
      2    2     2
      3    3     3
      4    4    -1
      5    5    -1
      6    6    -1
      7    7    -1
      8    8    -1
      9    9    -1
     10   10    -1
     11   11    -1
     12   12    -1
     13   13    -1
     14   14    -1
     15   15    -1
     16   16    -1
     17   17    -1
     18   18    -1
     19   19    -1
     20   20    -1
     21   21    -1
     22   22    -1
     23   23    -1
     24   24    -1
     25   25    -1
     26   26    -1
     27   27    -1
     28   28    -1
     29   29    -1
     30   30    -1
     31   31    -1
     32   32    -1
     33   33    -1
     34   34    -1
     35   35    -1
     36   36    -1
     37   37    -1
     38   38    -1
     39   39    -1
     40   40    -1
     41   41    -1
     42   42    -1
     43   43    -1
     44   44    -1
     45   45    -1
     46   46    -1
     47   47    -1
     48   48    -1
     49   49    -1
     50   50    -1
     51   51    -1
     52   52    -1
     53   53    -1
     54   54    -1
     55   55    -1
     56   56    -1
     57   57    -1
     58   58    -1
     59   59    -1
     60   60    -1
     61   61    -1
     62   62    -1
     63   63    -1
     64   64    -1
     65   65    -1
     66   66    -1
     67   67    -1
     68   68    -1
     69   69    -1
     70   70    -1
     71   71    -1
 SetGPE:  set environment variable "OMP_PROC_BIND" = "true"
 SetGPE:  set environment variable "OMP_PLACES" = "{0},{1},{2},{3},{4},{5},{6},{7},{8},{9},{10},{11},{12},{13},{14},{15},{16},{17},{18},{19},{20},{21},{22},{23},{24},{25},{26},{27},{28},{29},{30},{31},{32},{33},{34},{35},{36},{37},{38},{39},{40},{41},{42},{43},{44},{45},{46},{47},{48},{49},{50},{51},{52},{53},{54},{55},{56},{57},{58},{59},{60},{61},{62},{63},{64},{65},{66},{67},{68},{69},{70},{71}"
 %oldchk=2zon_II_S.chk
 %chk=2zon_II_Sre.chk
 Properties for Device   0
 Minimum vector length:                              32
 Maximum vector length:                            1024
 Number of SMPs:                                    108
 Maximum number of threads per SMP:                2048
 Number of ASync Engines:                             5
 Memory:                                           9207742464
 Properties for Device   1
 Minimum vector length:                              32
 Maximum vector length:                            1024
 Number of SMPs:                                    108
 Maximum number of threads per SMP:                2048
 Number of ASync Engines:                             5
 Memory:                                           9207742464
 Properties for Device   2
 Minimum vector length:                              32
 Maximum vector length:                            1024
 Number of SMPs:                                    108
 Maximum number of threads per SMP:                2048
 Number of ASync Engines:                             5
 Memory:                                           9207742464
 Properties for Device   3
 Minimum vector length:                              32
 Maximum vector length:                            1024
 Number of SMPs:                                    108
 Maximum number of threads per SMP:                2048
 Number of ASync Engines:                             5
 Memory:                                           9207742464
   8286968217 words of memory will be used on each GPU.
 Copying data from "2zon_II_S.chk" to current chk file "2zon_II_Sre.chk"
 IOpt=  2 FromEx=T IUOpen= 4 IOptOp= 5 NList=   0 IFRang= 0 IUIn= 4 IUOut= 2.
 --------------------------------------
 # apfd/gen scf=maxcycle=999 geom=check
 --------------------------------------
 1/29=2,38=1,172=1/1;
 2/12=2,40=1/2;
 3/5=7,11=2,14=-4,25=1,30=1,74=-44/1,2,3;
 4//1;
 5/5=2,7=999,38=5/2;
 6/7=2,8=2,9=2,10=2,28=1/1;
 99/5=1,9=1/99;
 ----------
 2zon_III_D
 ----------
 Structure from the checkpoint file:  "2zon_II_Sre.chk"
 Charge =  1 Multiplicity = 2
 Z-Matrix found in chk file.
 Fe,0,-8.0115538327,10.1361322127,-4.8317901647
 N,0,-9.2545650572,10.3880765909,-3.3090170799
 N,0,-9.5694349259,9.9103799209,-6.0745933765
 N,0,-6.7862052955,9.9818403955,-6.4006001706
 N,0,-6.4634412329,10.3721407322,-3.6215742083
 C,0,-8.9281895358,10.7448923205,-2.0352969119
 C,0,-10.1132948048,10.8759792723,-1.2184031989
 C,0,-11.1671102786,10.5772288152,-2.024266423
 C,0,-10.6131110826,10.290050705,-3.3284047394
 C,0,-10.8835651164,9.8387595699,-5.7194870269
 C,0,-11.7262444033,9.7115730462,-6.8800178958
 C,0,-10.8923873551,9.7371835477,-7.96591693
 C,0,-9.5479700876,9.8378135289,-7.4329396875
 C,0,-7.1187798066,9.8996542276,-7.7205094073
 C,0,-5.9426463012,9.7939994068,-8.5445050601
 C,0,-4.8729472521,9.8094207497,-7.6900294619
 C,0,-5.4273305184,9.9310844587,-6.3564803743
 C,0,-5.1469418377,10.2562986778,-3.9452368896
 C,0,-4.3117111227,10.5214329607,-2.7956693037
 C,0,-5.1550212,10.8175912919,-1.7702002661
 C,0,-6.4943945876,10.7072593814,-2.3015682066
 C,0,-7.6411898702,10.9048847743,-1.5562245476
 H,0,-7.5235364573,11.1860155322,-0.5208863134
 C,0,-11.3748288708,9.9704318109,-4.4326139921
 H,0,-12.443393391,9.9045400346,-4.2974319494
 C,0,-8.4103512594,9.8650648716,-8.2138778441
 H,0,-8.5349998862,9.8327387389,-9.2850785774
 C,0,-4.6567774763,10.0082098546,-5.2122783508
 H,0,-3.5852987446,9.9492034283,-5.3260112736
 C,0,-12.6225484805,10.5519300609,-1.705842029
 H,0,-12.7935137666,10.7865432368,-0.6581375054
 H,0,-13.0429341822,9.567027414,-1.9104107497
 H,0,-13.1593116608,11.2812621854,-2.3127373317
 C,0,-10.1028077418,11.2639312055,0.2204731247
 H,0,-9.6262382694,12.2355139667,0.3502034708
 H,0,-9.5490017855,10.5343670267,0.8123966509
 H,0,-11.1151875779,11.3243554361,0.6119184232
 C,0,-13.2047442428,9.5405410142,-6.8503832968
 H,0,-13.7057857217,10.5030269818,-6.7354389946
 H,0,-13.5018187286,8.903766781,-6.0183523015
 H,0,-13.5457874608,9.085152911,-7.7779448545
 C,0,-11.2180105927,9.6454029541,-9.3720623311
 H,0,-10.4875858344,9.1374471125,-9.9912093826
 C,0,-12.3139385246,10.1352337421,-9.9423628229
 H,0,-13.0490004145,10.6913198272,-9.3874912258
 H,0,-12.4989434505,10.0200526127,-10.9974660885
 C,0,-5.9448213055,9.6271610181,-10.0238933
 H,0,-6.0784484706,10.5882971436,-10.5227879547
 H,0,-6.7544860112,8.9698780387,-10.3377932429
 H,0,-5.0006738511,9.1973505357,-10.3519988866
 C,0,-3.4611545653,9.7088797251,-7.9906456802
 H,0,-2.8630309308,9.1781840711,-7.2587394154
 C,0,-2.8659430085,10.2142991951,-9.0657797759
 H,0,-3.4021661019,10.7915984444,-9.7985490866
 H,0,-1.809068338,10.0911087084,-9.2352507628
 C,0,-2.8223238222,10.4820218688,-2.8127780708
 H,0,-2.428240554,11.2339120074,-3.4968503082
 H,0,-2.4684257652,9.5055701293,-3.1438674849
 H,0,-2.418453205,10.6757653808,-1.8221270331
 C,0,-4.8381330058,11.1886270862,-0.3619874176
 H,0,-5.2449950271,12.1718787465,-0.125730149
 H,0,-3.7632290388,11.2161846563,-0.2020992007
 H,0,-5.2706517326,10.4683220626,0.3332122628
 C,0,-7.9511678453,4.5680097177,-5.4263564497
 H,0,-8.0470984754,4.6118300535,-6.5065383874
 H,0,-8.7891043791,3.9992175318,-5.0238525836
 H,0,-7.0304831048,4.0401774221,-5.1785405096
 N,0,-7.8242633299,6.1983777183,-3.5303714178
 H,0,-7.7460075116,5.5036604097,-2.8056774074
 C,0,-7.9343171272,5.945212436,-4.8721799773
 C,0,-7.8391762301,7.5391200723,-3.3623139446
 H,0,-7.7677866461,8.0252062566,-2.4104126331
 N,0,-7.9520831115,8.1538936472,-4.5170763404
 C,0,-8.0125624735,7.1723565293,-5.4659139051
 H,0,-8.1075747174,7.412779284,-6.5051012824
 C,0,5.6163277315,-24.1640006891,-8.591154465
 H,0,6.4735278559,-24.7763327524,-8.3176009387
 H,0,5.2661359602,-23.638070872,-7.7060517462
 H,0,5.9413942544,-23.4301673419,-9.3254082208
 C,0,4.5129239588,-25.0423440231,-9.1496035831
 H,0,4.2089728495,-25.7919084291,-8.4197939114
 H,0,4.8228137404,-25.54445911,-10.0668423724
 S,0,2.9833947966,-24.1177780172,-9.5208733304
 C,0,3.5061071503,-23.2165544193,-11.0072963451
 H,0,4.2672603098,-22.4848390076,-10.753064412
 H,0,2.6250608076,-22.7119549716,-11.3891298822
 H,0,3.8793295672,-23.9222261995,-11.7444229516
 Recover connectivity data from disk.
 Stoichiometry    C37H42FeN6S(1+,2)
 Framework group  C1[X(C37H42FeN6S)]
 Deg. of freedom   255
 Full point group                 C1      NOp   1
 Largest Abelian subgroup         C1      NOp   1
 Largest concise Abelian subgroup C1      NOp   1
                         Standard orientation:                         
 ---------------------------------------------------------------------
 Center     Atomic      Atomic             Coordinates (Angstroms)
 Number     Number       Type             X           Y           Z
 ---------------------------------------------------------------------
      1         26           0       -4.817434   -0.176284    0.096405
      2          7           0       -5.681622   -0.565126   -1.644104
      3          7           0       -4.970605    1.791511   -0.259740
      4          7           0       -4.043888    0.246578    1.887847
      5          7           0       -4.672729   -2.114409    0.470174
      6          6           0       -6.074513   -1.783748   -2.109722
      7          6           0       -6.711065   -1.659803   -3.401393
      8          6           0       -6.683525   -0.336876   -3.714921
      9          6           0       -6.051086    0.332113   -2.600185
     10          6           0       -5.400132    2.373266   -1.415264
     11          6           0       -5.412232    3.808256   -1.297896
     12          6           0       -5.004854    4.093606   -0.022055
     13          6           0       -4.712085    2.815968    0.597282
     14          6           0       -3.902347    1.469921    2.473439
     15          6           0       -3.291554    1.353933    3.772246
     16          6           0       -3.056676    0.019329    3.967915
     17          6           0       -3.539248   -0.651059    2.777032
     18          6           0       -4.072254   -2.698130    1.542577
     19          6           0       -4.189541   -4.137243    1.474677
     20          6           0       -4.891307   -4.410874    0.341928
     21          6           0       -5.173548   -3.136478   -0.278314
     22          6           0       -5.849259   -2.991162   -1.474989
     23          1           0       -6.210681   -3.886020   -1.958108
     24          6           0       -5.864178    1.696559   -2.529467
     25          1           0       -6.185552    2.286910   -3.373654
     26          6           0       -4.243888    2.675459    1.887953
     27          1           0       -4.111460    3.570945    2.474996
     28          6           0       -3.502964   -2.021228    2.603198
     29          1           0       -3.067306   -2.614122    3.392604
     30          6           0       -7.199370    0.357422   -4.928259
     31          1           0       -7.617612   -0.356107   -5.633885
     32          1           0       -6.398824    0.904539   -5.426652
     33          1           0       -7.978824    1.070163   -4.658419
     34          6           0       -7.262978   -2.805070   -4.179041
     35          1           0       -8.021852   -3.329817   -3.598808
     36          1           0       -6.475472   -3.517357   -4.427678
     37          1           0       -7.717357   -2.460623   -5.104616
     38          6           0       -5.761314    4.754303   -2.392989
     39          1           0       -6.843102    4.868181   -2.479021
     40          1           0       -5.382758    4.393627   -3.348299
     41          1           0       -5.328537    5.732343   -2.192488
     42          6           0       -4.840355    5.379029    0.620070
     43          1           0       -4.035001    5.443536    1.342654
     44          6           0       -5.592634    6.452127    0.399228
     45          1           0       -6.435651    6.433288   -0.268902
     46          1           0       -5.405886    7.384415    0.905884
     47          6           0       -2.937026    2.496998    4.657765
     48          1           0       -3.809254    2.840746    5.215967
     49          1           0       -2.559221    3.335482    4.074396
     50          1           0       -2.170847    2.194334    5.368517
     51          6           0       -2.441056   -0.644809    5.096440
     52          1           0       -1.842371   -1.516344    4.857526
     53          6           0       -2.562871   -0.274561    6.366762
     54          1           0       -3.183685    0.552161    6.664892
     55          1           0       -2.064947   -0.807866    7.159565
     56          6           0       -3.642668   -5.073514    2.496658
     57          1           0       -4.115243   -4.901441    3.463954
     58          1           0       -2.568836   -4.927622    2.614649
     59          1           0       -3.819150   -6.106978    2.208831
     60          6           0       -5.318850   -5.727090   -0.211183
     61          1           0       -6.404245   -5.768050   -0.302716
     62          1           0       -4.999555   -6.540284    0.435740
     63          1           0       -4.890270   -5.886909   -1.201129
     64          6           0        0.463486    0.929823   -1.403445
     65          1           0        0.536084    1.804222   -0.764639
     66          1           0        0.652447    1.232597   -2.433151
     67          1           0        1.234969    0.218062   -1.110372
     68          7           0       -1.266340   -0.791279   -1.964224
     69          1           0       -0.691374   -1.303853   -2.612775
     70          6           0       -0.886897    0.327423   -1.270549
     71          6           0       -2.541421   -1.076238   -1.619226
     72          1           0       -3.098002   -1.903799   -2.010191
     73          7           0       -2.995673   -0.205653   -0.747501
     74          6           0       -1.974877    0.674377   -0.521919
     75          1           0       -2.090405    1.492612    0.159173
     76          6           0       32.246988   -1.781382    0.038661
     77          1           0       33.071950   -2.461436    0.242473
     78          1           0       31.518611   -2.293222   -0.585942
     79          1           0       31.774463   -1.524823    0.984286
     80          6           0       32.763345   -0.541870   -0.666915
     81          1           0       33.258306   -0.806627   -1.600603
     82          1           0       33.460170    0.017168   -0.041304
     83         16           0       31.431861    0.604001   -1.163157
     84          6           0       30.972733    1.282955    0.456444
     85          1           0       30.517212    0.511475    1.070215
     86          1           0       30.254505    2.073758    0.268195
     87          1           0       31.856164    1.690339    0.940400
 ---------------------------------------------------------------------
 Rotational constants (GHZ):           0.0625457           0.0054215           0.0053862
 General basis read from cards:  (5D, 7F)
 There are   784 symmetry adapted cartesian basis functions of A   symmetry.
 There are   737 symmetry adapted basis functions of A   symmetry.
   737 basis functions,  1510 primitive gaussians,   784 cartesian basis functions
   174 alpha electrons      173 beta electrons
       nuclear repulsion energy      5946.2391294235 Hartrees.
 NAtoms=   87 NActive=   87 NUniq=   87 SFac= 1.00D+00 NAtFMM=   60 NAOKFM=T Big=T
 Integral buffers will be    131072 words long.
 Raffenetti 2 integral format.
 Two-electron integral symmetry is turned on.
 R6APFD:  NTU= -4 IXU= 1 FactS= 1.050
 Nuclear repulsion after empirical dispersion term =     5946.1005576873 Hartrees.
 One-electron integrals computed using PRISM.
 NBasis=   737 RedAO= T EigKep=  2.55D-04  NBF=   737
 NBsUse=   737 1.00D-06 EigRej= -1.00D+00 NBFU=   737
 ExpMin= 4.20D-02 ExpMax= 3.01D+05 ExpMxC= 3.30D+03 IAcc=3 IRadAn=         5 AccDes= 0.00D+00
 Harris functional with IExCor= 3731 and IRadAn=       5 diagonalized for initial guess.
 HarFok:  IExCor= 3731 AccDes= 0.00D+00 IRadAn=         5 IDoV= 1 UseB2=F ITyADJ=14
 ICtDFT=  3500011 ScaDFX=  1.000000  1.000000  1.000000  1.000000
 FoFCou: FMM=F IPFlag=           0 FMFlag=      100000 FMFlg1=        2001
         NFxFlg=           0 DoJE=T BraDBF=F KetDBF=T FulRan=T
         wScrn=  0.000000 ICntrl=       500 IOpCl=  0 I1Cent=   200000004 NGrid=           0
         NMat0=    1 NMatS0=      1 NMatT0=    0 NMatD0=    1 NMtDS0=    0 NMtDT0=    0
 Petite list used in FoFCou.
 Initial guess <Sx>= 0.0000 <Sy>= 0.0000 <Sz>= 0.5000 <S**2>= 0.7500 S= 0.5000
 Requested convergence on RMS density matrix=1.00D-08 within 999 cycles.
 Requested convergence on MAX density matrix=1.00D-06.
 Requested convergence on             energy=1.00D-06.
 No special actions if energy rises.
 EnCoef did     3 forward-backward iterations
 EnCoef did   100 forward-backward iterations
 EnCoef did   100 forward-backward iterations
 EnCoef did   100 forward-backward iterations
 EnCoef did   100 forward-backward iterations
 EnCoef did     2 forward-backward iterations
 EnCoef did     3 forward-backward iterations
 Restarting incremental Fock formation.
 Rare condition: small coef for last iteration:  0.000D+00
 Rare condition: small coef for last iteration:  0.000D+00
 Rare condition: small coef for last iteration:  0.000D+00
 Rare condition: small coef for last iteration:  0.000D+00
 Rare condition: small coef for last iteration:  0.000D+00
 Rare condition: small coef for last iteration:  0.000D+00
 Rare condition: small coef for last iteration:  0.000D+00
 Restarting incremental Fock formation.
 Density matrix is not changing but DIIS error= 7.30D-06 CofLast=-6.76D-01.
 Restarting incremental Fock formation.
 Restarting incremental Fock formation.
 SCF Done:  E(UAPFD) =  -3423.93384281     A.U. after  111 cycles
            NFock=111  Conv=0.97D-09     -V/T= 2.0036
 <Sx>= 0.0000 <Sy>= 0.0000 <Sz>= 0.5000 <S**2>= 0.9951 S= 0.6159
 <L.S>=  0.00000000000    
 Annihilation of the first spin contaminant:
 S**2 before annihilation     0.9951,   after     0.7573

 **********************************************************************

            Population analysis using the SCF Density.

 **********************************************************************

 Orbital symmetries:
 Alpha Orbitals:
       Occupied  (A) (A) (A) (A) (A) (A) (A) (A) (A) (A) (A) (A)
                 (A) (A) (A) (A) (A) (A) (A) (A) (A) (A) (A) (A)
                 (A) (A) (A) (A) (A) (A) (A) (A) (A) (A) (A) (A)
                 (A) (A) (A) (A) (A) (A) (A) (A) (A) (A) (A) (A)
                 (A) (A) (A) (A) (A) (A) (A) (A) (A) (A) (A) (A)
                 (A) (A) (A) (A) (A) (A) (A) (A) (A) (A) (A) (A)
                 (A) (A) (A) (A) (A) (A) (A) (A) (A) (A) (A) (A)
                 (A) (A) (A) (A) (A) (A) (A) (A) (A) (A) (A) (A)
                 (A) (A) (A) (A) (A) (A) (A) (A) (A) (A) (A) (A)
                 (A) (A) (A) (A) (A) (A) (A) (A) (A) (A) (A) (A)
                 (A) (A) (A) (A) (A) (A) (A) (A) (A) (A) (A) (A)
                 (A) (A) (A) (A) (A) (A) (A) (A) (A) (A) (A) (A)
                 (A) (A) (A) (A) (A) (A) (A) (A) (A) (A) (A) (A)
                 (A) (A) (A) (A) (A) (A) (A) (A) (A) (A) (A) (A)
                 (A) (A) (A) (A) (A) (A)
       Virtual   (A) (A) (A) (A) (A) (A) (A) (A) (A) (A) (A) (A)
                 (A) (A) (A) (A) (A) (A) (A) (A) (A) (A) (A) (A)
                 (A) (A) (A) (A) (A) (A) (A) (A) (A) (A) (A) (A)
                 (A) (A) (A) (A) (A) (A) (A) (A) (A) (A) (A) (A)
                 (A) (A) (A) (A) (A) (A) (A) (A) (A) (A) (A) (A)
                 (A) (A) (A) (A) (A) (A) (A) (A) (A) (A) (A) (A)
                 (A) (A) (A) (A) (A) (A) (A) (A) (A) (A) (A) (A)
                 (A) (A) (A) (A) (A) (A) (A) (A) (A) (A) (A) (A)
                 (A) (A) (A) (A) (A) (A) (A) (A) (A) (A) (A) (A)
                 (A) (A) (A) (A) (A) (A) (A) (A) (A) (A) (A) (A)
                 (A) (A) (A) (A) (A) (A) (A) (A) (A) (A) (A) (A)
                 (A) (A) (A) (A) (A) (A) (A) (A) (A) (A) (A) (A)
                 (A) (A) (A) (A) (A) (A) (A) (A) (A) (A) (A) (A)
                 (A) (A) (A) (A) (A) (A) (A) (A) (A) (A) (A) (A)
                 (A) (A) (A) (A) (A) (A) (A) (A) (A) (A) (A) (A)
                 (A) (A) (A) (A) (A) (A) (A) (A) (A) (A) (A) (A)
                 (A) (A) (A) (A) (A) (A) (A) (A) (A) (A) (A) (A)
                 (A) (A) (A) (A) (A) (A) (A) (A) (A) (A) (A) (A)
                 (A) (A) (A) (A) (A) (A) (A) (A) (A) (A) (A) (A)
                 (A) (A) (A) (A) (A) (A) (A) (A) (A) (A) (A) (A)
                 (A) (A) (A) (A) (A) (A) (A) (A) (A) (A) (A) (A)
                 (A) (A) (A) (A) (A) (A) (A) (A) (A) (A) (A) (A)
                 (A) (A) (A) (A) (A) (A) (A) (A) (A) (A) (A) (A)
                 (A) (A) (A) (A) (A) (A) (A) (A) (A) (A) (A) (A)
                 (A) (A) (A) (A) (A) (A) (A) (A) (A) (A) (A) (A)
                 (A) (A) (A) (A) (A) (A) (A) (A) (A) (A) (A) (A)
                 (A) (A) (A) (A) (A) (A) (A) (A) (A) (A) (A) (A)
                 (A) (A) (A) (A) (A) (A) (A) (A) (A) (A) (A) (A)
                 (A) (A) (A) (A) (A) (A) (A) (A) (A) (A) (A) (A)
                 (A) (A) (A) (A) (A) (A) (A) (A) (A) (A) (A) (A)
                 (A) (A) (A) (A) (A) (A) (A) (A) (A) (A) (A) (A)
                 (A) (A) (A) (A) (A) (A) (A) (A) (A) (A) (A) (A)
                 (A) (A) (A) (A) (A) (A) (A) (A) (A) (A) (A) (A)
                 (A) (A) (A) (A) (A) (A) (A) (A) (A) (A) (A) (A)
                 (A) (A) (A) (A) (A) (A) (A) (A) (A) (A) (A) (A)
                 (A) (A) (A) (A) (A) (A) (A) (A) (A) (A) (A) (A)
                 (A) (A) (A) (A) (A) (A) (A) (A) (A) (A) (A) (A)
                 (A) (A) (A) (A) (A) (A) (A) (A) (A) (A) (A) (A)
                 (A) (A) (A) (A) (A) (A) (A) (A) (A) (A) (A) (A)
                 (A) (A) (A) (A) (A) (A) (A) (A) (A) (A) (A) (A)
                 (A) (A) (A) (A) (A) (A) (A) (A) (A) (A) (A) (A)
                 (A) (A) (A) (A) (A) (A) (A) (A) (A) (A) (A) (A)
                 (A) (A) (A) (A) (A) (A) (A) (A) (A) (A) (A) (A)
                 (A) (A) (A) (A) (A) (A) (A) (A) (A) (A) (A) (A)
                 (A) (A) (A) (A) (A) (A) (A) (A) (A) (A) (A) (A)
                 (A) (A) (A) (A) (A) (A) (A) (A) (A) (A) (A) (A)
                 (A) (A) (A) (A) (A) (A) (A) (A) (A) (A) (A)
 Beta  Orbitals:
       Occupied  (A) (A) (A) (A) (A) (A) (A) (A) (A) (A) (A) (A)
                 (A) (A) (A) (A) (A) (A) (A) (A) (A) (A) (A) (A)
                 (A) (A) (A) (A) (A) (A) (A) (A) (A) (A) (A) (A)
                 (A) (A) (A) (A) (A) (A) (A) (A) (A) (A) (A) (A)
                 (A) (A) (A) (A) (A) (A) (A) (A) (A) (A) (A) (A)
                 (A) (A) (A) (A) (A) (A) (A) (A) (A) (A) (A) (A)
                 (A) (A) (A) (A) (A) (A) (A) (A) (A) (A) (A) (A)
                 (A) (A) (A) (A) (A) (A) (A) (A) (A) (A) (A) (A)
                 (A) (A) (A) (A) (A) (A) (A) (A) (A) (A) (A) (A)
                 (A) (A) (A) (A) (A) (A) (A) (A) (A) (A) (A) (A)
                 (A) (A) (A) (A) (A) (A) (A) (A) (A) (A) (A) (A)
                 (A) (A) (A) (A) (A) (A) (A) (A) (A) (A) (A) (A)
                 (A) (A) (A) (A) (A) (A) (A) (A) (A) (A) (A) (A)
                 (A) (A) (A) (A) (A) (A) (A) (A) (A) (A) (A) (A)
                 (A) (A) (A) (A) (A)
       Virtual   (A) (A) (A) (A) (A) (A) (A) (A) (A) (A) (A) (A)
                 (A) (A) (A) (A) (A) (A) (A) (A) (A) (A) (A) (A)
                 (A) (A) (A) (A) (A) (A) (A) (A) (A) (A) (A) (A)
                 (A) (A) (A) (A) (A) (A) (A) (A) (A) (A) (A) (A)
                 (A) (A) (A) (A) (A) (A) (A) (A) (A) (A) (A) (A)
                 (A) (A) (A) (A) (A) (A) (A) (A) (A) (A) (A) (A)
                 (A) (A) (A) (A) (A) (A) (A) (A) (A) (A) (A) (A)
                 (A) (A) (A) (A) (A) (A) (A) (A) (A) (A) (A) (A)
                 (A) (A) (A) (A) (A) (A) (A) (A) (A) (A) (A) (A)
                 (A) (A) (A) (A) (A) (A) (A) (A) (A) (A) (A) (A)
                 (A) (A) (A) (A) (A) (A) (A) (A) (A) (A) (A) (A)
                 (A) (A) (A) (A) (A) (A) (A) (A) (A) (A) (A) (A)
                 (A) (A) (A) (A) (A) (A) (A) (A) (A) (A) (A) (A)
                 (A) (A) (A) (A) (A) (A) (A) (A) (A) (A) (A) (A)
                 (A) (A) (A) (A) (A) (A) (A) (A) (A) (A) (A) (A)
                 (A) (A) (A) (A) (A) (A) (A) (A) (A) (A) (A) (A)
                 (A) (A) (A) (A) (A) (A) (A) (A) (A) (A) (A) (A)
                 (A) (A) (A) (A) (A) (A) (A) (A) (A) (A) (A) (A)
                 (A) (A) (A) (A) (A) (A) (A) (A) (A) (A) (A) (A)
                 (A) (A) (A) (A) (A) (A) (A) (A) (A) (A) (A) (A)
                 (A) (A) (A) (A) (A) (A) (A) (A) (A) (A) (A) (A)
                 (A) (A) (A) (A) (A) (A) (A) (A) (A) (A) (A) (A)
                 (A) (A) (A) (A) (A) (A) (A) (A) (A) (A) (A) (A)
                 (A) (A) (A) (A) (A) (A) (A) (A) (A) (A) (A) (A)
                 (A) (A) (A) (A) (A) (A) (A) (A) (A) (A) (A) (A)
                 (A) (A) (A) (A) (A) (A) (A) (A) (A) (A) (A) (A)
                 (A) (A) (A) (A) (A) (A) (A) (A) (A) (A) (A) (A)
                 (A) (A) (A) (A) (A) (A) (A) (A) (A) (A) (A) (A)
                 (A) (A) (A) (A) (A) (A) (A) (A) (A) (A) (A) (A)
                 (A) (A) (A) (A) (A) (A) (A) (A) (A) (A) (A) (A)
                 (A) (A) (A) (A) (A) (A) (A) (A) (A) (A) (A) (A)
                 (A) (A) (A) (A) (A) (A) (A) (A) (A) (A) (A) (A)
                 (A) (A) (A) (A) (A) (A) (A) (A) (A) (A) (A) (A)
                 (A) (A) (A) (A) (A) (A) (A) (A) (A) (A) (A) (A)
                 (A) (A) (A) (A) (A) (A) (A) (A) (A) (A) (A) (A)
                 (A) (A) (A) (A) (A) (A) (A) (A) (A) (A) (A) (A)
                 (A) (A) (A) (A) (A) (A) (A) (A) (A) (A) (A) (A)
                 (A) (A) (A) (A) (A) (A) (A) (A) (A) (A) (A) (A)
                 (A) (A) (A) (A) (A) (A) (A) (A) (A) (A) (A) (A)
                 (A) (A) (A) (A) (A) (A) (A) (A) (A) (A) (A) (A)
                 (A) (A) (A) (A) (A) (A) (A) (A) (A) (A) (A) (A)
                 (A) (A) (A) (A) (A) (A) (A) (A) (A) (A) (A) (A)
                 (A) (A) (A) (A) (A) (A) (A) (A) (A) (A) (A) (A)
                 (A) (A) (A) (A) (A) (A) (A) (A) (A) (A) (A) (A)
                 (A) (A) (A) (A) (A) (A) (A) (A) (A) (A) (A) (A)
                 (A) (A) (A) (A) (A) (A) (A) (A) (A) (A) (A) (A)
                 (A) (A) (A) (A) (A) (A) (A) (A) (A) (A) (A) (A)
 The electronic state is 2-A.
 Alpha  occ. eigenvalues -- -256.38074 -88.94249 -30.24990 -26.09596 -26.09502
 Alpha  occ. eigenvalues --  -26.06697 -14.54882 -14.51968 -14.48333 -14.48237
 Alpha  occ. eigenvalues --  -14.47774 -14.47770 -10.39095 -10.36087 -10.33918
 Alpha  occ. eigenvalues --  -10.33860 -10.33693 -10.33689 -10.33639 -10.33602
 Alpha  occ. eigenvalues --  -10.33597 -10.33494 -10.33429 -10.31032 -10.30872
 Alpha  occ. eigenvalues --  -10.30795 -10.30788 -10.30729 -10.30718 -10.30700
 Alpha  occ. eigenvalues --  -10.30657 -10.30485 -10.30292 -10.30228 -10.30155
 Alpha  occ. eigenvalues --  -10.29979 -10.29549 -10.29284 -10.28611 -10.28519
 Alpha  occ. eigenvalues --  -10.28362 -10.28302 -10.28246 -10.28207 -10.27957
 Alpha  occ. eigenvalues --  -10.27932 -10.24281 -10.23467 -10.20788  -7.97311
 Alpha  occ. eigenvalues --   -5.92016  -5.91636  -5.90933  -3.64187  -2.42621
 Alpha  occ. eigenvalues --   -2.42327  -2.35863  -1.17696  -1.09336  -1.08505
 Alpha  occ. eigenvalues --   -1.08027  -1.07253  -1.03462  -0.93831  -0.92386
 Alpha  occ. eigenvalues --   -0.91927  -0.91738  -0.91350  -0.91219  -0.90997
 Alpha  occ. eigenvalues --   -0.90921  -0.86852  -0.85554  -0.85529  -0.84444
 Alpha  occ. eigenvalues --   -0.83789  -0.83150  -0.82831  -0.81339  -0.80292
 Alpha  occ. eigenvalues --   -0.78794  -0.78585  -0.78271  -0.76894  -0.76649
 Alpha  occ. eigenvalues --   -0.75384  -0.75328  -0.73098  -0.70773  -0.70069
 Alpha  occ. eigenvalues --   -0.68980  -0.68555  -0.68188  -0.67611  -0.65418
 Alpha  occ. eigenvalues --   -0.64610  -0.63735  -0.63478  -0.62071  -0.61907
 Alpha  occ. eigenvalues --   -0.61566  -0.60245  -0.59632  -0.59381  -0.58857
 Alpha  occ. eigenvalues --   -0.58403  -0.58262  -0.56200  -0.55465  -0.55190
 Alpha  occ. eigenvalues --   -0.54769  -0.54662  -0.54165  -0.54118  -0.53810
 Alpha  occ. eigenvalues --   -0.53650  -0.53489  -0.53137  -0.52732  -0.52547
 Alpha  occ. eigenvalues --   -0.52369  -0.52072  -0.52001  -0.50873  -0.50703
 Alpha  occ. eigenvalues --   -0.50647  -0.50534  -0.50460  -0.50368  -0.50071
 Alpha  occ. eigenvalues --   -0.49751  -0.49581  -0.49283  -0.49017  -0.48861
 Alpha  occ. eigenvalues --   -0.48722  -0.48357  -0.48159  -0.47961  -0.47833
 Alpha  occ. eigenvalues --   -0.47314  -0.46911  -0.46816  -0.46493  -0.46362
 Alpha  occ. eigenvalues --   -0.45811  -0.45139  -0.45012  -0.44606  -0.43688
 Alpha  occ. eigenvalues --   -0.43480  -0.43107  -0.42977  -0.42626  -0.42139
 Alpha  occ. eigenvalues --   -0.41737  -0.41272  -0.40496  -0.39793  -0.39472
 Alpha  occ. eigenvalues --   -0.39075  -0.38916  -0.37353  -0.37084  -0.36444
 Alpha  occ. eigenvalues --   -0.35298  -0.34305  -0.33296  -0.32347  -0.32168
 Alpha  occ. eigenvalues --   -0.31777  -0.30097  -0.28861  -0.23596
 Alpha virt. eigenvalues --   -0.22343  -0.17410  -0.17357  -0.14757  -0.11634
 Alpha virt. eigenvalues --   -0.09645  -0.07930  -0.06818  -0.05452  -0.04822
 Alpha virt. eigenvalues --   -0.03162  -0.02134  -0.01927  -0.01101   0.00763
 Alpha virt. eigenvalues --    0.00958   0.01885   0.02225   0.02929   0.03121
 Alpha virt. eigenvalues --    0.03815   0.03865   0.03954   0.03988   0.04604
 Alpha virt. eigenvalues --    0.04851   0.04951   0.05460   0.05586   0.06132
 Alpha virt. eigenvalues --    0.06354   0.06895   0.07434   0.07577   0.07715
 Alpha virt. eigenvalues --    0.07749   0.07942   0.08420   0.08515   0.08639
 Alpha virt. eigenvalues --    0.08975   0.09041   0.09402   0.09530   0.10177
 Alpha virt. eigenvalues --    0.10231   0.10494   0.11000   0.11369   0.11738
 Alpha virt. eigenvalues --    0.11767   0.11939   0.12178   0.12244   0.12471
 Alpha virt. eigenvalues --    0.12582   0.12715   0.13190   0.13718   0.14208
 Alpha virt. eigenvalues --    0.14477   0.14785   0.14962   0.15407   0.15746
 Alpha virt. eigenvalues --    0.16203   0.16388   0.16514   0.16768   0.17060
 Alpha virt. eigenvalues --    0.17496   0.17778   0.17828   0.17988   0.19478
 Alpha virt. eigenvalues --    0.19728   0.20298   0.20512   0.20795   0.21626
 Alpha virt. eigenvalues --    0.22087   0.22570   0.22777   0.23525   0.24544
 Alpha virt. eigenvalues --    0.25222   0.25585   0.25856   0.26525   0.26972
 Alpha virt. eigenvalues --    0.27383   0.28855   0.29484   0.30712   0.31386
 Alpha virt. eigenvalues --    0.31901   0.33033   0.33495   0.34078   0.34092
 Alpha virt. eigenvalues --    0.35811   0.37236   0.37353   0.37775   0.38296
 Alpha virt. eigenvalues --    0.38463   0.39140   0.39298   0.39555   0.39877
 Alpha virt. eigenvalues --    0.40236   0.40270   0.40692   0.40966   0.41269
 Alpha virt. eigenvalues --    0.41601   0.41758   0.42333   0.42584   0.43117
 Alpha virt. eigenvalues --    0.43298   0.43608   0.44020   0.44218   0.44881
 Alpha virt. eigenvalues --    0.45240   0.45362   0.45599   0.46033   0.46753
 Alpha virt. eigenvalues --    0.47228   0.47511   0.47764   0.48018   0.48372
 Alpha virt. eigenvalues --    0.49131   0.49377   0.49835   0.49848   0.50338
 Alpha virt. eigenvalues --    0.50511   0.50915   0.51492   0.51927   0.52436
 Alpha virt. eigenvalues --    0.52792   0.52943   0.53431   0.53755   0.54290
 Alpha virt. eigenvalues --    0.54549   0.54770   0.55235   0.55672   0.55872
 Alpha virt. eigenvalues --    0.56122   0.56351   0.56610   0.57222   0.57283
 Alpha virt. eigenvalues --    0.57721   0.58142   0.58155   0.58279   0.58846
 Alpha virt. eigenvalues --    0.59306   0.59719   0.60313   0.60924   0.60975
 Alpha virt. eigenvalues --    0.61525   0.61596   0.62163   0.62622   0.63280
 Alpha virt. eigenvalues --    0.63513   0.63714   0.64045   0.64374   0.65087
 Alpha virt. eigenvalues --    0.65543   0.66321   0.66629   0.66762   0.67707
 Alpha virt. eigenvalues --    0.67776   0.67937   0.68308   0.68642   0.68840
 Alpha virt. eigenvalues --    0.69123   0.69529   0.69770   0.69882   0.70319
 Alpha virt. eigenvalues --    0.70805   0.71021   0.71504   0.72263   0.73463
 Alpha virt. eigenvalues --    0.73831   0.74331   0.74501   0.75284   0.76318
 Alpha virt. eigenvalues --    0.77101   0.77292   0.77570   0.77729   0.78158
 Alpha virt. eigenvalues --    0.78573   0.78920   0.79125   0.79148   0.79766
 Alpha virt. eigenvalues --    0.80071   0.81019   0.81172   0.81520   0.82417
 Alpha virt. eigenvalues --    0.82649   0.82957   0.83169   0.83368   0.83489
 Alpha virt. eigenvalues --    0.83894   0.84111   0.84742   0.84795   0.85022
 Alpha virt. eigenvalues --    0.85306   0.85476   0.85723   0.86483   0.86762
 Alpha virt. eigenvalues --    0.87044   0.87250   0.87464   0.87718   0.87923
 Alpha virt. eigenvalues --    0.88147   0.88908   0.89220   0.89281   0.89774
 Alpha virt. eigenvalues --    0.90005   0.90197   0.90409   0.90938   0.91074
 Alpha virt. eigenvalues --    0.91329   0.91842   0.91940   0.92639   0.92946
 Alpha virt. eigenvalues --    0.93107   0.93939   0.94165   0.94424   0.94677
 Alpha virt. eigenvalues --    0.94765   0.95138   0.95988   0.96443   0.96695
 Alpha virt. eigenvalues --    0.97779   0.97914   0.98145   0.98823   0.99146
 Alpha virt. eigenvalues --    0.99331   1.00613   1.01133   1.01603   1.03022
 Alpha virt. eigenvalues --    1.04044   1.04590   1.05112   1.05303   1.06248
 Alpha virt. eigenvalues --    1.06846   1.07060   1.07623   1.07846   1.08339
 Alpha virt. eigenvalues --    1.09557   1.09790   1.09981   1.10604   1.11158
 Alpha virt. eigenvalues --    1.11364   1.12366   1.12521   1.14465   1.14721
 Alpha virt. eigenvalues --    1.14892   1.15491   1.16358   1.16982   1.18165
 Alpha virt. eigenvalues --    1.18935   1.19135   1.20118   1.20332   1.20700
 Alpha virt. eigenvalues --    1.21256   1.22368   1.22669   1.23617   1.23704
 Alpha virt. eigenvalues --    1.24561   1.25872   1.26600   1.26686   1.26887
 Alpha virt. eigenvalues --    1.27073   1.27412   1.27650   1.28072   1.28447
 Alpha virt. eigenvalues --    1.28953   1.29529   1.30230   1.31414   1.32128
 Alpha virt. eigenvalues --    1.32818   1.33841   1.34385   1.34958   1.36090
 Alpha virt. eigenvalues --    1.37223   1.37571   1.38355   1.39399   1.40143
 Alpha virt. eigenvalues --    1.41114   1.41609   1.43335   1.43894   1.44029
 Alpha virt. eigenvalues --    1.44279   1.44830   1.45450   1.47063   1.47710
 Alpha virt. eigenvalues --    1.49029   1.49941   1.50439   1.50479   1.50690
 Alpha virt. eigenvalues --    1.51901   1.52876   1.53806   1.54148   1.54624
 Alpha virt. eigenvalues --    1.56120   1.56866   1.57692   1.57943   1.59787
 Alpha virt. eigenvalues --    1.60234   1.61372   1.61741   1.62716   1.64961
 Alpha virt. eigenvalues --    1.67441   1.67855   1.68528   1.69124   1.69319
 Alpha virt. eigenvalues --    1.69600   1.69681   1.70380   1.70670   1.71121
 Alpha virt. eigenvalues --    1.71315   1.71877   1.72224   1.72612   1.73026
 Alpha virt. eigenvalues --    1.73563   1.73998   1.74152   1.75230   1.75558
 Alpha virt. eigenvalues --    1.76831   1.77032   1.77578   1.78308   1.79159
 Alpha virt. eigenvalues --    1.79307   1.79749   1.80952   1.81334   1.82122
 Alpha virt. eigenvalues --    1.82421   1.83827   1.84216   1.84826   1.85716
 Alpha virt. eigenvalues --    1.86108   1.86550   1.86885   1.89515   1.90163
 Alpha virt. eigenvalues --    1.90403   1.90629   1.90971   1.91178   1.91727
 Alpha virt. eigenvalues --    1.92366   1.92897   1.93500   1.94773   1.95085
 Alpha virt. eigenvalues --    1.95814   1.96064   1.96562   1.97032   1.97453
 Alpha virt. eigenvalues --    1.98045   1.98761   1.98827   1.99228   2.00752
 Alpha virt. eigenvalues --    2.01008   2.02077   2.03128   2.03243   2.04543
 Alpha virt. eigenvalues --    2.04962   2.05717   2.06081   2.06296   2.07443
 Alpha virt. eigenvalues --    2.09136   2.09569   2.10456   2.10951   2.11377
 Alpha virt. eigenvalues --    2.12669   2.12991   2.13407   2.13833   2.14553
 Alpha virt. eigenvalues --    2.14688   2.15538   2.15570   2.16293   2.16417
 Alpha virt. eigenvalues --    2.16883   2.17394   2.18063   2.18874   2.19327
 Alpha virt. eigenvalues --    2.19588   2.19975   2.20239   2.20473   2.21159
 Alpha virt. eigenvalues --    2.22277   2.22999   2.23055   2.23194   2.23931
 Alpha virt. eigenvalues --    2.24379   2.25106   2.25498   2.25728   2.25972
 Alpha virt. eigenvalues --    2.26430   2.27197   2.27525   2.27983   2.28205
 Alpha virt. eigenvalues --    2.28905   2.29053   2.30222   2.30773   2.31148
 Alpha virt. eigenvalues --    2.31877   2.31926   2.32535   2.32686   2.32934
 Alpha virt. eigenvalues --    2.33690   2.34152   2.34708   2.35234   2.35573
 Alpha virt. eigenvalues --    2.37710   2.38103   2.39186   2.41048   2.42458
 Alpha virt. eigenvalues --    2.42635   2.42883   2.43269   2.43693   2.45062
 Alpha virt. eigenvalues --    2.45566   2.46461   2.46888   2.47193   2.49321
 Alpha virt. eigenvalues --    2.50073   2.50621   2.50883   2.52644   2.54508
 Alpha virt. eigenvalues --    2.56292   2.56937   2.58181   2.58612   2.59476
 Alpha virt. eigenvalues --    2.59819   2.60126   2.61576   2.62510   2.64250
 Alpha virt. eigenvalues --    2.65486   2.68134   2.68530   2.70018   2.70683
 Alpha virt. eigenvalues --    2.71446   2.76166   2.76916   2.78042   2.78932
 Alpha virt. eigenvalues --    2.79775   2.81105   2.81987   2.84748   2.86283
 Alpha virt. eigenvalues --    2.86729   2.88276   2.88902   2.89163   2.89651
 Alpha virt. eigenvalues --    2.89969   2.94118   2.94647   2.95474   3.01993
 Alpha virt. eigenvalues --    3.03815   3.04245   3.10216   3.13121   3.15122
 Alpha virt. eigenvalues --    3.19647   3.20060   3.27582   3.29175   3.30152
 Alpha virt. eigenvalues --    3.35654   3.36234   3.45638   3.46048   3.52844
 Alpha virt. eigenvalues --    3.77850   3.95099   4.14712
  Beta  occ. eigenvalues -- -256.38031 -88.94249 -30.22594 -26.07170 -26.06714
  Beta  occ. eigenvalues --  -26.05912 -14.54880 -14.52082 -14.48430 -14.48326
  Beta  occ. eigenvalues --  -14.47901 -14.47894 -10.39081 -10.36091 -10.33888
  Beta  occ. eigenvalues --  -10.33825 -10.33681 -10.33676 -10.33639 -10.33581
  Beta  occ. eigenvalues --  -10.33576 -10.33470 -10.33414 -10.31032 -10.30926
  Beta  occ. eigenvalues --  -10.30846 -10.30768 -10.30763 -10.30750 -10.30703
  Beta  occ. eigenvalues --  -10.30633 -10.30461 -10.30297 -10.30226 -10.30156
  Beta  occ. eigenvalues --  -10.29976 -10.29558 -10.29286 -10.28613 -10.28522
  Beta  occ. eigenvalues --  -10.28362 -10.28303 -10.28248 -10.28190 -10.27957
  Beta  occ. eigenvalues --  -10.27929 -10.24281 -10.23467 -10.20788  -7.97311
  Beta  occ. eigenvalues --   -5.92016  -5.91636  -5.90933  -3.58341  -2.35498
  Beta  occ. eigenvalues --   -2.33840  -2.32842  -1.17726  -1.09413  -1.08547
  Beta  occ. eigenvalues --   -1.08154  -1.07345  -1.03541  -0.93877  -0.92370
  Beta  occ. eigenvalues --   -0.91948  -0.91726  -0.91353  -0.91244  -0.91065
  Beta  occ. eigenvalues --   -0.90974  -0.86845  -0.85664  -0.85542  -0.84447
  Beta  occ. eigenvalues --   -0.83789  -0.83157  -0.82841  -0.81344  -0.80307
  Beta  occ. eigenvalues --   -0.78807  -0.78591  -0.78303  -0.76894  -0.76705
  Beta  occ. eigenvalues --   -0.75396  -0.75341  -0.73110  -0.70769  -0.70078
  Beta  occ. eigenvalues --   -0.68979  -0.68610  -0.68188  -0.67628  -0.65426
  Beta  occ. eigenvalues --   -0.64630  -0.63746  -0.63467  -0.62100  -0.61948
  Beta  occ. eigenvalues --   -0.61590  -0.60245  -0.59646  -0.59344  -0.58806
  Beta  occ. eigenvalues --   -0.58419  -0.58258  -0.56216  -0.55480  -0.55137
  Beta  occ. eigenvalues --   -0.54711  -0.54622  -0.54134  -0.54083  -0.53817
  Beta  occ. eigenvalues --   -0.53637  -0.53511  -0.53120  -0.52685  -0.52529
  Beta  occ. eigenvalues --   -0.52370  -0.52038  -0.51982  -0.50850  -0.50622
  Beta  occ. eigenvalues --   -0.50582  -0.50465  -0.50438  -0.50103  -0.49945
  Beta  occ. eigenvalues --   -0.49766  -0.49603  -0.49185  -0.49017  -0.48860
  Beta  occ. eigenvalues --   -0.48560  -0.48251  -0.48155  -0.47859  -0.47545
  Beta  occ. eigenvalues --   -0.47327  -0.46911  -0.46751  -0.46275  -0.45856
  Beta  occ. eigenvalues --   -0.45139  -0.45023  -0.44580  -0.43819  -0.43664
  Beta  occ. eigenvalues --   -0.43081  -0.42977  -0.42611  -0.42208  -0.41614
  Beta  occ. eigenvalues --   -0.41272  -0.39959  -0.39218  -0.38916  -0.38848
  Beta  occ. eigenvalues --   -0.37730  -0.37704  -0.36807  -0.36444  -0.35387
  Beta  occ. eigenvalues --   -0.34257  -0.33477  -0.32440  -0.32168  -0.31667
  Beta  occ. eigenvalues --   -0.30105  -0.28665  -0.23596
  Beta virt. eigenvalues --   -0.20810  -0.18425  -0.17494  -0.16451  -0.11700
  Beta virt. eigenvalues --   -0.11445  -0.09423  -0.07823  -0.06824  -0.05369
  Beta virt. eigenvalues --   -0.04837  -0.02574  -0.02039  -0.01739  -0.00974
  Beta virt. eigenvalues --    0.00845   0.01005   0.01877   0.02228   0.02928
  Beta virt. eigenvalues --    0.03125   0.03839   0.03870   0.03954   0.03987
  Beta virt. eigenvalues --    0.04611   0.04891   0.04939   0.05458   0.05586
  Beta virt. eigenvalues --    0.06142   0.06380   0.06905   0.07444   0.07588
  Beta virt. eigenvalues --    0.07715   0.07748   0.07946   0.08423   0.08515
  Beta virt. eigenvalues --    0.08639   0.08990   0.09045   0.09410   0.09577
  Beta virt. eigenvalues --    0.10178   0.10260   0.10507   0.11002   0.11409
  Beta virt. eigenvalues --    0.11772   0.11939   0.11965   0.12188   0.12269
  Beta virt. eigenvalues --    0.12582   0.12726   0.12741   0.13227   0.13765
  Beta virt. eigenvalues --    0.14208   0.14543   0.14858   0.15081   0.15421
  Beta virt. eigenvalues --    0.15759   0.16235   0.16420   0.16514   0.16788
  Beta virt. eigenvalues --    0.17094   0.17496   0.17800   0.17851   0.17988
  Beta virt. eigenvalues --    0.19506   0.19854   0.20298   0.20536   0.20907
  Beta virt. eigenvalues --    0.21674   0.22087   0.22618   0.22842   0.23598
  Beta virt. eigenvalues --    0.24578   0.25261   0.25638   0.25873   0.26553
  Beta virt. eigenvalues --    0.27014   0.27440   0.28876   0.29545   0.30765
  Beta virt. eigenvalues --    0.31460   0.32025   0.33015   0.33497   0.34096
  Beta virt. eigenvalues --    0.34136   0.35979   0.37236   0.37559   0.37840
  Beta virt. eigenvalues --    0.38363   0.38483   0.39169   0.39298   0.39636
  Beta virt. eigenvalues --    0.39904   0.40236   0.40290   0.40727   0.41067
  Beta virt. eigenvalues --    0.41312   0.41601   0.41783   0.42341   0.42586
  Beta virt. eigenvalues --    0.43129   0.43327   0.43647   0.44044   0.44275
  Beta virt. eigenvalues --    0.44894   0.45268   0.45419   0.45599   0.46047
  Beta virt. eigenvalues --    0.46782   0.47261   0.47514   0.47755   0.48047
  Beta virt. eigenvalues --    0.48343   0.49213   0.49436   0.49817   0.49848
  Beta virt. eigenvalues --    0.50364   0.50574   0.50916   0.51461   0.51921
  Beta virt. eigenvalues --    0.52464   0.52805   0.52918   0.53469   0.53755
  Beta virt. eigenvalues --    0.54290   0.54542   0.54802   0.55486   0.55674
  Beta virt. eigenvalues --    0.55942   0.56296   0.56393   0.56744   0.57141
  Beta virt. eigenvalues --    0.57308   0.57731   0.58155   0.58178   0.58421
  Beta virt. eigenvalues --    0.58846   0.59318   0.59801   0.60331   0.60975
  Beta virt. eigenvalues --    0.61017   0.61574   0.61784   0.62229   0.62698
  Beta virt. eigenvalues --    0.63353   0.63599   0.63821   0.64045   0.64385
  Beta virt. eigenvalues --    0.65093   0.65547   0.66366   0.66659   0.66764
  Beta virt. eigenvalues --    0.67773   0.67834   0.67955   0.68336   0.68677
  Beta virt. eigenvalues --    0.68915   0.69331   0.69597   0.69879   0.69882
  Beta virt. eigenvalues --    0.70349   0.70891   0.71289   0.71546   0.72307
  Beta virt. eigenvalues --    0.73481   0.73857   0.74374   0.74541   0.75356
  Beta virt. eigenvalues --    0.76368   0.77151   0.77306   0.77599   0.77730
  Beta virt. eigenvalues --    0.78182   0.78587   0.78944   0.79130   0.79148
  Beta virt. eigenvalues --    0.79845   0.80172   0.81021   0.81188   0.81556
  Beta virt. eigenvalues --    0.82431   0.82675   0.82960   0.83181   0.83386
  Beta virt. eigenvalues --    0.83609   0.83935   0.84149   0.84750   0.84830
  Beta virt. eigenvalues --    0.85022   0.85346   0.85476   0.85732   0.86489
  Beta virt. eigenvalues --    0.86765   0.87064   0.87250   0.87498   0.87733
  Beta virt. eigenvalues --    0.87923   0.88169   0.88970   0.89242   0.89281
  Beta virt. eigenvalues --    0.89843   0.90005   0.90210   0.90495   0.90957
  Beta virt. eigenvalues --    0.91098   0.91354   0.91905   0.91940   0.92704
  Beta virt. eigenvalues --    0.92937   0.93229   0.93997   0.94247   0.94424
  Beta virt. eigenvalues --    0.94677   0.94769   0.95160   0.96063   0.96460
  Beta virt. eigenvalues --    0.96738   0.97804   0.97922   0.98145   0.98843
  Beta virt. eigenvalues --    0.99257   0.99331   1.00613   1.01152   1.01646
  Beta virt. eigenvalues --    1.03293   1.04041   1.04590   1.05099   1.05300
  Beta virt. eigenvalues --    1.06345   1.06933   1.07368   1.07697   1.07904
  Beta virt. eigenvalues --    1.08405   1.09598   1.09791   1.10066   1.10639
  Beta virt. eigenvalues --    1.11179   1.11413   1.12380   1.12563   1.14497
  Beta virt. eigenvalues --    1.14777   1.14948   1.15869   1.16371   1.17016
  Beta virt. eigenvalues --    1.18176   1.18971   1.19135   1.20169   1.20328
  Beta virt. eigenvalues --    1.20682   1.21283   1.22372   1.22671   1.23666
  Beta virt. eigenvalues --    1.23756   1.24623   1.25906   1.26599   1.26686
  Beta virt. eigenvalues --    1.26900   1.27095   1.27408   1.27661   1.28066
  Beta virt. eigenvalues --    1.28463   1.28976   1.29568   1.30375   1.31411
  Beta virt. eigenvalues --    1.32215   1.32834   1.33816   1.34404   1.34938
  Beta virt. eigenvalues --    1.36107   1.37270   1.37550   1.38328   1.39399
  Beta virt. eigenvalues --    1.40174   1.41135   1.41571   1.43354   1.43882
  Beta virt. eigenvalues --    1.44040   1.44295   1.44850   1.45454   1.47105
  Beta virt. eigenvalues --    1.47723   1.49029   1.50031   1.50464   1.50479
  Beta virt. eigenvalues --    1.50830   1.51918   1.52900   1.53806   1.54284
  Beta virt. eigenvalues --    1.54643   1.56171   1.57066   1.57692   1.58033
  Beta virt. eigenvalues --    1.59813   1.60285   1.61391   1.61758   1.62733
  Beta virt. eigenvalues --    1.64971   1.67505   1.67807   1.68567   1.69140
  Beta virt. eigenvalues --    1.69319   1.69590   1.69906   1.70436   1.70694
  Beta virt. eigenvalues --    1.71121   1.71320   1.71832   1.72219   1.72704
  Beta virt. eigenvalues --    1.73037   1.73555   1.74002   1.74140   1.75258
  Beta virt. eigenvalues --    1.75546   1.76825   1.77034   1.77558   1.78282
  Beta virt. eigenvalues --    1.79225   1.79337   1.79748   1.81088   1.81363
  Beta virt. eigenvalues --    1.82158   1.82429   1.83890   1.84261   1.84948
  Beta virt. eigenvalues --    1.85688   1.86080   1.86749   1.87132   1.89622
  Beta virt. eigenvalues --    1.90215   1.90464   1.90714   1.91020   1.91211
  Beta virt. eigenvalues --    1.91766   1.92366   1.93012   1.93615   1.94782
  Beta virt. eigenvalues --    1.95092   1.95827   1.96076   1.96649   1.97032
  Beta virt. eigenvalues --    1.97545   1.98077   1.98761   1.98855   1.99229
  Beta virt. eigenvalues --    2.00784   2.01059   2.02076   2.03151   2.03254
  Beta virt. eigenvalues --    2.04532   2.05003   2.05958   2.06287   2.06569
  Beta virt. eigenvalues --    2.07511   2.09137   2.09678   2.10527   2.11026
  Beta virt. eigenvalues --    2.11407   2.12851   2.13056   2.13535   2.14012
  Beta virt. eigenvalues --    2.14553   2.14784   2.15640   2.15899   2.16331
  Beta virt. eigenvalues --    2.16476   2.16928   2.18029   2.18092   2.18982
  Beta virt. eigenvalues --    2.19386   2.19612   2.20016   2.20263   2.20500
  Beta virt. eigenvalues --    2.21243   2.22310   2.22999   2.23088   2.23277
  Beta virt. eigenvalues --    2.23931   2.24491   2.25123   2.25558   2.25735
  Beta virt. eigenvalues --    2.25972   2.26440   2.27237   2.27521   2.27997
  Beta virt. eigenvalues --    2.28244   2.28918   2.29053   2.30208   2.30783
  Beta virt. eigenvalues --    2.31154   2.31877   2.31937   2.32535   2.32765
  Beta virt. eigenvalues --    2.32964   2.33710   2.34185   2.34712   2.35280
  Beta virt. eigenvalues --    2.35702   2.37712   2.38109   2.39363   2.41085
  Beta virt. eigenvalues --    2.42427   2.42666   2.42910   2.43309   2.43740
  Beta virt. eigenvalues --    2.45048   2.45565   2.46477   2.46904   2.47206
  Beta virt. eigenvalues --    2.49429   2.50100   2.50654   2.50929   2.52659
  Beta virt. eigenvalues --    2.54481   2.56281   2.56881   2.58134   2.58627
  Beta virt. eigenvalues --    2.59476   2.59774   2.60085   2.61510   2.62525
  Beta virt. eigenvalues --    2.64274   2.65457   2.68119   2.68525   2.70018
  Beta virt. eigenvalues --    2.70685   2.71428   2.76102   2.76879   2.78037
  Beta virt. eigenvalues --    2.78897   2.79790   2.81107   2.82021   2.84748
  Beta virt. eigenvalues --    2.86266   2.86700   2.88265   2.88899   2.89154
  Beta virt. eigenvalues --    2.89627   2.89998   2.94149   2.94619   2.95459
  Beta virt. eigenvalues --    3.01987   3.03814   3.04241   3.10203   3.13148
  Beta virt. eigenvalues --    3.15210   3.19664   3.20069   3.27604   3.29166
  Beta virt. eigenvalues --    3.30190   3.35702   3.36211   3.49540   3.51478
  Beta virt. eigenvalues --    3.56773   3.79178   3.96860   4.16846
          Condensed to atoms (all electrons):
          Atomic-Atomic Spin Densities.
 Mulliken charges and spin densities:
               1          2
     1  Fe   0.853706   1.203223
     2  N   -0.672985  -0.056464
     3  N   -0.693720  -0.049273
     4  N   -0.674115  -0.057595
     5  N   -0.695541  -0.051774
     6  C    0.310185   0.019507
     7  C    0.040581  -0.002108
     8  C    0.040013   0.003164
     9  C    0.328154   0.013334
    10  C    0.331363   0.012323
    11  C    0.043417   0.016005
    12  C    0.013528   0.015804
    13  C    0.316077   0.018280
    14  C    0.309339   0.017852
    15  C    0.043697  -0.003056
    16  C    0.006080   0.002491
    17  C    0.333471   0.013921
    18  C    0.332653   0.012349
    19  C    0.041495   0.017612
    20  C    0.043433   0.013674
    21  C    0.313581   0.021189
    22  C   -0.298885  -0.040385
    23  H    0.195575   0.001838
    24  C   -0.289340  -0.038053
    25  H    0.194983   0.001789
    26  C   -0.286741  -0.038701
    27  H    0.198417   0.001720
    28  C   -0.284362  -0.038175
    29  H    0.195552   0.001791
    30  C   -0.612273  -0.000552
    31  H    0.204455  -0.000146
    32  H    0.200297   0.000262
    33  H    0.208292   0.000271
    34  C   -0.611133  -0.000015
    35  H    0.207813   0.000032
    36  H    0.197220   0.000039
    37  H    0.205341  -0.000109
    38  C   -0.616067  -0.001940
    39  H    0.210746   0.001286
    40  H    0.196294   0.000668
    41  H    0.213154   0.000051
    42  C   -0.152761  -0.007083
    43  H    0.177645   0.000554
    44  C   -0.387874   0.011768
    45  H    0.191212  -0.000582
    46  H    0.195641  -0.000566
    47  C   -0.613159   0.000065
    48  H    0.210878  -0.000022
    49  H    0.189751  -0.000010
    50  H    0.211606  -0.000132
    51  C   -0.155680  -0.001321
    52  H    0.177158   0.000116
    53  C   -0.387765   0.001986
    54  H    0.191007  -0.000096
    55  H    0.193429  -0.000123
    56  C   -0.613105  -0.002079
    57  H    0.212864   0.001202
    58  H    0.202118   0.001105
    59  H    0.205060  -0.000170
    60  C   -0.611417  -0.001335
    61  H    0.210428   0.000891
    62  H    0.206189  -0.000042
    63  H    0.199391   0.000950
    64  C   -0.602488  -0.000237
    65  H    0.223937  -0.000033
    66  H    0.216377  -0.000115
    67  H    0.216495   0.000009
    68  N   -0.628353   0.001213
    69  H    0.390649  -0.000205
    70  C    0.282485  -0.001521
    71  C    0.268359   0.010525
    72  H    0.237945  -0.000340
    73  N   -0.432634  -0.047951
    74  C   -0.035598   0.001385
    75  H    0.216458   0.000065
    76  C   -0.514938   0.000000
    77  H    0.178378   0.000000
    78  H    0.193197  -0.000000
    79  H    0.177301   0.000000
    80  C   -0.483242  -0.000000
    81  H    0.208738  -0.000000
    82  H    0.196899   0.000000
    83  S    0.096179  -0.000000
    84  C   -0.674196   0.000000
    85  H    0.205288   0.000000
    86  H    0.214148  -0.000000
    87  H    0.202247  -0.000000
 Sum of Mulliken charges =   1.00000   1.00000
 Mulliken charges and spin densities with hydrogens summed into heavy atoms:
               1          2
     1  Fe   0.853706   1.203223
     2  N   -0.672985  -0.056464
     3  N   -0.693720  -0.049273
     4  N   -0.674115  -0.057595
     5  N   -0.695541  -0.051774
     6  C    0.310185   0.019507
     7  C    0.040581  -0.002108
     8  C    0.040013   0.003164
     9  C    0.328154   0.013334
    10  C    0.331363   0.012323
    11  C    0.043417   0.016005
    12  C    0.013528   0.015804
    13  C    0.316077   0.018280
    14  C    0.309339   0.017852
    15  C    0.043697  -0.003056
    16  C    0.006080   0.002491
    17  C    0.333471   0.013921
    18  C    0.332653   0.012349
    19  C    0.041495   0.017612
    20  C    0.043433   0.013674
    21  C    0.313581   0.021189
    22  C   -0.103309  -0.038548
    24  C   -0.094357  -0.036264
    26  C   -0.088324  -0.036982
    28  C   -0.088810  -0.036384
    30  C    0.000771  -0.000164
    34  C   -0.000760  -0.000052
    38  C    0.004127   0.000064
    42  C    0.024885  -0.006529
    44  C   -0.001021   0.010620
    47  C   -0.000924  -0.000100
    51  C    0.021477  -0.001205
    53  C   -0.003329   0.001767
    56  C    0.006937   0.000058
    60  C    0.004591   0.000464
    64  C    0.054321  -0.000376
    68  N   -0.237704   0.001008
    70  C    0.282485  -0.001521
    71  C    0.506303   0.010185
    73  N   -0.432634  -0.047951
    74  C    0.180861   0.001450
    76  C    0.033937   0.000000
    80  C   -0.077604  -0.000000
    83  S    0.096179  -0.000000
    84  C   -0.052512   0.000000
 Electronic spatial extent (au):  <R**2>=         192208.8997
 Charge=              1.0000 electrons
 Dipole moment (field-independent basis, Debye):
    X=            -15.4373    Y=             -2.0026    Z=             -1.7709  Tot=             15.6671
 Quadrupole moment (field-independent basis, Debye-Ang):
   XX=           -140.6039   YY=           -204.7137   ZZ=           -217.2870
   XY=            -14.0422   XZ=             74.3061   YZ=              7.4648
 Traceless Quadrupole moment (field-independent basis, Debye-Ang):
   XX=             46.9310   YY=            -17.1788   ZZ=            -29.7521
   XY=            -14.0422   XZ=             74.3061   YZ=              7.4648
 Octapole moment (field-independent basis, Debye-Ang**2):
  XXX=           1620.6860  YYY=             -2.7622  ZZZ=             33.6924  XYY=           -344.3350
  XXY=           -589.1986  XXZ=           1294.7483  XZZ=           -315.2518  YZZ=            -20.9711
  YYZ=             12.3802  XYZ=             62.1035
 Hexadecapole moment (field-independent basis, Debye-Ang**3):
 XXXX=        -138192.9974 YYYY=         -10011.2076 ZZZZ=          -8865.4657 XXXY=         -20048.0743
 XXXZ=          49300.2593 YYYX=            -86.3353 YYYZ=             10.8882 ZZZX=            403.0557
 ZZZY=             83.3505 XXYY=         -39115.5497 XXZZ=         -41766.5490 YYZZ=          -3371.7732
 XXYZ=           2654.8993 YYXZ=            177.2762 ZZXY=           -118.8148
 N-N= 5.946100557687D+03 E-N=-1.990756553734D+04  KE= 3.411726569766D+03
                          Isotropic Fermi Contact Couplings
        Atom                 a.u.       MegaHertz       Gauss      10(-4) cm-1
     1  Fe(57)             0.16505      23.93812       8.54172       7.98490
     2  N(14)             -0.03046      -9.84111      -3.51155      -3.28264
     3  N(14)             -0.02843      -9.18604      -3.27781      -3.06413
     4  N(14)             -0.02971      -9.60075      -3.42579      -3.20246
     5  N(14)             -0.02871      -9.27490      -3.30951      -3.09377
     6  C(13)              0.00311       3.49818       1.24824       1.16687
     7  C(13)             -0.00094      -1.05461      -0.37631      -0.35178
     8  C(13)             -0.00033      -0.36760      -0.13117      -0.12262
     9  C(13)              0.00120       1.34835       0.48113       0.44976
    10  C(13)             -0.00036      -0.40972      -0.14620      -0.13667
    11  C(13)              0.00111       1.24316       0.44359       0.41467
    12  C(13)              0.00154       1.72765       0.61647       0.57628
    13  C(13)              0.00406       4.56823       1.63006       1.52380
    14  C(13)              0.00280       3.14757       1.12313       1.04992
    15  C(13)             -0.00107      -1.20416      -0.42968      -0.40167
    16  C(13)             -0.00038      -0.42783      -0.15266      -0.14271
    17  C(13)              0.00156       1.75089       0.62476       0.58403
    18  C(13)             -0.00044      -0.49059      -0.17506      -0.16364
    19  C(13)              0.00135       1.52052       0.54256       0.50719
    20  C(13)              0.00126       1.41675       0.50553       0.47258
    21  C(13)              0.00477       5.36256       1.91350       1.78876
    22  C(13)             -0.00574      -6.45139      -2.30201      -2.15195
    23  H(1)               0.00061       2.73009       0.97416       0.91066
    24  C(13)             -0.00496      -5.57356      -1.98878      -1.85914
    25  H(1)               0.00060       2.69106       0.96024       0.89764
    26  C(13)             -0.00547      -6.14775      -2.19367      -2.05067
    27  H(1)               0.00059       2.63637       0.94072       0.87940
    28  C(13)             -0.00498      -5.59662      -1.99701      -1.86683
    29  H(1)               0.00060       2.69001       0.95986       0.89729
    30  C(13)             -0.00026      -0.29427      -0.10500      -0.09816
    31  H(1)              -0.00006      -0.28164      -0.10050      -0.09395
    32  H(1)               0.00013       0.59303       0.21161       0.19781
    33  H(1)               0.00014       0.62332       0.22242       0.20792
    34  C(13)              0.00001       0.01171       0.00418       0.00391
    35  H(1)               0.00001       0.06599       0.02355       0.02201
    36  H(1)               0.00001       0.05859       0.02091       0.01955
    37  H(1)              -0.00005      -0.21012      -0.07498      -0.07009
    38  C(13)             -0.00076      -0.85366      -0.30461      -0.28475
    39  H(1)               0.00066       2.94314       1.05019       0.98173
    40  H(1)               0.00029       1.31417       0.46893       0.43836
    41  H(1)               0.00002       0.06882       0.02456       0.02296
    42  C(13)             -0.00124      -1.39128      -0.49644      -0.46408
    43  H(1)               0.00021       0.93481       0.33356       0.31182
    44  C(13)              0.00168       1.88379       0.67218       0.62836
    45  H(1)              -0.00018      -0.79500      -0.28367      -0.26518
    46  H(1)              -0.00018      -0.80567      -0.28748      -0.26874
    47  C(13)              0.00005       0.06087       0.02172       0.02030
    48  H(1)              -0.00002      -0.09074      -0.03238      -0.03027
    49  H(1)              -0.00002      -0.07037      -0.02511      -0.02347
    50  H(1)              -0.00004      -0.19525      -0.06967      -0.06513
    51  C(13)             -0.00030      -0.33549      -0.11971      -0.11191
    52  H(1)               0.00005       0.22563       0.08051       0.07526
    53  C(13)              0.00028       0.31466       0.11228       0.10496
    54  H(1)              -0.00003      -0.14195      -0.05065      -0.04735
    55  H(1)              -0.00004      -0.19866      -0.07089      -0.06627
    56  C(13)             -0.00088      -0.98554      -0.35166      -0.32874
    57  H(1)               0.00056       2.51869       0.89873       0.84015
    58  H(1)               0.00051       2.28915       0.81682       0.76358
    59  H(1)              -0.00008      -0.35115      -0.12530      -0.11713
    60  C(13)             -0.00047      -0.52956      -0.18896      -0.17664
    61  H(1)               0.00041       1.83005       0.65301       0.61044
    62  H(1)              -0.00002      -0.09323      -0.03327      -0.03110
    63  H(1)               0.00043       1.91561       0.68354       0.63898
    64  C(13)             -0.00008      -0.09105      -0.03249      -0.03037
    65  H(1)              -0.00002      -0.10134      -0.03616      -0.03380
    66  H(1)              -0.00004      -0.19855      -0.07085      -0.06623
    67  H(1)               0.00002       0.06845       0.02442       0.02283
    68  N(14)             -0.00130      -0.41972      -0.14977      -0.14000
    69  H(1)              -0.00014      -0.61886      -0.22082      -0.20643
    70  C(13)             -0.00139      -1.55906      -0.55631      -0.52005
    71  C(13)             -0.00060      -0.67261      -0.24000      -0.22436
    72  H(1)              -0.00024      -1.07937      -0.38515      -0.36004
    73  N(14)             -0.04994     -16.13700      -5.75808      -5.38272
    74  C(13)             -0.00032      -0.35574      -0.12694      -0.11866
    75  H(1)              -0.00011      -0.49599      -0.17698      -0.16544
    76  C(13)              0.00000       0.00000       0.00000       0.00000
    77  H(1)               0.00000       0.00000       0.00000       0.00000
    78  H(1)              -0.00000      -0.00000      -0.00000      -0.00000
    79  H(1)               0.00000       0.00000       0.00000       0.00000
    80  C(13)             -0.00000      -0.00000      -0.00000      -0.00000
    81  H(1)              -0.00000      -0.00000      -0.00000      -0.00000
    82  H(1)               0.00000       0.00000       0.00000       0.00000
    83  S(33)              0.00000       0.00000       0.00000       0.00000
    84  C(13)              0.00000       0.00000       0.00000       0.00000
    85  H(1)              -0.00000      -0.00000      -0.00000      -0.00000
    86  H(1)              -0.00000      -0.00000      -0.00000      -0.00000
    87  H(1)              -0.00000      -0.00000      -0.00000      -0.00000
 --------------------------------------------------------
       Center         ----  Spin Dipole Couplings  ----
                      3XX-RR        3YY-RR        3ZZ-RR
 --------------------------------------------------------
     1   Atom        1.394855      0.023466     -1.418321
     2   Atom       -0.065055      0.035611      0.029444
     3   Atom       -0.033802      0.018109      0.015694
     4   Atom       -0.025963      0.039121     -0.013158
     5   Atom       -0.008094      0.025486     -0.017393
     6   Atom        0.007920     -0.010001      0.002081
     7   Atom       -0.000697     -0.000717      0.001414
     8   Atom        0.003381     -0.004140      0.000759
     9   Atom        0.007040     -0.012008      0.004968
    10   Atom        0.007984      0.000569     -0.008553
    11   Atom        0.018332     -0.010613     -0.007719
    12   Atom        0.014720     -0.006887     -0.007833
    13   Atom        0.008441      0.003190     -0.011632
    14   Atom        0.008464     -0.009379      0.000915
    15   Atom       -0.001251     -0.000043      0.001294
    16   Atom        0.002824     -0.003755      0.000932
    17   Atom        0.007894     -0.012328      0.004434
    18   Atom        0.006059      0.000359     -0.006418
    19   Atom        0.013851     -0.011590     -0.002261
    20   Atom        0.009766     -0.006008     -0.003758
    21   Atom        0.004563      0.002725     -0.007288
    22   Atom       -0.027607      0.021489      0.006118
    23   Atom       -0.001142      0.000646      0.000495
    24   Atom       -0.030293      0.016227      0.014065
    25   Atom       -0.001428      0.000629      0.000799
    26   Atom       -0.030208      0.020804      0.009405
    27   Atom       -0.001209      0.000647      0.000561
    28   Atom       -0.023764      0.016235      0.007529
    29   Atom       -0.000861      0.000623      0.000238
    30   Atom       -0.000074     -0.000670      0.000743
    31   Atom       -0.000222     -0.000600      0.000822
    32   Atom       -0.000521     -0.000557      0.001078
    33   Atom       -0.000176     -0.000545      0.000721
    34   Atom       -0.000370     -0.000143      0.000513
    35   Atom       -0.000148     -0.000000      0.000148
    36   Atom       -0.000485      0.000046      0.000439
    37   Atom       -0.000212     -0.000328      0.000540
    38   Atom       -0.000156      0.000353     -0.000196
    39   Atom       -0.000335      0.000452     -0.000117
    40   Atom       -0.000812      0.000261      0.000551
    41   Atom       -0.000805      0.001011     -0.000206
    42   Atom       -0.001398      0.003785     -0.002387
    43   Atom       -0.000766      0.001357     -0.000591
    44   Atom       -0.000550     -0.002184      0.002733
    45   Atom       -0.000214      0.000442     -0.000228
    46   Atom       -0.000795      0.001121     -0.000326
    47   Atom       -0.000411     -0.000158      0.000569
    48   Atom       -0.000532     -0.000107      0.000639
    49   Atom       -0.000356      0.000141      0.000215
    50   Atom       -0.000248     -0.000288      0.000536
    51   Atom       -0.000784     -0.000701      0.001485
    52   Atom       -0.000156     -0.000532      0.000687
    53   Atom        0.000671     -0.000335     -0.000337
    54   Atom       -0.000343     -0.000327      0.000671
    55   Atom       -0.000188     -0.000305      0.000493
    56   Atom       -0.000395      0.000262      0.000133
    57   Atom       -0.000758      0.000342      0.000416
    58   Atom       -0.000175      0.000320     -0.000145
    59   Atom       -0.000640      0.001033     -0.000393
    60   Atom       -0.000732      0.001595     -0.000863
    61   Atom       -0.000399      0.001202     -0.000802
    62   Atom       -0.000746      0.001542     -0.000796
    63   Atom       -0.000855      0.001204     -0.000348
    64   Atom        0.000903     -0.000420     -0.000483
    65   Atom        0.001164     -0.000484     -0.000680
    66   Atom        0.000821     -0.000453     -0.000369
    67   Atom        0.001112     -0.000568     -0.000543
    68   Atom       -0.002708      0.000017      0.002691
    69   Atom        0.001063     -0.000944     -0.000119
    70   Atom        0.002333     -0.000147     -0.002186
    71   Atom        0.000020     -0.007021      0.007001
    72   Atom       -0.001085     -0.000450      0.001535
    73   Atom       -0.028754      0.020977      0.007777
    74   Atom        0.007961     -0.004952     -0.003009
    75   Atom        0.005652     -0.001028     -0.004625
    76   Atom        0.000006     -0.000003     -0.000003
    77   Atom        0.000005     -0.000003     -0.000003
    78   Atom        0.000006     -0.000003     -0.000003
    79   Atom        0.000006     -0.000003     -0.000003
    80   Atom        0.000006     -0.000003     -0.000003
    81   Atom        0.000005     -0.000003     -0.000003
    82   Atom        0.000005     -0.000003     -0.000003
    83   Atom        0.000006     -0.000003     -0.000003
    84   Atom        0.000006     -0.000003     -0.000003
    85   Atom        0.000007     -0.000003     -0.000003
    86   Atom        0.000007     -0.000003     -0.000003
    87   Atom        0.000006     -0.000003     -0.000003
 --------------------------------------------------------
                        XY            XZ            YZ
 --------------------------------------------------------
     1   Atom       -1.269171     -1.292414     -2.624817
     2   Atom        0.013351      0.015772     -0.001553
     3   Atom        0.036637      0.000756     -0.003905
     4   Atom       -0.008331      0.055006      0.008660
     5   Atom       -0.031572      0.032952      0.027771
     6   Atom       -0.000002     -0.005294      0.007048
     7   Atom        0.000830      0.000286      0.001819
     8   Atom       -0.001378     -0.002308     -0.000385
     9   Atom       -0.001282     -0.002889      0.002643
    10   Atom       -0.000199     -0.008836     -0.003954
    11   Atom        0.000450     -0.008969     -0.002501
    12   Atom        0.002711     -0.009621     -0.000552
    13   Atom        0.004965     -0.007531      0.001912
    14   Atom        0.004504     -0.003482      0.004322
    15   Atom        0.000787      0.001040      0.001677
    16   Atom        0.000131     -0.001817     -0.000989
    17   Atom        0.002480     -0.002125      0.000809
    18   Atom       -0.001903     -0.010606     -0.002968
    19   Atom       -0.001795     -0.014868     -0.001662
    20   Atom       -0.002115     -0.011826      0.001652
    21   Atom       -0.001822     -0.012926      0.005434
    22   Atom        0.004641      0.023559      0.003370
    23   Atom        0.000044      0.001112      0.000091
    24   Atom        0.001906      0.020055     -0.006183
    25   Atom        0.000290      0.000724     -0.000102
    26   Atom       -0.000294      0.019857      0.005560
    27   Atom        0.000085      0.000953      0.000101
    28   Atom       -0.005077      0.025665     -0.002956
    29   Atom       -0.000220      0.001208      0.000122
    30   Atom       -0.000154      0.000663     -0.000164
    31   Atom       -0.000011      0.000617      0.000021
    32   Atom       -0.000124      0.000469     -0.000455
    33   Atom       -0.000275      0.000817     -0.000416
    34   Atom        0.000461      0.000664      0.000865
    35   Atom        0.000610      0.000655      0.000770
    36   Atom        0.000321      0.000393      0.000887
    37   Atom        0.000270      0.000568      0.000520
    38   Atom       -0.000439      0.000154     -0.000812
    39   Atom       -0.000624      0.000533     -0.000914
    40   Atom       -0.000208      0.000192     -0.001090
    41   Atom       -0.000198      0.000010     -0.000875
    42   Atom       -0.001560      0.003401      0.002305
    43   Atom        0.000261      0.000143      0.000722
    44   Atom        0.003585     -0.007110     -0.004196
    45   Atom       -0.000316      0.000436     -0.000148
    46   Atom        0.000311     -0.000185      0.000651
    47   Atom        0.000308      0.000575      0.000867
    48   Atom        0.000199      0.000302      0.000786
    49   Atom        0.000472      0.000485      0.000840
    50   Atom        0.000274      0.000533      0.000492
    51   Atom       -0.000511      0.000662     -0.000104
    52   Atom       -0.000261      0.000827     -0.000454
    53   Atom        0.001400      0.000822      0.000227
    54   Atom       -0.000007      0.000314      0.000196
    55   Atom       -0.000027      0.000401     -0.000172
    56   Atom       -0.000263     -0.000011     -0.000951
    57   Atom       -0.000357      0.000275     -0.001080
    58   Atom       -0.000751      0.000677     -0.000889
    59   Atom       -0.000476      0.000150     -0.000880
    60   Atom        0.000492     -0.000042      0.000675
    61   Atom        0.000777      0.000245      0.000458
    62   Atom        0.000167     -0.000019      0.000082
    63   Atom        0.000152      0.000021      0.000844
    64   Atom        0.000301     -0.000221     -0.000114
    65   Atom        0.000628     -0.000296     -0.000133
    66   Atom        0.000373     -0.000657     -0.000141
    67   Atom        0.000157     -0.000326      0.000004
    68   Atom       -0.002725      0.000803     -0.004395
    69   Atom       -0.000783     -0.001580      0.000334
    70   Atom        0.000463      0.000101     -0.000550
    71   Atom       -0.004620     -0.003015     -0.005997
    72   Atom       -0.003282     -0.004369      0.004394
    73   Atom        0.000860      0.015220      0.002417
    74   Atom        0.001226     -0.000496     -0.000756
    75   Atom        0.005742      0.000563     -0.000027
    76   Atom       -0.000000     -0.000000     -0.000000
    77   Atom       -0.000000      0.000000     -0.000000
    78   Atom       -0.000001     -0.000000      0.000000
    79   Atom       -0.000000      0.000000     -0.000000
    80   Atom       -0.000000     -0.000000      0.000000
    81   Atom       -0.000000     -0.000000      0.000000
    82   Atom        0.000000     -0.000000     -0.000000
    83   Atom        0.000000     -0.000000     -0.000000
    84   Atom        0.000000      0.000000      0.000000
    85   Atom        0.000000      0.000000      0.000000
    86   Atom        0.000001      0.000000      0.000000
    87   Atom        0.000000      0.000000      0.000000
 --------------------------------------------------------


 ---------------------------------------------------------------------------------
              Anisotropic Spin Dipole Couplings in Principal Axis System
 ---------------------------------------------------------------------------------

       Atom             a.u.   MegaHertz   Gauss  10(-4) cm-1        Axes

              Baa    -4.0172   -69.550   -24.817   -23.199  0.3156  0.5846  0.7474
     1 Fe(57) Bbb     1.7937    31.055    11.081    10.359  0.6942  0.3947 -0.6019
              Bcc     2.2235    38.495    13.736    12.840 -0.6469  0.7088 -0.2813
 
              Baa    -0.0693    -2.674    -0.954    -0.892  0.9792 -0.1269 -0.1583
     2 N(14)  Bbb     0.0319     1.232     0.440     0.411  0.1447 -0.1102  0.9833
              Bcc     0.0374     1.442     0.515     0.481  0.1422  0.9858  0.0896
 
              Baa    -0.0528    -2.038    -0.727    -0.680  0.8871 -0.4601 -0.0360
     3 N(14)  Bbb     0.0153     0.591     0.211     0.197  0.0971  0.1098  0.9892
              Bcc     0.0375     1.446     0.516     0.482  0.4512  0.8810 -0.1421
 
              Baa    -0.0762    -2.938    -1.048    -0.980  0.7423  0.1034 -0.6621
     4 N(14)  Bbb     0.0356     1.374     0.490     0.458  0.6681 -0.1904  0.7193
              Bcc     0.0405     1.564     0.558     0.522  0.0517  0.9762  0.2104
 
              Baa    -0.0652    -2.516    -0.898    -0.839 -0.6160 -0.4186  0.6673
     5 N(14)  Bbb     0.0196     0.754     0.269     0.252  0.6687  0.1699  0.7239
              Bcc     0.0457     1.762     0.629     0.588 -0.4164  0.8921  0.1753
 
              Baa    -0.0135    -1.809    -0.646    -0.604 -0.1089  0.8911 -0.4405
     6 C(13)  Bbb     0.0018     0.236     0.084     0.079  0.5932  0.4138  0.6905
              Bcc     0.0117     1.574     0.562     0.525  0.7976 -0.1861 -0.5737
 
              Baa    -0.0020    -0.272    -0.097    -0.091 -0.4227  0.8154 -0.3955
     7 C(13)  Bbb    -0.0006    -0.076    -0.027    -0.025  0.8836  0.2738 -0.3798
              Bcc     0.0026     0.348     0.124     0.116  0.2014  0.5100  0.8362
 
              Baa    -0.0045    -0.606    -0.216    -0.202  0.2161  0.9624  0.1648
     8 C(13)  Bbb    -0.0003    -0.043    -0.015    -0.014  0.4445 -0.2473  0.8609
[...]
    28 C(13)  Bbb     0.0134     1.799     0.642     0.600  0.2062  0.8590  0.4686
              Bcc     0.0249     3.346     1.194     1.116  0.4422 -0.5090  0.7385
 
              Baa    -0.0017    -0.889    -0.317    -0.296  0.8362  0.1092 -0.5374
    29 H(1)   Bbb     0.0006     0.347     0.124     0.116 -0.0680  0.9931  0.0960
              Bcc     0.0010     0.542     0.193     0.181  0.5442 -0.0437  0.8378
 
              Baa    -0.0007    -0.095    -0.034    -0.032  0.2330  0.9725  0.0034
    30 C(13)  Bbb    -0.0004    -0.058    -0.021    -0.019  0.8413 -0.1998 -0.5023
              Bcc     0.0011     0.153     0.055     0.051  0.4878 -0.1199  0.8647
 
              Baa    -0.0006    -0.322    -0.115    -0.108  0.1756  0.9803 -0.0905
    31 H(1)   Bbb    -0.0005    -0.269    -0.096    -0.090  0.8900 -0.1973 -0.4110
              Bcc     0.0011     0.592     0.211     0.197  0.4208  0.0084  0.9071
 
              Baa    -0.0007    -0.360    -0.129    -0.120  0.0709  0.9699  0.2328
    32 H(1)   Bbb    -0.0006    -0.346    -0.123    -0.115  0.9645 -0.0072 -0.2638
              Bcc     0.0013     0.706     0.252     0.236  0.2542 -0.2433  0.9360
 
              Baa    -0.0007    -0.370    -0.132    -0.123  0.5996  0.7923 -0.1132
    33 H(1)   Bbb    -0.0006    -0.343    -0.122    -0.114  0.6288 -0.5538 -0.5458
              Bcc     0.0013     0.713     0.254     0.238  0.4951 -0.2561  0.8302
 
              Baa    -0.0007    -0.099    -0.035    -0.033 -0.0962  0.8422 -0.5305
    34 C(13)  Bbb    -0.0007    -0.097    -0.035    -0.032  0.9101 -0.1414 -0.3894
              Bcc     0.0015     0.197     0.070     0.066  0.4030  0.5203  0.7529
 
              Baa    -0.0007    -0.375    -0.134    -0.125 -0.2688  0.8080 -0.5244
    35 H(1)   Bbb    -0.0007    -0.358    -0.128    -0.119  0.8189 -0.0949 -0.5660
              Bcc     0.0014     0.733     0.261     0.244  0.5070  0.5815  0.6362
 
              Baa    -0.0007    -0.356    -0.127    -0.119 -0.1004  0.7930 -0.6009
    36 H(1)   Bbb    -0.0006    -0.335    -0.120    -0.112  0.9565 -0.0893 -0.2776
              Bcc     0.0013     0.691     0.247     0.231  0.2738  0.6026  0.7496
 
              Baa    -0.0006    -0.305    -0.109    -0.102 -0.0663  0.9165 -0.3945
    37 H(1)   Bbb    -0.0005    -0.275    -0.098    -0.092  0.8977 -0.1178 -0.4245
              Bcc     0.0011     0.580     0.207     0.193  0.4355  0.3824  0.8149
 
              Baa    -0.0008    -0.109    -0.039    -0.036  0.2347  0.6145  0.7532
    38 C(13)  Bbb    -0.0003    -0.038    -0.014    -0.013  0.9113  0.1305 -0.3904
              Bcc     0.0011     0.147     0.052     0.049 -0.3382  0.7781 -0.5293
 
              Baa    -0.0008    -0.435    -0.155    -0.145 -0.3938  0.4022  0.8265
    39 H(1)   Bbb    -0.0007    -0.361    -0.129    -0.120  0.8232  0.5544  0.1223
              Bcc     0.0015     0.796     0.284     0.266 -0.4090  0.7286 -0.5494
 
              Baa    -0.0009    -0.454    -0.162    -0.152  0.9757  0.2163  0.0344
    40 H(1)   Bbb    -0.0007    -0.367    -0.131    -0.122 -0.1838  0.7236  0.6652
              Bcc     0.0015     0.821     0.293     0.274  0.1190 -0.6554  0.7458
 
              Baa    -0.0009    -0.456    -0.163    -0.152  0.9165  0.2451  0.3160
    41 H(1)   Bbb    -0.0006    -0.335    -0.119    -0.112 -0.3921  0.3959  0.8304
              Bcc     0.0015     0.791     0.282     0.264 -0.0785  0.8850 -0.4590
 
              Baa    -0.0061    -0.819    -0.292    -0.273 -0.6212 -0.2696  0.7358
    42 C(13)  Bbb     0.0015     0.203     0.072     0.068  0.7777 -0.0963  0.6212
              Bcc     0.0046     0.616     0.220     0.205 -0.0966  0.9582  0.2695
 
              Baa    -0.0009    -0.465    -0.166    -0.155 -0.6070 -0.1797  0.7741
    43 H(1)   Bbb    -0.0008    -0.406    -0.145    -0.135  0.7854 -0.2845  0.5498
              Bcc     0.0016     0.871     0.311     0.290  0.1214  0.9417  0.3138
 
              Baa    -0.0062    -0.835    -0.298    -0.279  0.8013 -0.0982  0.5901
    44 C(13)  Bbb    -0.0045    -0.606    -0.216    -0.202 -0.1612  0.9145  0.3711
              Bcc     0.0107     1.442     0.514     0.481 -0.5761 -0.3925  0.7170
 
              Baa    -0.0007    -0.358    -0.128    -0.119  0.7270  0.1166 -0.6767
    45 H(1)   Bbb    -0.0000    -0.007    -0.002    -0.002  0.5111  0.5662  0.6466
              Bcc     0.0007     0.365     0.130     0.122 -0.4586  0.8160 -0.3520
 
              Baa    -0.0010    -0.536    -0.191    -0.179  0.8311 -0.2703  0.4861
    46 H(1)   Bbb    -0.0004    -0.208    -0.074    -0.069 -0.5465 -0.2339  0.8042
              Bcc     0.0014     0.744     0.265     0.248  0.1036  0.9339  0.3421
 
              Baa    -0.0008    -0.103    -0.037    -0.034  0.4197  0.6674 -0.6151
    47 C(13)  Bbb    -0.0006    -0.083    -0.030    -0.028  0.8412 -0.5406 -0.0126
              Bcc     0.0014     0.185     0.066     0.062  0.3409  0.5122  0.7883
 
              Baa    -0.0006    -0.327    -0.117    -0.109  0.7564 -0.6204  0.2075
    48 H(1)   Bbb    -0.0006    -0.320    -0.114    -0.107  0.6218  0.5835 -0.5223
              Bcc     0.0012     0.646     0.231     0.216  0.2030  0.5241  0.8271
 
              Baa    -0.0007    -0.354    -0.126    -0.118 -0.1537  0.7552 -0.6372
    49 H(1)   Bbb    -0.0006    -0.337    -0.120    -0.112  0.9125 -0.1388 -0.3847
              Bcc     0.0013     0.691     0.247     0.231  0.3790  0.6406  0.6678
 
              Baa    -0.0005    -0.290    -0.103    -0.097 -0.7061  0.7076  0.0265
    50 H(1)   Bbb    -0.0005    -0.267    -0.095    -0.089  0.5695  0.5897 -0.5727
              Bcc     0.0010     0.557     0.199     0.186  0.4209  0.3893  0.8193
 
              Baa    -0.0013    -0.177    -0.063    -0.059  0.7755  0.6107 -0.1601
    51 C(13)  Bbb    -0.0004    -0.049    -0.017    -0.016 -0.5674  0.7855  0.2471
              Bcc     0.0017     0.226     0.081     0.076  0.2767 -0.1008  0.9557
 
              Baa    -0.0007    -0.366    -0.131    -0.122 -0.3074  0.8329  0.4603
    52 H(1)   Bbb    -0.0007    -0.349    -0.125    -0.116  0.8088  0.4835 -0.3348
              Bcc     0.0013     0.715     0.255     0.239  0.5014 -0.2693  0.8222
 
              Baa    -0.0014    -0.190    -0.068    -0.063 -0.6113  0.7266  0.3137
    53 C(13)  Bbb    -0.0005    -0.071    -0.025    -0.024 -0.0815 -0.4521  0.8882
              Bcc     0.0019     0.261     0.093     0.087  0.7872  0.5174  0.3356
 
              Baa    -0.0005    -0.249    -0.089    -0.083  0.8203  0.4810 -0.3094
    54 H(1)   Bbb    -0.0003    -0.174    -0.062    -0.058 -0.5085  0.8610 -0.0094
              Bcc     0.0008     0.422     0.151     0.141  0.2619  0.1650  0.9509
 
              Baa    -0.0004    -0.216    -0.077    -0.072  0.7245 -0.5407 -0.4275
    55 H(1)   Bbb    -0.0003    -0.161    -0.057    -0.054  0.5557  0.8251 -0.1018
              Bcc     0.0007     0.377     0.135     0.126  0.4078 -0.1638  0.8983
 
              Baa    -0.0008    -0.112    -0.040    -0.038  0.4025  0.6520  0.6426
    56 C(13)  Bbb    -0.0003    -0.045    -0.016    -0.015  0.9077 -0.1933 -0.3724
              Bcc     0.0012     0.157     0.056     0.053 -0.1186  0.7332 -0.6696
 
              Baa    -0.0009    -0.464    -0.165    -0.155  0.9164  0.3807  0.1240
    57 H(1)   Bbb    -0.0007    -0.361    -0.129    -0.120 -0.3524  0.6199  0.7011
              Bcc     0.0015     0.825     0.294     0.275  0.1900 -0.6862  0.7022
 
              Baa    -0.0009    -0.464    -0.166    -0.155 -0.4359  0.3456  0.8310
    58 H(1)   Bbb    -0.0007    -0.381    -0.136    -0.127  0.7500  0.6499  0.1231
              Bcc     0.0016     0.846     0.302     0.282 -0.4975  0.6769 -0.5425
 
              Baa    -0.0009    -0.457    -0.163    -0.152  0.5286  0.4643  0.7106
    59 H(1)   Bbb    -0.0007    -0.378    -0.135    -0.126  0.8201 -0.0634 -0.5687
              Bcc     0.0016     0.834     0.298     0.278 -0.2190  0.8834 -0.4143
 
              Baa    -0.0011    -0.150    -0.054    -0.050  0.4595 -0.2917  0.8389
    60 C(13)  Bbb    -0.0007    -0.098    -0.035    -0.033  0.8701 -0.0416 -0.4911
              Bcc     0.0019     0.249     0.089     0.083  0.1782  0.9556  0.2347
 
              Baa    -0.0009    -0.494    -0.176    -0.165 -0.3046 -0.0926  0.9480
    61 H(1)   Bbb    -0.0007    -0.374    -0.133    -0.125  0.8768 -0.4161  0.2410
              Bcc     0.0016     0.868     0.310     0.289  0.3722  0.9046  0.2080
 
              Baa    -0.0008    -0.433    -0.154    -0.144  0.4235 -0.0614  0.9038
    62 H(1)   Bbb    -0.0007    -0.398    -0.142    -0.133  0.9030 -0.0507 -0.4266
              Bcc     0.0016     0.831     0.296     0.277  0.0720  0.9968  0.0339
 
              Baa    -0.0009    -0.467    -0.167    -0.156  0.9651 -0.1558  0.2103
    63 H(1)   Bbb    -0.0007    -0.378    -0.135    -0.126 -0.2547 -0.3735  0.8920
              Bcc     0.0016     0.844     0.301     0.282  0.0605  0.9145  0.4001
 
              Baa    -0.0006    -0.076    -0.027    -0.026 -0.0079  0.6171  0.7869
    64 C(13)  Bbb    -0.0004    -0.059    -0.021    -0.020 -0.2684  0.7567 -0.5961
              Bcc     0.0010     0.135     0.048     0.045  0.9633  0.2159 -0.1596
 
              Baa    -0.0007    -0.399    -0.142    -0.133 -0.0414  0.5266  0.8491
    65 H(1)   Bbb    -0.0007    -0.361    -0.129    -0.121 -0.3501  0.7883 -0.5059
              Bcc     0.0014     0.760     0.271     0.254  0.9358  0.3182 -0.1517
 
              Baa    -0.0007    -0.354    -0.126    -0.118  0.4351 -0.1786  0.8825
    66 H(1)   Bbb    -0.0005    -0.290    -0.104    -0.097 -0.1361  0.9558  0.2605
              Bcc     0.0012     0.645     0.230     0.215  0.8901  0.2335 -0.3915
 
              Baa    -0.0006    -0.336    -0.120    -0.112  0.2003 -0.5767  0.7920
    67 H(1)   Bbb    -0.0006    -0.298    -0.106    -0.099  0.0372  0.8123  0.5821
              Bcc     0.0012     0.633     0.226     0.211  0.9790  0.0872 -0.1842
 
              Baa    -0.0049    -0.190    -0.068    -0.063  0.6936  0.6531  0.3039
    68 N(14)  Bbb    -0.0016    -0.062    -0.022    -0.021  0.6771 -0.4471 -0.5845
              Bcc     0.0065     0.252     0.090     0.084  0.2458 -0.6112  0.7523
 
              Baa    -0.0014    -0.723    -0.258    -0.241  0.5594  0.6228  0.5470
    69 H(1)   Bbb    -0.0010    -0.542    -0.193    -0.181 -0.2043  0.7431 -0.6372
              Bcc     0.0024     1.264     0.451     0.422  0.8033 -0.2447 -0.5430
 
              Baa    -0.0023    -0.313    -0.112    -0.104 -0.0460  0.2528  0.9664
    70 C(13)  Bbb    -0.0001    -0.011    -0.004    -0.004 -0.1714  0.9511 -0.2570
              Bcc     0.0024     0.324     0.116     0.108  0.9841  0.1775  0.0004
 
              Baa    -0.0117    -1.572    -0.561    -0.524  0.4186  0.8431  0.3376
    71 C(13)  Bbb     0.0023     0.310     0.111     0.103  0.8949 -0.4463  0.0047
              Bcc     0.0094     1.262     0.450     0.421 -0.1546 -0.3001  0.9413
 
              Baa    -0.0043    -2.314    -0.826    -0.772  0.8081  0.0168  0.5888
    72 H(1)   Bbb    -0.0039    -2.086    -0.744    -0.696  0.3027  0.8457 -0.4396
              Bcc     0.0082     4.399     1.570     1.467 -0.5053  0.5335  0.6783
 
              Baa    -0.0343    -1.321    -0.472    -0.441  0.9403  0.0003 -0.3404
    73 N(14)  Bbb     0.0125     0.482     0.172     0.161  0.3259 -0.2900  0.8998
              Bcc     0.0218     0.839     0.299     0.280  0.0985  0.9570  0.2727
 
              Baa    -0.0053    -0.710    -0.253    -0.237 -0.0769  0.9512  0.2987
    74 C(13)  Bbb    -0.0028    -0.378    -0.135    -0.126  0.0772 -0.2930  0.9530
              Bcc     0.0081     1.088     0.388     0.363  0.9940  0.0963 -0.0509
 
              Baa    -0.0048    -2.576    -0.919    -0.859 -0.2857  0.4379  0.8524
    75 H(1)   Bbb    -0.0041    -2.211    -0.789    -0.738 -0.4089  0.7488 -0.5217
              Bcc     0.0090     4.787     1.708     1.597  0.8667  0.4976  0.0349
 
              Baa    -0.0000    -0.000    -0.000    -0.000  0.0095  0.1822  0.9832
    76 C(13)  Bbb    -0.0000    -0.000    -0.000    -0.000  0.0420  0.9823 -0.1825
              Bcc     0.0000     0.001     0.000     0.000  0.9991 -0.0430 -0.0017
 
              Baa    -0.0000    -0.001    -0.001    -0.000  0.0076  0.1859  0.9825
    77 H(1)   Bbb    -0.0000    -0.001    -0.001    -0.000  0.0595  0.9808 -0.1860
              Bcc     0.0000     0.003     0.001     0.001  0.9982 -0.0599  0.0037
 
              Baa    -0.0000    -0.002    -0.001    -0.001  0.0293  0.1860  0.9821
    78 H(1)   Bbb    -0.0000    -0.002    -0.001    -0.001  0.0533  0.9808 -0.1874
              Bcc     0.0000     0.003     0.001     0.001  0.9981 -0.0578 -0.0189
 
              Baa    -0.0000    -0.002    -0.001    -0.001 -0.0171  0.1797  0.9836
    79 H(1)   Bbb    -0.0000    -0.002    -0.001    -0.001  0.0403  0.9830 -0.1789
              Bcc     0.0000     0.003     0.001     0.001  0.9990 -0.0366  0.0240
 
              Baa    -0.0000    -0.000    -0.000    -0.000  0.0218  0.1758  0.9842
    80 C(13)  Bbb    -0.0000    -0.000    -0.000    -0.000  0.0059  0.9844 -0.1759
              Bcc     0.0000     0.001     0.000     0.000  0.9997 -0.0097 -0.0204
 
              Baa    -0.0000    -0.001    -0.001    -0.000  0.0468  0.1784  0.9829
    81 H(1)   Bbb    -0.0000    -0.001    -0.001    -0.000  0.0082  0.9838 -0.1789
              Bcc     0.0000     0.003     0.001     0.001  0.9989 -0.0165 -0.0446
 
              Baa    -0.0000    -0.001    -0.000    -0.000  0.0028  0.1717  0.9851
    82 H(1)   Bbb    -0.0000    -0.001    -0.000    -0.000 -0.0056  0.9851 -0.1717
              Bcc     0.0000     0.003     0.001     0.001  1.0000  0.0050 -0.0037
 
              Baa    -0.0000    -0.000    -0.000    -0.000  0.0306  0.1698  0.9850
    83 S(33)  Bbb    -0.0000    -0.000    -0.000    -0.000 -0.0270  0.9853 -0.1690
              Bcc     0.0000     0.000     0.000     0.000  0.9992  0.0214 -0.0348
 
              Baa    -0.0000    -0.000    -0.000    -0.000 -0.0164  0.1627  0.9865
    84 C(13)  Bbb    -0.0000    -0.000    -0.000    -0.000 -0.0384  0.9858 -0.1632
              Bcc     0.0000     0.001     0.000     0.000  0.9991  0.0406  0.0099
 
              Baa    -0.0000    -0.002    -0.001    -0.001 -0.0302  0.1664  0.9856
    85 H(1)   Bbb    -0.0000    -0.002    -0.001    -0.001 -0.0146  0.9859 -0.1669
              Bcc     0.0000     0.004     0.001     0.001  0.9994  0.0194  0.0274
 
              Baa    -0.0000    -0.002    -0.001    -0.001 -0.0148  0.1578  0.9874
    86 H(1)   Bbb    -0.0000    -0.002    -0.001    -0.001 -0.0621  0.9854 -0.1584
              Bcc     0.0000     0.004     0.001     0.001  0.9980  0.0637  0.0048
 
              Baa    -0.0000    -0.002    -0.001    -0.001 -0.0306  0.1595  0.9867
    87 H(1)   Bbb    -0.0000    -0.002    -0.001    -0.001 -0.0463  0.9859 -0.1608
              Bcc     0.0000     0.003     0.001     0.001  0.9985  0.0506  0.0228
 

 ---------------------------------------------------------------------------------

 Unable to Open any file for archive entry.
 1\1\GINC-BGN1030\SP\UAPFD\Gen\C37H42Fe1N6S1(1+,2)\BECSLEIP\10-Sep-2024
 \0\\# apfd/gen scf=maxcycle=999 geom=check\\2zon_III_D\\1,2\Fe,0,-8.01
 15538327,10.1361322127,-4.8317901647\N,0,-9.2545650572,10.3880765909,-
 3.3090170799\N,0,-9.5694349259,9.9103799209,-6.0745933765\N,0,-6.78620
 52955,9.9818403955,-6.4006001706\N,0,-6.4634412329,10.3721407322,-3.62
 15742083\C,0,-8.9281895358,10.7448923205,-2.0352969119\C,0,-10.1132948
 048,10.8759792723,-1.2184031989\C,0,-11.1671102786,10.5772288152,-2.02
 4266423\C,0,-10.6131110826,10.290050705,-3.3284047394\C,0,-10.88356511
 64,9.8387595699,-5.7194870269\C,0,-11.7262444033,9.7115730462,-6.88001
 78958\C,0,-10.8923873551,9.7371835477,-7.96591693\C,0,-9.5479700876,9.
 8378135289,-7.4329396875\C,0,-7.1187798066,9.8996542276,-7.7205094073\
 C,0,-5.9426463012,9.7939994068,-8.5445050601\C,0,-4.8729472521,9.80942
 07497,-7.6900294619\C,0,-5.4273305184,9.9310844587,-6.3564803743\C,0,-
 5.1469418377,10.2562986778,-3.9452368896\C,0,-4.3117111227,10.52143296
 07,-2.7956693037\C,0,-5.1550212,10.8175912919,-1.7702002661\C,0,-6.494
 3945876,10.7072593814,-2.3015682066\C,0,-7.6411898702,10.9048847743,-1
 .5562245476\H,0,-7.5235364573,11.1860155322,-0.5208863134\C,0,-11.3748
 288708,9.9704318109,-4.4326139921\H,0,-12.443393391,9.9045400346,-4.29
 74319494\C,0,-8.4103512594,9.8650648716,-8.2138778441\H,0,-8.534999886
 2,9.8327387389,-9.2850785774\C,0,-4.6567774763,10.0082098546,-5.212278
 3508\H,0,-3.5852987446,9.9492034283,-5.3260112736\C,0,-12.6225484805,1
 0.5519300609,-1.705842029\H,0,-12.7935137666,10.7865432368,-0.65813750
 54\H,0,-13.0429341822,9.567027414,-1.9104107497\H,0,-13.1593116608,11.
 2812621854,-2.3127373317\C,0,-10.1028077418,11.2639312055,0.2204731247
 \H,0,-9.6262382694,12.2355139667,0.3502034708\H,0,-9.5490017855,10.534
 3670267,0.8123966509\H,0,-11.1151875779,11.3243554361,0.6119184232\C,0
 ,-13.2047442428,9.5405410142,-6.8503832968\H,0,-13.7057857217,10.50302
 69818,-6.7354389946\H,0,-13.5018187286,8.903766781,-6.0183523015\H,0,-
 13.5457874608,9.085152911,-7.7779448545\C,0,-11.2180105927,9.645402954
 1,-9.3720623311\H,0,-10.4875858344,9.1374471125,-9.9912093826\C,0,-12.
 3139385246,10.1352337421,-9.9423628229\H,0,-13.0490004145,10.691319827
 2,-9.3874912258\H,0,-12.4989434505,10.0200526127,-10.9974660885\C,0,-5
 .9448213055,9.6271610181,-10.0238933\H,0,-6.0784484706,10.5882971436,-
 10.5227879547\H,0,-6.7544860112,8.9698780387,-10.3377932429\H,0,-5.000
 6738511,9.1973505357,-10.3519988866\C,0,-3.4611545653,9.7088797251,-7.
 9906456802\H,0,-2.8630309308,9.1781840711,-7.2587394154\C,0,-2.8659430
 085,10.2142991951,-9.0657797759\H,0,-3.4021661019,10.7915984444,-9.798
 5490866\H,0,-1.809068338,10.0911087084,-9.2352507628\C,0,-2.8223238222
 ,10.4820218688,-2.8127780708\H,0,-2.428240554,11.2339120074,-3.4968503
 082\H,0,-2.4684257652,9.5055701293,-3.1438674849\H,0,-2.418453205,10.6
 757653808,-1.8221270331\C,0,-4.8381330058,11.1886270862,-0.3619874176\
 H,0,-5.2449950271,12.1718787465,-0.125730149\H,0,-3.7632290388,11.2161
 846563,-0.2020992007\H,0,-5.2706517326,10.4683220626,0.3332122628\C,0,
 -7.9511678453,4.5680097177,-5.4263564497\H,0,-8.0470984754,4.611830053
 5,-6.5065383874\H,0,-8.7891043791,3.9992175318,-5.0238525836\H,0,-7.03
 04831048,4.0401774221,-5.1785405096\N,0,-7.8242633299,6.1983777183,-3.
 5303714178\H,0,-7.7460075116,5.5036604097,-2.8056774074\C,0,-7.9343171
 272,5.945212436,-4.8721799773\C,0,-7.8391762301,7.5391200723,-3.362313
 9446\H,0,-7.7677866461,8.0252062566,-2.4104126331\N,0,-7.9520831115,8.
 1538936472,-4.5170763404\C,0,-8.0125624735,7.1723565293,-5.4659139051\
 H,0,-8.1075747174,7.412779284,-6.5051012824\C,0,5.6163277315,-24.16400
 06891,-8.591154465\H,0,6.4735278559,-24.7763327524,-8.3176009387\H,0,5
 .2661359602,-23.638070872,-7.7060517462\H,0,5.9413942544,-23.430167341
 9,-9.3254082208\C,0,4.5129239588,-25.0423440231,-9.1496035831\H,0,4.20
 89728495,-25.7919084291,-8.4197939114\H,0,4.8228137404,-25.54445911,-1
 0.0668423724\S,0,2.9833947966,-24.1177780172,-9.5208733304\C,0,3.50610
 71503,-23.2165544193,-11.0072963451\H,0,4.2672603098,-22.4848390076,-1
 0.753064412\H,0,2.6250608076,-22.7119549716,-11.3891298822\H,0,3.87932
 95672,-23.9222261995,-11.7444229516\\Version=ES64L-G16RevC.02\State=2-
 A\HF=-3423.9338428\S2=0.995141\S2-1=0.\S2A=0.757307\RMSD=9.706e-10\Dip
 ole=-2.0457176,5.507936,1.8631337\Quadrupole=13.9370613,-10.99625,-2.9
 408113,-53.6776747,-14.0900071,29.7487171\PG=C01 [X(C37H42Fe1N6S1)]\\@
 The archive entry for this job was punched.


 I LOVE THOSE WHO LONG FOR THE IMPOSSIBLE.

                                 -- GOETHE
 Job cpu time:       0 days  5 hours 51 minutes 24.8 seconds.
 Elapsed time:       0 days  0 hours  6 minutes 11.9 seconds.
 File lengths (MBytes):  RWF=    505 Int=      0 D2E=      0 Chk=    227 Scr=      1
 Normal termination of Gaussian 16 at Tue Sep 10 13:33:51 2024.
