 Entering Gaussian System, Link 0=g16
 Input=3cp501.com
 Output=3cp501.log
 Initial command:
 /sw/chem/gaussian/g16_C02/a100/g16/l1.exe "/local/bebzhart_7933154/Gau-1086481.inp" -scrdir="/local/bebzhart_7933154/"
 Entering Link 1 = /sw/chem/gaussian/g16_C02/a100/g16/l1.exe PID=   1086482.
  
 Copyright (c) 1988-2021, Gaussian, Inc.  All Rights Reserved.
  
 This is part of the Gaussian(R) 16 program.  It is based on
 the Gaussian(R) 09 system (copyright 2009, Gaussian, Inc.),
 the Gaussian(R) 03 system (copyright 2003, Gaussian, Inc.),
 the Gaussian(R) 98 system (copyright 1998, Gaussian, Inc.),
 the Gaussian(R) 94 system (copyright 1995, Gaussian, Inc.),
 the Gaussian 92(TM) system (copyright 1992, Gaussian, Inc.),
 the Gaussian 90(TM) system (copyright 1990, Gaussian, Inc.),
 the Gaussian 88(TM) system (copyright 1988, Gaussian, Inc.),
 the Gaussian 86(TM) system (copyright 1986, Carnegie Mellon
 University), and the Gaussian 82(TM) system (copyright 1983,
 Carnegie Mellon University). Gaussian is a federally registered
 trademark of Gaussian, Inc.
  
 This software contains proprietary and confidential information,
 including trade secrets, belonging to Gaussian, Inc.
  
 This software is provided under written license and may be
 used, copied, transmitted, or stored only in accord with that
 written license.
  
 The following legend is applicable only to US Government
 contracts under FAR:
  
                    RESTRICTED RIGHTS LEGEND
  
 Use, reproduction and disclosure by the US Government is
 subject to restrictions as set forth in subparagraphs (a)
 and (c) of the Commercial Computer Software - Restricted
 Rights clause in FAR 52.227-19.
  
 Gaussian, Inc.
 340 Quinnipiac St., Bldg. 40, Wallingford CT 06492
  
  
 ---------------------------------------------------------------
 Warning -- This program may not be used in any manner that
 competes with the business of Gaussian, Inc. or will provide
 assistance to any competitor of Gaussian, Inc.  The licensee
 of this program is prohibited from giving any competitor of
 Gaussian, Inc. access to this program.  By using this program,
 the user acknowledges that Gaussian, Inc. is engaged in the
 business of creating and licensing software in the field of
 computational chemistry and represents and warrants to the
 licensee that it is not a competitor of Gaussian, Inc. and that
 it will not use this program in any manner prohibited above.
 ---------------------------------------------------------------
  

 Cite this work as:
 Gaussian 16, Revision C.02,
 M. J. Frisch, G. W. Trucks, H. B. Schlegel, G. E. Scuseria, 
 M. A. Robb, J. R. Cheeseman, G. Scalmani, V. Barone, 
 G. A. Petersson, H. Nakatsuji, X. Li, M. Caricato, A. V. Marenich, 
 J. Bloino, B. G. Janesko, R. Gomperts, B. Mennucci, H. P. Hratchian, 
 J. V. Ortiz, A. F. Izmaylov, J. L. Sonnenberg, D. Williams-Young, 
 F. Ding, F. Lipparini, F. Egidi, J. Goings, B. Peng, A. Petrone, 
 T. Henderson, D. Ranasinghe, V. G. Zakrzewski, J. Gao, N. Rega, 
 G. Zheng, W. Liang, M. Hada, M. Ehara, K. Toyota, R. Fukuda, 
 J. Hasegawa, M. Ishida, T. Nakajima, Y. Honda, O. Kitao, H. Nakai, 
 T. Vreven, K. Throssell, J. A. Montgomery, Jr., J. E. Peralta, 
 F. Ogliaro, M. J. Bearpark, J. J. Heyd, E. N. Brothers, K. N. Kudin, 
 V. N. Staroverov, T. A. Keith, R. Kobayashi, J. Normand, 
 K. Raghavachari, A. P. Rendell, J. C. Burant, S. S. Iyengar, 
 J. Tomasi, M. Cossi, J. M. Millam, M. Klene, C. Adamo, R. Cammi, 
 J. W. Ochterski, R. L. Martin, K. Morokuma, O. Farkas, 
 J. B. Foresman, and D. J. Fox, Gaussian, Inc., Wallingford CT, 2019.
 
 ******************************************
 Gaussian 16:  ES64L-G16RevC.02  7-Dec-2021
                14-Jul-2024 
 ******************************************
 %mem=16GB
 %CPU=0-71
 SetSPE:  set environment variable "OMP_PROC_BIND" = "true"
 SetSPE:  set environment variable "OMP_PLACES" = "{0},{1},{2},{3},{4},{5},{6},{7},{8},{9},{10},{11},{12},{13},{14},{15},{16},{17},{18},{19},{20},{21},{22},{23},{24},{25},{26},{27},{28},{29},{30},{31},{32},{33},{34},{35},{36},{37},{38},{39},{40},{41},{42},{43},{44},{45},{46},{47},{48},{49},{50},{51},{52},{53},{54},{55},{56},{57},{58},{59},{60},{61},{62},{63},{64},{65},{66},{67},{68},{69},{70},{71}"
 Will use up to   72 processors via shared memory.
 %gpucpu=0,1,2,3=0,1,2,3
 Will use    4 GPUs:
 Thread  CPU   GPU
      0    0     0
      1    1     1
      2    2     2
      3    3     3
      4    4    -1
      5    5    -1
      6    6    -1
      7    7    -1
      8    8    -1
      9    9    -1
     10   10    -1
     11   11    -1
     12   12    -1
     13   13    -1
     14   14    -1
     15   15    -1
     16   16    -1
     17   17    -1
     18   18    -1
     19   19    -1
     20   20    -1
     21   21    -1
     22   22    -1
     23   23    -1
     24   24    -1
     25   25    -1
     26   26    -1
     27   27    -1
     28   28    -1
     29   29    -1
     30   30    -1
     31   31    -1
     32   32    -1
     33   33    -1
     34   34    -1
     35   35    -1
     36   36    -1
     37   37    -1
     38   38    -1
     39   39    -1
     40   40    -1
     41   41    -1
     42   42    -1
     43   43    -1
     44   44    -1
     45   45    -1
     46   46    -1
     47   47    -1
     48   48    -1
     49   49    -1
     50   50    -1
     51   51    -1
     52   52    -1
     53   53    -1
     54   54    -1
     55   55    -1
     56   56    -1
     57   57    -1
     58   58    -1
     59   59    -1
     60   60    -1
     61   61    -1
     62   62    -1
     63   63    -1
     64   64    -1
     65   65    -1
     66   66    -1
     67   67    -1
     68   68    -1
     69   69    -1
     70   70    -1
     71   71    -1
 SetGPE:  set environment variable "OMP_PROC_BIND" = "true"
 SetGPE:  set environment variable "OMP_PLACES" = "{0},{1},{2},{3},{4},{5},{6},{7},{8},{9},{10},{11},{12},{13},{14},{15},{16},{17},{18},{19},{20},{21},{22},{23},{24},{25},{26},{27},{28},{29},{30},{31},{32},{33},{34},{35},{36},{37},{38},{39},{40},{41},{42},{43},{44},{45},{46},{47},{48},{49},{50},{51},{52},{53},{54},{55},{56},{57},{58},{59},{60},{61},{62},{63},{64},{65},{66},{67},{68},{69},{70},{71}"
 %chk=3cp5_II_O.chk
 Properties for Device   0
 Minimum vector length:                              32
 Maximum vector length:                            1024
 Number of SMPs:                                    108
 Maximum number of threads per SMP:                2048
 Number of ASync Engines:                             5
 Memory:                                           9207742464
 Properties for Device   1
 Minimum vector length:                              32
 Maximum vector length:                            1024
 Number of SMPs:                                    108
 Maximum number of threads per SMP:                2048
 Number of ASync Engines:                             5
 Memory:                                           9207742464
 Properties for Device   2
 Minimum vector length:                              32
 Maximum vector length:                            1024
 Number of SMPs:                                    108
 Maximum number of threads per SMP:                2048
 Number of ASync Engines:                             5
 Memory:                                           9207742464
 Properties for Device   3
 Minimum vector length:                              32
 Maximum vector length:                            1024
 Number of SMPs:                                    108
 Maximum number of threads per SMP:                2048
 Number of ASync Engines:                             5
 Memory:                                           9207742464
   8286968217 words of memory will be used on each GPU.
 ------------------------------------------
 # polar def2tzvp apfd int=(grid=ultrafine)
 ------------------------------------------
 1/38=1,172=1/1;
 2/12=2,17=6,18=5,40=1/2;
 3/5=44,7=101,11=2,25=1,30=1,74=-44,75=-5/1,2,3;
 4//1;
 5/5=2,38=5,98=1/2;
 8/6=4,10=90,11=11/1;
 10/6=1,13=10/2;
 6/7=2,8=2,9=2,10=2,28=1/1;
 99/5=1,9=1/99;
 ---------
 3cp5_II_S
 ---------
 Symbolic Z-matrix:
 Charge =  0 Multiplicity = 1
 Fe                    6.28343   17.29947   34.99548 
 N                     6.53723   15.75527   33.75935 
 N                     8.20364   17.78171   34.7897 
 N                     6.03177   18.86852   36.20532 
 N                     4.33472   16.89215   35.11702 
 C                     5.58139   14.88856   33.3315 
 C                     6.17139   13.8248   32.54912 
 C                     7.51141   14.05636   32.54118 
 C                     7.71649   15.27866   33.28655 
 C                     9.15936   17.05885   34.15204 
 C                     10.44228   17.72171   34.23855 
 C                     10.21657   18.90561   34.8682 
 C                     8.81825   18.90544   35.23954 
 C                     6.92029   19.86089   36.4581 
 C                     6.37297   20.80959   37.40636 
 C                     5.09397   20.39108   37.66454 
 C                     4.89901   19.19263   36.89031 
 C                     3.41852   17.49819   35.91336 
 C                     2.09316   16.96173   35.67016 
 C                     2.24508   16.02068   34.68598 
 C                     3.64874   15.98912   34.36515 
 C                     4.22782   15.00838   33.57683 
 H                     3.57171   14.28175   33.12236 
 C                     8.9524    15.86554   33.4859 
 H                     9.81251   15.37947   33.05148 
 C                     8.21753   19.9072   35.9771 
 H                     8.82727   20.7522   36.25791 
 C                     3.68915   18.52448   36.7984 
 H                     2.87784   18.87947   37.41554 
 C                     5.40041   12.7095   31.93022 
 H                     4.66126   13.09724   31.22862 
 H                     4.87272   12.13719   32.69377 
 H                     6.06116   12.03413   31.39229 
 C                     8.6026    13.272    31.89708 
 H                     9.3291    12.94837   32.64243 
 H                     9.12617   13.87628   31.15546 
 H                     8.20477   12.39025   31.40071 
 C                     1.19589   15.22042   33.99643 
 H                     1.1151    14.22335   34.43337 
 H                     1.43307   15.10776   32.93955 
 H                     0.22943   15.71253   34.08779 
 C                     0.89008   17.39578   36.34397 
 H                     0.87405   18.43495   36.65215 
 C                    -0.16318   16.63099   36.61382 
 H                    -0.18634   15.58188   36.3765 
 H                    -1.03376   17.02706   37.10988 
 C                     4.06139   21.04669   38.51378 
 H                     3.99152   20.56162   39.48913 
 H                     3.08124   20.99375   38.0419 
 H                     4.31575   22.09329   38.66805 
 C                     7.07416   21.97012   37.9077 
 H                     7.76863   22.43327   37.21609 
 C                     6.94077   22.48388   39.12626 
 H                     6.30438   22.03718   39.87019 
 H                     7.48888   23.35978   39.43161 
 C                     11.17542   19.99613   35.20327 
 H                     11.26795   20.10794   36.28403 
 H                     10.83186   20.94629   34.79379 
 H                     12.16063   19.78381   34.79527 
 C                     11.70887   17.18086   33.66907 
 H                     12.54719   17.83244   33.90308 
 H                     11.63772   17.08921   32.58441 
 H                     11.91756   16.19264   34.0782 
 C                     4.13814   21.06016   31.47763 
 H                     4.75072   21.92608   31.22668 
 H                     3.36005   21.37259   32.16697 
 H                     3.66945   20.69761   30.56278 
 N                     6.01745   19.40441   31.46423 
 H                     6.33614   19.62054   30.53391 
 C                     4.96091   19.99602   32.10619 
 C                     6.54576   18.48669   32.30427 
 H                     7.38694   17.86818   32.06919 
 N                     5.88901   18.462    33.4375 
 C                     4.90059   19.39412   33.33033 
 H                     4.21656   19.569    34.13458 
 C                     8.11795   17.35346   38.64956 
 H                     8.94572   16.64831   38.65446 
 H                     8.08546   17.86685   39.60849 
 H                     8.2938    18.08685   37.86752 
 C                     6.80976   16.62975   38.39977 
 H                     5.9683    17.32136   38.40802 
 H                     6.65032   15.84343   39.13845 
 S                     6.8529    15.81132   36.75513 
 C                     5.43067   14.70339   36.99431 
 H                     5.67137   13.97846   37.76764 
 H                     5.2622    14.2011   36.04778 
 H                     4.55251   15.28122   37.26471 
 
 Stoichiometry    C37H42FeN6S
 Framework group  C1[X(C37H42FeN6S)]
 Deg. of freedom   255
 Full point group                 C1      NOp   1
 Largest Abelian subgroup         C1      NOp   1
 Largest concise Abelian subgroup C1      NOp   1
                         Standard orientation:                         
 ---------------------------------------------------------------------
 Center     Atomic      Atomic             Coordinates (Angstroms)
 Number     Number       Type             X           Y           Z
 ---------------------------------------------------------------------
      1         26           0       -0.076561    0.247270   -0.136176
      2          7           0       -1.480855    1.663237   -0.135688
      3          7           0        1.335569    1.645627   -0.023970
      4          7           0        1.335892   -1.164381   -0.101637
      5          7           0       -1.487126   -1.162854   -0.132714
      6          6           0       -2.827102    1.475478   -0.150855
      7          6           0       -3.516692    2.740490   -0.277476
      8          6           0       -2.550575    3.693254   -0.368038
      9          6           0       -1.285824    3.000595   -0.257246
     10          6           0        1.160039    2.987882   -0.124391
     11          6           0        2.427906    3.676796   -0.021238
     12          6           0        3.360480    2.720339    0.232763
     13          6           0        2.662734    1.453741    0.187371
     14          6           0        2.659676   -0.995245    0.137407
     15          6           0        3.360592   -2.260635    0.057996
     16          6           0        2.400250   -3.211202   -0.169637
     17          6           0        1.146769   -2.506381   -0.245371
     18          6           0       -1.306234   -2.503765   -0.233194
     19          6           0       -2.573809   -3.201115   -0.130775
     20          6           0       -3.522180   -2.229042    0.050683
     21          6           0       -2.823322   -0.969848    0.036656
     22          6           0       -3.464280    0.256051   -0.033808
     23          1           0       -4.543012    0.257797    0.002940
     24          6           0       -0.054559    3.629186   -0.279536
     25          1           0       -0.043569    4.703615   -0.380799
     26          6           0        3.285224    0.227000    0.313912
     27          1           0        4.349635    0.225199    0.491906
     28          6           0       -0.082804   -3.133741   -0.360283
     29          1           0       -0.083245   -4.205445   -0.488884
     30          6           0       -4.998965    2.888850   -0.324048
     31          1           0       -5.452568    2.495836    0.586296
     32          1           0       -5.413475    2.341041   -1.170862
     33          1           0       -5.280307    3.934443   -0.422394
     34          6           0       -2.689529    5.168773   -0.523915
     35          1           0       -2.181887    5.505012   -1.427979
     36          1           0       -2.246711    5.689919    0.325552
     37          1           0       -3.736437    5.454151   -0.592347
     38          6           0       -4.981771   -2.390034    0.296389
     39          1           0       -5.549698   -2.261520   -0.626939
     40          1           0       -5.333010   -1.650605    1.014583
     41          1           0       -5.187868   -3.384231    0.688378
     42          6           0       -2.733550   -4.636752   -0.187768
     43          1           0       -1.901389   -5.216781    0.194575
     44          6           0       -3.793133   -5.277739   -0.670980
     45          1           0       -4.627922   -4.758352   -1.107835
     46          1           0       -3.848553   -6.353747   -0.669886
     47          6           0        2.566111   -4.688127   -0.261496
     48          1           0        2.571804   -5.017115   -1.302266
     49          1           0        1.752030   -5.201673    0.248130
     50          1           0        3.505982   -4.986635    0.198288
     51          6           0        4.785809   -2.424842    0.235826
     52          1           0        5.253614   -1.737980    0.931884
     53          6           0        5.541437   -3.323219   -0.387524
     54          1           0        5.140687   -3.996764   -1.124885
     55          1           0        6.599752   -3.397252   -0.199462
     56          6           0        4.827177    2.864927    0.453689
     57          1           0        5.386205    2.370779   -0.341543
     58          1           0        5.117303    2.412015    1.401959
     59          1           0        5.113847    3.913555    0.473328
     60          6           0        2.593028    5.154601   -0.120830
     61          1           0        3.642856    5.431136   -0.061839
     62          1           0        2.059339    5.659134    0.685749
     63          1           0        2.194982    5.518123   -1.067890
     64          6           0       -0.149522   -1.241700    5.239502
     65          1           0        0.721668   -0.993365    5.845639
     66          1           0       -0.130987   -2.305214    5.023154
     67          1           0       -1.044058   -1.019024    5.821132
     68          7           0       -0.168564    0.894117    3.931298
     69          1           0       -0.192814    1.503373    4.732536
     70          6           0       -0.143178   -0.475703    3.967628
     71          6           0       -0.155122    1.270082    2.633043
     72          1           0       -0.168875    2.287084    2.299998
     73          7           0       -0.122249    0.222868    1.846656
     74          6           0       -0.114730   -0.870110    2.660697
     75          1           0       -0.089537   -1.860402    2.255766
     76          6           0        2.507209   -0.109212   -3.285425
     77          1           0        2.519823    0.816597   -3.855667
     78          1           0        3.221222   -0.803782   -3.723522
     79          1           0        2.813776    0.108892   -2.266200
     80          6           0        1.117591   -0.714539   -3.292704
     81          1           0        1.092510   -1.651878   -2.738435
     82          1           0        0.767154   -0.877635   -4.312501
     83         16           0       -0.071552    0.441893   -2.502052
     84          6           0       -1.603790   -0.332958   -3.101496
     85          1           0       -1.656533   -0.226271   -4.181928
     86          1           0       -2.426495    0.194849   -2.631216
     87          1           0       -1.626651   -1.379347   -2.813900
 ---------------------------------------------------------------------
 Rotational constants (GHZ):           0.0833089           0.0818670           0.0583939
 Standard basis: def2TZVP (5D, 7F)
 There are  1894 symmetry adapted cartesian basis functions of A   symmetry.
 There are  1667 symmetry adapted basis functions of A   symmetry.
  1667 basis functions,  2700 primitive gaussians,  1894 cartesian basis functions
   174 alpha electrons      174 beta electrons
       nuclear repulsion energy      7167.0596305576 Hartrees.
 NAtoms=   87 NActive=   87 NUniq=   87 SFac= 1.00D+00 NAtFMM=   60 NAOKFM=T Big=T
 Integral buffers will be    131072 words long.
 Raffenetti 2 integral format.
 Two-electron integral symmetry is turned on.
 R6APFD:  NTU= -4 IXU= 1 FactS= 1.050
 Nuclear repulsion after empirical dispersion term =     7166.8759814386 Hartrees.
 One-electron integrals computed using PRISM.
   1 Symmetry operations used in ECPInt.
 ECPInt:  NShTT=  224115 NPrTT=  692067 LenC2=  178574 LenP2D=  363764.
 LDataN:  DoStor=T MaxTD1= 6 Len=  172
 Number of processors reduced to  21 by ecpmxn.
 NBasis=  1667 RedAO= T EigKep=  3.55D-06  NBF=  1667
 NBsUse=  1667 1.00D-06 EigRej= -1.00D+00 NBFU=  1667
 ExpMin= 4.20D-02 ExpMax= 3.01D+05 ExpMxC= 2.91D+03 IAcc=3 IRadAn=         5 AccDes= 0.00D+00
 Harris functional with IExCor= 3731 and IRadAn=       5 diagonalized for initial guess.
 HarFok:  IExCor= 3731 AccDes= 0.00D+00 IRadAn=         5 IDoV= 1 UseB2=F ITyADJ=14
 ICtDFT=  3500011 ScaDFX=  1.000000  1.000000  1.000000  1.000000
 FoFCou: FMM=F IPFlag=           0 FMFlag=      100000 FMFlg1=        2001
         NFxFlg=           0 DoJE=T BraDBF=F KetDBF=T FulRan=T
         wScrn=  0.000000 ICntrl=       500 IOpCl=  0 I1Cent=   200000004 NGrid=           0
         NMat0=    1 NMatS0=      1 NMatT0=    0 NMatD0=    1 NMtDS0=    0 NMtDT0=    0
 Petite list used in FoFCou.
 Requested convergence on RMS density matrix=1.00D-08 within 128 cycles.
 Requested convergence on MAX density matrix=1.00D-06.
 Requested convergence on             energy=1.00D-06.
 No special actions if energy rises.
 EnCoef did     2 forward-backward iterations
 EnCoef did   100 forward-backward iterations
 EnCoef did   100 forward-backward iterations
 EnCoef did   100 forward-backward iterations
 EnCoef did     4 forward-backward iterations
 EnCoef did     2 forward-backward iterations
 EnCoef did     2 forward-backward iterations
 EnCoef did     2 forward-backward iterations
 EnCoef did     2 forward-backward iterations
 Restarting incremental Fock formation.
 SCF Done:  E(RAPFD) =  -3424.85329055     A.U. after   27 cycles
            NFock= 27  Conv=0.18D-08     -V/T= 2.0033
 DoSCS=F DFT=T ScalE2(SS,OS)=  1.000000  1.000000
 Range of M.O.s used for correlation:     1  1667
 NBasis=  1667 NAE=   174 NBE=   174 NFC=     0 NFV=     0
 NROrb=   1667 NOA=   174 NOB=   174 NVA=  1493 NVB=  1493

 **** Warning!!: The largest alpha MO coefficient is  0.56313196D+02

          Differentiating once with respect to electric field.
                with respect to dipole field.
          Electric field/nuclear overlap derivatives assumed to be zero.
          There are     3 degrees of freedom in the 1st order CPHF.  IDoFFX=0 NUNeed=     3.
      3 vectors produced by pass  0 Test12= 8.66D-12 3.33D-08 XBig12= 1.87D+03 2.87D+01.
 AX will form     3 AO Fock derivatives at one time.
      3 vectors produced by pass  1 Test12= 8.66D-12 3.33D-08 XBig12= 1.35D+03 9.87D+00.
      3 vectors produced by pass  2 Test12= 8.66D-12 3.33D-08 XBig12= 4.02D+02 2.84D+00.
      3 vectors produced by pass  3 Test12= 8.66D-12 3.33D-08 XBig12= 3.17D+02 4.82D+00.
      3 vectors produced by pass  4 Test12= 8.66D-12 3.33D-08 XBig12= 3.07D+02 3.20D+00.
      3 vectors produced by pass  5 Test12= 8.66D-12 3.33D-08 XBig12= 1.28D+02 1.90D+00.
      3 vectors produced by pass  6 Test12= 8.66D-12 3.33D-08 XBig12= 6.73D+01 2.31D+00.
      3 vectors produced by pass  7 Test12= 8.66D-12 3.33D-08 XBig12= 2.94D+01 1.00D+00.
      3 vectors produced by pass  8 Test12= 8.66D-12 3.33D-08 XBig12= 1.31D+01 8.14D-01.
      3 vectors produced by pass  9 Test12= 8.66D-12 3.33D-08 XBig12= 5.97D+00 6.20D-01.
      3 vectors produced by pass 10 Test12= 8.66D-12 3.33D-08 XBig12= 2.87D+00 3.86D-01.
      3 vectors produced by pass 11 Test12= 8.66D-12 3.33D-08 XBig12= 1.48D+00 3.05D-01.
      3 vectors produced by pass 12 Test12= 8.66D-12 3.33D-08 XBig12= 5.58D-01 1.38D-01.
      3 vectors produced by pass 13 Test12= 8.66D-12 3.33D-08 XBig12= 2.08D-01 8.80D-02.
      3 vectors produced by pass 14 Test12= 8.66D-12 3.33D-08 XBig12= 7.51D-02 4.13D-02.
      3 vectors produced by pass 15 Test12= 8.66D-12 3.33D-08 XBig12= 2.58D-02 3.78D-02.
      3 vectors produced by pass 16 Test12= 8.66D-12 3.33D-08 XBig12= 9.24D-03 1.62D-02.
      3 vectors produced by pass 17 Test12= 8.66D-12 3.33D-08 XBig12= 4.65D-03 1.38D-02.
      3 vectors produced by pass 18 Test12= 8.66D-12 3.33D-08 XBig12= 1.50D-03 8.39D-03.
      3 vectors produced by pass 19 Test12= 8.66D-12 3.33D-08 XBig12= 3.14D-04 2.77D-03.
      3 vectors produced by pass 20 Test12= 8.66D-12 3.33D-08 XBig12= 9.40D-05 2.26D-03.
      3 vectors produced by pass 21 Test12= 8.66D-12 3.33D-08 XBig12= 1.81D-05 1.17D-03.
      3 vectors produced by pass 22 Test12= 8.66D-12 3.33D-08 XBig12= 3.73D-06 4.79D-04.
      3 vectors produced by pass 23 Test12= 8.66D-12 3.33D-08 XBig12= 8.90D-07 1.97D-04.
      3 vectors produced by pass 24 Test12= 8.66D-12 3.33D-08 XBig12= 1.94D-07 8.30D-05.
      3 vectors produced by pass 25 Test12= 8.66D-12 3.33D-08 XBig12= 6.00D-08 4.25D-05.
      3 vectors produced by pass 26 Test12= 8.66D-12 3.33D-08 XBig12= 1.35D-08 3.01D-05.
      3 vectors produced by pass 27 Test12= 8.66D-12 3.33D-08 XBig12= 2.28D-09 1.03D-05.
      3 vectors produced by pass 28 Test12= 8.66D-12 3.33D-08 XBig12= 4.12D-10 4.03D-06.
      3 vectors produced by pass 29 Test12= 8.66D-12 3.33D-08 XBig12= 8.49D-11 1.56D-06.
      3 vectors produced by pass 30 Test12= 8.66D-12 3.33D-08 XBig12= 1.52D-11 4.61D-07.
      2 vectors produced by pass 31 Test12= 8.66D-12 3.33D-08 XBig12= 2.81D-12 1.81D-07.
      2 vectors produced by pass 32 Test12= 8.66D-12 3.33D-08 XBig12= 3.84D-13 7.10D-08.
 InvSVY:  IOpt=1 It=  1 EMax= 1.42D-14
 Solved reduced A of dimension    97 with     3 vectors.
 Isotropic polarizability for W=    0.000000      610.93 Bohr**3.
 End of Minotr F.D. properties file   721 does not exist.
 End of Minotr F.D. properties file   722 does not exist.
 End of Minotr F.D. properties file   788 does not exist.

 **********************************************************************

            Population analysis using the SCF Density.

 **********************************************************************

 Orbital symmetries:
       Occupied  (A) (A) (A) (A) (A) (A) (A) (A) (A) (A) (A) (A)
                 (A) (A) (A) (A) (A) (A) (A) (A) (A) (A) (A) (A)
                 (A) (A) (A) (A) (A) (A) (A) (A) (A) (A) (A) (A)
                 (A) (A) (A) (A) (A) (A) (A) (A) (A) (A) (A) (A)
                 (A) (A) (A) (A) (A) (A) (A) (A) (A) (A) (A) (A)
                 (A) (A) (A) (A) (A) (A) (A) (A) (A) (A) (A) (A)
                 (A) (A) (A) (A) (A) (A) (A) (A) (A) (A) (A) (A)
                 (A) (A) (A) (A) (A) (A) (A) (A) (A) (A) (A) (A)
                 (A) (A) (A) (A) (A) (A) (A) (A) (A) (A) (A) (A)
                 (A) (A) (A) (A) (A) (A) (A) (A) (A) (A) (A) (A)
                 (A) (A) (A) (A) (A) (A) (A) (A) (A) (A) (A) (A)
                 (A) (A) (A) (A) (A) (A) (A) (A) (A) (A) (A) (A)
                 (A) (A) (A) (A) (A) (A) (A) (A) (A) (A) (A) (A)
                 (A) (A) (A) (A) (A) (A) (A) (A) (A) (A) (A) (A)
                 (A) (A) (A) (A) (A) (A)
       Virtual   (A) (A) (A) (A) (A) (A) (A) (A) (A) (A) (A) (A)
                 (A) (A) (A) (A) (A) (A) (A) (A) (A) (A) (A) (A)
                 (A) (A) (A) (A) (A) (A) (A) (A) (A) (A) (A) (A)
                 (A) (A) (A) (A) (A) (A) (A) (A) (A) (A) (A) (A)
                 (A) (A) (A) (A) (A) (A) (A) (A) (A) (A) (A) (A)
                 (A) (A) (A) (A) (A) (A) (A) (A) (A) (A) (A) (A)
                 (A) (A) (A) (A) (A) (A) (A) (A) (A) (A) (A) (A)
                 (A) (A) (A) (A) (A) (A) (A) (A) (A) (A) (A) (A)
                 (A) (A) (A) (A) (A) (A) (A) (A) (A) (A) (A) (A)
                 (A) (A) (A) (A) (A) (A) (A) (A) (A) (A) (A) (A)
                 (A) (A) (A) (A) (A) (A) (A) (A) (A) (A) (A) (A)
                 (A) (A) (A) (A) (A) (A) (A) (A) (A) (A) (A) (A)
                 (A) (A) (A) (A) (A) (A) (A) (A) (A) (A) (A) (A)
                 (A) (A) (A) (A) (A) (A) (A) (A) (A) (A) (A) (A)
                 (A) (A) (A) (A) (A) (A) (A) (A) (A) (A) (A) (A)
                 (A) (A) (A) (A) (A) (A) (A) (A) (A) (A) (A) (A)
                 (A) (A) (A) (A) (A) (A) (A) (A) (A) (A) (A) (A)
                 (A) (A) (A) (A) (A) (A) (A) (A) (A) (A) (A) (A)
                 (A) (A) (A) (A) (A) (A) (A) (A) (A) (A) (A) (A)
                 (A) (A) (A) (A) (A) (A) (A) (A) (A) (A) (A) (A)
                 (A) (A) (A) (A) (A) (A) (A) (A) (A) (A) (A) (A)
                 (A) (A) (A) (A) (A) (A) (A) (A) (A) (A) (A) (A)
                 (A) (A) (A) (A) (A) (A) (A) (A) (A) (A) (A) (A)
                 (A) (A) (A) (A) (A) (A) (A) (A) (A) (A) (A) (A)
                 (A) (A) (A) (A) (A) (A) (A) (A) (A) (A) (A) (A)
                 (A) (A) (A) (A) (A) (A) (A) (A) (A) (A) (A) (A)
                 (A) (A) (A) (A) (A) (A) (A) (A) (A) (A) (A) (A)
                 (A) (A) (A) (A) (A) (A) (A) (A) (A) (A) (A) (A)
                 (A) (A) (A) (A) (A) (A) (A) (A) (A) (A) (A) (A)
                 (A) (A) (A) (A) (A) (A) (A) (A) (A) (A) (A) (A)
                 (A) (A) (A) (A) (A) (A) (A) (A) (A) (A) (A) (A)
                 (A) (A) (A) (A) (A) (A) (A) (A) (A) (A) (A) (A)
                 (A) (A) (A) (A) (A) (A) (A) (A) (A) (A) (A) (A)
                 (A) (A) (A) (A) (A) (A) (A) (A) (A) (A) (A) (A)
                 (A) (A) (A) (A) (A) (A) (A) (A) (A) (A) (A) (A)
                 (A) (A) (A) (A) (A) (A) (A) (A) (A) (A) (A) (A)
                 (A) (A) (A) (A) (A) (A) (A) (A) (A) (A) (A) (A)
                 (A) (A) (A) (A) (A) (A) (A) (A) (A) (A) (A) (A)
                 (A) (A) (A) (A) (A) (A) (A) (A) (A) (A) (A) (A)
                 (A) (A) (A) (A) (A) (A) (A) (A) (A) (A) (A) (A)
                 (A) (A) (A) (A) (A) (A) (A) (A) (A) (A) (A) (A)
                 (A) (A) (A) (A) (A) (A) (A) (A) (A) (A) (A) (A)
                 (A) (A) (A) (A) (A) (A) (A) (A) (A) (A) (A) (A)
                 (A) (A) (A) (A) (A) (A) (A) (A) (A) (A) (A) (A)
                 (A) (A) (A) (A) (A) (A) (A) (A) (A) (A) (A) (A)
                 (A) (A) (A) (A) (A) (A) (A) (A) (A) (A) (A) (A)
                 (A) (A) (A) (A) (A) (A) (A) (A) (A) (A) (A) (A)
                 (A) (A) (A) (A) (A) (A) (A) (A) (A) (A) (A) (A)
                 (A) (A) (A) (A) (A) (A) (A) (A) (A) (A) (A) (A)
                 (A) (A) (A) (A) (A) (A) (A) (A) (A) (A) (A) (A)
                 (A) (A) (A) (A) (A) (A) (A) (A) (A) (A) (A) (A)
                 (A) (A) (A) (A) (A) (A) (A) (A) (A) (A) (A) (A)
                 (A) (A) (A) (A) (A) (A) (A) (A) (A) (A) (A) (A)
                 (A) (A) (A) (A) (A) (A) (A) (A) (A) (A) (A) (A)
                 (A) (A) (A) (A) (A) (A) (A) (A) (A) (A) (A) (A)
                 (A) (A) (A) (A) (A) (A) (A) (A) (A) (A) (A) (A)
                 (A) (A) (A) (A) (A) (A) (A) (A) (A) (A) (A) (A)
                 (A) (A) (A) (A) (A) (A) (A) (A) (A) (A) (A) (A)
                 (A) (A) (A) (A) (A) (A) (A) (A) (A) (A) (A) (A)
                 (A) (A) (A) (A) (A) (A) (A) (A) (A) (A) (A) (A)
                 (A) (A) (A) (A) (A) (A) (A) (A) (A) (A) (A) (A)
                 (A) (A) (A) (A) (A) (A) (A) (A) (A) (A) (A) (A)
                 (A) (A) (A) (A) (A) (A) (A) (A) (A) (A) (A) (A)
                 (A) (A) (A) (A) (A) (A) (A) (A) (A) (A) (A) (A)
                 (A) (A) (A) (A) (A) (A) (A) (A) (A) (A) (A) (A)
                 (A) (A) (A) (A) (A) (A) (A) (A) (A) (A) (A) (A)
                 (A) (A) (A) (A) (A) (A) (A) (A) (A) (A) (A) (A)
                 (A) (A) (A) (A) (A) (A) (A) (A) (A) (A) (A) (A)
                 (A) (A) (A) (A) (A) (A) (A) (A) (A) (A) (A) (A)
                 (A) (A) (A) (A) (A) (A) (A) (A) (A) (A) (A) (A)
                 (A) (A) (A) (A) (A) (A) (A) (A) (A) (A) (A) (A)
                 (A) (A) (A) (A) (A) (A) (A) (A) (A) (A) (A) (A)
                 (A) (A) (A) (A) (A) (A) (A) (A) (A) (A) (A) (A)
                 (A) (A) (A) (A) (A) (A) (A) (A) (A) (A) (A) (A)
                 (A) (A) (A) (A) (A) (A) (A) (A) (A) (A) (A) (A)
                 (A) (A) (A) (A) (A) (A) (A) (A) (A) (A) (A) (A)
                 (A) (A) (A) (A) (A) (A) (A) (A) (A) (A) (A) (A)
                 (A) (A) (A) (A) (A) (A) (A) (A) (A) (A) (A) (A)
                 (A) (A) (A) (A) (A) (A) (A) (A) (A) (A) (A) (A)
                 (A) (A) (A) (A) (A) (A) (A) (A) (A) (A) (A) (A)
                 (A) (A) (A) (A) (A) (A) (A) (A) (A) (A) (A) (A)
                 (A) (A) (A) (A) (A) (A) (A) (A) (A) (A) (A) (A)
                 (A) (A) (A) (A) (A) (A) (A) (A) (A) (A) (A) (A)
                 (A) (A) (A) (A) (A) (A) (A) (A) (A) (A) (A) (A)
                 (A) (A) (A) (A) (A) (A) (A) (A) (A) (A) (A) (A)
                 (A) (A) (A) (A) (A) (A) (A) (A) (A) (A) (A) (A)
                 (A) (A) (A) (A) (A) (A) (A) (A) (A) (A) (A) (A)
                 (A) (A) (A) (A) (A) (A) (A) (A) (A) (A) (A) (A)
                 (A) (A) (A) (A) (A) (A) (A) (A) (A) (A) (A) (A)
                 (A) (A) (A) (A) (A) (A) (A) (A) (A) (A) (A) (A)
                 (A) (A) (A) (A) (A) (A) (A) (A) (A) (A) (A) (A)
                 (A) (A) (A) (A) (A) (A) (A) (A) (A) (A) (A) (A)
                 (A) (A) (A) (A) (A) (A) (A) (A) (A) (A) (A) (A)
                 (A) (A) (A) (A) (A) (A) (A) (A) (A) (A) (A) (A)
                 (A) (A) (A) (A) (A) (A) (A) (A) (A) (A) (A) (A)
                 (A) (A) (A) (A) (A) (A) (A) (A) (A) (A) (A) (A)
                 (A) (A) (A) (A) (A) (A) (A) (A) (A) (A) (A) (A)
                 (A) (A) (A) (A) (A) (A) (A) (A) (A) (A) (A) (A)
                 (A) (A) (A) (A) (A) (A) (A) (A) (A) (A) (A) (A)
                 (A) (A) (A) (A) (A) (A) (A) (A) (A) (A) (A) (A)
                 (A) (A) (A) (A) (A) (A) (A) (A) (A) (A) (A) (A)
                 (A) (A) (A) (A) (A) (A) (A) (A) (A) (A) (A) (A)
                 (A) (A) (A) (A) (A) (A) (A) (A) (A) (A) (A) (A)
                 (A) (A) (A) (A) (A) (A) (A) (A) (A) (A) (A) (A)
                 (A) (A) (A) (A) (A) (A) (A) (A) (A) (A) (A) (A)
                 (A) (A) (A) (A) (A) (A) (A) (A) (A) (A) (A) (A)
                 (A) (A) (A) (A) (A) (A) (A) (A) (A) (A) (A) (A)
                 (A) (A) (A) (A) (A) (A) (A) (A) (A) (A) (A) (A)
                 (A) (A) (A) (A) (A) (A) (A) (A) (A) (A) (A) (A)
                 (A) (A) (A) (A) (A) (A) (A) (A) (A) (A) (A) (A)
                 (A) (A) (A) (A) (A) (A) (A) (A) (A) (A) (A) (A)
                 (A) (A) (A) (A) (A) (A) (A) (A) (A) (A) (A) (A)
                 (A) (A) (A) (A) (A) (A) (A) (A) (A) (A) (A) (A)
                 (A) (A) (A) (A) (A) (A) (A) (A) (A) (A) (A) (A)
                 (A) (A) (A) (A) (A) (A) (A) (A) (A) (A) (A) (A)
                 (A) (A) (A) (A) (A) (A) (A) (A) (A) (A) (A) (A)
                 (A) (A) (A) (A) (A) (A) (A) (A) (A) (A) (A) (A)
                 (A) (A) (A) (A) (A) (A) (A) (A) (A) (A) (A) (A)
                 (A) (A) (A) (A) (A) (A) (A) (A) (A) (A) (A) (A)
                 (A) (A) (A) (A) (A) (A) (A) (A) (A) (A) (A) (A)
                 (A) (A) (A) (A) (A) (A) (A) (A) (A) (A) (A) (A)
                 (A) (A) (A) (A) (A) (A) (A) (A) (A) (A) (A) (A)
                 (A) (A) (A) (A) (A) (A) (A) (A) (A) (A) (A) (A)
                 (A) (A) (A) (A) (A) (A) (A) (A) (A) (A) (A) (A)
                 (A) (A) (A) (A) (A)
 The electronic state is 1-A.
 Alpha  occ. eigenvalues -- -256.17521 -88.94037 -30.02669 -25.86803 -25.86438
 Alpha  occ. eigenvalues --  -25.86396 -14.41498 -14.35914 -14.33219 -14.33204
 Alpha  occ. eigenvalues --  -14.33133 -14.33007 -10.25157 -10.23474 -10.20938
 Alpha  occ. eigenvalues --  -10.20924 -10.20901 -10.20850 -10.20776 -10.20687
 Alpha  occ. eigenvalues --  -10.20674 -10.20655 -10.20645 -10.20595 -10.20570
 Alpha  occ. eigenvalues --  -10.20067 -10.19571 -10.19526 -10.18953 -10.18950
 Alpha  occ. eigenvalues --  -10.18644 -10.18631 -10.18586 -10.18577 -10.18524
 Alpha  occ. eigenvalues --  -10.18503 -10.18496 -10.18491 -10.18474 -10.18435
 Alpha  occ. eigenvalues --  -10.18424 -10.18379 -10.18349 -10.18347 -10.18242
 Alpha  occ. eigenvalues --  -10.18217 -10.18118 -10.18087 -10.17191  -7.96693
 Alpha  occ. eigenvalues --   -5.91287  -5.90995  -5.90461  -3.40054  -2.16634
 Alpha  occ. eigenvalues --   -2.15939  -2.15882  -1.05112  -0.96951  -0.95976
 Alpha  occ. eigenvalues --   -0.95949  -0.94982  -0.90676  -0.82212  -0.81902
 Alpha  occ. eigenvalues --   -0.81525  -0.81430  -0.80631  -0.80318  -0.80049
 Alpha  occ. eigenvalues --   -0.79521  -0.79497  -0.76689  -0.75657  -0.74552
 Alpha  occ. eigenvalues --   -0.74199  -0.73888  -0.73093  -0.71643  -0.70941
 Alpha  occ. eigenvalues --   -0.70089  -0.68155  -0.67826  -0.67787  -0.64808
 Alpha  occ. eigenvalues --   -0.64350  -0.64086  -0.63999  -0.61100  -0.60553
 Alpha  occ. eigenvalues --   -0.59962  -0.58739  -0.57737  -0.56620  -0.55784
 Alpha  occ. eigenvalues --   -0.54402  -0.53617  -0.53284  -0.52547  -0.51018
 Alpha  occ. eigenvalues --   -0.51010  -0.50500  -0.48701  -0.47885  -0.47694
 Alpha  occ. eigenvalues --   -0.47405  -0.47204  -0.46726  -0.44961  -0.44783
 Alpha  occ. eigenvalues --   -0.44569  -0.44440  -0.44304  -0.43744  -0.43550
 Alpha  occ. eigenvalues --   -0.43381  -0.43225  -0.43082  -0.43033  -0.42974
 Alpha  occ. eigenvalues --   -0.42534  -0.42430  -0.42315  -0.42270  -0.41927
 Alpha  occ. eigenvalues --   -0.41712  -0.41562  -0.41381  -0.41278  -0.40276
 Alpha  occ. eigenvalues --   -0.40089  -0.40029  -0.39554  -0.39420  -0.39203
 Alpha  occ. eigenvalues --   -0.38825  -0.38497  -0.38234  -0.37895  -0.37621
 Alpha  occ. eigenvalues --   -0.37460  -0.37021  -0.36895  -0.36381  -0.36047
 Alpha  occ. eigenvalues --   -0.35893  -0.35582  -0.35183  -0.34352  -0.34276
 Alpha  occ. eigenvalues --   -0.34015  -0.33750  -0.33233  -0.32118  -0.31915
 Alpha  occ. eigenvalues --   -0.31337  -0.30649  -0.30322  -0.29198  -0.29070
 Alpha  occ. eigenvalues --   -0.28799  -0.26781  -0.26579  -0.24850  -0.24340
 Alpha  occ. eigenvalues --   -0.23630  -0.22944  -0.22200  -0.21975  -0.19259
 Alpha  occ. eigenvalues --   -0.17959  -0.17858  -0.17679  -0.17568
 Alpha virt. eigenvalues --   -0.06526  -0.06395  -0.01930   0.00531   0.01714
 Alpha virt. eigenvalues --    0.02012   0.02259   0.03302   0.03697   0.04020
 Alpha virt. eigenvalues --    0.04631   0.05058   0.05343   0.05653   0.05916
 Alpha virt. eigenvalues --    0.06067   0.06596   0.06691   0.07103   0.07820
 Alpha virt. eigenvalues --    0.08106   0.08263   0.08322   0.08581   0.09144
 Alpha virt. eigenvalues --    0.09451   0.09623   0.09686   0.10203   0.10492
 Alpha virt. eigenvalues --    0.10573   0.10982   0.11244   0.11407   0.11605
 Alpha virt. eigenvalues --    0.11979   0.12129   0.12290   0.12488   0.12619
 Alpha virt. eigenvalues --    0.13110   0.13235   0.13394   0.13625   0.13664
 Alpha virt. eigenvalues --    0.14094   0.14305   0.14395   0.14518   0.14539
 Alpha virt. eigenvalues --    0.14663   0.15069   0.15220   0.15402   0.15488
 Alpha virt. eigenvalues --    0.15783   0.16030   0.16096   0.16301   0.16518
 Alpha virt. eigenvalues --    0.16625   0.17016   0.17028   0.17415   0.17515
 Alpha virt. eigenvalues --    0.17906   0.18116   0.18152   0.18337   0.18581
 Alpha virt. eigenvalues --    0.18947   0.19678   0.19769   0.19880   0.20194
 Alpha virt. eigenvalues --    0.20634   0.20789   0.21053   0.21324   0.21535
 Alpha virt. eigenvalues --    0.21736   0.21802   0.22198   0.22209   0.22426
 Alpha virt. eigenvalues --    0.22816   0.22866   0.23259   0.23476   0.23790
 Alpha virt. eigenvalues --    0.24181   0.24777   0.25030   0.25307   0.25548
 Alpha virt. eigenvalues --    0.25622   0.25699   0.26089   0.26540   0.26784
 Alpha virt. eigenvalues --    0.26794   0.27095   0.27381   0.27724   0.28131
 Alpha virt. eigenvalues --    0.28473   0.28905   0.28970   0.29066   0.29210
 Alpha virt. eigenvalues --    0.29448   0.29786   0.29945   0.30229   0.30566
 Alpha virt. eigenvalues --    0.30627   0.30823   0.30970   0.31433   0.31665
 Alpha virt. eigenvalues --    0.31883   0.31993   0.32305   0.32779   0.32995
 Alpha virt. eigenvalues --    0.33156   0.33258   0.33569   0.33856   0.34102
 Alpha virt. eigenvalues --    0.34486   0.34817   0.35350   0.35692   0.35948
 Alpha virt. eigenvalues --    0.36162   0.36519   0.36840   0.36912   0.37073
 Alpha virt. eigenvalues --    0.37265   0.37322   0.37747   0.37843   0.38210
 Alpha virt. eigenvalues --    0.38704   0.38744   0.38975   0.39128   0.39290
 Alpha virt. eigenvalues --    0.39628   0.39955   0.40055   0.40189   0.40464
 Alpha virt. eigenvalues --    0.40682   0.40771   0.40981   0.41219   0.41251
 Alpha virt. eigenvalues --    0.41462   0.41690   0.42117   0.42209   0.42442
 Alpha virt. eigenvalues --    0.42720   0.43007   0.43116   0.43433   0.43593
 Alpha virt. eigenvalues --    0.43743   0.43902   0.44000   0.44414   0.44496
 Alpha virt. eigenvalues --    0.44598   0.44858   0.45034   0.45249   0.45360
 Alpha virt. eigenvalues --    0.45660   0.45865   0.45984   0.46126   0.46263
 Alpha virt. eigenvalues --    0.46840   0.46911   0.47159   0.47279   0.47528
 Alpha virt. eigenvalues --    0.47587   0.47718   0.47852   0.47972   0.48200
 Alpha virt. eigenvalues --    0.48428   0.48566   0.48607   0.48812   0.48940
 Alpha virt. eigenvalues --    0.49113   0.49374   0.49520   0.49613   0.49822
 Alpha virt. eigenvalues --    0.49946   0.50229   0.50546   0.50679   0.50802
 Alpha virt. eigenvalues --    0.51059   0.51371   0.51476   0.51786   0.51994
 Alpha virt. eigenvalues --    0.52104   0.52437   0.52496   0.52776   0.52868
 Alpha virt. eigenvalues --    0.53038   0.53255   0.53395   0.53985   0.54135
 Alpha virt. eigenvalues --    0.54210   0.54336   0.54635   0.55407   0.55484
 Alpha virt. eigenvalues --    0.55705   0.55820   0.55875   0.56220   0.56457
 Alpha virt. eigenvalues --    0.56768   0.57034   0.57153   0.57385   0.57901
 Alpha virt. eigenvalues --    0.58025   0.58237   0.58691   0.58919   0.58962
 Alpha virt. eigenvalues --    0.59449   0.59528   0.60032   0.60118   0.60349
 Alpha virt. eigenvalues --    0.60830   0.61350   0.61762   0.61865   0.61986
 Alpha virt. eigenvalues --    0.62408   0.62646   0.62997   0.63269   0.63685
 Alpha virt. eigenvalues --    0.63761   0.64132   0.64393   0.64655   0.64965
 Alpha virt. eigenvalues --    0.65228   0.65396   0.65505   0.65876   0.66017
 Alpha virt. eigenvalues --    0.66636   0.66895   0.66973   0.67240   0.67327
 Alpha virt. eigenvalues --    0.67910   0.68212   0.68656   0.69060   0.69386
 Alpha virt. eigenvalues --    0.69962   0.70401   0.70576   0.70790   0.70964
 Alpha virt. eigenvalues --    0.71565   0.71938   0.72221   0.72468   0.72743
 Alpha virt. eigenvalues --    0.72890   0.73120   0.73653   0.73659   0.73992
 Alpha virt. eigenvalues --    0.74335   0.74750   0.74874   0.75349   0.75586
 Alpha virt. eigenvalues --    0.76050   0.76659   0.76686   0.77175   0.77338
 Alpha virt. eigenvalues --    0.77686   0.77827   0.77935   0.78065   0.78326
 Alpha virt. eigenvalues --    0.78563   0.79116   0.79223   0.79631   0.80198
 Alpha virt. eigenvalues --    0.80636   0.80931   0.81418   0.81837   0.81973
 Alpha virt. eigenvalues --    0.82046   0.82459   0.82645   0.82815   0.83311
 Alpha virt. eigenvalues --    0.83845   0.84235   0.84463   0.85102   0.85251
 Alpha virt. eigenvalues --    0.85932   0.86235   0.86468   0.87060   0.87688
 Alpha virt. eigenvalues --    0.88011   0.88368   0.88484   0.88943   0.89019
 Alpha virt. eigenvalues --    0.89759   0.89997   0.90133   0.90145   0.90419
 Alpha virt. eigenvalues --    0.90921   0.91350   0.91622   0.91961   0.92264
 Alpha virt. eigenvalues --    0.92476   0.93062   0.93284   0.93543   0.93911
 Alpha virt. eigenvalues --    0.94222   0.94471   0.94725   0.94963   0.95201
 Alpha virt. eigenvalues --    0.95706   0.95725   0.96155   0.96299   0.96415
 Alpha virt. eigenvalues --    0.96948   0.97176   0.97527   0.98165   0.98505
 Alpha virt. eigenvalues --    0.98724   0.98961   0.99391   0.99609   0.99898
 Alpha virt. eigenvalues --    1.00082   1.00288   1.01004   1.01090   1.01331
 Alpha virt. eigenvalues --    1.01626   1.01729   1.01971   1.02653   1.03062
 Alpha virt. eigenvalues --    1.03166   1.03468   1.03829   1.04315   1.04454
 Alpha virt. eigenvalues --    1.04812   1.04963   1.05267   1.05582   1.05855
 Alpha virt. eigenvalues --    1.06045   1.06937   1.07193   1.07413   1.07636
 Alpha virt. eigenvalues --    1.08154   1.08671   1.08845   1.08938   1.09597
 Alpha virt. eigenvalues --    1.09808   1.10150   1.10501   1.10763   1.11172
 Alpha virt. eigenvalues --    1.11768   1.12279   1.12643   1.13039   1.13258
 Alpha virt. eigenvalues --    1.13413   1.13919   1.14208   1.14366   1.14889
 Alpha virt. eigenvalues --    1.15149   1.15852   1.16264   1.16810   1.16875
 Alpha virt. eigenvalues --    1.17199   1.17783   1.17827   1.18364   1.18882
 Alpha virt. eigenvalues --    1.19053   1.19292   1.19896   1.20068   1.20571
 Alpha virt. eigenvalues --    1.20883   1.20964   1.21044   1.21514   1.21728
 Alpha virt. eigenvalues --    1.22634   1.22954   1.23282   1.23709   1.23923
 Alpha virt. eigenvalues --    1.24124   1.25054   1.25431   1.25969   1.26311
 Alpha virt. eigenvalues --    1.26637   1.27084   1.27346   1.27539   1.28009
 Alpha virt. eigenvalues --    1.28260   1.28773   1.29086   1.29383   1.29491
 Alpha virt. eigenvalues --    1.29730   1.30029   1.30815   1.31123   1.31273
 Alpha virt. eigenvalues --    1.31296   1.32370   1.32680   1.33023   1.33935
 Alpha virt. eigenvalues --    1.33952   1.34250   1.35148   1.35701   1.35916
 Alpha virt. eigenvalues --    1.36186   1.36818   1.37309   1.37907   1.38409
 Alpha virt. eigenvalues --    1.39127   1.39379   1.39560   1.40979   1.41283
 Alpha virt. eigenvalues --    1.41470   1.42005   1.42183   1.43173   1.43458
 Alpha virt. eigenvalues --    1.44000   1.44415   1.44667   1.45097   1.45946
 Alpha virt. eigenvalues --    1.46284   1.46787   1.46907   1.47347   1.47809
 Alpha virt. eigenvalues --    1.48241   1.48525   1.48800   1.48977   1.49232
 Alpha virt. eigenvalues --    1.49611   1.49929   1.50354   1.50797   1.51197
 Alpha virt. eigenvalues --    1.51373   1.51644   1.51694   1.51881   1.52235
 Alpha virt. eigenvalues --    1.52573   1.52763   1.53116   1.53383   1.53550
 Alpha virt. eigenvalues --    1.54009   1.54136   1.54383   1.54533   1.54640
 Alpha virt. eigenvalues --    1.55332   1.55386   1.55644   1.56149   1.56255
 Alpha virt. eigenvalues --    1.56370   1.56455   1.56774   1.57003   1.57528
 Alpha virt. eigenvalues --    1.57718   1.57954   1.58138   1.58507   1.58861
 Alpha virt. eigenvalues --    1.59002   1.59220   1.59582   1.59781   1.60049
 Alpha virt. eigenvalues --    1.60352   1.60498   1.60933   1.61454   1.61568
 Alpha virt. eigenvalues --    1.61948   1.62438   1.62586   1.62884   1.63129
 Alpha virt. eigenvalues --    1.63315   1.63546   1.64065   1.64177   1.64405
 Alpha virt. eigenvalues --    1.64539   1.65053   1.65262   1.65298   1.65823
 Alpha virt. eigenvalues --    1.66258   1.66521   1.66732   1.67235   1.67431
 Alpha virt. eigenvalues --    1.67505   1.67785   1.68002   1.68374   1.69337
 Alpha virt. eigenvalues --    1.69487   1.69695   1.70022   1.70121   1.70322
 Alpha virt. eigenvalues --    1.70549   1.70609   1.70937   1.71306   1.71794
 Alpha virt. eigenvalues --    1.71917   1.72190   1.72600   1.73006   1.73129
 Alpha virt. eigenvalues --    1.73322   1.74012   1.74174   1.74529   1.75042
 Alpha virt. eigenvalues --    1.75192   1.75376   1.76009   1.76288   1.77167
 Alpha virt. eigenvalues --    1.77557   1.77771   1.78299   1.79006   1.79453
 Alpha virt. eigenvalues --    1.79710   1.80347   1.80762   1.81502   1.82686
 Alpha virt. eigenvalues --    1.82767   1.83260   1.83462   1.83735   1.83933
 Alpha virt. eigenvalues --    1.84431   1.84914   1.85031   1.85311   1.85551
 Alpha virt. eigenvalues --    1.85992   1.86383   1.86823   1.87213   1.87481
 Alpha virt. eigenvalues --    1.88062   1.88184   1.88589   1.88695   1.89087
 Alpha virt. eigenvalues --    1.89962   1.90346   1.90817   1.91009   1.91234
 Alpha virt. eigenvalues --    1.91324   1.91708   1.92484   1.93097   1.93590
 Alpha virt. eigenvalues --    1.94097   1.94794   1.95208   1.95489   1.96016
 Alpha virt. eigenvalues --    1.96350   1.96705   1.97250   1.97362   1.98135
 Alpha virt. eigenvalues --    1.98473   1.98825   1.99384   1.99748   1.99794
 Alpha virt. eigenvalues --    1.99973   2.00467   2.00795   2.01029   2.01510
 Alpha virt. eigenvalues --    2.02123   2.02723   2.02961   2.03741   2.03781
 Alpha virt. eigenvalues --    2.04542   2.05120   2.05350   2.05609   2.05721
 Alpha virt. eigenvalues --    2.06549   2.07123   2.07459   2.07708   2.08249
 Alpha virt. eigenvalues --    2.08849   2.09208   2.09614   2.09840   2.10038
 Alpha virt. eigenvalues --    2.10513   2.11118   2.11413   2.11501   2.12071
 Alpha virt. eigenvalues --    2.12497   2.12792   2.13508   2.13733   2.13960
 Alpha virt. eigenvalues --    2.14171   2.14479   2.15032   2.15088   2.15694
 Alpha virt. eigenvalues --    2.16172   2.16800   2.17036   2.18003   2.18379
 Alpha virt. eigenvalues --    2.18981   2.19450   2.19680   2.19969   2.20109
 Alpha virt. eigenvalues --    2.21041   2.21333   2.21425   2.21658   2.21992
 Alpha virt. eigenvalues --    2.22457   2.22685   2.23006   2.23634   2.24063
 Alpha virt. eigenvalues --    2.24483   2.25204   2.25466   2.26101   2.26162
 Alpha virt. eigenvalues --    2.27069   2.27525   2.27873   2.28037   2.28686
 Alpha virt. eigenvalues --    2.28875   2.29189   2.29492   2.29852   2.30502
 Alpha virt. eigenvalues --    2.30828   2.31218   2.31782   2.31992   2.32241
 Alpha virt. eigenvalues --    2.32690   2.33646   2.33670   2.34112   2.34749
 Alpha virt. eigenvalues --    2.35003   2.35466   2.35992   2.36152   2.36322
 Alpha virt. eigenvalues --    2.36838   2.36917   2.37338   2.37480   2.37885
 Alpha virt. eigenvalues --    2.38041   2.38572   2.38632   2.39402   2.39550
 Alpha virt. eigenvalues --    2.40536   2.40814   2.40888   2.41053   2.41902
 Alpha virt. eigenvalues --    2.42148   2.42640   2.43084   2.43606   2.44419
 Alpha virt. eigenvalues --    2.44639   2.45308   2.45584   2.45650   2.45935
 Alpha virt. eigenvalues --    2.46207   2.46665   2.47090   2.47234   2.47591
 Alpha virt. eigenvalues --    2.47787   2.48217   2.48883   2.49089   2.49304
 Alpha virt. eigenvalues --    2.49794   2.50288   2.50488   2.50752   2.51657
 Alpha virt. eigenvalues --    2.52180   2.52299   2.52612   2.52638   2.53226
 Alpha virt. eigenvalues --    2.53551   2.53732   2.54150   2.54233   2.55044
 Alpha virt. eigenvalues --    2.55821   2.55987   2.56257   2.56392   2.56813
 Alpha virt. eigenvalues --    2.56924   2.57090   2.57621   2.57986   2.58345
 Alpha virt. eigenvalues --    2.58603   2.59017   2.59314   2.59852   2.60234
 Alpha virt. eigenvalues --    2.60406   2.60788   2.61004   2.61279   2.61536
 Alpha virt. eigenvalues --    2.61673   2.62359   2.62464   2.63209   2.63279
 Alpha virt. eigenvalues --    2.63762   2.64013   2.64320   2.64644   2.65075
 Alpha virt. eigenvalues --    2.65396   2.65597   2.65715   2.66609   2.66945
 Alpha virt. eigenvalues --    2.67281   2.67677   2.67903   2.68554   2.68952
 Alpha virt. eigenvalues --    2.69034   2.69402   2.69925   2.70216   2.70638
 Alpha virt. eigenvalues --    2.70985   2.71160   2.71667   2.71822   2.72335
 Alpha virt. eigenvalues --    2.72630   2.72723   2.73380   2.73674   2.73806
 Alpha virt. eigenvalues --    2.74385   2.74950   2.75160   2.75672   2.75843
 Alpha virt. eigenvalues --    2.76341   2.76659   2.77342   2.77793   2.77928
 Alpha virt. eigenvalues --    2.78208   2.78469   2.79029   2.79283   2.79735
 Alpha virt. eigenvalues --    2.79978   2.80587   2.81024   2.82045   2.82209
 Alpha virt. eigenvalues --    2.82549   2.82727   2.83193   2.83257   2.83520
 Alpha virt. eigenvalues --    2.84052   2.84243   2.84531   2.85053   2.85680
 Alpha virt. eigenvalues --    2.85830   2.86595   2.87145   2.87353   2.87851
 Alpha virt. eigenvalues --    2.88223   2.88713   2.88783   2.89032   2.89697
 Alpha virt. eigenvalues --    2.90004   2.90427   2.90630   2.90971   2.91219
 Alpha virt. eigenvalues --    2.91767   2.91966   2.92447   2.93018   2.93337
 Alpha virt. eigenvalues --    2.93483   2.94152   2.94597   2.94917   2.95501
 Alpha virt. eigenvalues --    2.95651   2.96133   2.96242   2.96459   2.96853
 Alpha virt. eigenvalues --    2.96981   2.97265   2.97790   2.98092   2.98355
 Alpha virt. eigenvalues --    2.98563   2.99392   2.99527   2.99988   3.00296
 Alpha virt. eigenvalues --    3.00549   3.01175   3.01356   3.01725   3.02178
 Alpha virt. eigenvalues --    3.02525   3.02692   3.02918   3.03321   3.03946
 Alpha virt. eigenvalues --    3.04340   3.04621   3.04768   3.05278   3.05824
 Alpha virt. eigenvalues --    3.06299   3.06480   3.06800   3.07025   3.07494
 Alpha virt. eigenvalues --    3.07804   3.07965   3.08536   3.08702   3.09207
 Alpha virt. eigenvalues --    3.09452   3.09780   3.10088   3.10362   3.10695
 Alpha virt. eigenvalues --    3.11094   3.11411   3.11709   3.12127   3.12474
 Alpha virt. eigenvalues --    3.12988   3.13143   3.13532   3.13989   3.14218
 Alpha virt. eigenvalues --    3.14486   3.14810   3.15152   3.15419   3.15441
 Alpha virt. eigenvalues --    3.15924   3.16286   3.16352   3.16710   3.16893
 Alpha virt. eigenvalues --    3.17172   3.17555   3.17928   3.18276   3.18352
 Alpha virt. eigenvalues --    3.18596   3.18955   3.19257   3.19297   3.20044
 Alpha virt. eigenvalues --    3.20243   3.20636   3.20806   3.21190   3.21642
 Alpha virt. eigenvalues --    3.21775   3.22043   3.22397   3.22597   3.22958
 Alpha virt. eigenvalues --    3.23357   3.23588   3.23741   3.24303   3.24495
 Alpha virt. eigenvalues --    3.24645   3.25193   3.25258   3.25409   3.25558
 Alpha virt. eigenvalues --    3.26000   3.26089   3.26433   3.26963   3.27072
 Alpha virt. eigenvalues --    3.27293   3.27733   3.27920   3.28206   3.28461
 Alpha virt. eigenvalues --    3.28492   3.28707   3.28977   3.29470   3.29494
 Alpha virt. eigenvalues --    3.30022   3.30320   3.30456   3.30653   3.30965
 Alpha virt. eigenvalues --    3.31120   3.31187   3.31350   3.31895   3.31963
 Alpha virt. eigenvalues --    3.32180   3.32636   3.33345   3.33589   3.33814
 Alpha virt. eigenvalues --    3.34032   3.34544   3.34681   3.34887   3.35026
 Alpha virt. eigenvalues --    3.35464   3.35828   3.36058   3.36424   3.36854
 Alpha virt. eigenvalues --    3.36999   3.37083   3.37266   3.37309   3.37876
 Alpha virt. eigenvalues --    3.37962   3.38316   3.38403   3.39149   3.39322
 Alpha virt. eigenvalues --    3.39343   3.39509   3.39750   3.40001   3.40263
 Alpha virt. eigenvalues --    3.40866   3.41145   3.41329   3.41694   3.41852
 Alpha virt. eigenvalues --    3.42126   3.42664   3.43084   3.43317   3.43845
 Alpha virt. eigenvalues --    3.44246   3.44430   3.44784   3.45136   3.45444
 Alpha virt. eigenvalues --    3.45651   3.45759   3.46416   3.46482   3.47083
 Alpha virt. eigenvalues --    3.47351   3.47657   3.48668   3.49062   3.49228
 Alpha virt. eigenvalues --    3.49816   3.50092   3.50267   3.50735   3.50978
 Alpha virt. eigenvalues --    3.51372   3.51668   3.52036   3.52501   3.53154
 Alpha virt. eigenvalues --    3.53670   3.54348   3.54874   3.55096   3.55300
 Alpha virt. eigenvalues --    3.55848   3.55986   3.56460   3.56737   3.56813
 Alpha virt. eigenvalues --    3.57619   3.57922   3.58294   3.58552   3.58920
 Alpha virt. eigenvalues --    3.59276   3.60010   3.60236   3.60335   3.60748
 Alpha virt. eigenvalues --    3.60962   3.61355   3.62124   3.62510   3.62960
 Alpha virt. eigenvalues --    3.63339   3.63824   3.64239   3.65316   3.65600
 Alpha virt. eigenvalues --    3.65973   3.66205   3.66314   3.66799   3.67244
 Alpha virt. eigenvalues --    3.67462   3.67957   3.68413   3.68696   3.69227
 Alpha virt. eigenvalues --    3.69697   3.70122   3.70533   3.70788   3.70991
 Alpha virt. eigenvalues --    3.71982   3.72195   3.72527   3.72642   3.73013
 Alpha virt. eigenvalues --    3.73221   3.73516   3.73958   3.74523   3.74852
 Alpha virt. eigenvalues --    3.75049   3.75139   3.75345   3.75875   3.76768
 Alpha virt. eigenvalues --    3.76948   3.77662   3.77825   3.78376   3.78798
 Alpha virt. eigenvalues --    3.79370   3.79684   3.80005   3.81015   3.81192
 Alpha virt. eigenvalues --    3.81959   3.82466   3.82725   3.83299   3.83589
 Alpha virt. eigenvalues --    3.83765   3.84168   3.85039   3.85545   3.86643
 Alpha virt. eigenvalues --    3.86939   3.87668   3.88048   3.88330   3.89542
 Alpha virt. eigenvalues --    3.89729   3.90824   3.91143   3.91390   3.91696
 Alpha virt. eigenvalues --    3.92013   3.92520   3.92959   3.93619   3.94602
 Alpha virt. eigenvalues --    3.94911   3.95345   3.95742   3.97455   3.97741
 Alpha virt. eigenvalues --    3.98276   3.99129   3.99298   3.99899   4.00318
 Alpha virt. eigenvalues --    4.01209   4.01293   4.01693   4.02088   4.02687
 Alpha virt. eigenvalues --    4.03269   4.03903   4.03964   4.04472   4.05231
 Alpha virt. eigenvalues --    4.05877   4.06024   4.06823   4.07049   4.07263
 Alpha virt. eigenvalues --    4.08027   4.08286   4.10539   4.11785   4.12567
 Alpha virt. eigenvalues --    4.12651   4.13199   4.13635   4.14701   4.15306
 Alpha virt. eigenvalues --    4.15901   4.16213   4.17186   4.17476   4.17849
 Alpha virt. eigenvalues --    4.18184   4.19125   4.19598   4.20395   4.20695
 Alpha virt. eigenvalues --    4.20778   4.21000   4.21614   4.22278   4.22663
 Alpha virt. eigenvalues --    4.23641   4.23926   4.24701   4.24983   4.25254
 Alpha virt. eigenvalues --    4.26181   4.26594   4.27353   4.27724   4.28561
 Alpha virt. eigenvalues --    4.28803   4.29564   4.30170   4.30604   4.31263
 Alpha virt. eigenvalues --    4.31901   4.32336   4.32957   4.33432   4.34069
 Alpha virt. eigenvalues --    4.34347   4.34731   4.35347   4.35584   4.36169
 Alpha virt. eigenvalues --    4.36764   4.37249   4.37723   4.38033   4.38815
 Alpha virt. eigenvalues --    4.39054   4.40119   4.40291   4.40475   4.41266
 Alpha virt. eigenvalues --    4.41433   4.41789   4.42262   4.42659   4.43191
 Alpha virt. eigenvalues --    4.44052   4.44335   4.44867   4.45277   4.45364
 Alpha virt. eigenvalues --    4.45789   4.46666   4.47055   4.47371   4.47905
 Alpha virt. eigenvalues --    4.48430   4.48697   4.49072   4.50114   4.50566
 Alpha virt. eigenvalues --    4.51156   4.52176   4.52784   4.53169   4.54057
 Alpha virt. eigenvalues --    4.54742   4.55479   4.56210   4.56515   4.56780
 Alpha virt. eigenvalues --    4.57994   4.58229   4.58871   4.59957   4.61078
 Alpha virt. eigenvalues --    4.61363   4.63016   4.64230   4.65574   4.66852
 Alpha virt. eigenvalues --    4.67204   4.68400   4.68977   4.69903   4.70205
 Alpha virt. eigenvalues --    4.70724   4.70980   4.71059   4.72684   4.73484
 Alpha virt. eigenvalues --    4.73787   4.74520   4.75212   4.75302   4.76732
 Alpha virt. eigenvalues --    4.77024   4.77606   4.78697   4.80980   4.81837
 Alpha virt. eigenvalues --    4.82574   4.83397   4.83731   4.84848   4.85059
 Alpha virt. eigenvalues --    4.85842   4.86283   4.86864   4.87237   4.87577
 Alpha virt. eigenvalues --    4.88062   4.88598   4.89079   4.90497   4.90645
 Alpha virt. eigenvalues --    4.92558   4.93341   4.95366   4.95956   4.96352
 Alpha virt. eigenvalues --    4.96863   4.97458   4.97936   4.98745   5.00155
 Alpha virt. eigenvalues --    5.00186   5.00887   5.02085   5.02895   5.03050
 Alpha virt. eigenvalues --    5.04794   5.05714   5.06624   5.06876   5.08415
 Alpha virt. eigenvalues --    5.09248   5.09540   5.10078   5.12286   5.12775
 Alpha virt. eigenvalues --    5.13560   5.14215   5.15294   5.16491   5.19192
 Alpha virt. eigenvalues --    5.20811   5.21184   5.22462   5.22826   5.23982
 Alpha virt. eigenvalues --    5.24415   5.24888   5.27460   5.28581   5.29609
 Alpha virt. eigenvalues --    5.30378   5.31401   5.32130   5.34040   5.35852
 Alpha virt. eigenvalues --    5.37838   5.39093   5.39675   5.39806   5.40098
 Alpha virt. eigenvalues --    5.40925   5.41975   5.42437   5.43717   5.45309
 Alpha virt. eigenvalues --    5.48349   5.49128   5.50392   5.51189   5.51952
 Alpha virt. eigenvalues --    5.52910   5.54274   5.54932   5.58687   5.61683
 Alpha virt. eigenvalues --    5.61980   5.63550   5.63874   5.64308   5.65038
 Alpha virt. eigenvalues --    5.66866   5.67548   5.67834   5.68955   5.70612
 Alpha virt. eigenvalues --    5.73860   5.75426   5.78304   5.79037   5.83927
 Alpha virt. eigenvalues --    5.85264   5.88214   5.94035   5.96422   5.98883
 Alpha virt. eigenvalues --    6.00888   6.01892   6.03363   6.04271   6.04772
 Alpha virt. eigenvalues --    6.10588   6.14885   6.16912   6.17213   6.18110
 Alpha virt. eigenvalues --    6.19777   6.21511   6.28892   6.35438   6.36359
 Alpha virt. eigenvalues --    6.42257   9.29445   9.48538   9.60038  20.00586
 Alpha virt. eigenvalues --   22.36691  22.36830  22.43261  22.44323  22.46296
 Alpha virt. eigenvalues --   22.47032  22.49245  22.52599  22.53651  22.54505
 Alpha virt. eigenvalues --   22.62358  22.63031  22.83793  22.87790  22.87929
 Alpha virt. eigenvalues --   22.94676  22.96532  22.97206  22.97459  22.99479
 Alpha virt. eigenvalues --   23.04183  23.05316  23.12733  23.14174  23.29186
 Alpha virt. eigenvalues --   23.29644  23.32387  23.33342  23.42348  23.44573
 Alpha virt. eigenvalues --   23.51841  23.52249  23.56575  23.74691  23.78873
 Alpha virt. eigenvalues --   23.80414  23.90335  32.42278  32.87139  32.97670
 Alpha virt. eigenvalues --   33.06778  33.10157  33.16400
          Condensed to atoms (all electrons):
 Mulliken charges:
               1
     1  Fe  -0.543331
     2  N    0.025764
     3  N    0.053387
     4  N    0.053916
     5  N    0.029573
     6  C    0.188954
     7  C   -0.035547
     8  C   -0.047102
     9  C    0.232539
    10  C    0.226857
    11  C   -0.051852
    12  C   -0.032560
    13  C    0.179440
    14  C    0.166509
    15  C    0.052798
    16  C    0.017746
    17  C    0.111162
    18  C    0.154424
    19  C    0.060716
    20  C    0.027298
    21  C    0.213881
    22  C   -0.460577
    23  H    0.133925
    24  C   -0.459345
    25  H    0.135561
    26  C   -0.405587
    27  H    0.112268
    28  C   -0.474051
    29  H    0.110762
    30  C   -0.416363
    31  H    0.134368
    32  H    0.135704
    33  H    0.119406
    34  C   -0.417933
    35  H    0.139002
    36  H    0.130151
    37  H    0.119794
    38  C   -0.458122
    39  H    0.141766
    40  H    0.130369
    41  H    0.158429
    42  C   -0.211010
    43  H    0.106561
    44  C   -0.289207
    45  H    0.138459
    46  H    0.121423
    47  C   -0.441271
    48  H    0.139785
    49  H    0.125013
    50  H    0.156296
    51  C   -0.210637
    52  H    0.110665
    53  C   -0.286466
    54  H    0.138243
    55  H    0.121290
    56  C   -0.414287
    57  H    0.139744
    58  H    0.133804
    59  H    0.119163
    60  C   -0.415036
    61  H    0.121016
    62  H    0.130642
    63  H    0.137831
    64  C   -0.395043
    65  H    0.134677
    66  H    0.146396
    67  H    0.134341
    68  N   -0.230752
    69  H    0.233707
    70  C    0.181267
    71  C    0.003503
    72  H    0.179928
    73  N    0.088847
    74  C   -0.223033
    75  H    0.158574
    76  C   -0.353994
    77  H    0.115380
    78  H    0.115415
    79  H    0.159617
    80  C   -0.172303
    81  H    0.132508
    82  H    0.117044
    83  S    0.020179
    84  C   -0.358557
    85  H    0.144041
    86  H    0.160111
    87  H    0.142026
 Sum of Mulliken charges =  -0.00000
 Mulliken charges with hydrogens summed into heavy atoms:
               1
     1  Fe  -0.543331
     2  N    0.025764
     3  N    0.053387
     4  N    0.053916
     5  N    0.029573
     6  C    0.188954
     7  C   -0.035547
     8  C   -0.047102
     9  C    0.232539
    10  C    0.226857
    11  C   -0.051852
    12  C   -0.032560
    13  C    0.179440
    14  C    0.166509
    15  C    0.052798
    16  C    0.017746
    17  C    0.111162
    18  C    0.154424
    19  C    0.060716
    20  C    0.027298
    21  C    0.213881
    22  C   -0.326652
    24  C   -0.323783
    26  C   -0.293319
    28  C   -0.363288
    30  C   -0.026885
    34  C   -0.028987
    38  C   -0.027559
    42  C   -0.104449
    44  C   -0.029326
    47  C   -0.020178
    51  C   -0.099972
    53  C   -0.026932
    56  C   -0.021575
    60  C   -0.025548
    64  C    0.020371
    68  N    0.002955
    70  C    0.181267
    71  C    0.183431
    73  N    0.088847
    74  C   -0.064459
    76  C    0.036418
    80  C    0.077249
    83  S    0.020179
    84  C    0.087621
 Electronic spatial extent (au):  <R**2>=          21533.3262
 Charge=              0.0000 electrons
 Dipole moment (field-independent basis, Debye):
    X=             -0.5938    Y=              1.4548    Z=              3.7184  Tot=              4.0368
 Quadrupole moment (field-independent basis, Debye-Ang):
   XX=           -271.4029   YY=           -267.0038   ZZ=           -251.4069
   XY=             -1.3353   XZ=              1.2312   YZ=              8.2056
 Traceless Quadrupole moment (field-independent basis, Debye-Ang):
   XX=             -8.1317   YY=             -3.7326   ZZ=             11.8643
   XY=             -1.3353   XZ=              1.2312   YZ=              8.2056
 Octapole moment (field-independent basis, Debye-Ang**2):
  XXX=            -21.6736  YYY=             47.1132  ZZZ=            123.9831  XYY=              5.0951
  XXY=             29.9110  XXZ=             -8.4005  XZZ=             -7.0986  YZZ=             24.4408
  YYZ=             12.0022  XYZ=              6.0675
 Hexadecapole moment (field-independent basis, Debye-Ang**3):
 XXXX=         -12187.1207 YYYY=         -11854.9058 ZZZZ=          -4332.5761 XXXY=              0.7790
 XXXZ=            101.4409 YYYX=            -18.1072 YYYZ=             29.6355 ZZZX=            -35.9332
 ZZZY=            149.8562 XXYY=          -4076.6996 XXZZ=          -3014.9767 YYZZ=          -2897.0518
 XXYZ=             49.9950 YYXZ=            -23.1575 ZZXY=            -26.0311
 N-N= 7.166875981439D+03 E-N=-2.238998956466D+04  KE= 3.413662600242D+03
  Exact polarizability:     731.362       0.692     721.548       8.481      10.075     379.869
 Approx polarizability:    1371.321      -2.756    1386.461      31.600      26.823     593.507

 ----------------------------------------------------------------------

 Electric dipole moment (input orientation):
 (Debye = 10**-18 statcoulomb cm , SI units = C m)
                  (au)            (Debye)         (10**-30 SI)
   Tot        0.158820D+01      0.403680D+01      0.134653D+02
   x          0.475577D-01      0.120880D+00      0.403211D+00
   y          0.481072D+00      0.122276D+01      0.407870D+01
   z         -0.151284D+01     -0.384526D+01     -0.128264D+02

 Dipole polarizability, Alpha (input orientation).
 (esu units = cm**3 , SI units = C**2 m**2 J**-1)
 Alpha(0;0):
               (au)            (10**-24 esu)      (10**-40 SI)
   iso        0.610926D+03      0.905299D+02      0.100728D+03
   aniso      0.347442D+03      0.514856D+02      0.572854D+02
   xx         0.710710D+03      0.105316D+03      0.117180D+03
   yx         0.475351D+02      0.704398D+01      0.783748D+01
   yy         0.606148D+03      0.898218D+02      0.999402D+02
   zx        -0.544399D+02     -0.806717D+01     -0.897593D+01
   zy         0.159726D+03      0.236690D+02      0.263353D+02
   zz         0.515921D+03      0.764516D+02      0.850639D+02

 First dipole hyperpolarizability, Beta (input orientation).
 ||, _|_  parallel and perpendicular components, (z) with respect to z axis,
 vector components x,y,z.  Values do not include the 1/n! factor of 1/2.
 (esu units = statvolt**-1 cm**4 , SI units = C**3 m**3 J**-2)
 Beta(0;0,0):
               (au)            (10**-30 esu)      (10**-50 SI)
   || (z)     0.475331D+03      0.410649D+01      0.152408D+01
   _|_(z)     0.158444D+03      0.136883D+01      0.508028D+00
   x         -0.411957D+04     -0.355899D+02     -0.132088D+02
   y          0.269822D+04      0.233105D+02      0.865146D+01
   z          0.237666D+04      0.205325D+02      0.762042D+01
   ||         0.109361D+04      0.944797D+01      0.350652D+01
   xxx       -0.150411D+04     -0.129944D+02     -0.482273D+01
   xxy       -0.327814D+03     -0.283206D+01     -0.105109D+01
   yxy        0.981496D+02      0.847937D+00      0.314703D+00
   yyy        0.684110D+03      0.591018D+01      0.219351D+01
   xxz        0.715055D+02      0.617751D+00      0.229272D+00
   yxz        0.188042D+03      0.162454D+01      0.602931D+00
   yyz        0.474617D+03      0.410032D+01      0.152179D+01
   zxz        0.327729D+02      0.283132D+00      0.105082D+00
   zyz        0.543109D+03      0.469204D+01      0.174141D+01
   zzz        0.246096D+03      0.212608D+01      0.789074D+00

 ----------------------------------------------------------------------

 Dipole orientation:
    26         13.69692323        -51.13155257        -52.73606195
     7         14.11992129        -47.64075043        -51.38051136
     7         17.30804877        -51.86538639        -51.98095325
     7         13.27625595        -54.65202412        -54.02997127
     7         10.02654048        -50.48467738        -53.29827942
     6         12.29787020        -45.84336506        -51.16055290
     6         13.37737168        -43.47458181        -50.32773767
     6         15.90599924        -43.87530555        -50.10506761
     6         16.32479938        -46.50143264        -50.73552220
     6         19.08353986        -50.19017427        -51.19282726
     6         21.50585698        -51.42218973        -50.89653450
     6         21.10475814        -53.91670571        -51.36502760
     6         18.48455323        -54.14122154        -52.11268630
     6         14.96014033        -56.57609103        -53.86667111
     6         13.97166496        -58.83223572        -55.06152528
     6         11.57409129        -58.23754081        -55.83818212
     6         11.17254907        -55.63775769        -55.14155309
     6          8.33571587        -52.03998348        -54.43668457
     6          5.82323798        -50.94627163        -54.38096724
     6          6.06277524        -48.68682722        -53.13945411
     6          8.69619937        -48.43402408        -52.50057604
     6          9.75399773        -46.21146766        -51.61016783
     1          8.49537521        -44.64846698        -51.24514423
     6         18.66538750        -47.66160972        -50.68849486
     1         20.26970618        -46.53002880        -50.13608427
     6         17.38282453        -56.37279049        -52.90092150
     1         18.54301403        -58.04994871        -52.88820406
     6          8.88795813        -54.39248386        -55.42703660
     1          7.38732778        -55.39216006        -56.38064444
     6         11.89586730        -41.11853381        -49.89571996
     1         10.45660409        -41.42169688        -48.45266841
     1         10.94736437        -40.52953056        -51.62760904
     1         13.11942292        -39.58852378        -49.27660825
     6         17.93752827        -42.08446465        -49.33288292
     1         19.35480884        -41.92190453        -50.81869190
     1         18.87920863        -42.74361719        -47.62240529
     1         17.16574001        -40.21585746        -48.96662536
     6          4.04900919        -46.86012863        -52.41566184
     1          3.92987708        -45.31530016        -53.77748367
     1          4.43818224        -46.05018934        -50.56429353
     1          2.22435256        -47.80715482        -52.35313242
     6          3.58511298        -52.12421547        -55.41349908
     1          3.56314840        -54.17223454        -55.37431259
     6          1.61764034        -50.91059212        -56.39661131
     1          1.56967500        -48.88559206        -56.57125717
     1         -0.00217318        -51.91547660        -57.11210820
     6          9.66600389        -59.91342251        -57.05003320
     1          9.59348320        -59.59875805        -59.08732090
     1          7.78839602        -59.55657924        -56.28638313
     1         10.14599633        -61.88434094        -56.71426041
     6         15.31430295        -61.20307046        -55.25999641
     1         16.58284223        -61.63518948        -53.71064023
     6         15.12677498        -62.82699671        -57.16693373
     1         13.97074189        -62.45393679        -58.79775748
     1         16.17167247        -64.57441357        -57.18419116
     6         22.92528704        -56.06403694        -51.28970870
     1         23.16023106        -56.88321805        -53.16589137
     1         22.24484034        -57.54383530        -50.02817636
     1         24.76498091        -55.43946849        -50.62105366
     6         23.87080035        -50.11106891        -50.10934744
     1         25.46178077        -51.41110652        -50.11016230
     1         23.67584002        -49.32576652        -48.21338511
     1         24.29680549        -48.56371321        -51.39965368
     6          9.41269492        -55.90947341        -44.37248894
     1         10.54797603        -57.31990255        -43.39044538
     1          7.97926738        -56.87353804        -45.47853119
     1          8.47882300        -54.73699329        -42.95974007
     7         12.97621854        -52.90342547        -45.18977962
     1         13.52364007        -52.75733475        -43.37341046
     6         11.01171222        -54.34559485        -46.06650289
     6         14.02971653        -51.72687916        -47.19731661
     1         15.61070913        -50.47103665        -47.08059769
     7         12.85355547        -52.33683907        -49.28850206
     6         10.97232166        -53.96286284        -48.61796898
     1          9.72426227        -54.74416093        -50.00425916
     6         17.36837200        -53.30428676        -59.17892192
     1         18.93838399        -52.02991097        -59.54452241
     1         17.35676222        -54.77804754        -60.61302407
     1         17.64983380        -54.17588866        -57.34145722
     6         14.88959904        -51.86945127        -59.21755812
     1         13.29459245        -53.12709804        -58.88414654
     1         14.63714771        -50.87755734        -61.00636028
    16         14.88521170        -49.45373508        -56.72314447
     6         12.22207034        -47.60782293        -57.86835900
     1         12.72684853        -46.74281849        -59.66172579
     1         11.85471126        -46.16292418        -56.46159339
     1         10.57358156        -48.81093695        -58.07402585

 Electric dipole moment (dipole orientation):
 (Debye = 10**-18 statcoulomb cm , SI units = C m)
                  (au)            (Debye)         (10**-30 SI)
   Tot        0.158820D+01      0.403680D+01      0.134653D+02
   x          0.000000D+00      0.000000D+00      0.000000D+00
   y          0.000000D+00      0.000000D+00      0.000000D+00
   z          0.158820D+01      0.403680D+01      0.134653D+02

 Dipole polarizability, Alpha (dipole orientation).
 (esu units = cm**3 , SI units = C**2 m**2 J**-1)
 Alpha(0;0):
               (au)            (10**-24 esu)      (10**-40 SI)
   iso        0.610926D+03      0.905299D+02      0.100728D+03
   aniso      0.347442D+03      0.514856D+02      0.572854D+02
   xx         0.706789D+03      0.104735D+03      0.116534D+03
   yx        -0.318362D+02     -0.471764D+01     -0.524908D+01
   yy         0.689820D+03      0.102221D+03      0.113736D+03
   zx         0.740282D+02      0.109699D+02      0.122056D+02
   zy         0.103769D+03      0.153770D+02      0.171092D+02
   zz         0.436170D+03      0.646337D+02      0.719147D+02

 First dipole hyperpolarizability, Beta (dipole orientation).
 ||, _|_  parallel and perpendicular components, (z) with respect to z axis,
 vector components x,y,z.  Values do not include the 1/n! factor of 1/2.
 (esu units = statvolt**-1 cm**4 , SI units = C**3 m**3 J**-2)
 Beta(0;0,0):
               (au)            (10**-30 esu)      (10**-50 SI)
   || (z)    -0.313988D+03     -0.271261D+01     -0.100676D+01
   _|_(z)    -0.104663D+03     -0.904205D+00     -0.335587D+00
   x         -0.405905D+04     -0.350670D+02     -0.130148D+02
   y         -0.331046D+04     -0.285998D+02     -0.106145D+02
   z         -0.156994D+04     -0.135631D+02     -0.503380D+01
   ||         0.109361D+04      0.944797D+01      0.350652D+01
   xxx       -0.149112D+04     -0.128821D+02     -0.478108D+01
   xxy        0.273236D+03      0.236055D+01      0.876094D+00
   yxy        0.221826D+03      0.191640D+01      0.711253D+00
   yyy       -0.113033D+04     -0.976519D+01     -0.362425D+01
   xxz       -0.209071D+03     -0.180621D+01     -0.670356D+00
   yxz        0.151771D+03      0.131118D+01      0.486632D+00
   yyz       -0.437162D+03     -0.377674D+01     -0.140170D+01
   zxz       -0.837195D+02     -0.723271D+00     -0.268435D+00
   zyz       -0.246392D+03     -0.212863D+01     -0.790020D+00
   zzz        0.122919D+03      0.106192D+01      0.394121D+00

 ----------------------------------------------------------------------
 Unable to Open any file for archive entry.
 1\1\GINC-BGN1032\SP\RAPFD\def2TZVP\C37H42Fe1N6S1\BEBZHART\14-Jul-2024\
 0\\# polar def2tzvp apfd int=(grid=ultrafine)\\3cp5_II_S\\0,1\Fe,0,6.2
 834293801,17.2994748907,34.9954758047\N,0,6.5372285475,15.7552662077,3
 3.7593483877\N,0,8.2036386146,17.7817147991,34.7896973294\N,0,6.031766
 8637,18.8685209305,36.205324474\N,0,4.3347197498,16.8921533683,35.1170
 235968\C,0,5.5813872079,14.8885610706,33.3314995405\C,0,6.1713921227,1
 3.8247958344,32.5491175291\C,0,7.5114130528,14.0563611024,32.541176999
 5\C,0,7.7164850794,15.2786609106,33.2865470371\C,0,9.1593631536,17.058
 8510012,34.1520427865\C,0,10.4422759795,17.7217081638,34.2385545402\C,
 0,10.2165653473,18.905611323,34.8681970022\C,0,8.8182501474,18.9054359
 76,35.2395360035\C,0,6.920288772,19.8608851165,36.4581013145\C,0,6.372
 9707436,20.809590521,37.4063631355\C,0,5.0939671062,20.3910827767,37.6
 645357157\C,0,4.8990072155,19.1926331994,36.8903054021\C,0,3.418522477
 7,17.4981928816,35.9133645442\C,0,2.0931584702,16.9617290702,35.670155
 7672\C,0,2.2450849849,16.0206795938,34.6859781591\C,0,3.6487380943,15.
 9891204026,34.365147294\C,0,4.2278166414,15.0083838933,33.5768292863\H
 ,0,3.5717144574,14.2817489928,33.1223552743\C,0,8.9523954072,15.865535
 3476,33.4858954738\H,0,9.8125095261,15.3794687258,33.05148376\C,0,8.21
 75322072,19.9072028979,35.9771003665\H,0,8.8272748163,20.7521987653,36
 .2579057544\C,0,3.689146349,18.5244837501,36.7984022644\H,0,2.87784346
 5,18.8794665925,37.4155447043\C,0,5.4004111593,12.7095048019,31.930224
 6537\H,0,4.6612568191,13.0972379555,31.2286161266\H,0,4.8727201055,12.
 1371911744,32.6937733666\H,0,6.0611630339,12.034133503,31.3922933335\C
 ,0,8.6025964484,13.2719998127,31.8970809731\H,0,9.3291002594,12.948374
 7221,32.6424310614\H,0,9.1261670851,13.8762752295,31.1554612032\H,0,8.
 2047683489,12.3902452338,31.400713628\C,0,1.1958947924,15.2204222481,3
 3.9964263008\H,0,1.1150999947,14.2233547179,34.4333688862\H,0,1.433069
 3011,15.1077600005,32.9395524157\H,0,0.2294343467,15.7125262263,34.087
 7927007\C,0,0.8900806006,17.3957764441,36.3439695325\H,0,0.8740492649,
 18.4349502314,36.6521457054\C,0,-0.1631779018,16.6309862606,36.6138169
 894\H,0,-0.1863379471,15.5818803403,36.3765031659\H,0,-1.0337605643,17
[...]
                                                    1561(r),1560(r),179(r)
                                                    1563(r),184(r),182(r),186(r)
   160. CR (   1) C  74                  1.99896   -10.05684  1299(v),1646(v),1650(g)
                                                    1357(v),172(r),1302(v)
                                                    1409(v),1563(r)
   173. LP (   1) N  68                  1.57961    -0.28234  1654(v),1651(v),1328(v)
                                                    1300(v),1294(v),1326(v)
                                                    180(r)
   174. LP (   1) N  73                  1.60437    -0.35237  172(r),1649(v),1650(v)
                                                    1652(v),1325(v),1656(v)
                                                    1653(g),1359(g),1382(v)
                                                    1655(g),181(r),1563(r)
                                                    1559(r),1562(r),1561(r)
                                                    1560(r),1358(g),1572(r)
                                                    1571(r),1566(r),1565(r)
                                                    1569(r),258(r),1568(r)
                                                    1574(r),232(r),1564(r)
                                                    206(r),284(r),203(r),196(r)
                                                    189(r),193(r),229(r),188(r)
                                                    255(r),1573(r),257(r),785(r)
                                                    237(r),283(r),281(r),211(r)
                                                    205(r)
  1227. RY*(   1) C  64                  0.00116     1.16351   
  1228. RY*(   2) C  64                  0.00079     2.00837   
  1229. RY*(   3) C  64                  0.00051     1.33620   
  1230. RY*(   4) C  64                  0.00012     1.26771   
  1231. RY*(   5) C  64                  0.00009     2.14202   
  1232. RY*(   6) C  64                  0.00007     1.40927   
  1233. RY*(   7) C  64                  0.00003     2.07754   
  1234. RY*(   8) C  64                  0.00000     2.94329   
  1235. RY*(   9) C  64                  0.00001     1.52022   
  1236. RY*(  10) C  64                  0.00001     1.75997   
  1237. RY*(  11) C  64                  0.00000    21.55845   
  1238. RY*(  12) C  64                  0.00000     2.91777   
  1239. RY*(  13) C  64                  0.00000     2.23718   
  1240. RY*(  14) C  64                  0.00000     3.06619   
  1241. RY*(  15) C  64                  0.00000     2.55605   
  1242. RY*(  16) C  64                  0.00000     3.14855   
  1243. RY*(  17) C  64                  0.00000     2.49958   
  1244. RY*(  18) C  64                  0.00001     1.64673   
  1245. RY*(  19) C  64                  0.00000     2.66817   
  1246. RY*(  20) C  64                  0.00000     3.68466   
  1247. RY*(  21) C  64                  0.00000     2.97797   
  1248. RY*(  22) C  64                  0.00001     2.86704   
  1249. RY*(  23) C  64                  0.00000     3.76155   
  1250. RY*(  24) C  64                  0.00000     3.29821   
  1251. RY*(  25) C  64                  0.00000     3.23073   
  1252. RY*(  26) C  64                  0.00000     3.33220   
  1253. RY*(   1) H  65                  0.00074     1.00725   
  1254. RY*(   2) H  65                  0.00015     1.68640   
  1255. RY*(   3) H  65                  0.00008     1.96948   
  1256. RY*(   4) H  65                  0.00006     2.01346   
  1257. RY*(   5) H  65                  0.00000     2.88307   
  1258. RY*(   1) H  66                  0.00024     1.38913   
  1259. RY*(   2) H  66                  0.00012     1.73619   
  1260. RY*(   3) H  66                  0.00008     2.05920   
  1261. RY*(   4) H  66                  0.00002     1.61367   
  1262. RY*(   5) H  66                  0.00001     2.85916   
  1263. RY*(   1) H  67                  0.00074     1.00905   
  1264. RY*(   2) H  67                  0.00015     1.68650   
  1265. RY*(   3) H  67                  0.00008     1.96848   
  1266. RY*(   4) H  67                  0.00006     2.01166   
  1267. RY*(   5) H  67                  0.00000     2.88336   
  1268. RY*(   1) N  68                  0.00279     0.67741   
  1269. RY*(   2) N  68                  0.00220     1.78447   
  1270. RY*(   3) N  68                  0.00098     2.07966   
  1271. RY*(   4) N  68                  0.00080     2.13198   
  1272. RY*(   5) N  68                  0.00051     1.23967   
  1273. RY*(   6) N  68                  0.00026     2.24822   
  1274. RY*(   7) N  68                  0.00020     1.79051   
  1275. RY*(   8) N  68                  0.00007     2.41417   
  1276. RY*(   9) N  68                  0.00008     2.03960   
  1277. RY*(  10) N  68                  0.00006     3.72659   
  1278. RY*(  11) N  68                  0.00004     2.99567   
  1279. RY*(  12) N  68                  0.00001     2.40605   
  1280. RY*(  13) N  68                  0.00001     3.66007   
  1281. RY*(  14) N  68                  0.00000     2.11555   
  1282. RY*(  15) N  68                  0.00001     4.27366   
  1283. RY*(  16) N  68                  0.00000    30.64692   
  1284. RY*(  17) N  68                  0.00000     4.55969   
  1285. RY*(  18) N  68                  0.00001     3.75015   
  1286. RY*(  19) N  68                  0.00001     3.86294   
  1287. RY*(  20) N  68                  0.00000     4.69424   
  1288. RY*(  21) N  68                  0.00000     4.36462   
  1289. RY*(  22) N  68                  0.00000     4.80360   
  1290. RY*(  23) N  68                  0.00000     4.55960   
  1291. RY*(  24) N  68                  0.00000     4.29147   
  1292. RY*(  25) N  68                  0.00000     4.41784   
  1293. RY*(  26) N  68                  0.00000     4.48788   
  1294. RY*(   1) H  69                  0.00058     2.15406   
  1295. RY*(   2) H  69                  0.00040     2.14269   
  1296. RY*(   3) H  69                  0.00032     1.00574   
  1297. RY*(   4) H  69                  0.00021     2.56227   
  1298. RY*(   5) H  69                  0.00001     3.09143   
  1299. RY*(   1) C  70                  0.00399     1.69603   
  1300. RY*(   2) C  70                  0.00260     0.99723   
  1301. RY*(   3) C  70                  0.00191     1.51776   
  1302. RY*(   4) C  70                  0.00163     2.06609   
  1303. RY*(   5) C  70                  0.00124     1.77076   
  1304. RY*(   6) C  70                  0.00112     1.74668   
  1305. RY*(   7) C  70                  0.00037     2.86824   
  1306. RY*(   8) C  70                  0.00019     2.75644   
  1307. RY*(   9) C  70                  0.00017     2.53050   
  1308. RY*(  10) C  70                  0.00008     3.57647   
  1309. RY*(  11) C  70                  0.00003     2.56330   
  1310. RY*(  12) C  70                  0.00001     1.35841   
  1311. RY*(  13) C  70                  0.00001     2.82435   
  1312. RY*(  14) C  70                  0.00001     1.90662   
  1313. RY*(  15) C  70                  0.00001     1.65110   
  1314. RY*(  16) C  70                  0.00001     2.00802   
  1315. RY*(  17) C  70                  0.00001     3.49865   
  1316. RY*(  18) C  70                  0.00001     1.07235   
  1317. RY*(  19) C  70                  0.00000    21.52336   
  1318. RY*(  20) C  70                  0.00000     4.08190   
  1319. RY*(  21) C  70                  0.00000     3.53716   
  1320. RY*(  22) C  70                  0.00000     3.73493   
  1321. RY*(  23) C  70                  0.00000     3.79528   
  1322. RY*(  24) C  70                  0.00000     3.35950   
  1323. RY*(  25) C  70                  0.00000     3.50754   
  1324. RY*(  26) C  70                  0.00000     3.53660   
  1325. RY*(   1) C  71                  0.00404     1.58577   
  1326. RY*(   2) C  71                  0.00348     0.64953   
  1327. RY*(   3) C  71                  0.00206     1.30823   
  1328. RY*(   4) C  71                  0.00127     2.56431   
  1329. RY*(   5) C  71                  0.00112     1.21274   
  1330. RY*(   6) C  71                  0.00043     1.70746   
  1331. RY*(   7) C  71                  0.00030     1.83760   
  1332. RY*(   8) C  71                  0.00014     2.45843   
  1333. RY*(   9) C  71                  0.00009     2.17759   
  1334. RY*(  10) C  71                  0.00007     3.31303   
  1335. RY*(  11) C  71                  0.00004     1.77395   
  1336. RY*(  12) C  71                  0.00003     3.38667   
  1337. RY*(  13) C  71                  0.00002     2.61226   
  1338. RY*(  14) C  71                  0.00002     2.31806   
  1339. RY*(  15) C  71                  0.00002     3.29848   
  1340. RY*(  16) C  71                  0.00000     3.61191   
  1341. RY*(  17) C  71                  0.00000     2.72875   
  1342. RY*(  18) C  71                  0.00000     3.13220   
  1343. RY*(  19) C  71                  0.00000    21.48130   
  1344. RY*(  20) C  71                  0.00001     3.68540   
  1345. RY*(  21) C  71                  0.00000     3.58354   
  1346. RY*(  22) C  71                  0.00001     4.13192   
  1347. RY*(  23) C  71                  0.00000     3.60536   
  1348. RY*(  24) C  71                  0.00000     3.59768   
  1349. RY*(  25) C  71                  0.00000     3.35760   
  1350. RY*(  26) C  71                  0.00000     3.58121   
  1351. RY*(   1) H  72                  0.00068     0.61141   
  1352. RY*(   2) H  72                  0.00035     2.46948   
  1353. RY*(   3) H  72                  0.00021     2.12572   
  1354. RY*(   4) H  72                  0.00012     2.44897   
  1355. RY*(   5) H  72                  0.00002     3.17194   
  1356. RY*(   1) N  73                  0.01111     0.83391   
  1357. RY*(   2) N  73                  0.00981     1.29227   
  1358. RY*(   3) N  73                  0.00667     1.39557   
  1359. RY*(   4) N  73                  0.00119     1.67986   
  1360. RY*(   5) N  73                  0.00081     1.61211   
  1361. RY*(   6) N  73                  0.00059     2.02088   
  1362. RY*(   7) N  73                  0.00039     3.08859   
  1363. RY*(   8) N  73                  0.00038     3.55078   
  1364. RY*(   9) N  73                  0.00014     2.86810   
  1365. RY*(  10) N  73                  0.00012     2.42108   
  1366. RY*(  11) N  73                  0.00010     3.53202   
  1367. RY*(  12) N  73                  0.00008     3.43386   
  1368. RY*(  13) N  73                  0.00005     3.60175   
  1369. RY*(  14) N  73                  0.00004     3.77882   
  1370. RY*(  15) N  73                  0.00003     4.83092   
  1371. RY*(  16) N  73                  0.00001     3.89547   
  1372. RY*(  17) N  73                  0.00000     4.85465   
  1373. RY*(  18) N  73                  0.00001     4.37576   
  1374. RY*(  19) N  73                  0.00001     4.79194   
  1375. RY*(  20) N  73                  0.00001     4.43317   
  1376. RY*(  21) N  73                  0.00000     4.15551   
  1377. RY*(  22) N  73                  0.00000    31.49582   
  1378. RY*(  23) N  73                  0.00000     4.75147   
  1379. RY*(  24) N  73                  0.00000     4.65680   
  1380. RY*(  25) N  73                  0.00000     4.51700   
  1381. RY*(  26) N  73                  0.00000     4.77664   
  1382. RY*(   1) C  74                  0.00407     1.48166   
  1383. RY*(   2) C  74                  0.00275     0.71673   
  1384. RY*(   3) C  74                  0.00174     1.81460   
  1385. RY*(   4) C  74                  0.00067     2.00883   
  1386. RY*(   5) C  74                  0.00060     1.50681   
  1387. RY*(   6) C  74                  0.00050     1.90417   
  1388. RY*(   7) C  74                  0.00045     2.40282   
  1389. RY*(   8) C  74                  0.00026     1.41192   
  1390. RY*(   9) C  74                  0.00025     1.64579   
  1391. RY*(  10) C  74                  0.00016     2.05461   
  1392. RY*(  11) C  74                  0.00011     1.09685   
  1393. RY*(  12) C  74                  0.00007     1.89758   
  1394. RY*(  13) C  74                  0.00006     2.20601   
  1395. RY*(  14) C  74                  0.00005     3.30351   
  1396. RY*(  15) C  74                  0.00002     3.28045   
  1397. RY*(  16) C  74                  0.00003     1.37332   
  1398. RY*(  17) C  74                  0.00001     3.65061   
  1399. RY*(  18) C  74                  0.00000     3.25818   
  1400. RY*(  19) C  74                  0.00000    21.82594   
  1401. RY*(  20) C  74                  0.00001     4.00691   
  1402. RY*(  21) C  74                  0.00001     4.09184   
  1403. RY*(  22) C  74                  0.00000     3.46505   
  1404. RY*(  23) C  74                  0.00000     3.82112   
  1405. RY*(  24) C  74                  0.00001     3.34801   
  1406. RY*(  25) C  74                  0.00000     3.40608   
  1407. RY*(  26) C  74                  0.00000     3.71350   
  1408. RY*(   1) H  75                  0.00055     0.68626   
  1409. RY*(   2) H  75                  0.00035     2.35434   
  1410. RY*(   3) H  75                  0.00025     2.33537   
  1411. RY*(   4) H  75                  0.00008     2.73862   
  1412. RY*(   5) H  75                  0.00001     3.17850   
  1643. BD*(   1) C  64 - H  65          0.01200     0.36023   
  1644. BD*(   1) C  64 - H  66          0.00346     0.37390   
  1645. BD*(   1) C  64 - H  67          0.01191     0.36012   
  1646. BD*(   1) C  64 - C  70          0.01384     0.39060   
  1647. BD*(   1) N  68 - H  69          0.01445     0.36781   
  1648. BD*(   1) N  68 - C  70          0.02718     0.43113   
  1649. BD*(   1) N  68 - C  71          0.02247     0.45004   
  1650. BD*(   1) C  70 - C  74          0.02119     0.56821   
  1651. BD*(   2) C  70 - C  74          0.30057     0.03686  1654(v),1643(v),1645(v)
                                                    1388(g),1303(g)
  1652. BD*(   1) C  71 - H  72          0.01813     0.39467   
  1653. BD*(   1) C  71 - N  73          0.01720     0.53731   
  1654. BD*(   2) C  71 - N  73          0.41659    -0.00282  1651(v),1326(g),1356(g)
                                                    1383(v),1573(r),1562(r)
                                                    1561(r),1570(r),1567(r)
                                                    1559(r),1560(r)
  1655. BD*(   1) N  73 - C  74          0.01720     0.48309   
  1656. BD*(   1) C  74 - H  75          0.01448     0.43432   
       -------------------------------
              Total Lewis   42.67450  ( 97.7144%)
        Valence non-Lewis    0.91066  (  2.0852%)
        Rydberg non-Lewis    0.08750  (  0.2004%)
       -------------------------------
            Total unit  2   43.67267  (100.0000%)
           Charge unit  2    0.32733
 Unable to Open any file for archive entry.
 1\1\GINC-BGN1032\SP\RAPFD\def2TZVP\C37H42Fe1N6S1\BEBZHART\14-Jul-2024\
 0\\# apfd/def2TZVP int=(grid=ultrafine) geom=check guess=read pop=nbo 
 scf=qc\\3cp5_II_S_nbo\\0,1\Fe,0,6.2834293801,17.2994748907,34.99547580
 47\N,0,6.5372285475,15.7552662077,33.7593483877\N,0,8.2036386146,17.78
 17147991,34.7896973294\N,0,6.0317668637,18.8685209305,36.205324474\N,0
 ,4.3347197498,16.8921533683,35.1170235968\C,0,5.5813872079,14.88856107
 06,33.3314995405\C,0,6.1713921227,13.8247958344,32.5491175291\C,0,7.51
 14130528,14.0563611024,32.5411769995\C,0,7.7164850794,15.2786609106,33
 .2865470371\C,0,9.1593631536,17.0588510012,34.1520427865\C,0,10.442275
 9795,17.7217081638,34.2385545402\C,0,10.2165653473,18.905611323,34.868
 1970022\C,0,8.8182501474,18.905435976,35.2395360035\C,0,6.920288772,19
 .8608851165,36.4581013145\C,0,6.3729707436,20.809590521,37.4063631355\
 C,0,5.0939671062,20.3910827767,37.6645357157\C,0,4.8990072155,19.19263
 31994,36.8903054021\C,0,3.4185224777,17.4981928816,35.9133645442\C,0,2
 .0931584702,16.9617290702,35.6701557672\C,0,2.2450849849,16.0206795938
 ,34.6859781591\C,0,3.6487380943,15.9891204026,34.365147294\C,0,4.22781
 66414,15.0083838933,33.5768292863\H,0,3.5717144574,14.2817489928,33.12
 23552743\C,0,8.9523954072,15.8655353476,33.4858954738\H,0,9.8125095261
 ,15.3794687258,33.05148376\C,0,8.2175322072,19.9072028979,35.977100366
 5\H,0,8.8272748163,20.7521987653,36.2579057544\C,0,3.689146349,18.5244
 837501,36.7984022644\H,0,2.877843465,18.8794665925,37.4155447043\C,0,5
 .4004111593,12.7095048019,31.9302246537\H,0,4.6612568191,13.0972379555
 ,31.2286161266\H,0,4.8727201055,12.1371911744,32.6937733666\H,0,6.0611
 630339,12.034133503,31.3922933335\C,0,8.6025964484,13.2719998127,31.89
 70809731\H,0,9.3291002594,12.9483747221,32.6424310614\H,0,9.1261670851
 ,13.8762752295,31.1554612032\H,0,8.2047683489,12.3902452338,31.4007136
 28\C,0,1.1958947924,15.2204222481,33.9964263008\H,0,1.1150999947,14.22
 33547179,34.4333688862\H,0,1.4330693011,15.1077600005,32.9395524157\H,
 0,0.2294343467,15.7125262263,34.0877927007\C,0,0.8900806006,17.3957764
 441,36.3439695325\H,0,0.8740492649,18.4349502314,36.6521457054\C,0,-0.
 1631779018,16.6309862606,36.6138169894\H,0,-0.1863379471,15.5818803403
 ,36.3765031659\H,0,-1.0337605643,17.0270554675,37.1098815917\C,0,4.061
 3919021,21.0466913291,38.5137827425\H,0,3.9915241199,20.5616240952,39.
 489127596\H,0,3.0812387985,20.993752325,38.0419004219\H,0,4.3157520006
 ,22.0932882999,38.6680547451\C,0,7.0741649258,21.9701151973,37.9077023
 57\H,0,7.7686274071,22.4332654725,37.2160869295\C,0,6.9407659058,22.48
 38772017,39.1262559727\H,0,6.304375688,22.0371760857,39.8701859332\H,0
 ,7.4888789415,23.3597840165,39.431605579\C,0,11.1754202398,19.99613175
 36,35.203274663\H,0,11.2679466725,20.1079430445,36.2840277246\H,0,10.8
 318611493,20.9462940212,34.7937910927\H,0,12.1606279954,19.7838113253,
 34.7952665759\C,0,11.70887209,17.1808601255,33.6690738486\H,0,12.54718
 73633,17.8324418441,33.9030780493\H,0,11.6377245432,17.0892064373,32.5
 844144858\H,0,11.9175584649,16.1926412531,34.0782008057\C,0,4.13813758
 15,21.0601613014,31.4776315077\H,0,4.7507207958,21.9260772125,31.22668
 19165\H,0,3.3600526378,21.3725859275,32.1669679728\H,0,3.6694492428,20
 .6976117501,30.5627751864\N,0,6.0174458985,19.4044148033,31.4642295002
 \H,0,6.3361369593,19.6205396876,30.53391341\C,0,4.9609137072,19.996015
 9594,32.1061935766\C,0,6.5457580151,18.4866917969,32.3042697339\H,0,7.
 386935707,17.8681790319,32.0691887523\N,0,5.8890101115,18.4619965457,3
 3.4375025572\C,0,4.9005892979,19.3941224466,33.3303337381\H,0,4.216560
 4137,19.5689992938,34.1345759005\C,0,8.1179503345,17.3534577831,38.649
 5602268\H,0,8.945722794,16.6483145193,38.6544563336\H,0,8.0854620952,1
 7.8668479679,39.6084903227\H,0,8.2937987799,18.0868514632,37.867522089
 1\C,0,6.8097574559,16.6297547846,38.3997674434\H,0,5.9682955618,17.321
 3633038,38.4080191769\H,0,6.6503204459,15.8434253093,39.1384544429\S,0
 ,6.8529013719,15.8113227031,36.7551287611\C,0,5.4306655428,14.70338904
 27,36.9943137753\H,0,5.671368872,13.9784582403,37.767639744\H,0,5.2622
 000742,14.2011041122,36.0477843514\H,0,4.5525069691,15.2812187113,37.2
 647091768\\Version=ES64L-G16RevC.02\State=1-A\HF=-3424.8532905\RMSD=1.
 273e-09\Dipole=0.0475577,0.4810724,-1.512841\Quadrupole=-6.4002184,-1.
 8353214,8.2355398,0.6071586,-2.8937767,-5.9371983\PG=C01 [X(C37H42Fe1N
 6S1)]\\@
 The archive entry for this job was punched.


 TRUST EVERYONE, BUT CUT THE CARDS.
 Job cpu time:       0 days  1 hours  0 minutes 10.3 seconds.
 Elapsed time:       0 days  0 hours  1 minutes 10.9 seconds.
 File lengths (MBytes):  RWF=    938 Int=      0 D2E=      0 Chk=    161 Scr=      1
 Normal termination of Gaussian 16 at Sun Jul 14 03:07:18 2024.
