 Entering Gaussian System, Link 0=g16
 Input=3emm01.com
 Output=3emm01.log
 Initial command:
 /sw/chem/gaussian/g16_C02/a100/g16/l1.exe "/local/bebzhart_7933169/Gau-1373640.inp" -scrdir="/local/bebzhart_7933169/"
 Entering Link 1 = /sw/chem/gaussian/g16_C02/a100/g16/l1.exe PID=   1373641.
  
 Copyright (c) 1988-2021, Gaussian, Inc.  All Rights Reserved.
  
 This is part of the Gaussian(R) 16 program.  It is based on
 the Gaussian(R) 09 system (copyright 2009, Gaussian, Inc.),
 the Gaussian(R) 03 system (copyright 2003, Gaussian, Inc.),
 the Gaussian(R) 98 system (copyright 1998, Gaussian, Inc.),
 the Gaussian(R) 94 system (copyright 1995, Gaussian, Inc.),
 the Gaussian 92(TM) system (copyright 1992, Gaussian, Inc.),
 the Gaussian 90(TM) system (copyright 1990, Gaussian, Inc.),
 the Gaussian 88(TM) system (copyright 1988, Gaussian, Inc.),
 the Gaussian 86(TM) system (copyright 1986, Carnegie Mellon
 University), and the Gaussian 82(TM) system (copyright 1983,
 Carnegie Mellon University). Gaussian is a federally registered
 trademark of Gaussian, Inc.
  
 This software contains proprietary and confidential information,
 including trade secrets, belonging to Gaussian, Inc.
  
 This software is provided under written license and may be
 used, copied, transmitted, or stored only in accord with that
 written license.
  
 The following legend is applicable only to US Government
 contracts under FAR:
  
                    RESTRICTED RIGHTS LEGEND
  
 Use, reproduction and disclosure by the US Government is
 subject to restrictions as set forth in subparagraphs (a)
 and (c) of the Commercial Computer Software - Restricted
 Rights clause in FAR 52.227-19.
  
 Gaussian, Inc.
 340 Quinnipiac St., Bldg. 40, Wallingford CT 06492
  
  
 ---------------------------------------------------------------
 Warning -- This program may not be used in any manner that
 competes with the business of Gaussian, Inc. or will provide
 assistance to any competitor of Gaussian, Inc.  The licensee
 of this program is prohibited from giving any competitor of
 Gaussian, Inc. access to this program.  By using this program,
 the user acknowledges that Gaussian, Inc. is engaged in the
 business of creating and licensing software in the field of
 computational chemistry and represents and warrants to the
 licensee that it is not a competitor of Gaussian, Inc. and that
 it will not use this program in any manner prohibited above.
 ---------------------------------------------------------------
  

 Cite this work as:
 Gaussian 16, Revision C.02,
 M. J. Frisch, G. W. Trucks, H. B. Schlegel, G. E. Scuseria, 
 M. A. Robb, J. R. Cheeseman, G. Scalmani, V. Barone, 
 G. A. Petersson, H. Nakatsuji, X. Li, M. Caricato, A. V. Marenich, 
 J. Bloino, B. G. Janesko, R. Gomperts, B. Mennucci, H. P. Hratchian, 
 J. V. Ortiz, A. F. Izmaylov, J. L. Sonnenberg, D. Williams-Young, 
 F. Ding, F. Lipparini, F. Egidi, J. Goings, B. Peng, A. Petrone, 
 T. Henderson, D. Ranasinghe, V. G. Zakrzewski, J. Gao, N. Rega, 
 G. Zheng, W. Liang, M. Hada, M. Ehara, K. Toyota, R. Fukuda, 
 J. Hasegawa, M. Ishida, T. Nakajima, Y. Honda, O. Kitao, H. Nakai, 
 T. Vreven, K. Throssell, J. A. Montgomery, Jr., J. E. Peralta, 
 F. Ogliaro, M. J. Bearpark, J. J. Heyd, E. N. Brothers, K. N. Kudin, 
 V. N. Staroverov, T. A. Keith, R. Kobayashi, J. Normand, 
 K. Raghavachari, A. P. Rendell, J. C. Burant, S. S. Iyengar, 
 J. Tomasi, M. Cossi, J. M. Millam, M. Klene, C. Adamo, R. Cammi, 
 J. W. Ochterski, R. L. Martin, K. Morokuma, O. Farkas, 
 J. B. Foresman, and D. J. Fox, Gaussian, Inc., Wallingford CT, 2019.
 
 ******************************************
 Gaussian 16:  ES64L-G16RevC.02  7-Dec-2021
                14-Jul-2024 
 ******************************************
 %mem=16GB
 %CPU=0-71
 SetSPE:  set environment variable "OMP_PROC_BIND" = "true"
 SetSPE:  set environment variable "OMP_PLACES" = "{0},{1},{2},{3},{4},{5},{6},{7},{8},{9},{10},{11},{12},{13},{14},{15},{16},{17},{18},{19},{20},{21},{22},{23},{24},{25},{26},{27},{28},{29},{30},{31},{32},{33},{34},{35},{36},{37},{38},{39},{40},{41},{42},{43},{44},{45},{46},{47},{48},{49},{50},{51},{52},{53},{54},{55},{56},{57},{58},{59},{60},{61},{62},{63},{64},{65},{66},{67},{68},{69},{70},{71}"
 Will use up to   72 processors via shared memory.
 %gpucpu=0,1,2,3=0,1,2,3
 Will use    4 GPUs:
 Thread  CPU   GPU
      0    0     0
      1    1     1
      2    2     2
      3    3     3
      4    4    -1
      5    5    -1
      6    6    -1
      7    7    -1
      8    8    -1
      9    9    -1
     10   10    -1
     11   11    -1
     12   12    -1
     13   13    -1
     14   14    -1
     15   15    -1
     16   16    -1
     17   17    -1
     18   18    -1
     19   19    -1
     20   20    -1
     21   21    -1
     22   22    -1
     23   23    -1
     24   24    -1
     25   25    -1
     26   26    -1
     27   27    -1
     28   28    -1
     29   29    -1
     30   30    -1
     31   31    -1
     32   32    -1
     33   33    -1
     34   34    -1
     35   35    -1
     36   36    -1
     37   37    -1
     38   38    -1
     39   39    -1
     40   40    -1
     41   41    -1
     42   42    -1
     43   43    -1
     44   44    -1
     45   45    -1
     46   46    -1
     47   47    -1
     48   48    -1
     49   49    -1
     50   50    -1
     51   51    -1
     52   52    -1
     53   53    -1
     54   54    -1
     55   55    -1
     56   56    -1
     57   57    -1
     58   58    -1
     59   59    -1
     60   60    -1
     61   61    -1
     62   62    -1
     63   63    -1
     64   64    -1
     65   65    -1
     66   66    -1
     67   67    -1
     68   68    -1
     69   69    -1
     70   70    -1
     71   71    -1
 SetGPE:  set environment variable "OMP_PROC_BIND" = "true"
 SetGPE:  set environment variable "OMP_PLACES" = "{0},{1},{2},{3},{4},{5},{6},{7},{8},{9},{10},{11},{12},{13},{14},{15},{16},{17},{18},{19},{20},{21},{22},{23},{24},{25},{26},{27},{28},{29},{30},{31},{32},{33},{34},{35},{36},{37},{38},{39},{40},{41},{42},{43},{44},{45},{46},{47},{48},{49},{50},{51},{52},{53},{54},{55},{56},{57},{58},{59},{60},{61},{62},{63},{64},{65},{66},{67},{68},{69},{70},{71}"
 %chk=3emm_II_O.chk
 Properties for Device   0
 Minimum vector length:                              32
 Maximum vector length:                            1024
 Number of SMPs:                                    108
 Maximum number of threads per SMP:                2048
 Number of ASync Engines:                             5
 Memory:                                           9207742464
 Properties for Device   1
 Minimum vector length:                              32
 Maximum vector length:                            1024
 Number of SMPs:                                    108
 Maximum number of threads per SMP:                2048
 Number of ASync Engines:                             5
 Memory:                                           9207742464
 Properties for Device   2
 Minimum vector length:                              32
 Maximum vector length:                            1024
 Number of SMPs:                                    108
 Maximum number of threads per SMP:                2048
 Number of ASync Engines:                             5
 Memory:                                           9207742464
 Properties for Device   3
 Minimum vector length:                              32
 Maximum vector length:                            1024
 Number of SMPs:                                    108
 Maximum number of threads per SMP:                2048
 Number of ASync Engines:                             5
 Memory:                                           9207742464
   8286968217 words of memory will be used on each GPU.
 ------------------------------------------
 # polar def2tzvp apfd int=(grid=ultrafine)
 ------------------------------------------
 1/38=1,172=1/1;
 2/12=2,17=6,18=5,40=1/2;
 3/5=44,7=101,11=2,25=1,30=1,74=-44,75=-5/1,2,3;
 4//1;
 5/5=2,38=5,98=1/2;
 8/6=4,10=90,11=11/1;
 10/6=1,13=10/2;
 6/7=2,8=2,9=2,10=2,28=1/1;
 99/5=1,9=1/99;
 ---------
 3emm_II_S
 ---------
 Symbolic Z-matrix:
 Charge =  0 Multiplicity = 1
 Fe                    15.93953   1.2577    7.63645 
 N                     16.29296   0.61393   9.47721 
 N                     14.08505   1.85241   8.18113 
 N                     15.46641   1.69656   5.72248 
 N                     17.6283   0.40686   6.99715 
 C                     17.43754   0.04244   9.93214 
 C                     17.33668  -0.24765   11.34643 
 C                     16.09524   0.15211   11.73009 
 C                     15.45968   0.69697   10.54858 
 C                     13.5694   1.81239   9.44233 
 C                     12.32762   2.53487   9.51257 
 C                     12.09706   3.03017   8.25404 
 C                     13.20569   2.57687   7.43911 
 C                     14.39017   2.41295   5.29413 
 C                     14.45132   2.63424   3.87135 
 C                     15.60159   2.03006   3.43891 
 C                     16.21647   1.45157   4.61882 
 C                     18.07115   0.28926   5.71885 
 C                     19.36279  -0.36083   5.67998 
 C                     19.69661  -0.62254   6.97221 
 C                     18.59149  -0.15203   7.7782 
 C                     18.53715  -0.27411   9.15523 
 H                     19.3852  -0.72329   9.65011 
 C                     14.18204   1.21935   10.53598 
 H                     13.64467   1.23197   11.47216 
 C                     13.34615   2.85023   6.09137 
 H                     12.57982   3.44719   5.62075 
 C                     17.41145   0.75769   4.5989 
 H                     17.89296   0.61472   3.64366 
 C                     15.45213   0.07632   13.0725 
 H                     16.12677  -0.36757   13.80054 
 H                     14.54695  -0.52998   13.03025 
 H                     15.17593   1.07139   13.42225 
 C                     18.41995  -0.87682   12.15426 
 H                     19.32572  -0.2705    12.12109 
 H                     18.6624  -1.86624   11.76571 
 H                     18.11723  -0.98267   13.19317 
 C                     11.46029   2.63924   10.71823 
 H                     11.79885   3.44441   11.37256 
 H                     11.47887   1.71194   11.28897 
 H                     10.43339   2.84629   10.42287 
 C                     10.98649   3.81762   7.76897 
 H                     10.70919   3.6476    6.73487 
 C                     10.30701   4.71674   8.47425 
 H                     10.56547   4.96541   9.48851 
 H                     9.47969   5.25847   8.04642 
 C                     13.40436   3.31836   3.06292 
 H                     13.51566   4.40266   3.1184 
 H                     12.40925   3.06302   3.42431 
 H                     13.48236   3.0178    2.02012 
 C                     16.13029   1.92468   2.0972 
 H                     16.6623   1.00681   1.87456 
 C                     16.01973   2.84844   1.14785 
 H                     15.54574   3.79819   1.32415 
 H                     16.42714   2.69441   0.16225 
 C                     20.12411  -0.64429   4.43059 
 H                     20.34981   0.282     3.90149 
 H                     19.54247  -1.28069   3.76343 
 H                     21.0613  -1.14858   4.65355 
 C                     20.92037  -1.2753    7.51885 
 H                     21.4373  -0.60708   8.20836 
 H                     21.6079  -1.539     6.71896 
 H                     20.66083  -2.18463   8.06153 
 C                     16.92962   6.70134   8.24881 
 H                     16.98958   7.08244   9.26823 
 H                     15.97434   6.99331   7.82394 
 H                     17.7271   7.16133   7.6653 
 N                     18.13968   4.56193   8.73315 
 H                     18.94929   4.99344   9.14763 
 C                     17.04791   5.22132   8.23246 
 C                     17.92701   3.23547   8.57158 
 H                     18.61606   2.47337   8.87312 
 N                     16.76709   3.01578   7.99948 
 C                     16.2103   4.24245   7.78027 
 H                     15.25056   4.33811   7.3161 
 O                     14.844   -0.724     7.283 
 H                     13.938   -0.436     7.391 
 H                     15.114   -1.548     7.087 
 
 Stoichiometry    C34H36FeN6O
 Framework group  C1[X(C34H36FeN6O)]
 Deg. of freedom   228
 Full point group                 C1      NOp   1
 Largest Abelian subgroup         C1      NOp   1
 Largest concise Abelian subgroup C1      NOp   1
                         Standard orientation:                         
 ---------------------------------------------------------------------
 Center     Atomic      Atomic             Coordinates (Angstroms)
 Number     Number       Type             X           Y           Z
 ---------------------------------------------------------------------
      1         26           0        0.237764   -0.106422   -0.337396
      2          7           0        0.942971   -1.957487   -0.400711
      3          7           0       -1.637354   -0.790416   -0.662278
      4          7           0       -0.468696    1.776973   -0.520305
      5          7           0        2.097352    0.619131   -0.328825
      6          6           0        2.236004   -2.340013   -0.241474
      7          6           0        2.353523   -3.781244   -0.301280
      8          6           0        1.098190   -4.257672   -0.514166
      9          6           0        0.227222   -3.101982   -0.564770
     10          6           0       -2.009870   -2.099279   -0.741241
     11          6           0       -3.442542   -2.226886   -0.732201
     12          6           0       -3.943299   -0.953128   -0.636467
     13          6           0       -2.791926   -0.074413   -0.607562
     14          6           0       -1.775855    2.159500   -0.517761
     15          6           0       -1.892746    3.595793   -0.537693
     16          6           0       -0.613432    4.083963   -0.552331
     17          6           0        0.256854    2.923197   -0.540900
     18          6           0        2.487019    1.916536   -0.423098
     19          6           0        3.926871    2.028200   -0.340449
     20          6           0        4.398560    0.762634   -0.180364
     21          6           0        3.241074   -0.104725   -0.194371
     22          6           0        3.311398   -1.482804   -0.094293
     23          1           0        4.288855   -1.924881    0.028261
     24          6           0       -1.137515   -3.177163   -0.757785
     25          1           0       -1.568460   -4.161916   -0.857274
     26          6           0       -2.864244    1.303916   -0.531133
     27          1           0       -3.845880    1.750232   -0.483172
     28          6           0        1.636737    2.999207   -0.540435
     29          1           0        2.085403    3.979849   -0.582869
     30          6           0        0.637626   -5.666199   -0.673359
     31          1           0        1.472653   -6.357992   -0.593443
     32          1           0        0.167372   -5.808079   -1.646736
     33          1           0       -0.093270   -5.919924    0.094880
     34          6           0        3.637334   -4.525876   -0.162423
     35          1           0        4.105085   -4.309644    0.798611
     36          1           0        4.334805   -4.237257   -0.949153
     37          1           0        3.472517   -5.598544   -0.228802
     38          6           0       -4.193088   -3.505078   -0.872518
     39          1           0       -4.286790   -4.009031    0.090963
     40          1           0       -3.681503   -4.180379   -1.556787
     41          1           0       -5.192792   -3.311009   -1.256639
     42          6           0       -5.318452   -0.510000   -0.600027
     43          1           0       -5.511132    0.454362   -1.056164
     44          6           0       -6.332797   -1.174013   -0.054409
     45          1           0       -6.197204   -2.111301    0.455965
     46          1           0       -7.336970   -0.784002   -0.076623
     47          6           0       -3.173398    4.352189   -0.611814
     48          1           0       -3.628549    4.445700    0.375743
     49          1           0       -3.883859    3.845631   -1.263490
     50          1           0       -2.994556    5.351306   -1.003781
     51          6           0       -0.158753    5.455600   -0.604135
     52          1           0        0.757640    5.624276   -1.158087
     53          6           0       -0.762614    6.492427   -0.032156
     54          1           0       -1.647252    6.380294    0.570025
     55          1           0       -0.373185    7.492757   -0.125961
     56          6           0        4.675921    3.314533   -0.412631
     57          1           0        4.376406    3.977864    0.399263
     58          1           0        4.474173    3.823092   -1.355539
     59          1           0        5.747255    3.144098   -0.338283
     60          6           0        5.804723    0.289116   -0.035524
     61          1           0        5.935533   -0.245235    0.906030
     62          1           0        6.498173    1.126326   -0.052182
     63          1           0        6.067053   -0.389527   -0.847546
     64          6           0       -1.663377    0.085668    4.891106
     65          1           0       -1.765683   -0.863927    5.416322
     66          1           0       -2.650010    0.426429    4.593164
     67          1           0       -1.235935    0.812877    5.581405
     68          7           0        0.486726   -0.513019    3.753333
     69          1           0        0.978805   -0.770952    4.592849
     70          6           0       -0.807581   -0.068180    3.687505
     71          6           0        0.974049   -0.544248    2.491433
     72          1           0        1.966783   -0.853774    2.236114
     73          7           0        0.066674   -0.146534    1.631516
     74          6           0       -1.046066    0.155469    2.361846
     75          1           0       -1.937974    0.509990    1.888011
     76          8           0        0.293026   -0.135560   -2.628325
     77          1           0       -0.628045   -0.314305   -2.815735
     78          1           0        0.937468   -0.012742   -3.228244
 ---------------------------------------------------------------------
 Rotational constants (GHZ):           0.0930107           0.0919459           0.0592498
 Standard basis: def2TZVP (5D, 7F)
 There are  1744 symmetry adapted cartesian basis functions of A   symmetry.
 There are  1532 symmetry adapted basis functions of A   symmetry.
  1532 basis functions,  2481 primitive gaussians,  1744 cartesian basis functions
   158 alpha electrons      158 beta electrons
       nuclear repulsion energy      5965.7089552305 Hartrees.
 NAtoms=   78 NActive=   78 NUniq=   78 SFac= 1.00D+00 NAtFMM=   60 NAOKFM=T Big=T
 Integral buffers will be    131072 words long.
 Raffenetti 2 integral format.
 Two-electron integral symmetry is turned on.
 R6APFD:  NTU= -4 IXU= 1 FactS= 1.050
 Nuclear repulsion after empirical dispersion term =     5965.5561772918 Hartrees.
 One-electron integrals computed using PRISM.
   1 Symmetry operations used in ECPInt.
 ECPInt:  NShTT=  186355 NPrTT=  576197 LenC2=  147259 LenP2D=  301302.
 LDataN:  DoStor=T MaxTD1= 6 Len=  172
 Number of processors reduced to  23 by ecpmxn.
 NBasis=  1532 RedAO= T EigKep=  3.32D-06  NBF=  1532
 NBsUse=  1532 1.00D-06 EigRej= -1.00D+00 NBFU=  1532
 ExpMin= 4.20D-02 ExpMax= 3.01D+05 ExpMxC= 2.91D+03 IAcc=3 IRadAn=         5 AccDes= 0.00D+00
 Harris functional with IExCor= 3731 and IRadAn=       5 diagonalized for initial guess.
 HarFok:  IExCor= 3731 AccDes= 0.00D+00 IRadAn=         5 IDoV= 1 UseB2=F ITyADJ=14
 ICtDFT=  3500011 ScaDFX=  1.000000  1.000000  1.000000  1.000000
 FoFCou: FMM=F IPFlag=           0 FMFlag=      100000 FMFlg1=        2001
         NFxFlg=           0 DoJE=T BraDBF=F KetDBF=T FulRan=T
         wScrn=  0.000000 ICntrl=       500 IOpCl=  0 I1Cent=   200000004 NGrid=           0
         NMat0=    1 NMatS0=      1 NMatT0=    0 NMatD0=    1 NMtDS0=    0 NMtDT0=    0
 Petite list used in FoFCou.
 Requested convergence on RMS density matrix=1.00D-08 within 128 cycles.
 Requested convergence on MAX density matrix=1.00D-06.
 Requested convergence on             energy=1.00D-06.
 No special actions if energy rises.
 EnCoef did     3 forward-backward iterations
 EnCoef did   100 forward-backward iterations
 EnCoef did   100 forward-backward iterations
 EnCoef did   100 forward-backward iterations
 EnCoef did     2 forward-backward iterations
 EnCoef did     2 forward-backward iterations
 Restarting incremental Fock formation.
 SCF Done:  E(RAPFD) =  -2984.02457304     A.U. after   26 cycles
            NFock= 26  Conv=0.49D-08     -V/T= 2.0034
 DoSCS=F DFT=T ScalE2(SS,OS)=  1.000000  1.000000
 Range of M.O.s used for correlation:     1  1532
 NBasis=  1532 NAE=   158 NBE=   158 NFC=     0 NFV=     0
 NROrb=   1532 NOA=   158 NOB=   158 NVA=  1374 NVB=  1374

 **** Warning!!: The largest alpha MO coefficient is  0.52619392D+02

          Differentiating once with respect to electric field.
                with respect to dipole field.
          Electric field/nuclear overlap derivatives assumed to be zero.
          There are     3 degrees of freedom in the 1st order CPHF.  IDoFFX=0 NUNeed=     3.
      3 vectors produced by pass  0 Test12= 7.24D-12 3.33D-08 XBig12= 1.86D+03 2.29D+01.
 AX will form     3 AO Fock derivatives at one time.
      3 vectors produced by pass  1 Test12= 7.24D-12 3.33D-08 XBig12= 1.19D+03 8.29D+00.
      3 vectors produced by pass  2 Test12= 7.24D-12 3.33D-08 XBig12= 3.99D+02 6.08D+00.
      3 vectors produced by pass  3 Test12= 7.24D-12 3.33D-08 XBig12= 3.31D+02 3.21D+00.
      3 vectors produced by pass  4 Test12= 7.24D-12 3.33D-08 XBig12= 1.94D+02 2.43D+00.
      3 vectors produced by pass  5 Test12= 7.24D-12 3.33D-08 XBig12= 7.75D+01 1.67D+00.
      3 vectors produced by pass  6 Test12= 7.24D-12 3.33D-08 XBig12= 5.67D+01 1.96D+00.
      3 vectors produced by pass  7 Test12= 7.24D-12 3.33D-08 XBig12= 2.39D+01 1.01D+00.
      3 vectors produced by pass  8 Test12= 7.24D-12 3.33D-08 XBig12= 1.20D+01 6.16D-01.
      3 vectors produced by pass  9 Test12= 7.24D-12 3.33D-08 XBig12= 4.87D+00 6.78D-01.
      3 vectors produced by pass 10 Test12= 7.24D-12 3.33D-08 XBig12= 2.19D+00 2.98D-01.
      3 vectors produced by pass 11 Test12= 7.24D-12 3.33D-08 XBig12= 8.35D-01 1.62D-01.
      3 vectors produced by pass 12 Test12= 7.24D-12 3.33D-08 XBig12= 3.23D-01 1.01D-01.
      3 vectors produced by pass 13 Test12= 7.24D-12 3.33D-08 XBig12= 8.11D-02 9.73D-02.
      3 vectors produced by pass 14 Test12= 7.24D-12 3.33D-08 XBig12= 4.21D-02 7.46D-02.
      3 vectors produced by pass 15 Test12= 7.24D-12 3.33D-08 XBig12= 1.77D-02 4.26D-02.
      3 vectors produced by pass 16 Test12= 7.24D-12 3.33D-08 XBig12= 5.83D-03 1.40D-02.
      3 vectors produced by pass 17 Test12= 7.24D-12 3.33D-08 XBig12= 1.39D-03 7.75D-03.
      3 vectors produced by pass 18 Test12= 7.24D-12 3.33D-08 XBig12= 3.68D-04 4.20D-03.
      3 vectors produced by pass 19 Test12= 7.24D-12 3.33D-08 XBig12= 1.03D-04 2.30D-03.
      3 vectors produced by pass 20 Test12= 7.24D-12 3.33D-08 XBig12= 1.87D-05 8.65D-04.
      3 vectors produced by pass 21 Test12= 7.24D-12 3.33D-08 XBig12= 3.96D-06 4.38D-04.
      3 vectors produced by pass 22 Test12= 7.24D-12 3.33D-08 XBig12= 1.15D-06 2.50D-04.
      3 vectors produced by pass 23 Test12= 7.24D-12 3.33D-08 XBig12= 2.60D-07 1.09D-04.
      3 vectors produced by pass 24 Test12= 7.24D-12 3.33D-08 XBig12= 5.81D-08 3.80D-05.
      3 vectors produced by pass 25 Test12= 7.24D-12 3.33D-08 XBig12= 1.19D-08 1.57D-05.
      3 vectors produced by pass 26 Test12= 7.24D-12 3.33D-08 XBig12= 3.16D-09 6.95D-06.
      3 vectors produced by pass 27 Test12= 7.24D-12 3.33D-08 XBig12= 2.93D-10 1.65D-06.
      3 vectors produced by pass 28 Test12= 7.24D-12 3.33D-08 XBig12= 4.50D-11 7.64D-07.
      3 vectors produced by pass 29 Test12= 7.24D-12 3.33D-08 XBig12= 1.03D-11 4.22D-07.
      3 vectors produced by pass 30 Test12= 7.24D-12 3.33D-08 XBig12= 1.51D-12 2.77D-07.
      2 vectors produced by pass 31 Test12= 7.24D-12 3.33D-08 XBig12= 2.04D-13 9.73D-08.
      1 vectors produced by pass 32 Test12= 7.24D-12 3.33D-08 XBig12= 3.64D-14 4.39D-08.
 InvSVY:  IOpt=1 It=  1 EMax= 8.55D-15
 Solved reduced A of dimension    96 with     3 vectors.
 Isotropic polarizability for W=    0.000000      575.36 Bohr**3.
 End of Minotr F.D. properties file   721 does not exist.
 End of Minotr F.D. properties file   722 does not exist.
 End of Minotr F.D. properties file   788 does not exist.

 **********************************************************************

            Population analysis using the SCF Density.

 **********************************************************************

 Orbital symmetries:
       Occupied  (A) (A) (A) (A) (A) (A) (A) (A) (A) (A) (A) (A)
                 (A) (A) (A) (A) (A) (A) (A) (A) (A) (A) (A) (A)
                 (A) (A) (A) (A) (A) (A) (A) (A) (A) (A) (A) (A)
                 (A) (A) (A) (A) (A) (A) (A) (A) (A) (A) (A) (A)
                 (A) (A) (A) (A) (A) (A) (A) (A) (A) (A) (A) (A)
                 (A) (A) (A) (A) (A) (A) (A) (A) (A) (A) (A) (A)
                 (A) (A) (A) (A) (A) (A) (A) (A) (A) (A) (A) (A)
                 (A) (A) (A) (A) (A) (A) (A) (A) (A) (A) (A) (A)
                 (A) (A) (A) (A) (A) (A) (A) (A) (A) (A) (A) (A)
                 (A) (A) (A) (A) (A) (A) (A) (A) (A) (A) (A) (A)
                 (A) (A) (A) (A) (A) (A) (A) (A) (A) (A) (A) (A)
                 (A) (A) (A) (A) (A) (A) (A) (A) (A) (A) (A) (A)
                 (A) (A) (A) (A) (A) (A) (A) (A) (A) (A) (A) (A)
                 (A) (A)
       Virtual   (A) (A) (A) (A) (A) (A) (A) (A) (A) (A) (A) (A)
                 (A) (A) (A) (A) (A) (A) (A) (A) (A) (A) (A) (A)
                 (A) (A) (A) (A) (A) (A) (A) (A) (A) (A) (A) (A)
                 (A) (A) (A) (A) (A) (A) (A) (A) (A) (A) (A) (A)
                 (A) (A) (A) (A) (A) (A) (A) (A) (A) (A) (A) (A)
                 (A) (A) (A) (A) (A) (A) (A) (A) (A) (A) (A) (A)
                 (A) (A) (A) (A) (A) (A) (A) (A) (A) (A) (A) (A)
                 (A) (A) (A) (A) (A) (A) (A) (A) (A) (A) (A) (A)
                 (A) (A) (A) (A) (A) (A) (A) (A) (A) (A) (A) (A)
                 (A) (A) (A) (A) (A) (A) (A) (A) (A) (A) (A) (A)
                 (A) (A) (A) (A) (A) (A) (A) (A) (A) (A) (A) (A)
                 (A) (A) (A) (A) (A) (A) (A) (A) (A) (A) (A) (A)
                 (A) (A) (A) (A) (A) (A) (A) (A) (A) (A) (A) (A)
                 (A) (A) (A) (A) (A) (A) (A) (A) (A) (A) (A) (A)
                 (A) (A) (A) (A) (A) (A) (A) (A) (A) (A) (A) (A)
                 (A) (A) (A) (A) (A) (A) (A) (A) (A) (A) (A) (A)
                 (A) (A) (A) (A) (A) (A) (A) (A) (A) (A) (A) (A)
                 (A) (A) (A) (A) (A) (A) (A) (A) (A) (A) (A) (A)
                 (A) (A) (A) (A) (A) (A) (A) (A) (A) (A) (A) (A)
                 (A) (A) (A) (A) (A) (A) (A) (A) (A) (A) (A) (A)
                 (A) (A) (A) (A) (A) (A) (A) (A) (A) (A) (A) (A)
                 (A) (A) (A) (A) (A) (A) (A) (A) (A) (A) (A) (A)
                 (A) (A) (A) (A) (A) (A) (A) (A) (A) (A) (A) (A)
                 (A) (A) (A) (A) (A) (A) (A) (A) (A) (A) (A) (A)
                 (A) (A) (A) (A) (A) (A) (A) (A) (A) (A) (A) (A)
                 (A) (A) (A) (A) (A) (A) (A) (A) (A) (A) (A) (A)
                 (A) (A) (A) (A) (A) (A) (A) (A) (A) (A) (A) (A)
                 (A) (A) (A) (A) (A) (A) (A) (A) (A) (A) (A) (A)
                 (A) (A) (A) (A) (A) (A) (A) (A) (A) (A) (A) (A)
                 (A) (A) (A) (A) (A) (A) (A) (A) (A) (A) (A) (A)
                 (A) (A) (A) (A) (A) (A) (A) (A) (A) (A) (A) (A)
                 (A) (A) (A) (A) (A) (A) (A) (A) (A) (A) (A) (A)
                 (A) (A) (A) (A) (A) (A) (A) (A) (A) (A) (A) (A)
                 (A) (A) (A) (A) (A) (A) (A) (A) (A) (A) (A) (A)
                 (A) (A) (A) (A) (A) (A) (A) (A) (A) (A) (A) (A)
                 (A) (A) (A) (A) (A) (A) (A) (A) (A) (A) (A) (A)
                 (A) (A) (A) (A) (A) (A) (A) (A) (A) (A) (A) (A)
                 (A) (A) (A) (A) (A) (A) (A) (A) (A) (A) (A) (A)
                 (A) (A) (A) (A) (A) (A) (A) (A) (A) (A) (A) (A)
                 (A) (A) (A) (A) (A) (A) (A) (A) (A) (A) (A) (A)
                 (A) (A) (A) (A) (A) (A) (A) (A) (A) (A) (A) (A)
                 (A) (A) (A) (A) (A) (A) (A) (A) (A) (A) (A) (A)
                 (A) (A) (A) (A) (A) (A) (A) (A) (A) (A) (A) (A)
                 (A) (A) (A) (A) (A) (A) (A) (A) (A) (A) (A) (A)
                 (A) (A) (A) (A) (A) (A) (A) (A) (A) (A) (A) (A)
                 (A) (A) (A) (A) (A) (A) (A) (A) (A) (A) (A) (A)
                 (A) (A) (A) (A) (A) (A) (A) (A) (A) (A) (A) (A)
                 (A) (A) (A) (A) (A) (A) (A) (A) (A) (A) (A) (A)
                 (A) (A) (A) (A) (A) (A) (A) (A) (A) (A) (A) (A)
                 (A) (A) (A) (A) (A) (A) (A) (A) (A) (A) (A) (A)
                 (A) (A) (A) (A) (A) (A) (A) (A) (A) (A) (A) (A)
                 (A) (A) (A) (A) (A) (A) (A) (A) (A) (A) (A) (A)
                 (A) (A) (A) (A) (A) (A) (A) (A) (A) (A) (A) (A)
                 (A) (A) (A) (A) (A) (A) (A) (A) (A) (A) (A) (A)
                 (A) (A) (A) (A) (A) (A) (A) (A) (A) (A) (A) (A)
                 (A) (A) (A) (A) (A) (A) (A) (A) (A) (A) (A) (A)
                 (A) (A) (A) (A) (A) (A) (A) (A) (A) (A) (A) (A)
                 (A) (A) (A) (A) (A) (A) (A) (A) (A) (A) (A) (A)
                 (A) (A) (A) (A) (A) (A) (A) (A) (A) (A) (A) (A)
                 (A) (A) (A) (A) (A) (A) (A) (A) (A) (A) (A) (A)
                 (A) (A) (A) (A) (A) (A) (A) (A) (A) (A) (A) (A)
                 (A) (A) (A) (A) (A) (A) (A) (A) (A) (A) (A) (A)
                 (A) (A) (A) (A) (A) (A) (A) (A) (A) (A) (A) (A)
                 (A) (A) (A) (A) (A) (A) (A) (A) (A) (A) (A) (A)
                 (A) (A) (A) (A) (A) (A) (A) (A) (A) (A) (A) (A)
                 (A) (A) (A) (A) (A) (A) (A) (A) (A) (A) (A) (A)
                 (A) (A) (A) (A) (A) (A) (A) (A) (A) (A) (A) (A)
                 (A) (A) (A) (A) (A) (A) (A) (A) (A) (A) (A) (A)
                 (A) (A) (A) (A) (A) (A) (A) (A) (A) (A) (A) (A)
                 (A) (A) (A) (A) (A) (A) (A) (A) (A) (A) (A) (A)
                 (A) (A) (A) (A) (A) (A) (A) (A) (A) (A) (A) (A)
                 (A) (A) (A) (A) (A) (A) (A) (A) (A) (A) (A) (A)
                 (A) (A) (A) (A) (A) (A) (A) (A) (A) (A) (A) (A)
                 (A) (A) (A) (A) (A) (A) (A) (A) (A) (A) (A) (A)
                 (A) (A) (A) (A) (A) (A) (A) (A) (A) (A) (A) (A)
                 (A) (A) (A) (A) (A) (A) (A) (A) (A) (A) (A) (A)
                 (A) (A) (A) (A) (A) (A) (A) (A) (A) (A) (A) (A)
                 (A) (A) (A) (A) (A) (A) (A) (A) (A) (A) (A) (A)
                 (A) (A) (A) (A) (A) (A) (A) (A) (A) (A) (A) (A)
                 (A) (A) (A) (A) (A) (A) (A) (A) (A) (A) (A) (A)
                 (A) (A) (A) (A) (A) (A) (A) (A) (A) (A) (A) (A)
                 (A) (A) (A) (A) (A) (A) (A) (A) (A) (A) (A) (A)
                 (A) (A) (A) (A) (A) (A) (A) (A) (A) (A) (A) (A)
                 (A) (A) (A) (A) (A) (A) (A) (A) (A) (A) (A) (A)
                 (A) (A) (A) (A) (A) (A) (A) (A) (A) (A) (A) (A)
                 (A) (A) (A) (A) (A) (A) (A) (A) (A) (A) (A) (A)
                 (A) (A) (A) (A) (A) (A) (A) (A) (A) (A) (A) (A)
                 (A) (A) (A) (A) (A) (A) (A) (A) (A) (A) (A) (A)
                 (A) (A) (A) (A) (A) (A) (A) (A) (A) (A) (A) (A)
                 (A) (A) (A) (A) (A) (A) (A) (A) (A) (A) (A) (A)
                 (A) (A) (A) (A) (A) (A) (A) (A) (A) (A) (A) (A)
                 (A) (A) (A) (A) (A) (A) (A) (A) (A) (A) (A) (A)
                 (A) (A) (A) (A) (A) (A) (A) (A) (A) (A) (A) (A)
                 (A) (A) (A) (A) (A) (A) (A) (A) (A) (A) (A) (A)
                 (A) (A) (A) (A) (A) (A) (A) (A) (A) (A) (A) (A)
                 (A) (A) (A) (A) (A) (A) (A) (A) (A) (A) (A) (A)
                 (A) (A) (A) (A) (A) (A) (A) (A) (A) (A) (A) (A)
                 (A) (A) (A) (A) (A) (A) (A) (A) (A) (A) (A) (A)
                 (A) (A) (A) (A) (A) (A) (A) (A) (A) (A) (A) (A)
                 (A) (A) (A) (A) (A) (A) (A) (A) (A) (A) (A) (A)
                 (A) (A) (A) (A) (A) (A) (A) (A) (A) (A) (A) (A)
                 (A) (A) (A) (A) (A) (A) (A) (A) (A) (A) (A) (A)
                 (A) (A) (A) (A) (A) (A) (A) (A) (A) (A) (A) (A)
                 (A) (A) (A) (A) (A) (A) (A) (A) (A) (A) (A) (A)
                 (A) (A) (A) (A) (A) (A) (A) (A) (A) (A) (A) (A)
                 (A) (A) (A) (A) (A) (A) (A) (A) (A) (A) (A) (A)
                 (A) (A) (A) (A) (A) (A) (A) (A) (A) (A) (A) (A)
                 (A) (A) (A) (A) (A) (A) (A) (A) (A) (A) (A) (A)
                 (A) (A) (A) (A) (A) (A) (A) (A) (A) (A) (A) (A)
                 (A) (A) (A) (A) (A) (A) (A) (A) (A) (A) (A) (A)
                 (A) (A) (A) (A) (A) (A) (A) (A) (A) (A) (A) (A)
                 (A) (A) (A) (A) (A) (A) (A) (A) (A) (A) (A) (A)
                 (A) (A) (A) (A) (A) (A) (A) (A) (A) (A) (A) (A)
                 (A) (A) (A) (A) (A) (A) (A) (A) (A) (A) (A) (A)
                 (A) (A) (A) (A) (A) (A)
 The electronic state is 1-A.
 Alpha  occ. eigenvalues -- -256.17474 -30.02446 -25.86613 -25.86218 -25.86181
 Alpha  occ. eigenvalues --  -19.16343 -14.41693 -14.36507 -14.33297 -14.32986
 Alpha  occ. eigenvalues --  -14.32926 -14.32916 -10.25380 -10.23659 -10.21031
 Alpha  occ. eigenvalues --  -10.20995 -10.20812 -10.20714 -10.20660 -10.20654
 Alpha  occ. eigenvalues --  -10.20628 -10.20610 -10.20556 -10.20498 -10.19596
 Alpha  occ. eigenvalues --  -10.19330 -10.19011 -10.18702 -10.18654 -10.18650
 Alpha  occ. eigenvalues --  -10.18551 -10.18542 -10.18498 -10.18482 -10.18477
 Alpha  occ. eigenvalues --  -10.18413 -10.18408 -10.18374 -10.18333 -10.18266
 Alpha  occ. eigenvalues --  -10.18262 -10.18210 -10.18138 -10.18135 -10.18065
 Alpha  occ. eigenvalues --  -10.17906  -3.40057  -2.16698  -2.15909  -2.15857
 Alpha  occ. eigenvalues --   -1.05259  -1.04265  -0.96717  -0.95866  -0.95648
 Alpha  occ. eigenvalues --   -0.94779  -0.90891  -0.82079  -0.81755  -0.81348
 Alpha  occ. eigenvalues --   -0.80562  -0.80242  -0.80184  -0.79459  -0.79324
 Alpha  occ. eigenvalues --   -0.76596  -0.75544  -0.74141  -0.73784  -0.73055
 Alpha  occ. eigenvalues --   -0.71761  -0.70852  -0.69966  -0.68080  -0.67769
 Alpha  occ. eigenvalues --   -0.67687  -0.64536  -0.63981  -0.63922  -0.61246
 Alpha  occ. eigenvalues --   -0.60525  -0.60091  -0.59615  -0.57661  -0.56461
 Alpha  occ. eigenvalues --   -0.55882  -0.54305  -0.53501  -0.53152  -0.52429
 Alpha  occ. eigenvalues --   -0.50942  -0.50864  -0.50376  -0.48613  -0.47778
 Alpha  occ. eigenvalues --   -0.47717  -0.47434  -0.47125  -0.44859  -0.44640
 Alpha  occ. eigenvalues --   -0.44406  -0.44321  -0.43899  -0.43681  -0.43321
 Alpha  occ. eigenvalues --   -0.43258  -0.43104  -0.42954  -0.42699  -0.42483
 Alpha  occ. eigenvalues --   -0.42379  -0.42243  -0.41652  -0.41580  -0.41352
 Alpha  occ. eigenvalues --   -0.41284  -0.40632  -0.40168  -0.40013  -0.39981
 Alpha  occ. eigenvalues --   -0.39362  -0.39285  -0.39042  -0.38831  -0.38417
 Alpha  occ. eigenvalues --   -0.38181  -0.37607  -0.37311  -0.37018  -0.36831
 Alpha  occ. eigenvalues --   -0.36206  -0.35809  -0.35376  -0.35137  -0.34304
 Alpha  occ. eigenvalues --   -0.33929  -0.33828  -0.33426  -0.33303  -0.31815
 Alpha  occ. eigenvalues --   -0.31608  -0.30596  -0.30301  -0.29520  -0.29138
 Alpha  occ. eigenvalues --   -0.28448  -0.26568  -0.26454  -0.24304  -0.23832
 Alpha  occ. eigenvalues --   -0.22956  -0.22587  -0.21845  -0.19127  -0.18349
 Alpha  occ. eigenvalues --   -0.17766  -0.17697  -0.17509
 Alpha virt. eigenvalues --   -0.06475  -0.06277  -0.01833   0.00574   0.01312
 Alpha virt. eigenvalues --    0.01589   0.02358   0.02974   0.03799   0.04705
 Alpha virt. eigenvalues --    0.04802   0.04971   0.05477   0.05975   0.06065
 Alpha virt. eigenvalues --    0.06526   0.06610   0.07123   0.08043   0.08237
 Alpha virt. eigenvalues --    0.08356   0.09001   0.09211   0.09653   0.09853
 Alpha virt. eigenvalues --    0.10085   0.10259   0.10722   0.10966   0.11336
 Alpha virt. eigenvalues --    0.11654   0.11826   0.12156   0.12243   0.12348
 Alpha virt. eigenvalues --    0.12585   0.12818   0.13208   0.13460   0.13805
 Alpha virt. eigenvalues --    0.13902   0.14090   0.14482   0.14671   0.14864
 Alpha virt. eigenvalues --    0.15103   0.15176   0.15267   0.15678   0.15915
 Alpha virt. eigenvalues --    0.15990   0.16075   0.16301   0.16409   0.16647
 Alpha virt. eigenvalues --    0.17068   0.17347   0.17475   0.17881   0.18129
 Alpha virt. eigenvalues --    0.18329   0.18834   0.19329   0.19590   0.19690
 Alpha virt. eigenvalues --    0.20043   0.20197   0.20543   0.20813   0.20948
 Alpha virt. eigenvalues --    0.21151   0.21512   0.21926   0.22117   0.22536
 Alpha virt. eigenvalues --    0.22655   0.22982   0.23360   0.23564   0.23826
 Alpha virt. eigenvalues --    0.24034   0.24839   0.25017   0.25215   0.25616
 Alpha virt. eigenvalues --    0.25834   0.26178   0.26239   0.26652   0.27083
 Alpha virt. eigenvalues --    0.27285   0.27425   0.27523   0.27762   0.28127
 Alpha virt. eigenvalues --    0.28617   0.28773   0.29117   0.29405   0.29553
 Alpha virt. eigenvalues --    0.29746   0.30043   0.30106   0.30633   0.30668
 Alpha virt. eigenvalues --    0.30901   0.31161   0.31344   0.31840   0.32213
 Alpha virt. eigenvalues --    0.32651   0.32735   0.32925   0.33174   0.33399
 Alpha virt. eigenvalues --    0.34032   0.34142   0.34611   0.34717   0.34758
 Alpha virt. eigenvalues --    0.35198   0.35308   0.35313   0.36273   0.36517
 Alpha virt. eigenvalues --    0.36759   0.37072   0.37234   0.37435   0.37603
 Alpha virt. eigenvalues --    0.37938   0.38321   0.38407   0.38663   0.39092
 Alpha virt. eigenvalues --    0.39229   0.39561   0.39622   0.39768   0.40144
 Alpha virt. eigenvalues --    0.40751   0.40787   0.40865   0.41010   0.41158
 Alpha virt. eigenvalues --    0.41404   0.41662   0.41959   0.42090   0.42219
 Alpha virt. eigenvalues --    0.42333   0.42426   0.42717   0.42939   0.43226
 Alpha virt. eigenvalues --    0.43510   0.43850   0.44029   0.44182   0.44432
 Alpha virt. eigenvalues --    0.44671   0.44990   0.45324   0.45395   0.45691
 Alpha virt. eigenvalues --    0.46024   0.46028   0.46426   0.46654   0.46913
 Alpha virt. eigenvalues --    0.47137   0.47269   0.47353   0.47596   0.47668
 Alpha virt. eigenvalues --    0.47915   0.47935   0.48284   0.48773   0.48810
 Alpha virt. eigenvalues --    0.49043   0.49208   0.49433   0.49586   0.49926
 Alpha virt. eigenvalues --    0.50225   0.50347   0.50561   0.50850   0.51142
 Alpha virt. eigenvalues --    0.51309   0.51532   0.51811   0.52343   0.52466
 Alpha virt. eigenvalues --    0.52515   0.52801   0.52966   0.53050   0.53428
 Alpha virt. eigenvalues --    0.53618   0.54168   0.54274   0.54437   0.54707
 Alpha virt. eigenvalues --    0.54988   0.55383   0.55542   0.55880   0.56103
 Alpha virt. eigenvalues --    0.56347   0.56515   0.56752   0.57128   0.57356
 Alpha virt. eigenvalues --    0.57721   0.57812   0.57965   0.58332   0.58475
 Alpha virt. eigenvalues --    0.58817   0.59156   0.59345   0.59513   0.60223
 Alpha virt. eigenvalues --    0.60910   0.61197   0.61515   0.61753   0.61914
 Alpha virt. eigenvalues --    0.62025   0.62518   0.63070   0.63120   0.63332
 Alpha virt. eigenvalues --    0.63502   0.63828   0.64090   0.64416   0.64796
 Alpha virt. eigenvalues --    0.65108   0.65714   0.65828   0.66158   0.66265
 Alpha virt. eigenvalues --    0.66623   0.66922   0.67160   0.67398   0.67786
 Alpha virt. eigenvalues --    0.68106   0.68345   0.68581   0.69359   0.69423
 Alpha virt. eigenvalues --    0.70033   0.70400   0.70608   0.70910   0.71432
 Alpha virt. eigenvalues --    0.71713   0.71751   0.72070   0.72314   0.72806
 Alpha virt. eigenvalues --    0.73103   0.73596   0.74094   0.74170   0.74360
 Alpha virt. eigenvalues --    0.75006   0.75330   0.75401   0.75619   0.75732
 Alpha virt. eigenvalues --    0.76074   0.76601   0.76816   0.77207   0.77518
 Alpha virt. eigenvalues --    0.77795   0.78265   0.78705   0.79105   0.79270
 Alpha virt. eigenvalues --    0.79598   0.80067   0.80275   0.80396   0.80551
 Alpha virt. eigenvalues --    0.80882   0.80995   0.81507   0.82530   0.83100
 Alpha virt. eigenvalues --    0.83681   0.83787   0.83922   0.84113   0.84502
 Alpha virt. eigenvalues --    0.84905   0.85213   0.86009   0.86280   0.86468
 Alpha virt. eigenvalues --    0.86876   0.87333   0.87818   0.88188   0.88667
 Alpha virt. eigenvalues --    0.88956   0.89349   0.89593   0.90209   0.90574
 Alpha virt. eigenvalues --    0.90709   0.91194   0.91382   0.91746   0.92485
 Alpha virt. eigenvalues --    0.92732   0.93522   0.93795   0.94313   0.94679
 Alpha virt. eigenvalues --    0.94773   0.95033   0.95432   0.95792   0.96014
 Alpha virt. eigenvalues --    0.96432   0.96655   0.97333   0.97672   0.97784
 Alpha virt. eigenvalues --    0.98262   0.98608   0.99133   0.99460   0.99690
 Alpha virt. eigenvalues --    0.99902   1.00685   1.01040   1.01231   1.01362
 Alpha virt. eigenvalues --    1.01860   1.02102   1.02275   1.02509   1.02683
 Alpha virt. eigenvalues --    1.03168   1.03424   1.03633   1.03885   1.04383
 Alpha virt. eigenvalues --    1.04470   1.04807   1.05114   1.05568   1.05908
 Alpha virt. eigenvalues --    1.06192   1.06441   1.06867   1.07688   1.07963
 Alpha virt. eigenvalues --    1.08532   1.08807   1.09072   1.09476   1.10015
 Alpha virt. eigenvalues --    1.10440   1.10792   1.10947   1.11440   1.12175
 Alpha virt. eigenvalues --    1.13028   1.13344   1.13714   1.13844   1.14263
 Alpha virt. eigenvalues --    1.14969   1.15348   1.15858   1.16317   1.16846
 Alpha virt. eigenvalues --    1.17338   1.17842   1.18270   1.18458   1.18758
 Alpha virt. eigenvalues --    1.19117   1.19335   1.19743   1.20092   1.20417
 Alpha virt. eigenvalues --    1.20590   1.20793   1.21617   1.21869   1.22116
 Alpha virt. eigenvalues --    1.22185   1.23019   1.23461   1.24257   1.24695
 Alpha virt. eigenvalues --    1.25007   1.25209   1.25516   1.26355   1.26900
 Alpha virt. eigenvalues --    1.27329   1.27788   1.27827   1.28260   1.28702
 Alpha virt. eigenvalues --    1.29038   1.29531   1.30256   1.30483   1.30611
 Alpha virt. eigenvalues --    1.30873   1.31461   1.31711   1.31973   1.32325
 Alpha virt. eigenvalues --    1.32704   1.33129   1.33583   1.34592   1.34927
 Alpha virt. eigenvalues --    1.35401   1.36527   1.36812   1.37445   1.37542
 Alpha virt. eigenvalues --    1.38161   1.38362   1.39565   1.39692   1.40237
 Alpha virt. eigenvalues --    1.40950   1.41426   1.41775   1.42473   1.43200
 Alpha virt. eigenvalues --    1.44012   1.44239   1.44663   1.44843   1.45626
 Alpha virt. eigenvalues --    1.46062   1.46360   1.46466   1.47335   1.47405
 Alpha virt. eigenvalues --    1.47838   1.48493   1.48636   1.49036   1.49408
 Alpha virt. eigenvalues --    1.49861   1.50050   1.50167   1.50363   1.50762
 Alpha virt. eigenvalues --    1.51344   1.51530   1.51765   1.51849   1.52112
 Alpha virt. eigenvalues --    1.52415   1.52695   1.52907   1.53291   1.53784
 Alpha virt. eigenvalues --    1.54022   1.54153   1.54567   1.54719   1.55124
 Alpha virt. eigenvalues --    1.55317   1.55390   1.55615   1.55991   1.56110
 Alpha virt. eigenvalues --    1.56258   1.56755   1.57185   1.57534   1.57581
 Alpha virt. eigenvalues --    1.57937   1.58334   1.58437   1.58619   1.59012
 Alpha virt. eigenvalues --    1.59228   1.59441   1.59559   1.60064   1.60575
 Alpha virt. eigenvalues --    1.60630   1.60952   1.61245   1.61640   1.61753
 Alpha virt. eigenvalues --    1.62422   1.62528   1.63091   1.63344   1.63868
 Alpha virt. eigenvalues --    1.64046   1.64206   1.64443   1.64573   1.65082
 Alpha virt. eigenvalues --    1.65226   1.65409   1.66091   1.66325   1.66743
 Alpha virt. eigenvalues --    1.66984   1.67224   1.67627   1.68036   1.68474
 Alpha virt. eigenvalues --    1.68879   1.69092   1.69449   1.70211   1.70486
 Alpha virt. eigenvalues --    1.70628   1.71070   1.71403   1.71609   1.72141
 Alpha virt. eigenvalues --    1.72394   1.73169   1.73348   1.73598   1.74387
 Alpha virt. eigenvalues --    1.74540   1.75230   1.75670   1.75927   1.76504
 Alpha virt. eigenvalues --    1.77070   1.77908   1.78908   1.79261   1.79499
 Alpha virt. eigenvalues --    1.79594   1.80363   1.81522   1.81986   1.82042
 Alpha virt. eigenvalues --    1.82697   1.83177   1.83370   1.83563   1.84117
 Alpha virt. eigenvalues --    1.84649   1.85112   1.85501   1.86241   1.86652
 Alpha virt. eigenvalues --    1.87006   1.87173   1.87488   1.87710   1.87835
 Alpha virt. eigenvalues --    1.88274   1.88932   1.89096   1.90189   1.90650
 Alpha virt. eigenvalues --    1.91542   1.92028   1.92194   1.92817   1.93123
 Alpha virt. eigenvalues --    1.93811   1.94056   1.94407   1.94787   1.95134
 Alpha virt. eigenvalues --    1.95624   1.96320   1.96573   1.97351   1.98000
 Alpha virt. eigenvalues --    1.98389   1.98912   1.99321   1.99923   2.00102
 Alpha virt. eigenvalues --    2.00379   2.00561   2.00951   2.01718   2.02183
 Alpha virt. eigenvalues --    2.02461   2.02950   2.03256   2.03980   2.04622
 Alpha virt. eigenvalues --    2.05339   2.05469   2.06360   2.06647   2.06730
 Alpha virt. eigenvalues --    2.07130   2.07279   2.07999   2.08696   2.09315
 Alpha virt. eigenvalues --    2.09915   2.10209   2.10530   2.11529   2.11764
 Alpha virt. eigenvalues --    2.12227   2.12469   2.13529   2.13689   2.13881
 Alpha virt. eigenvalues --    2.14508   2.14561   2.15031   2.15322   2.16166
 Alpha virt. eigenvalues --    2.16601   2.16809   2.17825   2.18090   2.18235
 Alpha virt. eigenvalues --    2.18800   2.19175   2.19780   2.20091   2.20384
 Alpha virt. eigenvalues --    2.20825   2.21199   2.21710   2.21827   2.22053
 Alpha virt. eigenvalues --    2.22444   2.23925   2.24234   2.24338   2.25464
 Alpha virt. eigenvalues --    2.25704   2.26312   2.26875   2.27037   2.27464
 Alpha virt. eigenvalues --    2.27799   2.28423   2.28970   2.29314   2.29611
 Alpha virt. eigenvalues --    2.30307   2.31001   2.31080   2.31649   2.31997
 Alpha virt. eigenvalues --    2.32331   2.32390   2.33369   2.33834   2.34090
 Alpha virt. eigenvalues --    2.34788   2.35126   2.35692   2.36159   2.36387
 Alpha virt. eigenvalues --    2.36498   2.36730   2.37284   2.37540   2.37814
 Alpha virt. eigenvalues --    2.38243   2.38936   2.39338   2.39517   2.39850
 Alpha virt. eigenvalues --    2.40813   2.40920   2.41502   2.41746   2.42002
 Alpha virt. eigenvalues --    2.43410   2.43569   2.43780   2.44785   2.44996
 Alpha virt. eigenvalues --    2.45612   2.45805   2.46077   2.46596   2.47067
 Alpha virt. eigenvalues --    2.47203   2.47923   2.48192   2.49055   2.49122
 Alpha virt. eigenvalues --    2.49263   2.49739   2.49877   2.50803   2.51606
 Alpha virt. eigenvalues --    2.52120   2.52675   2.52724   2.53154   2.53362
 Alpha virt. eigenvalues --    2.53883   2.54072   2.54611   2.54973   2.55631
 Alpha virt. eigenvalues --    2.55699   2.56271   2.56562   2.56928   2.57123
 Alpha virt. eigenvalues --    2.57738   2.58218   2.58660   2.58806   2.59315
 Alpha virt. eigenvalues --    2.59826   2.60177   2.60267   2.60715   2.60862
 Alpha virt. eigenvalues --    2.61246   2.61662   2.61774   2.61980   2.62697
 Alpha virt. eigenvalues --    2.63176   2.63920   2.64609   2.64756   2.65349
 Alpha virt. eigenvalues --    2.65621   2.65950   2.66238   2.67180   2.67209
 Alpha virt. eigenvalues --    2.67574   2.67732   2.68261   2.68719   2.69177
 Alpha virt. eigenvalues --    2.69481   2.69818   2.70303   2.70558   2.71006
 Alpha virt. eigenvalues --    2.71417   2.71722   2.72053   2.72061   2.72759
 Alpha virt. eigenvalues --    2.73578   2.74118   2.74748   2.75257   2.75481
 Alpha virt. eigenvalues --    2.76212   2.76350   2.76780   2.77256   2.77675
 Alpha virt. eigenvalues --    2.78046   2.78523   2.78569   2.78721   2.79173
 Alpha virt. eigenvalues --    2.79592   2.80250   2.80912   2.81157   2.81881
 Alpha virt. eigenvalues --    2.82692   2.83234   2.83270   2.83573   2.83805
 Alpha virt. eigenvalues --    2.84128   2.84902   2.85398   2.85515   2.85665
 Alpha virt. eigenvalues --    2.85969   2.87003   2.87085   2.87516   2.87717
 Alpha virt. eigenvalues --    2.88237   2.88892   2.89241   2.89669   2.90198
 Alpha virt. eigenvalues --    2.90245   2.90834   2.90975   2.91587   2.92020
 Alpha virt. eigenvalues --    2.92237   2.92800   2.93100   2.93354   2.93832
 Alpha virt. eigenvalues --    2.94253   2.94825   2.95000   2.95289   2.95595
 Alpha virt. eigenvalues --    2.95998   2.96533   2.96816   2.97195   2.97328
 Alpha virt. eigenvalues --    2.97440   2.97807   2.98475   2.98545   2.99176
 Alpha virt. eigenvalues --    2.99607   2.99655   2.99798   3.00625   3.00903
 Alpha virt. eigenvalues --    3.01450   3.01561   3.02333   3.02389   3.02602
 Alpha virt. eigenvalues --    3.03163   3.03893   3.04005   3.04990   3.05274
 Alpha virt. eigenvalues --    3.05588   3.05861   3.05956   3.06302   3.07041
 Alpha virt. eigenvalues --    3.07428   3.07585   3.08245   3.08334   3.08513
 Alpha virt. eigenvalues --    3.08699   3.09080   3.09281   3.09919   3.10234
 Alpha virt. eigenvalues --    3.10657   3.10835   3.11223   3.11436   3.11715
 Alpha virt. eigenvalues --    3.12417   3.12537   3.12790   3.13036   3.13300
 Alpha virt. eigenvalues --    3.13837   3.14401   3.14584   3.14953   3.15029
 Alpha virt. eigenvalues --    3.15625   3.16082   3.16428   3.17061   3.17415
 Alpha virt. eigenvalues --    3.17796   3.17948   3.18414   3.18524   3.18976
 Alpha virt. eigenvalues --    3.19078   3.19623   3.20008   3.20391   3.20494
 Alpha virt. eigenvalues --    3.21146   3.21359   3.21368   3.21678   3.22400
 Alpha virt. eigenvalues --    3.22880   3.23174   3.23246   3.23443   3.23690
 Alpha virt. eigenvalues --    3.24068   3.24097   3.24573   3.25258   3.25447
 Alpha virt. eigenvalues --    3.25629   3.26130   3.26305   3.26481   3.26843
 Alpha virt. eigenvalues --    3.26989   3.27215   3.27540   3.27758   3.27798
 Alpha virt. eigenvalues --    3.28434   3.28551   3.28713   3.29161   3.29672
 Alpha virt. eigenvalues --    3.29832   3.30019   3.30471   3.30525   3.30670
 Alpha virt. eigenvalues --    3.30856   3.31175   3.31308   3.31899   3.32308
 Alpha virt. eigenvalues --    3.32675   3.33039   3.33173   3.33510   3.33739
 Alpha virt. eigenvalues --    3.33944   3.34505   3.35005   3.35124   3.35655
 Alpha virt. eigenvalues --    3.35819   3.35936   3.36163   3.36378   3.36777
 Alpha virt. eigenvalues --    3.37060   3.37122   3.37347   3.38018   3.38140
 Alpha virt. eigenvalues --    3.38419   3.38613   3.38802   3.39258   3.39490
 Alpha virt. eigenvalues --    3.39901   3.39989   3.40321   3.40550   3.40652
 Alpha virt. eigenvalues --    3.41044   3.41672   3.42100   3.42546   3.42762
 Alpha virt. eigenvalues --    3.43234   3.43806   3.44504   3.44840   3.45236
 Alpha virt. eigenvalues --    3.45573   3.45924   3.46421   3.46746   3.46988
 Alpha virt. eigenvalues --    3.47257   3.47911   3.48479   3.49061   3.49457
 Alpha virt. eigenvalues --    3.49726   3.50622   3.50936   3.51402   3.51612
 Alpha virt. eigenvalues --    3.52237   3.52841   3.53280   3.54081   3.54422
 Alpha virt. eigenvalues --    3.55034   3.55312   3.55446   3.55848   3.56298
 Alpha virt. eigenvalues --    3.56583   3.57040   3.57485   3.57903   3.58321
 Alpha virt. eigenvalues --    3.58623   3.58865   3.59364   3.59964   3.60208
 Alpha virt. eigenvalues --    3.60641   3.61390   3.62265   3.62746   3.63507
 Alpha virt. eigenvalues --    3.63675   3.64036   3.64903   3.65192   3.66149
 Alpha virt. eigenvalues --    3.66477   3.66736   3.67198   3.67270   3.67878
 Alpha virt. eigenvalues --    3.68144   3.68747   3.69011   3.69726   3.70197
 Alpha virt. eigenvalues --    3.70813   3.71146   3.71399   3.71945   3.72051
 Alpha virt. eigenvalues --    3.72611   3.72851   3.73028   3.73641   3.74443
 Alpha virt. eigenvalues --    3.74961   3.75066   3.75333   3.75616   3.75844
 Alpha virt. eigenvalues --    3.76304   3.76801   3.77568   3.78408   3.78504
 Alpha virt. eigenvalues --    3.79015   3.79386   3.79899   3.80857   3.81680
 Alpha virt. eigenvalues --    3.81742   3.82348   3.83135   3.83414   3.84028
 Alpha virt. eigenvalues --    3.84876   3.85312   3.85643   3.86634   3.87092
 Alpha virt. eigenvalues --    3.87188   3.88003   3.88618   3.89293   3.90465
 Alpha virt. eigenvalues --    3.90652   3.91148   3.91684   3.91708   3.91957
 Alpha virt. eigenvalues --    3.92758   3.93624   3.94035   3.94398   3.95207
 Alpha virt. eigenvalues --    3.96304   3.96473   3.97401   3.98193   3.98940
 Alpha virt. eigenvalues --    3.99618   4.00203   4.00396   4.01177   4.01461
 Alpha virt. eigenvalues --    4.01870   4.02743   4.03815   4.04202   4.04593
 Alpha virt. eigenvalues --    4.05123   4.05365   4.05716   4.06050   4.06829
 Alpha virt. eigenvalues --    4.07336   4.08236   4.08672   4.09616   4.10348
 Alpha virt. eigenvalues --    4.10994   4.12568   4.13410   4.13966   4.15058
 Alpha virt. eigenvalues --    4.15426   4.15879   4.16393   4.16793   4.16887
 Alpha virt. eigenvalues --    4.17475   4.18005   4.18807   4.18927   4.19871
 Alpha virt. eigenvalues --    4.20215   4.20451   4.21081   4.21559   4.22764
 Alpha virt. eigenvalues --    4.22791   4.22938   4.23833   4.23966   4.25017
 Alpha virt. eigenvalues --    4.25907   4.26372   4.26809   4.27430   4.27810
 Alpha virt. eigenvalues --    4.28808   4.29558   4.29982   4.30346   4.30654
 Alpha virt. eigenvalues --    4.31087   4.31559   4.32421   4.33250   4.33564
 Alpha virt. eigenvalues --    4.34070   4.34634   4.35220   4.35618   4.36537
 Alpha virt. eigenvalues --    4.37348   4.38367   4.38888   4.39838   4.40248
 Alpha virt. eigenvalues --    4.40830   4.40926   4.41451   4.42003   4.42397
 Alpha virt. eigenvalues --    4.42582   4.43203   4.44129   4.44775   4.45022
 Alpha virt. eigenvalues --    4.45455   4.45621   4.46595   4.46664   4.47329
 Alpha virt. eigenvalues --    4.48038   4.48433   4.48740   4.50122   4.50449
 Alpha virt. eigenvalues --    4.50671   4.51707   4.52458   4.53237   4.54421
 Alpha virt. eigenvalues --    4.54685   4.56090   4.56402   4.57181   4.57643
 Alpha virt. eigenvalues --    4.58662   4.59774   4.60071   4.61511   4.63979
 Alpha virt. eigenvalues --    4.64444   4.65512   4.66057   4.67679   4.68094
 Alpha virt. eigenvalues --    4.69085   4.69421   4.69923   4.70729   4.72010
 Alpha virt. eigenvalues --    4.72394   4.72800   4.73773   4.74334   4.75155
 Alpha virt. eigenvalues --    4.75270   4.76270   4.76652   4.78526   4.80047
 Alpha virt. eigenvalues --    4.81288   4.82120   4.82235   4.83446   4.83908
 Alpha virt. eigenvalues --    4.84371   4.84716   4.85188   4.85673   4.86218
 Alpha virt. eigenvalues --    4.86556   4.87248   4.87753   4.89575   4.90619
 Alpha virt. eigenvalues --    4.91587   4.92135   4.93303   4.94560   4.95034
 Alpha virt. eigenvalues --    4.95576   4.95862   4.96011   4.97600   4.97905
 Alpha virt. eigenvalues --    4.98410   4.99580   5.01304   5.02149   5.02755
 Alpha virt. eigenvalues --    5.03409   5.04599   5.05067   5.06405   5.07089
 Alpha virt. eigenvalues --    5.07592   5.08258   5.08826   5.09423   5.09805
 Alpha virt. eigenvalues --    5.10219   5.11452   5.13658   5.15138   5.16754
 Alpha virt. eigenvalues --    5.18523   5.19138   5.19705   5.20891   5.21367
 Alpha virt. eigenvalues --    5.21665   5.22735   5.23751   5.24254   5.26229
 Alpha virt. eigenvalues --    5.26918   5.27805   5.29273   5.29894   5.30819
 Alpha virt. eigenvalues --    5.32947   5.35812   5.36546   5.38065   5.38414
 Alpha virt. eigenvalues --    5.38842   5.39768   5.40531   5.40709   5.41494
 Alpha virt. eigenvalues --    5.42068   5.43237   5.43752   5.44416   5.46912
 Alpha virt. eigenvalues --    5.49145   5.50249   5.50946   5.51353   5.52324
 Alpha virt. eigenvalues --    5.53252   5.54254   5.57115   5.58165   5.59817
 Alpha virt. eigenvalues --    5.61749   5.62428   5.62929   5.63943   5.64456
 Alpha virt. eigenvalues --    5.66483   5.67556   5.68338   5.68646   5.69058
 Alpha virt. eigenvalues --    5.70270   5.74419   5.77824   5.78328   5.78828
 Alpha virt. eigenvalues --    5.80763   5.82344   5.90614   5.91389   5.93132
 Alpha virt. eigenvalues --    5.95253   5.97756   6.01922   6.03435   6.03672
 Alpha virt. eigenvalues --    6.08764   6.13237   6.13679   6.14521   6.14895
 Alpha virt. eigenvalues --    6.18357   6.19259   6.25497   6.28382   6.35060
 Alpha virt. eigenvalues --    6.35933   6.42357   6.48014   6.53519   6.54711
 Alpha virt. eigenvalues --    6.64612   6.98599   7.30080  22.36715  22.37162
 Alpha virt. eigenvalues --   22.44143  22.46135  22.47079  22.52603  22.53825
 Alpha virt. eigenvalues --   22.62752  22.62936  22.78116  22.85651  22.87486
 Alpha virt. eigenvalues --   22.92250  22.94376  22.95846  22.96437  22.98060
 Alpha virt. eigenvalues --   23.04456  23.04979  23.07330  23.15665  23.27757
 Alpha virt. eigenvalues --   23.28930  23.31789  23.32189  23.41602  23.42765
 Alpha virt. eigenvalues --   23.51171  23.51966  23.56261  23.75145  23.80462
 Alpha virt. eigenvalues --   23.81198  23.90127  32.40947  32.72682  32.90239
 Alpha virt. eigenvalues --   32.97169  33.01172  33.12840  44.04689
          Condensed to atoms (all electrons):
 Mulliken charges:
               1
     1  Fe  -0.245673
     2  N    0.015726
     3  N   -0.142326
     4  N   -0.004784
     5  N   -0.035969
     6  C    0.283416
     7  C   -0.062849
     8  C   -0.033835
     9  C    0.194909
    10  C    0.222441
    11  C   -0.005512
    12  C    0.007790
    13  C    0.222149
    14  C    0.232248
    15  C   -0.067662
    16  C    0.036745
    17  C    0.252794
    18  C    0.216585
    19  C   -0.041574
    20  C   -0.051526
    21  C    0.267736
    22  C   -0.552872
    23  H    0.134146
    24  C   -0.435967
    25  H    0.127133
    26  C   -0.445868
    27  H    0.119544
    28  C   -0.433438
    29  H    0.115772
    30  C   -0.413934
    31  H    0.118553
    32  H    0.135885
    33  H    0.133469
    34  C   -0.416314
    35  H    0.128370
    36  H    0.137438
    37  H    0.119777
    38  C   -0.453989
    39  H    0.142839
    40  H    0.129082
    41  H    0.156419
    42  C   -0.207938
    43  H    0.110039
    44  C   -0.289917
    45  H    0.137953
    46  H    0.122073
    47  C   -0.450067
    48  H    0.138849
    49  H    0.128297
    50  H    0.155949
    51  C   -0.208750
    52  H    0.108882
    53  C   -0.285711
    54  H    0.137694
    55  H    0.120809
    56  C   -0.414622
    57  H    0.137648
    58  H    0.134647
    59  H    0.118350
    60  C   -0.416458
    61  H    0.129006
    62  H    0.120437
    63  H    0.136488
    64  C   -0.393125
    65  H    0.134047
    66  H    0.147945
    67  H    0.135661
    68  N   -0.229851
    69  H    0.234678
    70  C    0.168438
    71  C    0.007141
    72  H    0.178281
    73  N    0.079175
    74  C   -0.208533
    75  H    0.166367
    76  O   -0.565868
    77  H    0.356868
    78  H    0.318243
 Sum of Mulliken charges =  -0.00000
 Mulliken charges with hydrogens summed into heavy atoms:
               1
     1  Fe  -0.245673
     2  N    0.015726
     3  N   -0.142326
     4  N   -0.004784
     5  N   -0.035969
     6  C    0.283416
     7  C   -0.062849
     8  C   -0.033835
     9  C    0.194909
    10  C    0.222441
    11  C   -0.005512
    12  C    0.007790
    13  C    0.222149
    14  C    0.232248
    15  C   -0.067662
    16  C    0.036745
    17  C    0.252794
    18  C    0.216585
    19  C   -0.041574
    20  C   -0.051526
    21  C    0.267736
    22  C   -0.418726
    24  C   -0.308834
    26  C   -0.326324
    28  C   -0.317666
    30  C   -0.026027
    34  C   -0.030728
    38  C   -0.025649
    42  C   -0.097899
    44  C   -0.029891
    47  C   -0.026972
    51  C   -0.099868
    53  C   -0.027208
    56  C   -0.023977
    60  C   -0.030527
    64  C    0.024528
    68  N    0.004827
    70  C    0.168438
    71  C    0.185422
    73  N    0.079175
    74  C   -0.042166
    76  O    0.109244
 Electronic spatial extent (au):  <R**2>=          19976.0544
 Charge=             -0.0000 electrons
 Dipole moment (field-independent basis, Debye):
    X=              1.3394    Y=             -1.6288    Z=              3.6146  Tot=              4.1848
 Quadrupole moment (field-independent basis, Debye-Ang):
   XX=           -239.4999   YY=           -246.2350   ZZ=           -223.1316
   XY=             -1.6843   XZ=              0.0222   YZ=             -3.5825
 Traceless Quadrupole moment (field-independent basis, Debye-Ang):
   XX=             -3.2111   YY=             -9.9462   ZZ=             13.1572
   XY=             -1.6843   XZ=              0.0222   YZ=             -3.5825
 Octapole moment (field-independent basis, Debye-Ang**2):
  XXX=             48.8682  YYY=            -43.4936  ZZZ=             96.3490  XYY=             12.5957
  XXY=              7.1126  XXZ=             10.8792  XZZ=             24.2582  YZZ=            -26.2249
  YYZ=             -6.0891  XYZ=            -13.1850
 Hexadecapole moment (field-independent basis, Debye-Ang**3):
 XXXX=         -11964.6428 YYYY=         -11792.3919 ZZZZ=          -2652.0894 XXXY=            -52.6897
 XXXZ=            -46.1667 YYYX=             53.1586 YYYZ=             39.2164 ZZZX=              2.1342
 ZZZY=            -75.4267 XXYY=          -3921.1448 XXZZ=          -2622.6258 YYZZ=          -2661.8598
 XXYZ=            -46.0139 YYXZ=            -57.5447 ZZXY=            -25.8626
 N-N= 5.965556177292D+03 E-N=-1.894536543765D+04  KE= 2.973860751664D+03
  Exact polarizability:     712.495       2.165     703.490       2.320       4.208     310.091
 Approx polarizability:    1328.131      -3.368    1291.067      28.874       3.949     499.492

 ----------------------------------------------------------------------

 Electric dipole moment (input orientation):
 (Debye = 10**-18 statcoulomb cm , SI units = C m)
                  (au)            (Debye)         (10**-30 SI)
   Tot        0.164641D+01      0.418475D+01      0.139588D+02
   x          0.108364D+01      0.275433D+01      0.918747D+01
   y          0.861954D+00      0.219087D+01      0.730795D+01
   z          0.890743D+00      0.226404D+01      0.755203D+01

 Dipole polarizability, Alpha (input orientation).
 (esu units = cm**3 , SI units = C**2 m**2 J**-1)
 Alpha(0;0):
               (au)            (10**-24 esu)      (10**-40 SI)
   iso        0.575358D+03      0.852593D+02      0.948638D+02
   aniso      0.398083D+03      0.589898D+02      0.656350D+02
   xx         0.615731D+03      0.912420D+02      0.101520D+03
   yx        -0.168602D+03     -0.249843D+02     -0.277988D+02
   yy         0.419442D+03      0.621549D+02      0.691567D+02
   zx        -0.359405D+02     -0.532583D+01     -0.592579D+01
   zy        -0.588196D+02     -0.871616D+01     -0.969804D+01
   zz         0.690902D+03      0.102381D+03      0.113914D+03

 First dipole hyperpolarizability, Beta (input orientation).
 ||, _|_  parallel and perpendicular components, (z) with respect to z axis,
 vector components x,y,z.  Values do not include the 1/n! factor of 1/2.
 (esu units = statvolt**-1 cm**4 , SI units = C**3 m**3 J**-2)
 Beta(0;0,0):
               (au)            (10**-30 esu)      (10**-50 SI)
   || (z)    -0.565934D+03     -0.488923D+01     -0.181459D+01
   _|_(z)    -0.188645D+03     -0.162974D+01     -0.604863D+00
   x         -0.331317D+04     -0.286232D+02     -0.106232D+02
   y          0.335956D+04      0.290240D+02      0.107720D+02
   z         -0.282967D+04     -0.244461D+02     -0.907294D+01
   ||         0.110038D+04      0.950640D+01      0.352821D+01
   xxx       -0.998065D+03     -0.862251D+01     -0.320016D+01
   xxy        0.509521D+03      0.440186D+01      0.163371D+01
   yxy       -0.712109D+02     -0.615206D+00     -0.228328D+00
   yyy        0.338562D+03      0.292491D+01      0.108555D+01
   xxz        0.406299D+03      0.351011D+01      0.130274D+01
   yxz       -0.178556D+03     -0.154259D+01     -0.572516D+00
   yyz        0.146048D+03      0.126174D+01      0.468283D+00
   zxz       -0.351124D+02     -0.303344D+00     -0.112583D+00
   zyz        0.271770D+03      0.234788D+01      0.871392D+00
   zzz       -0.149557D+04     -0.129206D+02     -0.479534D+01

 ----------------------------------------------------------------------

 Dipole orientation:
    26         11.62421086        -12.33638876         28.87704103
     7         10.08685598        -15.30704687         30.56168835
     7          8.17614145        -11.16769055         27.71570453
     7         13.17660370         -9.56108129         26.76595492
     7         15.07307172        -13.73938448         29.48211670
     6         11.31740722        -17.12864597         31.88501831
     6          9.54389623        -18.93592858         32.91850851
     6          7.21130164        -18.16984327         32.16217668
     6          7.58720697        -15.88587196         30.70277775
     6          5.92387740        -12.25972874         28.32418189
     6          3.84428137        -10.68204722         27.56627248
     6          4.88712029         -8.57000995         26.48280894
     6          7.59831899         -8.93648911         26.58007449
     6         11.94459601         -7.56953309         25.69815047
     6         13.70378814         -5.84396400         24.53851773
     6         16.05959169         -6.84085678         24.92933946
     6         15.67179441         -9.16675145         26.32811937
     6         17.31430254        -12.84455100         28.60967173
     6         19.39204000        -14.36186986         29.53331067
     6         18.34885520        -16.18797598         31.01073071
     6         15.64626526        -15.78740829         30.92573431
     6         13.91129639        -17.31646661         32.14520412
     1         14.63764834        -18.86227135         33.26158710
     6          5.64646631        -14.52195919         29.61758953
     1          3.74671969        -15.20148198         29.91884056
     6          9.34992084         -7.23776415         25.64732057
     1          8.64197029         -5.52089179         24.80361775
     6         17.61315404        -10.73001771         27.10756465
     1         19.51579737        -10.21054437         26.58840004
     6          4.69998941        -19.34395262         32.65974658
     1          4.89852866        -21.03893666         33.80405452
     1          3.77904540        -19.86161769         30.89087091
     1          3.46929722        -18.02730402         33.65826401
     6         10.27661615        -21.17037273         34.46932491
     1         11.29214282        -20.57832285         36.16185429
     1         11.50733082        -22.42559493         33.39474421
     1          8.61791462        -22.23475401         35.05024248
     6          1.12232520        -11.34621312         27.82340200
     1          0.42819221        -10.88570733         29.71004275
     1          0.82953945        -13.35938684         27.51260315
     1          0.00716908        -10.29841657         26.44902768
     6          3.64898585         -6.39744333         25.38463524
     1          4.63033111         -5.52133910         23.81426929
     6          1.46878923         -5.41119425         26.15010723
     1          0.45329250         -6.13752475         27.75456079
     1          0.64809446         -3.79670410         25.21964159
     6         12.99793565         -3.53889752         23.08662566
     1         12.62195952         -1.95621905         24.35451361
     1         11.30449056         -3.87264234         21.96578757
     1         14.52792948         -3.00712583         21.82014712
     6         18.49115335         -5.90057421         24.11093852
     1         19.87866607         -7.33111971         23.63694319
     6         19.13141312         -3.47946526         23.91673656
     1         17.86689671         -1.97805009         24.44707504
     1         20.97583792         -2.91582691         23.26341347
     6         22.10004398        -13.88788173         28.92243479
     1         22.67332106        -12.02069901         29.57862120
     1         22.40860012        -13.97078278         26.88729062
     1         23.30898023        -15.28795277         29.81711856
     6         19.60724484        -18.26002519         32.44590913
     1         19.16953022        -18.12246890         34.45490835
     1         21.64758072        -18.16887839         32.22236661
     1         18.96393420        -20.10000977         31.77828583
     6          9.90735209         -4.90327924         36.12018298
     1          8.55982112         -5.34508459         37.61402754
     1          9.01468804         -3.62565997         34.78649021
     1         11.52211318         -3.94831641         36.97059653
     7         11.85281759         -9.21758721         36.00381844
     1         12.25480570         -9.29936469         37.86146296
     6         10.71377759         -7.23646371         34.78635615
     6         12.32535721        -11.02869298         34.26178195
     1         13.20842407        -12.80218340         34.67312613
     7         11.55403103        -10.31385975         32.01684588
     6         10.55193764         -7.95595213         32.31379392
     1          9.78504846         -6.94255810         30.74016890
     8         11.41292880        -14.60258898         25.19249817
     1          9.92610784        -13.87916155         24.46097505
     1         12.37169000        -15.80294686         24.51271739

 Electric dipole moment (dipole orientation):
 (Debye = 10**-18 statcoulomb cm , SI units = C m)
                  (au)            (Debye)         (10**-30 SI)
   Tot        0.164641D+01      0.418475D+01      0.139588D+02
   x          0.000000D+00      0.000000D+00      0.000000D+00
   y          0.000000D+00      0.000000D+00      0.000000D+00
   z          0.164641D+01      0.418475D+01      0.139588D+02

 Dipole polarizability, Alpha (dipole orientation).
 (esu units = cm**3 , SI units = C**2 m**2 J**-1)
 Alpha(0;0):
               (au)            (10**-24 esu)      (10**-40 SI)
   iso        0.575358D+03      0.852593D+02      0.948638D+02
   aniso      0.398083D+03      0.589898D+02      0.656350D+02
   xx         0.709384D+03      0.105120D+03      0.116962D+03
   yx        -0.129108D+02     -0.191318D+01     -0.212870D+01
   yy         0.607871D+03      0.900771D+02      0.100224D+03
   zx        -0.134553D+02     -0.199387D+01     -0.221848D+01
   zy        -0.170582D+03     -0.252777D+02     -0.281252D+02
   zz         0.408821D+03      0.605811D+02      0.674055D+02

 First dipole hyperpolarizability, Beta (dipole orientation).
 ||, _|_  parallel and perpendicular components, (z) with respect to z axis,
 vector components x,y,z.  Values do not include the 1/n! factor of 1/2.
 (esu units = statvolt**-1 cm**4 , SI units = C**3 m**3 J**-2)
 Beta(0;0,0):
               (au)            (10**-30 esu)      (10**-50 SI)
   || (z)    -0.390547D+03     -0.337402D+01     -0.125223D+01
   _|_(z)    -0.130182D+03     -0.112467D+01     -0.417412D+00
   x         -0.127056D+04     -0.109767D+02     -0.407388D+01
   y          0.498430D+04      0.430604D+02      0.159815D+02
   z         -0.195273D+04     -0.168701D+02     -0.626117D+01
   ||         0.110038D+04      0.950640D+01      0.352821D+01
   xxx       -0.786622D+03     -0.679580D+01     -0.252220D+01
   xxy        0.910274D+03      0.786406D+01      0.291867D+01
   yxy        0.232543D+03      0.200899D+01      0.745616D+00
   yyy        0.409142D+03      0.353467D+01      0.131186D+01
   xxz       -0.556663D+03     -0.480913D+01     -0.178486D+01
   yxz       -0.200162D+03     -0.172924D+01     -0.641792D+00
   yyz       -0.185121D+03     -0.159930D+01     -0.593566D+00
   zxz        0.130559D+03      0.112793D+01      0.418620D+00
   zyz        0.342016D+03      0.295475D+01      0.109663D+01
   zzz        0.908723D+02      0.785066D+00      0.291369D+00

 ----------------------------------------------------------------------
 Unable to Open any file for archive entry.
 1\1\GINC-BGN1039\SP\RAPFD\def2TZVP\C34H36Fe1N6O1\BEBZHART\14-Jul-2024\
 0\\# polar def2tzvp apfd int=(grid=ultrafine)\\3emm_II_S\\0,1\Fe,0,15.
 9395316235,1.2577025854,7.6364472755\N,0,16.2929612516,0.6139303944,9.
 4772108771\N,0,14.0850489919,1.8524132481,8.1811281712\N,0,15.46641128
 31,1.6965647925,5.7224786923\N,0,17.6282959679,0.40685727,6.9971457776
 \C,0,17.4375395085,0.0424436567,9.9321418547\C,0,17.336676757,-0.24764
 95185,11.3464281809\C,0,16.095241521,0.1521142813,11.7300867109\C,0,15
 .4596834459,0.6969739836,10.5485807248\C,0,13.5693971082,1.8123944486,
 9.442328713\C,0,12.3276232416,2.5348746501,9.5125699617\C,0,12.0970593
 825,3.0301671368,8.2540360835\C,0,13.205687836,2.5768653488,7.43911483
 38\C,0,14.3901677269,2.4129529562,5.2941277705\C,0,14.4513173986,2.634
 2435007,3.8713526663\C,0,15.6015870352,2.0300570267,3.4389099882\C,0,1
 6.2164685573,1.4515713485,4.6188174616\C,0,18.0711466021,0.2892559578,
 5.7188493223\C,0,19.3627937381,-0.360828896,5.6799801103\C,0,19.696605
 8236,-0.6225412429,6.9722074887\C,0,18.5914919653,-0.1520285853,7.7781
 989547\C,0,18.5371455907,-0.2741146724,9.1552263416\H,0,19.3852049569,
 -0.7232879277,9.6501125511\C,0,14.1820375057,1.2193518829,10.535983701
 8\H,0,13.6446718142,1.231973041,11.472161508\C,0,13.3461473382,2.85023
 05912,6.0913749819\H,0,12.5798194811,3.4471947437,5.6207538658\C,0,17.
 4114500405,0.7576861397,4.5988953376\H,0,17.8929576002,0.614720176,3.6
 43661368\C,0,15.4521259384,0.0763162564,13.0724974515\H,0,16.126774413
 3,-0.3675672172,13.8005424634\H,0,14.5469453334,-0.5299794676,13.03025
 10408\H,0,15.1759328927,1.0713900739,13.4222454312\C,0,18.4199548695,-
 0.8768163987,12.1542561688\H,0,19.3257234984,-0.2705020469,12.12109436
 42\H,0,18.6623955281,-1.8662417481,11.7657059419\H,0,18.1172328717,-0.
 982672921,13.1931690503\C,0,11.4602903891,2.6392433735,10.7182333999\H
 ,0,11.7988484412,3.4444056859,11.3725553896\H,0,11.4788736377,1.711939
 0539,11.2889651645\H,0,10.4333940438,2.8462864152,10.4228738311\C,0,10
 .9864881578,3.8176198978,7.7689745231\H,0,10.7091899752,3.6475950861,6
 .7348672026\C,0,10.3070139125,4.7167401081,8.4742456428\H,0,10.5654705
 018,4.9654097506,9.4885131199\H,0,9.4796917351,5.2584659086,8.04641727
 1\C,0,13.4043584685,3.3183622539,3.0629231135\H,0,13.5156560625,4.4026
 64949,3.1183952489\H,0,12.4092509664,3.0630248621,3.4243124281\H,0,13.
 4823623323,3.0178031065,2.0201208239\C,0,16.1302882265,1.924679794,2.0
 972033818\H,0,16.6623043951,1.0068135663,1.8745586956\C,0,16.019730543
 1,2.8484361025,1.1478522462\H,0,15.545742531,3.798190285,1.324154729\H
 ,0,16.4271380257,2.6944055515,0.162250818\C,0,20.1241138927,-0.6442878
 286,4.4305873103\H,0,20.3498061113,0.281999649,3.901490716\H,0,19.5424
 716331,-1.2806882957,3.7634311676\H,0,21.0612954715,-1.1485819975,4.65
 3545268\C,0,20.9203657603,-1.2752950901,7.518849825\H,0,21.437300515,-
 0.6070767859,8.2083642253\H,0,21.6079006375,-1.5389999604,6.7189587216
 \H,0,20.6608298607,-2.1846314551,8.061529405\C,0,16.929622113,6.701340
 6463,8.2488140502\H,0,16.9895753642,7.0824400871,9.2682348308\H,0,15.9
 743404365,6.9933131526,7.8239375978\H,0,17.7271019939,7.1613340928,7.6
 653041198\N,0,18.139682869,4.561933055,8.7331524852\H,0,18.9492920583,
 4.9934370247,9.1476347419\C,0,17.0479141808,5.2213235423,8.2324629061\
 C,0,17.9270050666,3.2354657701,8.5715849236\H,0,18.6160610384,2.473366
 4006,8.8731167002\N,0,16.7670934336,3.0157830921,7.9994774147\C,0,16.2
 103001535,4.2424486846,7.7802747152\H,0,15.2505631696,4.3381140443,7.3
 161015178\O,0,14.844,-0.724,7.283\H,0,13.938,-0.436,7.391\H,0,15.114,-
 1.548,7.087\\Version=ES64L-G16RevC.02\State=1-A\HF=-2984.024573\RMSD=4
 .907e-09\Dipole=1.0836387,0.8619543,0.8907431\Polar=615.7312022,-168.6
 02386,419.44233,-35.940514,-58.8195932,690.9019407\HyperPolar=-998.065
 3135,509.5207154,-71.210858,338.5618548,406.2994624,-178.556345,146.04
 8002,-35.1123726,271.7696463,-1495.5706732\Quadrupole=-0.0070027,5.931
 7199,-5.9247172,4.592607,3.9127807,3.8925615\PG=C01 [X(C34H36Fe1N6O1)]
 \\@
 The archive entry for this job was punched.


 CONTRAIWISE...CONTINUED TWEEDLEDEE, IF IT WAS SO, IT MIGHT BE,
 AND IF IT WERE SO, IT WOULD BE.....
 BUT AS IT ISN'T, IT AIN'T....
 THAT'S LOGIC.....
 ALICE THROUGH THE LOOKING GLASS
 Job cpu time:       2 days  5 hours 21 minutes 35.5 seconds.
 Elapsed time:       0 days  0 hours 46 minutes 11.9 seconds.
 File lengths (MBytes):  RWF=   1208 Int=      0 D2E=      0 Chk=    155 Scr=      1
 Normal termination of Gaussian 16 at Sun Jul 14 06:47:50 2024.
 Initial command:
 /sw/chem/gaussian/g16_C02/a100/g16/l1.exe "/local/bebzhart_7933169/Gau-1373640.inp" -scrdir="/local/bebzhart_7933169/"
 Entering Link 1 = /sw/chem/gaussian/g16_C02/a100/g16/l1.exe PID=   1375387.
  
 Copyright (c) 1988-2021, Gaussian, Inc.  All Rights Reserved.
  
 This is part of the Gaussian(R) 16 program.  It is based on
 the Gaussian(R) 09 system (copyright 2009, Gaussian, Inc.),
 the Gaussian(R) 03 system (copyright 2003, Gaussian, Inc.),
 the Gaussian(R) 98 system (copyright 1998, Gaussian, Inc.),
 the Gaussian(R) 94 system (copyright 1995, Gaussian, Inc.),
 the Gaussian 92(TM) system (copyright 1992, Gaussian, Inc.),
 the Gaussian 90(TM) system (copyright 1990, Gaussian, Inc.),
 the Gaussian 88(TM) system (copyright 1988, Gaussian, Inc.),
 the Gaussian 86(TM) system (copyright 1986, Carnegie Mellon
 University), and the Gaussian 82(TM) system (copyright 1983,
 Carnegie Mellon University). Gaussian is a federally registered
 trademark of Gaussian, Inc.
  
 This software contains proprietary and confidential information,
 including trade secrets, belonging to Gaussian, Inc.
  
 This software is provided under written license and may be
 used, copied, transmitted, or stored only in accord with that
 written license.
  
 The following legend is applicable only to US Government
 contracts under FAR:
  
                    RESTRICTED RIGHTS LEGEND
  
 Use, reproduction and disclosure by the US Government is
 subject to restrictions as set forth in subparagraphs (a)
 and (c) of the Commercial Computer Software - Restricted
 Rights clause in FAR 52.227-19.
  
 Gaussian, Inc.
 340 Quinnipiac St., Bldg. 40, Wallingford CT 06492
  
  
 ---------------------------------------------------------------
 Warning -- This program may not be used in any manner that
 competes with the business of Gaussian, Inc. or will provide
 assistance to any competitor of Gaussian, Inc.  The licensee
 of this program is prohibited from giving any competitor of
 Gaussian, Inc. access to this program.  By using this program,
 the user acknowledges that Gaussian, Inc. is engaged in the
 business of creating and licensing software in the field of
 computational chemistry and represents and warrants to the
 licensee that it is not a competitor of Gaussian, Inc. and that
 it will not use this program in any manner prohibited above.
 ---------------------------------------------------------------
  

 Cite this work as:
 Gaussian 16, Revision C.02,
 M. J. Frisch, G. W. Trucks, H. B. Schlegel, G. E. Scuseria, 
 M. A. Robb, J. R. Cheeseman, G. Scalmani, V. Barone, 
 G. A. Petersson, H. Nakatsuji, X. Li, M. Caricato, A. V. Marenich, 
 J. Bloino, B. G. Janesko, R. Gomperts, B. Mennucci, H. P. Hratchian, 
 J. V. Ortiz, A. F. Izmaylov, J. L. Sonnenberg, D. Williams-Young, 
[...]
  1249. RY*(   3) H  66                  0.00008     2.05733   
  1250. RY*(   4) H  66                  0.00002     1.57949   
  1251. RY*(   5) H  66                  0.00001     2.88931   
  1252. RY*(   1) H  67                  0.00074     1.00063   
  1253. RY*(   2) H  67                  0.00015     1.69528   
  1254. RY*(   3) H  67                  0.00008     1.95857   
  1255. RY*(   4) H  67                  0.00006     2.01268   
  1256. RY*(   5) H  67                  0.00000     2.88305   
  1257. RY*(   1) N  68                  0.00282     0.66519   
  1258. RY*(   2) N  68                  0.00224     1.78139   
  1259. RY*(   3) N  68                  0.00099     2.08650   
  1260. RY*(   4) N  68                  0.00078     2.16535   
  1261. RY*(   5) N  68                  0.00053     1.14410   
  1262. RY*(   6) N  68                  0.00027     1.98551   
  1263. RY*(   7) N  68                  0.00021     1.74483   
  1264. RY*(   8) N  68                  0.00007     2.30880   
  1265. RY*(   9) N  68                  0.00007     2.31242   
  1266. RY*(  10) N  68                  0.00006     3.86502   
  1267. RY*(  11) N  68                  0.00004     2.90580   
  1268. RY*(  12) N  68                  0.00000     2.15829   
  1269. RY*(  13) N  68                  0.00001     4.31476   
  1270. RY*(  14) N  68                  0.00001     2.66061   
  1271. RY*(  15) N  68                  0.00001     3.44375   
  1272. RY*(  16) N  68                  0.00001     3.53404   
  1273. RY*(  17) N  68                  0.00000     4.46022   
  1274. RY*(  18) N  68                  0.00000    30.55121   
  1275. RY*(  19) N  68                  0.00000     4.15771   
  1276. RY*(  20) N  68                  0.00000     4.62016   
  1277. RY*(  21) N  68                  0.00000     4.79278   
  1278. RY*(  22) N  68                  0.00000     4.43169   
  1279. RY*(  23) N  68                  0.00000     4.38426   
  1280. RY*(  24) N  68                  0.00000     4.43791   
  1281. RY*(  25) N  68                  0.00000     4.43966   
  1282. RY*(  26) N  68                  0.00000     4.46396   
  1283. RY*(   1) H  69                  0.00057     2.15026   
  1284. RY*(   2) H  69                  0.00039     2.13818   
  1285. RY*(   3) H  69                  0.00029     1.04117   
  1286. RY*(   4) H  69                  0.00021     2.52581   
  1287. RY*(   5) H  69                  0.00001     3.07641   
  1288. RY*(   1) C  70                  0.00407     1.69070   
  1289. RY*(   2) C  70                  0.00260     0.99192   
  1290. RY*(   3) C  70                  0.00190     1.49796   
  1291. RY*(   4) C  70                  0.00163     2.01832   
  1292. RY*(   5) C  70                  0.00123     1.74864   
  1293. RY*(   6) C  70                  0.00110     1.73273   
  1294. RY*(   7) C  70                  0.00037     2.85955   
  1295. RY*(   8) C  70                  0.00019     2.67011   
  1296. RY*(   9) C  70                  0.00016     2.62758   
  1297. RY*(  10) C  70                  0.00007     3.66564   
  1298. RY*(  11) C  70                  0.00003     2.61706   
  1299. RY*(  12) C  70                  0.00001     2.09818   
  1300. RY*(  13) C  70                  0.00001     1.42486   
  1301. RY*(  14) C  70                  0.00001     1.59906   
  1302. RY*(  15) C  70                  0.00001     2.90261   
  1303. RY*(  16) C  70                  0.00001     1.99539   
  1304. RY*(  17) C  70                  0.00001     3.11499   
  1305. RY*(  18) C  70                  0.00000     1.32369   
  1306. RY*(  19) C  70                  0.00000    21.12583   
  1307. RY*(  20) C  70                  0.00000     4.04572   
  1308. RY*(  21) C  70                  0.00001     3.74889   
  1309. RY*(  22) C  70                  0.00000     3.56105   
  1310. RY*(  23) C  70                  0.00000     3.66201   
  1311. RY*(  24) C  70                  0.00000     3.52335   
  1312. RY*(  25) C  70                  0.00000     3.47148   
  1313. RY*(  26) C  70                  0.00000     3.45227   
  1314. RY*(   1) C  71                  0.00408     1.58320   
  1315. RY*(   2) C  71                  0.00330     0.66342   
  1316. RY*(   3) C  71                  0.00198     1.34592   
  1317. RY*(   4) C  71                  0.00128     2.57065   
  1318. RY*(   5) C  71                  0.00081     1.60591   
  1319. RY*(   6) C  71                  0.00040     1.68623   
  1320. RY*(   7) C  71                  0.00027     1.89122   
  1321. RY*(   8) C  71                  0.00008     2.86284   
  1322. RY*(   9) C  71                  0.00005     1.99012   
  1323. RY*(  10) C  71                  0.00006     2.39996   
  1324. RY*(  11) C  71                  0.00004     3.42033   
  1325. RY*(  12) C  71                  0.00003     1.70844   
  1326. RY*(  13) C  71                  0.00000     3.40179   
  1327. RY*(  14) C  71                  0.00001     2.02734   
  1328. RY*(  15) C  71                  0.00001     2.63301   
  1329. RY*(  16) C  71                  0.00001     3.44306   
  1330. RY*(  17) C  71                  0.00001     2.79803   
  1331. RY*(  18) C  71                  0.00001     2.83849   
  1332. RY*(  19) C  71                  0.00000    21.51071   
  1333. RY*(  20) C  71                  0.00001     3.99563   
  1334. RY*(  21) C  71                  0.00001     3.97928   
  1335. RY*(  22) C  71                  0.00000     3.55643   
  1336. RY*(  23) C  71                  0.00000     3.75086   
  1337. RY*(  24) C  71                  0.00000     3.65027   
  1338. RY*(  25) C  71                  0.00000     3.45157   
  1339. RY*(  26) C  71                  0.00000     3.46152   
  1340. RY*(   1) H  72                  0.00059     0.94103   
  1341. RY*(   2) H  72                  0.00029     2.31159   
  1342. RY*(   3) H  72                  0.00021     2.12590   
  1343. RY*(   4) H  72                  0.00012     2.39888   
  1344. RY*(   5) H  72                  0.00002     3.13010   
  1345. RY*(   1) N  73                  0.00747     0.85531   
  1346. RY*(   2) N  73                  0.00700     1.30795   
  1347. RY*(   3) N  73                  0.00576     1.42001   
  1348. RY*(   4) N  73                  0.00085     1.58500   
  1349. RY*(   5) N  73                  0.00072     1.72925   
  1350. RY*(   6) N  73                  0.00053     1.96996   
  1351. RY*(   7) N  73                  0.00037     3.44333   
  1352. RY*(   8) N  73                  0.00033     3.22609   
  1353. RY*(   9) N  73                  0.00011     2.69077   
  1354. RY*(  10) N  73                  0.00009     3.08857   
  1355. RY*(  11) N  73                  0.00007     3.42185   
  1356. RY*(  12) N  73                  0.00008     2.75626   
  1357. RY*(  13) N  73                  0.00006     2.85737   
  1358. RY*(  14) N  73                  0.00004     3.65712   
  1359. RY*(  15) N  73                  0.00002     4.58314   
  1360. RY*(  16) N  73                  0.00002     4.76631   
  1361. RY*(  17) N  73                  0.00000     4.83730   
  1362. RY*(  18) N  73                  0.00001     4.31937   
  1363. RY*(  19) N  73                  0.00001     4.34122   
  1364. RY*(  20) N  73                  0.00000     4.39356   
  1365. RY*(  21) N  73                  0.00000    31.53699   
  1366. RY*(  22) N  73                  0.00000     4.15318   
  1367. RY*(  23) N  73                  0.00000     4.68598   
  1368. RY*(  24) N  73                  0.00000     4.71457   
  1369. RY*(  25) N  73                  0.00000     4.55093   
  1370. RY*(  26) N  73                  0.00000     4.66682   
  1371. RY*(   1) C  74                  0.00407     1.47859   
  1372. RY*(   2) C  74                  0.00252     0.71579   
  1373. RY*(   3) C  74                  0.00167     1.84684   
  1374. RY*(   4) C  74                  0.00070     2.07699   
  1375. RY*(   5) C  74                  0.00058     1.55217   
  1376. RY*(   6) C  74                  0.00045     2.06861   
  1377. RY*(   7) C  74                  0.00042     1.91856   
  1378. RY*(   8) C  74                  0.00025     1.44697   
  1379. RY*(   9) C  74                  0.00022     1.60670   
  1380. RY*(  10) C  74                  0.00016     1.66003   
  1381. RY*(  11) C  74                  0.00011     1.43996   
  1382. RY*(  12) C  74                  0.00005     2.18918   
  1383. RY*(  13) C  74                  0.00005     2.69807   
  1384. RY*(  14) C  74                  0.00003     2.03098   
  1385. RY*(  15) C  74                  0.00003     2.18966   
  1386. RY*(  16) C  74                  0.00003     3.34783   
  1387. RY*(  17) C  74                  0.00000     3.49869   
  1388. RY*(  18) C  74                  0.00000     3.43843   
  1389. RY*(  19) C  74                  0.00000    21.23386   
  1390. RY*(  20) C  74                  0.00001     3.90342   
  1391. RY*(  21) C  74                  0.00001     3.91941   
  1392. RY*(  22) C  74                  0.00000     3.48652   
  1393. RY*(  23) C  74                  0.00000     3.65738   
  1394. RY*(  24) C  74                  0.00000     3.51459   
  1395. RY*(  25) C  74                  0.00000     3.51138   
  1396. RY*(  26) C  74                  0.00000     3.67095   
  1397. RY*(   1) H  75                  0.00052     0.78053   
  1398. RY*(   2) H  75                  0.00033     2.35505   
  1399. RY*(   3) H  75                  0.00025     2.31400   
  1400. RY*(   4) H  75                  0.00008     2.76441   
  1401. RY*(   5) H  75                  0.00001     3.09948   
  1517. BD*(   1) C  64 - H  65          0.01168     0.35917   
  1518. BD*(   1) C  64 - H  66          0.00343     0.37325   
  1519. BD*(   1) C  64 - H  67          0.01205     0.35955   
  1520. BD*(   1) C  64 - C  70          0.01365     0.38919   
  1521. BD*(   1) N  68 - H  69          0.01415     0.36674   
  1522. BD*(   1) N  68 - C  70          0.02728     0.42987   
  1523. BD*(   1) N  68 - C  71          0.02243     0.44604   
  1524. BD*(   1) C  70 - C  74          0.02108     0.56605   
  1525. BD*(   2) C  70 - C  74          0.29981     0.03467  1528(v),1519(v),1517(v)
                                                    1292(g)
  1526. BD*(   1) C  71 - H  72          0.01855     0.39140   
  1527. BD*(   1) C  71 - N  73          0.01632     0.53391   
  1528. BD*(   2) C  71 - N  73          0.42239    -0.00691  1525(v),1315(g),1345(g)
                                                    1372(v),153(r),1443(r)
  1529. BD*(   1) N  73 - C  74          0.01648     0.47931   
  1530. BD*(   1) C  74 - H  75          0.01520     0.43367   
       -------------------------------
              Total Lewis   42.68883  ( 97.7275%)
        Valence non-Lewis    0.91450  (  2.0936%)
        Rydberg non-Lewis    0.07819  (  0.1790%)
       -------------------------------
            Total unit  3   43.68151  (100.0000%)
           Charge unit  3    0.31849
 
 Molecular unit  4  (H2O)
    94. BD (   1) O  76 - H  77          1.99129    -0.80066  154(r),151(r),166(r),150(r)
                                                    1435(v),1434(v),168(r)
                                                    152(r),274(r),153(r),222(r)
                                                    1443(r),1346(r),1345(r)
                                                    1348(r)
    95. BD (   1) O  76 - H  78          1.99534    -0.86198  154(r),166(r),151(r),1430(v)
                                                    150(r),168(r),222(r),1348(r)
                                                    167(r),1346(r),248(r),170(r)
   145. CR (   1) O  76                  1.99980   -18.95832  154(r),1430(v),1435(v)
                                                    150(r),1434(v),151(r)
   163. LP (   1) O  76                  1.99257    -0.32414  1433(v),1429(v),152(r)
                                                    153(r),158(r),167(r),248(r)
                                                    196(r),171(r),1345(r),172(r)
   164. LP (   2) O  76                  1.85518    -0.49736  154(r),151(r),150(r),1434(v)
                                                    1531(g),1430(v),1428(v)
                                                    168(r),176(r),170(r),1348(r)
                                                    244(r),218(r),194(r),246(r)
                                                    192(r),152(r),220(r),195(r)
                                                    247(r),153(r),270(r),166(r)
                                                    272(r),169(r),183(r),221(r)
                                                    174(r),158(r),222(r)
  1402. RY*(   1) O  76                  0.00123     0.61812   
  1403. RY*(   2) O  76                  0.00098     1.22617   
  1404. RY*(   3) O  76                  0.00032     1.18675   
  1405. RY*(   4) O  76                  0.00020     1.22245   
  1406. RY*(   5) O  76                  0.00006     2.26006   
  1407. RY*(   6) O  76                  0.00003     2.14672   
  1408. RY*(   7) O  76                  0.00001     2.16100   
  1409. RY*(   8) O  76                  0.00002     5.26911   
  1410. RY*(   9) O  76                  0.00001     3.44141   
  1411. RY*(  10) O  76                  0.00001     3.83635   
  1412. RY*(  11) O  76                  0.00000     6.30675   
  1413. RY*(  12) O  76                  0.00000     3.70091   
  1414. RY*(  13) O  76                  0.00000     6.56121   
  1415. RY*(  14) O  76                  0.00001     2.72663   
  1416. RY*(  15) O  76                  0.00000     6.42660   
  1417. RY*(  16) O  76                  0.00000    41.96689   
  1418. RY*(  17) O  76                  0.00000     6.42784   
  1419. RY*(  18) O  76                  0.00000     2.74555   
  1420. RY*(  19) O  76                  0.00000     5.90579   
  1421. RY*(  20) O  76                  0.00000     4.66171   
  1422. RY*(  21) O  76                  0.00000     5.68297   
  1423. RY*(  22) O  76                  0.00000     5.17564   
  1424. RY*(  23) O  76                  0.00000     5.54412   
  1425. RY*(  24) O  76                  0.00000     5.34188   
  1426. RY*(  25) O  76                  0.00000     5.59641   
  1427. RY*(  26) O  76                  0.00000     5.46022   
  1428. RY*(   1) H  77                  0.00122     0.75848   
  1429. RY*(   2) H  77                  0.00080     2.02598   
  1430. RY*(   3) H  77                  0.00070     2.42367   
  1431. RY*(   4) H  77                  0.00019     2.10748   
  1432. RY*(   5) H  77                  0.00001     2.89229   
  1433. RY*(   1) H  78                  0.00098     2.02191   
  1434. RY*(   2) H  78                  0.00082     1.89067   
  1435. RY*(   3) H  78                  0.00045     2.10344   
  1436. RY*(   4) H  78                  0.00016     1.40633   
  1437. RY*(   5) H  78                  0.00001     3.02864   
  1531. BD*(   1) O  76 - H  77          0.00439     0.44108   
  1532. BD*(   1) O  76 - H  78          0.00228     0.61836   
       -------------------------------
              Total Lewis    9.83417  ( 99.8487%)
        Valence non-Lewis    0.00667  (  0.0677%)
        Rydberg non-Lewis    0.00823  (  0.0836%)
       -------------------------------
            Total unit  4    9.84907  (100.0000%)
           Charge unit  4    0.15093
 Unable to Open any file for archive entry.
 1\1\GINC-BGN1039\SP\RAPFD\def2TZVP\C34H36Fe1N6O1\BEBZHART\14-Jul-2024\
 0\\# apfd/def2TZVP int=(grid=ultrafine) geom=check guess=read pop=nbo 
 scf=qc\\3emm_II_S_nbo\\0,1\Fe,0,15.9395316235,1.2577025854,7.636447275
 5\N,0,16.2929612516,0.6139303944,9.4772108771\N,0,14.0850489919,1.8524
 132481,8.1811281712\N,0,15.4664112831,1.6965647925,5.7224786923\N,0,17
 .6282959679,0.40685727,6.9971457776\C,0,17.4375395085,0.0424436567,9.9
 321418547\C,0,17.336676757,-0.2476495185,11.3464281809\C,0,16.09524152
 1,0.1521142813,11.7300867109\C,0,15.4596834459,0.6969739836,10.5485807
 248\C,0,13.5693971082,1.8123944486,9.442328713\C,0,12.3276232416,2.534
 8746501,9.5125699617\C,0,12.0970593825,3.0301671368,8.2540360835\C,0,1
 3.205687836,2.5768653488,7.4391148338\C,0,14.3901677269,2.4129529562,5
 .2941277705\C,0,14.4513173986,2.6342435007,3.8713526663\C,0,15.6015870
 352,2.0300570267,3.4389099882\C,0,16.2164685573,1.4515713485,4.6188174
 616\C,0,18.0711466021,0.2892559578,5.7188493223\C,0,19.3627937381,-0.3
 60828896,5.6799801103\C,0,19.6966058236,-0.6225412429,6.9722074887\C,0
 ,18.5914919653,-0.1520285853,7.7781989547\C,0,18.5371455907,-0.2741146
 724,9.1552263416\H,0,19.3852049569,-0.7232879277,9.6501125511\C,0,14.1
 820375057,1.2193518829,10.5359837018\H,0,13.6446718142,1.231973041,11.
 472161508\C,0,13.3461473382,2.8502305912,6.0913749819\H,0,12.579819481
 1,3.4471947437,5.6207538658\C,0,17.4114500405,0.7576861397,4.598895337
 6\H,0,17.8929576002,0.614720176,3.643661368\C,0,15.4521259384,0.076316
 2564,13.0724974515\H,0,16.1267744133,-0.3675672172,13.8005424634\H,0,1
 4.5469453334,-0.5299794676,13.0302510408\H,0,15.1759328927,1.071390073
 9,13.4222454312\C,0,18.4199548695,-0.8768163987,12.1542561688\H,0,19.3
 257234984,-0.2705020469,12.1210943642\H,0,18.6623955281,-1.8662417481,
 11.7657059419\H,0,18.1172328717,-0.982672921,13.1931690503\C,0,11.4602
 903891,2.6392433735,10.7182333999\H,0,11.7988484412,3.4444056859,11.37
 25553896\H,0,11.4788736377,1.7119390539,11.2889651645\H,0,10.433394043
 8,2.8462864152,10.4228738311\C,0,10.9864881578,3.8176198978,7.76897452
 31\H,0,10.7091899752,3.6475950861,6.7348672026\C,0,10.3070139125,4.716
 7401081,8.4742456428\H,0,10.5654705018,4.9654097506,9.4885131199\H,0,9
 .4796917351,5.2584659086,8.046417271\C,0,13.4043584685,3.3183622539,3.
 0629231135\H,0,13.5156560625,4.402664949,3.1183952489\H,0,12.409250966
 4,3.0630248621,3.4243124281\H,0,13.4823623323,3.0178031065,2.020120823
 9\C,0,16.1302882265,1.924679794,2.0972033818\H,0,16.6623043951,1.00681
 35663,1.8745586956\C,0,16.0197305431,2.8484361025,1.1478522462\H,0,15.
 545742531,3.798190285,1.324154729\H,0,16.4271380257,2.6944055515,0.162
 250818\C,0,20.1241138927,-0.6442878286,4.4305873103\H,0,20.3498061113,
 0.281999649,3.901490716\H,0,19.5424716331,-1.2806882957,3.7634311676\H
 ,0,21.0612954715,-1.1485819975,4.653545268\C,0,20.9203657603,-1.275295
 0901,7.518849825\H,0,21.437300515,-0.6070767859,8.2083642253\H,0,21.60
 79006375,-1.5389999604,6.7189587216\H,0,20.6608298607,-2.1846314551,8.
 061529405\C,0,16.929622113,6.7013406463,8.2488140502\H,0,16.9895753642
 ,7.0824400871,9.2682348308\H,0,15.9743404365,6.9933131526,7.8239375978
 \H,0,17.7271019939,7.1613340928,7.6653041198\N,0,18.139682869,4.561933
 055,8.7331524852\H,0,18.9492920583,4.9934370247,9.1476347419\C,0,17.04
 79141808,5.2213235423,8.2324629061\C,0,17.9270050666,3.2354657701,8.57
 15849236\H,0,18.6160610384,2.4733664006,8.8731167002\N,0,16.7670934336
 ,3.0157830921,7.9994774147\C,0,16.2103001535,4.2424486846,7.7802747152
 \H,0,15.2505631696,4.3381140443,7.3161015178\O,0,14.844,-0.724,7.283\H
 ,0,13.938,-0.436,7.391\H,0,15.114,-1.548,7.087\\Version=ES64L-G16RevC.
 02\State=1-A\HF=-2984.024573\RMSD=1.980e-09\Dipole=1.0836387,0.8619543
 ,0.8907431\Quadrupole=-0.0070027,5.9317199,-5.9247172,4.592607,3.91278
 07,3.8925615\PG=C01 [X(C34H36Fe1N6O1)]\\@
 The archive entry for this job was punched.


 Mondays are the potholes in the road of life.
                                -- Tom Wilson
 Job cpu time:       0 days  0 hours 45 minutes 16.7 seconds.
 Elapsed time:       0 days  0 hours  0 minutes 54.3 seconds.
 File lengths (MBytes):  RWF=    792 Int=      0 D2E=      0 Chk=    155 Scr=      1
 Normal termination of Gaussian 16 at Sun Jul 14 06:48:47 2024.
