 Entering Gaussian System, Link 0=g16
 Input=3gck01.com
 Output=3gck01.log
 Initial command:
 /sw/chem/gaussian/g16_C02/a100/g16/l1.exe "/local/bebzhart_7933178/Gau-1314178.inp" -scrdir="/local/bebzhart_7933178/"
 Entering Link 1 = /sw/chem/gaussian/g16_C02/a100/g16/l1.exe PID=   1314179.
  
 Copyright (c) 1988-2021, Gaussian, Inc.  All Rights Reserved.
  
 This is part of the Gaussian(R) 16 program.  It is based on
 the Gaussian(R) 09 system (copyright 2009, Gaussian, Inc.),
 the Gaussian(R) 03 system (copyright 2003, Gaussian, Inc.),
 the Gaussian(R) 98 system (copyright 1998, Gaussian, Inc.),
 the Gaussian(R) 94 system (copyright 1995, Gaussian, Inc.),
 the Gaussian 92(TM) system (copyright 1992, Gaussian, Inc.),
 the Gaussian 90(TM) system (copyright 1990, Gaussian, Inc.),
 the Gaussian 88(TM) system (copyright 1988, Gaussian, Inc.),
 the Gaussian 86(TM) system (copyright 1986, Carnegie Mellon
 University), and the Gaussian 82(TM) system (copyright 1983,
 Carnegie Mellon University). Gaussian is a federally registered
 trademark of Gaussian, Inc.
  
 This software contains proprietary and confidential information,
 including trade secrets, belonging to Gaussian, Inc.
  
 This software is provided under written license and may be
 used, copied, transmitted, or stored only in accord with that
 written license.
  
 The following legend is applicable only to US Government
 contracts under FAR:
  
                    RESTRICTED RIGHTS LEGEND
  
 Use, reproduction and disclosure by the US Government is
 subject to restrictions as set forth in subparagraphs (a)
 and (c) of the Commercial Computer Software - Restricted
 Rights clause in FAR 52.227-19.
  
 Gaussian, Inc.
 340 Quinnipiac St., Bldg. 40, Wallingford CT 06492
  
  
 ---------------------------------------------------------------
 Warning -- This program may not be used in any manner that
 competes with the business of Gaussian, Inc. or will provide
 assistance to any competitor of Gaussian, Inc.  The licensee
 of this program is prohibited from giving any competitor of
 Gaussian, Inc. access to this program.  By using this program,
 the user acknowledges that Gaussian, Inc. is engaged in the
 business of creating and licensing software in the field of
 computational chemistry and represents and warrants to the
 licensee that it is not a competitor of Gaussian, Inc. and that
 it will not use this program in any manner prohibited above.
 ---------------------------------------------------------------
  

 Cite this work as:
 Gaussian 16, Revision C.02,
 M. J. Frisch, G. W. Trucks, H. B. Schlegel, G. E. Scuseria, 
 M. A. Robb, J. R. Cheeseman, G. Scalmani, V. Barone, 
 G. A. Petersson, H. Nakatsuji, X. Li, M. Caricato, A. V. Marenich, 
 J. Bloino, B. G. Janesko, R. Gomperts, B. Mennucci, H. P. Hratchian, 
 J. V. Ortiz, A. F. Izmaylov, J. L. Sonnenberg, D. Williams-Young, 
 F. Ding, F. Lipparini, F. Egidi, J. Goings, B. Peng, A. Petrone, 
 T. Henderson, D. Ranasinghe, V. G. Zakrzewski, J. Gao, N. Rega, 
 G. Zheng, W. Liang, M. Hada, M. Ehara, K. Toyota, R. Fukuda, 
 J. Hasegawa, M. Ishida, T. Nakajima, Y. Honda, O. Kitao, H. Nakai, 
 T. Vreven, K. Throssell, J. A. Montgomery, Jr., J. E. Peralta, 
 F. Ogliaro, M. J. Bearpark, J. J. Heyd, E. N. Brothers, K. N. Kudin, 
 V. N. Staroverov, T. A. Keith, R. Kobayashi, J. Normand, 
 K. Raghavachari, A. P. Rendell, J. C. Burant, S. S. Iyengar, 
 J. Tomasi, M. Cossi, J. M. Millam, M. Klene, C. Adamo, R. Cammi, 
 J. W. Ochterski, R. L. Martin, K. Morokuma, O. Farkas, 
 J. B. Foresman, and D. J. Fox, Gaussian, Inc., Wallingford CT, 2019.
 
 ******************************************
 Gaussian 16:  ES64L-G16RevC.02  7-Dec-2021
                14-Jul-2024 
 ******************************************
 %mem=16GB
 %CPU=0-71
 SetSPE:  set environment variable "OMP_PROC_BIND" = "true"
 SetSPE:  set environment variable "OMP_PLACES" = "{0},{1},{2},{3},{4},{5},{6},{7},{8},{9},{10},{11},{12},{13},{14},{15},{16},{17},{18},{19},{20},{21},{22},{23},{24},{25},{26},{27},{28},{29},{30},{31},{32},{33},{34},{35},{36},{37},{38},{39},{40},{41},{42},{43},{44},{45},{46},{47},{48},{49},{50},{51},{52},{53},{54},{55},{56},{57},{58},{59},{60},{61},{62},{63},{64},{65},{66},{67},{68},{69},{70},{71}"
 Will use up to   72 processors via shared memory.
 %gpucpu=0,1,2,3=0,1,2,3
 Will use    4 GPUs:
 Thread  CPU   GPU
      0    0     0
      1    1     1
      2    2     2
      3    3     3
      4    4    -1
      5    5    -1
      6    6    -1
      7    7    -1
      8    8    -1
      9    9    -1
     10   10    -1
     11   11    -1
     12   12    -1
     13   13    -1
     14   14    -1
     15   15    -1
     16   16    -1
     17   17    -1
     18   18    -1
     19   19    -1
     20   20    -1
     21   21    -1
     22   22    -1
     23   23    -1
     24   24    -1
     25   25    -1
     26   26    -1
     27   27    -1
     28   28    -1
     29   29    -1
     30   30    -1
     31   31    -1
     32   32    -1
     33   33    -1
     34   34    -1
     35   35    -1
     36   36    -1
     37   37    -1
     38   38    -1
     39   39    -1
     40   40    -1
     41   41    -1
     42   42    -1
     43   43    -1
     44   44    -1
     45   45    -1
     46   46    -1
     47   47    -1
     48   48    -1
     49   49    -1
     50   50    -1
     51   51    -1
     52   52    -1
     53   53    -1
     54   54    -1
     55   55    -1
     56   56    -1
     57   57    -1
     58   58    -1
     59   59    -1
     60   60    -1
     61   61    -1
     62   62    -1
     63   63    -1
     64   64    -1
     65   65    -1
     66   66    -1
     67   67    -1
     68   68    -1
     69   69    -1
     70   70    -1
     71   71    -1
 SetGPE:  set environment variable "OMP_PROC_BIND" = "true"
 SetGPE:  set environment variable "OMP_PLACES" = "{0},{1},{2},{3},{4},{5},{6},{7},{8},{9},{10},{11},{12},{13},{14},{15},{16},{17},{18},{19},{20},{21},{22},{23},{24},{25},{26},{27},{28},{29},{30},{31},{32},{33},{34},{35},{36},{37},{38},{39},{40},{41},{42},{43},{44},{45},{46},{47},{48},{49},{50},{51},{52},{53},{54},{55},{56},{57},{58},{59},{60},{61},{62},{63},{64},{65},{66},{67},{68},{69},{70},{71}"
 %chk=3gck_II_O.chk
 Properties for Device   0
 Minimum vector length:                              32
 Maximum vector length:                            1024
 Number of SMPs:                                    108
 Maximum number of threads per SMP:                2048
 Number of ASync Engines:                             5
 Memory:                                           9207742464
 Properties for Device   1
 Minimum vector length:                              32
 Maximum vector length:                            1024
 Number of SMPs:                                    108
 Maximum number of threads per SMP:                2048
 Number of ASync Engines:                             5
 Memory:                                           9207742464
 Properties for Device   2
 Minimum vector length:                              32
 Maximum vector length:                            1024
 Number of SMPs:                                    108
 Maximum number of threads per SMP:                2048
 Number of ASync Engines:                             5
 Memory:                                           9207742464
 Properties for Device   3
 Minimum vector length:                              32
 Maximum vector length:                            1024
 Number of SMPs:                                    108
 Maximum number of threads per SMP:                2048
 Number of ASync Engines:                             5
 Memory:                                           9207742464
   8286968217 words of memory will be used on each GPU.
 ------------------------------------------
 # polar def2tzvp apfd int=(grid=ultrafine)
 ------------------------------------------
 1/38=1,172=1/1;
 2/12=2,17=6,18=5,40=1/2;
 3/5=44,7=101,11=2,25=1,30=1,74=-44,75=-5/1,2,3;
 4//1;
 5/5=2,38=5,98=1/2;
 8/6=4,10=90,11=11/1;
 10/6=1,13=10/2;
 6/7=2,8=2,9=2,10=2,28=1/1;
 99/5=1,9=1/99;
 ---------
 3gck_II_S
 ---------
 Symbolic Z-matrix:
 Charge =  0 Multiplicity = 1
 Fe                    16.05149   2.29598   22.96196 
 N                     15.31504   2.63521   24.76048 
 N                     16.21019   4.32856   22.62879 
 N                     16.76508   2.1263    21.02861 
 N                     15.91002   0.34651   23.10458 
 C                     14.93681   1.66973   25.62389 
 C                     14.48666   2.25757   26.86513 
 C                     14.60191   3.60781   26.71949 
 C                     15.12916   3.83669   25.38911 
 C                     15.91427   5.27338   23.54411 
 C                     16.15271   6.60087   23.04392 
 C                     16.63024   6.44942   21.77022 
 C                     16.63876   5.0221    21.5162 
 C                     17.11588   3.09902   20.12137 
 C                     17.60476   2.50762   18.89822 
 C                     17.53428   1.15452   19.07685 
 C                     16.99827   0.95355   20.41331 
 C                     16.25884  -0.60264   22.16805 
 C                     15.97202  -1.92014   22.70444 
 C                     15.43747  -1.73345   23.94303 
 C                     15.43748  -0.30474   24.18079 
 C                     14.991    0.30753   25.34698 
 H                     14.62353  -0.35442   26.11615 
 C                     15.39822   5.06432   24.82032 
 H                     15.20191   5.93922   25.42604 
 C                     17.09452   4.4613    20.34501 
 H                     17.44227   5.11153   19.55823 
 C                     16.77198  -0.31403   20.92524 
 H                     17.01144  -1.15877   20.29601 
 C                     14.32491   4.68129   27.7373 
 H                     14.30461   4.25508   28.73866 
 H                     13.36602   5.1595    27.53515 
 H                     15.10798   5.43267   27.68798 
 C                     13.99149   1.46674   28.0314 
 H                     14.75365   0.74861   28.34573 
 H                     13.09031   0.90784   27.76701 
 H                     13.7545   2.11199   28.87379 
 C                     15.88791   7.87157   23.77487 
 H                     16.678    8.07374   24.50062 
 H                     14.94154   7.8227    24.31062 
 H                     15.84525   8.70044   23.07118 
 C                     17.06244   7.44941   20.81662 
 H                     16.87396   7.21572   19.77516 
 C                     17.6765   8.58967   21.12005 
 H                     17.93978   8.84169   22.13272 
 H                     17.97391   9.29151   20.35687 
 C                     18.09405   3.27099   17.72073 
 H                     19.11606   3.61685   17.8876 
 H                     17.47069   4.14443   17.53271 
 H                     18.0889   2.64106   16.83302 
 C                     17.92773   0.0943    18.17412 
 H                     17.31081  -0.79716   18.18643 
 C                     18.97707   0.12606   17.36034 
 H                     19.65551   0.96101   17.31951 
 H                     19.20076  -0.69665   16.70675 
 C                     16.22006  -3.18948   21.95985 
 H                     17.27354  -3.26914   21.68798 
 H                     15.63356  -3.21513   21.04084 
 H                     15.95383  -4.05722   22.55858 
 C                     14.9506  -2.74507   24.9267 
 H                     15.51913  -2.67445   25.85597 
 H                     15.05382  -3.75395   24.53574 
 H                     13.89875  -2.57305   25.16283 
 C                     21.53443   2.91757   23.90551 
 H                     22.16849   2.04364   23.74335 
 H                     21.86871   3.41066   24.81897 
 H                     21.66611   3.59973   23.072 
 N                     19.64846   1.68017   24.98955 
 H                     20.20206   1.25857   25.7173 
 C                     20.1071   2.51812   24.0107 
 C                     18.32132   1.51191   24.79822 
 H                     17.69408   0.9022    25.41713 
 N                     17.90923   2.19327   23.75365 
 C                     19.01165   2.82632   23.25382 
 H                     18.94652   3.45776   22.39085 
 
 Stoichiometry    C34H34FeN6
 Framework group  C1[X(C34H34FeN6)]
 Deg. of freedom   219
 Full point group                 C1      NOp   1
 Largest Abelian subgroup         C1      NOp   1
 Largest concise Abelian subgroup C1      NOp   1
                         Standard orientation:                         
 ---------------------------------------------------------------------
 Center     Atomic      Atomic             Coordinates (Angstroms)
 Number     Number       Type             X           Y           Z
 ---------------------------------------------------------------------
      1         26           0        0.318239   -0.038429   -0.531077
      2          7           0        1.647690   -1.495980   -0.516303
      3          7           0       -1.215305   -1.419833   -0.617893
      4          7           0       -1.203423    1.358329   -0.628355
      5          7           0        1.658884    1.390871   -0.507576
      6          6           0        2.983384   -1.309060   -0.475586
      7          6           0        3.665133   -2.582631   -0.429690
      8          6           0        2.697193   -3.541991   -0.448553
      9          6           0        1.426712   -2.846599   -0.499490
     10          6           0       -1.037088   -2.755723   -0.576476
     11          6           0       -2.286574   -3.467120   -0.620639
     12          6           0       -3.267351   -2.514067   -0.675948
     13          6           0       -2.580250   -1.237632   -0.696878
     14          6           0       -2.565569    1.185384   -0.711862
     15          6           0       -3.245359    2.459248   -0.714906
     16          6           0       -2.267301    3.410979   -0.641815
     17          6           0       -1.006531    2.688223   -0.597917
     18          6           0        1.450164    2.753259   -0.508555
     19          6           0        2.735890    3.425961   -0.495053
     20          6           0        3.689400    2.453668   -0.507667
     21          6           0        2.986928    1.187266   -0.485364
     22          6           0        3.598826   -0.061518   -0.466852
     23          1           0        4.678093   -0.057835   -0.468483
     24          6           0        0.178736   -3.433204   -0.537565
     25          1           0        0.144364   -4.514631   -0.523054
     26          6           0       -3.230317   -0.024734   -0.711414
     27          1           0       -4.308324   -0.013023   -0.734228
     28          6           0        0.210641    3.347987   -0.540967
     29          1           0        0.195112    4.427997   -0.526620
     30          6           0        2.863711   -5.034878   -0.355865
     31          1           0        3.847112   -5.280555    0.040806
     32          1           0        2.752893   -5.492278   -1.339493
     33          1           0        2.103481   -5.439951    0.306081
     34          6           0        5.150520   -2.732572   -0.385856
     35          1           0        5.554935   -2.190627    0.473299
     36          1           0        5.608956   -2.322604   -1.289264
     37          1           0        5.439504   -3.777540   -0.304101
     38          6           0       -2.449827   -4.947695   -0.639464
     39          1           0       -2.322675   -5.364938    0.361316
     40          1           0       -1.715220   -5.412167   -1.294939
     41          1           0       -3.444844   -5.205037   -0.996880
     42          6           0       -4.706967   -2.665132   -0.704332
     43          1           0       -5.245111   -1.917510   -1.275513
     44          6           0       -5.394965   -3.615844   -0.078118
     45          1           0       -4.914036   -4.346008    0.549488
     46          1           0       -6.470511   -3.668846   -0.140436
     47          6           0       -4.720011    2.636169   -0.767178
     48          1           0       -5.159149    2.475611    0.219403
     49          1           0       -5.176091    1.926938   -1.456963
     50          1           0       -4.968481    3.645642   -1.089808
     51          6           0       -2.399166    4.850754   -0.582983
     52          1           0       -1.636317    5.421894   -1.099991
     53          6           0       -3.357170    5.510401    0.058457
     54          1           0       -4.126820    5.012975    0.623532
     55          1           0       -3.398212    6.583838    0.047644
     56          6           0        2.894245    4.909899   -0.497050
     57          1           0        2.390474    5.345462    0.366998
     58          1           0        2.451879    5.340938   -1.395798
     59          1           0        3.942884    5.195376   -0.462547
     60          6           0        5.176208    2.585371   -0.517061
     61          1           0        5.604554    2.109193    0.366991
     62          1           0        5.477633    3.629589   -0.525824
     63          1           0        5.597447    2.097787   -1.398282
     64          6           0       -1.249570    0.047432    4.842371
     65          1           0       -1.047278    0.961494    5.404192
     66          1           0       -1.010941   -0.801425    5.484087
     67          1           0       -2.307072    0.016684    4.601223
     68          7           0        0.922319    0.013276    3.599414
     69          1           0        1.512210    0.039423    4.415005
     70          6           0       -0.445382    0.010263    3.593451
     71          6           0        1.339184   -0.014846    2.314248
     72          1           0        2.367343   -0.018816    2.012420
     73          7           0        0.315974   -0.034335    1.490933
     74          6           0       -0.802731   -0.020338    2.274647
     75          1           0       -1.783461   -0.034257    1.843781
 ---------------------------------------------------------------------
 Rotational constants (GHZ):           0.0956009           0.0941677           0.0590561
 Standard basis: def2TZVP (5D, 7F)
 There are  1696 symmetry adapted cartesian basis functions of A   symmetry.
 There are  1489 symmetry adapted basis functions of A   symmetry.
  1489 basis functions,  2414 primitive gaussians,  1696 cartesian basis functions
   153 alpha electrons      153 beta electrons
       nuclear repulsion energy      5576.2994726238 Hartrees.
 NAtoms=   75 NActive=   75 NUniq=   75 SFac= 1.00D+00 NAtFMM=   60 NAOKFM=T Big=T
 Integral buffers will be    131072 words long.
 Raffenetti 2 integral format.
 Two-electron integral symmetry is turned on.
 R6APFD:  NTU= -4 IXU= 1 FactS= 1.050
 Nuclear repulsion after empirical dispersion term =     5576.1627467507 Hartrees.
 One-electron integrals computed using PRISM.
   1 Symmetry operations used in ECPInt.
 ECPInt:  NShTT=  174936 NPrTT=  542361 LenC2=  137738 LenP2D=  282814.
 LDataN:  DoStor=T MaxTD1= 6 Len=  172
 Number of processors reduced to  23 by ecpmxn.
 NBasis=  1489 RedAO= T EigKep=  3.23D-06  NBF=  1489
 NBsUse=  1489 1.00D-06 EigRej= -1.00D+00 NBFU=  1489
 ExpMin= 4.20D-02 ExpMax= 3.01D+05 ExpMxC= 2.91D+03 IAcc=3 IRadAn=         5 AccDes= 0.00D+00
 Harris functional with IExCor= 3731 and IRadAn=       5 diagonalized for initial guess.
 HarFok:  IExCor= 3731 AccDes= 0.00D+00 IRadAn=         5 IDoV= 1 UseB2=F ITyADJ=14
 ICtDFT=  3500011 ScaDFX=  1.000000  1.000000  1.000000  1.000000
 FoFCou: FMM=F IPFlag=           0 FMFlag=      100000 FMFlg1=        2001
         NFxFlg=           0 DoJE=T BraDBF=F KetDBF=T FulRan=T
         wScrn=  0.000000 ICntrl=       500 IOpCl=  0 I1Cent=   200000004 NGrid=           0
         NMat0=    1 NMatS0=      1 NMatT0=    0 NMatD0=    1 NMtDS0=    0 NMtDT0=    0
 Petite list used in FoFCou.
 Requested convergence on RMS density matrix=1.00D-08 within 128 cycles.
 Requested convergence on MAX density matrix=1.00D-06.
 Requested convergence on             energy=1.00D-06.
 No special actions if energy rises.
 EnCoef did     2 forward-backward iterations
 EnCoef did   100 forward-backward iterations
 EnCoef did   100 forward-backward iterations
 EnCoef did   100 forward-backward iterations
 EnCoef did     1 forward-backward iterations
 Restarting incremental Fock formation.
 SCF Done:  E(RAPFD) =  -2907.59792408     A.U. after   25 cycles
            NFock= 25  Conv=0.52D-08     -V/T= 2.0035
 DoSCS=F DFT=T ScalE2(SS,OS)=  1.000000  1.000000
 Range of M.O.s used for correlation:     1  1489
 NBasis=  1489 NAE=   153 NBE=   153 NFC=     0 NFV=     0
 NROrb=   1489 NOA=   153 NOB=   153 NVA=  1336 NVB=  1336

 **** Warning!!: The largest alpha MO coefficient is  0.57214082D+02

          Differentiating once with respect to electric field.
                with respect to dipole field.
          Electric field/nuclear overlap derivatives assumed to be zero.
          There are     3 degrees of freedom in the 1st order CPHF.  IDoFFX=0 NUNeed=     3.
      3 vectors produced by pass  0 Test12= 6.81D-12 3.33D-08 XBig12= 1.85D+03 2.93D+01.
 AX will form     3 AO Fock derivatives at one time.
      3 vectors produced by pass  1 Test12= 6.81D-12 3.33D-08 XBig12= 1.16D+03 7.80D+00.
      3 vectors produced by pass  2 Test12= 6.81D-12 3.33D-08 XBig12= 4.17D+02 4.58D+00.
      3 vectors produced by pass  3 Test12= 6.81D-12 3.33D-08 XBig12= 2.45D+02 3.74D+00.
      3 vectors produced by pass  4 Test12= 6.81D-12 3.33D-08 XBig12= 1.51D+02 2.18D+00.
      3 vectors produced by pass  5 Test12= 6.81D-12 3.33D-08 XBig12= 4.96D+01 1.55D+00.
      3 vectors produced by pass  6 Test12= 6.81D-12 3.33D-08 XBig12= 4.11D+01 1.72D+00.
      3 vectors produced by pass  7 Test12= 6.81D-12 3.33D-08 XBig12= 1.88D+01 1.46D+00.
      3 vectors produced by pass  8 Test12= 6.81D-12 3.33D-08 XBig12= 1.10D+01 1.16D+00.
      3 vectors produced by pass  9 Test12= 6.81D-12 3.33D-08 XBig12= 6.45D+00 6.91D-01.
      3 vectors produced by pass 10 Test12= 6.81D-12 3.33D-08 XBig12= 2.73D+00 3.93D-01.
      3 vectors produced by pass 11 Test12= 6.81D-12 3.33D-08 XBig12= 9.41D-01 1.62D-01.
      3 vectors produced by pass 12 Test12= 6.81D-12 3.33D-08 XBig12= 3.61D-01 9.10D-02.
      3 vectors produced by pass 13 Test12= 6.81D-12 3.33D-08 XBig12= 7.93D-02 5.69D-02.
      3 vectors produced by pass 14 Test12= 6.81D-12 3.33D-08 XBig12= 3.03D-02 6.65D-02.
      3 vectors produced by pass 15 Test12= 6.81D-12 3.33D-08 XBig12= 1.53D-02 5.54D-02.
      3 vectors produced by pass 16 Test12= 6.81D-12 3.33D-08 XBig12= 7.33D-03 3.46D-02.
      3 vectors produced by pass 17 Test12= 6.81D-12 3.33D-08 XBig12= 2.07D-03 1.33D-02.
      3 vectors produced by pass 18 Test12= 6.81D-12 3.33D-08 XBig12= 7.88D-04 5.83D-03.
      3 vectors produced by pass 19 Test12= 6.81D-12 3.33D-08 XBig12= 2.00D-04 3.04D-03.
      3 vectors produced by pass 20 Test12= 6.81D-12 3.33D-08 XBig12= 5.03D-05 1.08D-03.
      3 vectors produced by pass 21 Test12= 6.81D-12 3.33D-08 XBig12= 9.65D-06 8.05D-04.
      3 vectors produced by pass 22 Test12= 6.81D-12 3.33D-08 XBig12= 1.99D-06 4.02D-04.
      3 vectors produced by pass 23 Test12= 6.81D-12 3.33D-08 XBig12= 4.73D-07 1.95D-04.
      3 vectors produced by pass 24 Test12= 6.81D-12 3.33D-08 XBig12= 8.04D-08 8.16D-05.
      3 vectors produced by pass 25 Test12= 6.81D-12 3.33D-08 XBig12= 9.62D-09 2.46D-05.
      3 vectors produced by pass 26 Test12= 6.81D-12 3.33D-08 XBig12= 1.82D-09 8.16D-06.
      3 vectors produced by pass 27 Test12= 6.81D-12 3.33D-08 XBig12= 3.07D-10 2.83D-06.
      3 vectors produced by pass 28 Test12= 6.81D-12 3.33D-08 XBig12= 5.15D-11 9.35D-07.
      3 vectors produced by pass 29 Test12= 6.81D-12 3.33D-08 XBig12= 1.19D-11 3.97D-07.
      3 vectors produced by pass 30 Test12= 6.81D-12 3.33D-08 XBig12= 1.52D-12 1.82D-07.
      1 vectors produced by pass 31 Test12= 6.81D-12 3.33D-08 XBig12= 1.25D-13 4.08D-08.
 InvSVY:  IOpt=1 It=  1 EMax= 1.42D-14
 Solved reduced A of dimension    94 with     3 vectors.
 Isotropic polarizability for W=    0.000000      568.54 Bohr**3.
 End of Minotr F.D. properties file   721 does not exist.
 End of Minotr F.D. properties file   722 does not exist.
 End of Minotr F.D. properties file   788 does not exist.

 **********************************************************************

            Population analysis using the SCF Density.

 **********************************************************************

 Orbital symmetries:
       Occupied  (A) (A) (A) (A) (A) (A) (A) (A) (A) (A) (A) (A)
                 (A) (A) (A) (A) (A) (A) (A) (A) (A) (A) (A) (A)
                 (A) (A) (A) (A) (A) (A) (A) (A) (A) (A) (A) (A)
                 (A) (A) (A) (A) (A) (A) (A) (A) (A) (A) (A) (A)
                 (A) (A) (A) (A) (A) (A) (A) (A) (A) (A) (A) (A)
                 (A) (A) (A) (A) (A) (A) (A) (A) (A) (A) (A) (A)
                 (A) (A) (A) (A) (A) (A) (A) (A) (A) (A) (A) (A)
                 (A) (A) (A) (A) (A) (A) (A) (A) (A) (A) (A) (A)
                 (A) (A) (A) (A) (A) (A) (A) (A) (A) (A) (A) (A)
                 (A) (A) (A) (A) (A) (A) (A) (A) (A) (A) (A) (A)
                 (A) (A) (A) (A) (A) (A) (A) (A) (A) (A) (A) (A)
                 (A) (A) (A) (A) (A) (A) (A) (A) (A) (A) (A) (A)
                 (A) (A) (A) (A) (A) (A) (A) (A) (A)
       Virtual   (A) (A) (A) (A) (A) (A) (A) (A) (A) (A) (A) (A)
                 (A) (A) (A) (A) (A) (A) (A) (A) (A) (A) (A) (A)
                 (A) (A) (A) (A) (A) (A) (A) (A) (A) (A) (A) (A)
                 (A) (A) (A) (A) (A) (A) (A) (A) (A) (A) (A) (A)
                 (A) (A) (A) (A) (A) (A) (A) (A) (A) (A) (A) (A)
                 (A) (A) (A) (A) (A) (A) (A) (A) (A) (A) (A) (A)
                 (A) (A) (A) (A) (A) (A) (A) (A) (A) (A) (A) (A)
                 (A) (A) (A) (A) (A) (A) (A) (A) (A) (A) (A) (A)
                 (A) (A) (A) (A) (A) (A) (A) (A) (A) (A) (A) (A)
                 (A) (A) (A) (A) (A) (A) (A) (A) (A) (A) (A) (A)
                 (A) (A) (A) (A) (A) (A) (A) (A) (A) (A) (A) (A)
                 (A) (A) (A) (A) (A) (A) (A) (A) (A) (A) (A) (A)
                 (A) (A) (A) (A) (A) (A) (A) (A) (A) (A) (A) (A)
                 (A) (A) (A) (A) (A) (A) (A) (A) (A) (A) (A) (A)
                 (A) (A) (A) (A) (A) (A) (A) (A) (A) (A) (A) (A)
                 (A) (A) (A) (A) (A) (A) (A) (A) (A) (A) (A) (A)
                 (A) (A) (A) (A) (A) (A) (A) (A) (A) (A) (A) (A)
                 (A) (A) (A) (A) (A) (A) (A) (A) (A) (A) (A) (A)
                 (A) (A) (A) (A) (A) (A) (A) (A) (A) (A) (A) (A)
                 (A) (A) (A) (A) (A) (A) (A) (A) (A) (A) (A) (A)
                 (A) (A) (A) (A) (A) (A) (A) (A) (A) (A) (A) (A)
                 (A) (A) (A) (A) (A) (A) (A) (A) (A) (A) (A) (A)
                 (A) (A) (A) (A) (A) (A) (A) (A) (A) (A) (A) (A)
                 (A) (A) (A) (A) (A) (A) (A) (A) (A) (A) (A) (A)
                 (A) (A) (A) (A) (A) (A) (A) (A) (A) (A) (A) (A)
                 (A) (A) (A) (A) (A) (A) (A) (A) (A) (A) (A) (A)
                 (A) (A) (A) (A) (A) (A) (A) (A) (A) (A) (A) (A)
                 (A) (A) (A) (A) (A) (A) (A) (A) (A) (A) (A) (A)
                 (A) (A) (A) (A) (A) (A) (A) (A) (A) (A) (A) (A)
                 (A) (A) (A) (A) (A) (A) (A) (A) (A) (A) (A) (A)
                 (A) (A) (A) (A) (A) (A) (A) (A) (A) (A) (A) (A)
                 (A) (A) (A) (A) (A) (A) (A) (A) (A) (A) (A) (A)
                 (A) (A) (A) (A) (A) (A) (A) (A) (A) (A) (A) (A)
                 (A) (A) (A) (A) (A) (A) (A) (A) (A) (A) (A) (A)
                 (A) (A) (A) (A) (A) (A) (A) (A) (A) (A) (A) (A)
                 (A) (A) (A) (A) (A) (A) (A) (A) (A) (A) (A) (A)
                 (A) (A) (A) (A) (A) (A) (A) (A) (A) (A) (A) (A)
                 (A) (A) (A) (A) (A) (A) (A) (A) (A) (A) (A) (A)
                 (A) (A) (A) (A) (A) (A) (A) (A) (A) (A) (A) (A)
                 (A) (A) (A) (A) (A) (A) (A) (A) (A) (A) (A) (A)
                 (A) (A) (A) (A) (A) (A) (A) (A) (A) (A) (A) (A)
                 (A) (A) (A) (A) (A) (A) (A) (A) (A) (A) (A) (A)
                 (A) (A) (A) (A) (A) (A) (A) (A) (A) (A) (A) (A)
                 (A) (A) (A) (A) (A) (A) (A) (A) (A) (A) (A) (A)
                 (A) (A) (A) (A) (A) (A) (A) (A) (A) (A) (A) (A)
                 (A) (A) (A) (A) (A) (A) (A) (A) (A) (A) (A) (A)
                 (A) (A) (A) (A) (A) (A) (A) (A) (A) (A) (A) (A)
                 (A) (A) (A) (A) (A) (A) (A) (A) (A) (A) (A) (A)
                 (A) (A) (A) (A) (A) (A) (A) (A) (A) (A) (A) (A)
                 (A) (A) (A) (A) (A) (A) (A) (A) (A) (A) (A) (A)
                 (A) (A) (A) (A) (A) (A) (A) (A) (A) (A) (A) (A)
                 (A) (A) (A) (A) (A) (A) (A) (A) (A) (A) (A) (A)
                 (A) (A) (A) (A) (A) (A) (A) (A) (A) (A) (A) (A)
                 (A) (A) (A) (A) (A) (A) (A) (A) (A) (A) (A) (A)
                 (A) (A) (A) (A) (A) (A) (A) (A) (A) (A) (A) (A)
                 (A) (A) (A) (A) (A) (A) (A) (A) (A) (A) (A) (A)
                 (A) (A) (A) (A) (A) (A) (A) (A) (A) (A) (A) (A)
                 (A) (A) (A) (A) (A) (A) (A) (A) (A) (A) (A) (A)
                 (A) (A) (A) (A) (A) (A) (A) (A) (A) (A) (A) (A)
                 (A) (A) (A) (A) (A) (A) (A) (A) (A) (A) (A) (A)
                 (A) (A) (A) (A) (A) (A) (A) (A) (A) (A) (A) (A)
                 (A) (A) (A) (A) (A) (A) (A) (A) (A) (A) (A) (A)
                 (A) (A) (A) (A) (A) (A) (A) (A) (A) (A) (A) (A)
                 (A) (A) (A) (A) (A) (A) (A) (A) (A) (A) (A) (A)
                 (A) (A) (A) (A) (A) (A) (A) (A) (A) (A) (A) (A)
                 (A) (A) (A) (A) (A) (A) (A) (A) (A) (A) (A) (A)
                 (A) (A) (A) (A) (A) (A) (A) (A) (A) (A) (A) (A)
                 (A) (A) (A) (A) (A) (A) (A) (A) (A) (A) (A) (A)
                 (A) (A) (A) (A) (A) (A) (A) (A) (A) (A) (A) (A)
                 (A) (A) (A) (A) (A) (A) (A) (A) (A) (A) (A) (A)
                 (A) (A) (A) (A) (A) (A) (A) (A) (A) (A) (A) (A)
                 (A) (A) (A) (A) (A) (A) (A) (A) (A) (A) (A) (A)
                 (A) (A) (A) (A) (A) (A) (A) (A) (A) (A) (A) (A)
                 (A) (A) (A) (A) (A) (A) (A) (A) (A) (A) (A) (A)
                 (A) (A) (A) (A) (A) (A) (A) (A) (A) (A) (A) (A)
                 (A) (A) (A) (A) (A) (A) (A) (A) (A) (A) (A) (A)
                 (A) (A) (A) (A) (A) (A) (A) (A) (A) (A) (A) (A)
                 (A) (A) (A) (A) (A) (A) (A) (A) (A) (A) (A) (A)
                 (A) (A) (A) (A) (A) (A) (A) (A) (A) (A) (A) (A)
                 (A) (A) (A) (A) (A) (A) (A) (A) (A) (A) (A) (A)
                 (A) (A) (A) (A) (A) (A) (A) (A) (A) (A) (A) (A)
                 (A) (A) (A) (A) (A) (A) (A) (A) (A) (A) (A) (A)
                 (A) (A) (A) (A) (A) (A) (A) (A) (A) (A) (A) (A)
                 (A) (A) (A) (A) (A) (A) (A) (A) (A) (A) (A) (A)
                 (A) (A) (A) (A) (A) (A) (A) (A) (A) (A) (A) (A)
                 (A) (A) (A) (A) (A) (A) (A) (A) (A) (A) (A) (A)
                 (A) (A) (A) (A) (A) (A) (A) (A) (A) (A) (A) (A)
                 (A) (A) (A) (A) (A) (A) (A) (A) (A) (A) (A) (A)
                 (A) (A) (A) (A) (A) (A) (A) (A) (A) (A) (A) (A)
                 (A) (A) (A) (A) (A) (A) (A) (A) (A) (A) (A) (A)
                 (A) (A) (A) (A) (A) (A) (A) (A) (A) (A) (A) (A)
                 (A) (A) (A) (A) (A) (A) (A) (A) (A) (A) (A) (A)
                 (A) (A) (A) (A) (A) (A) (A) (A) (A) (A) (A) (A)
                 (A) (A) (A) (A) (A) (A) (A) (A) (A) (A) (A) (A)
                 (A) (A) (A) (A) (A) (A) (A) (A) (A) (A) (A) (A)
                 (A) (A) (A) (A) (A) (A) (A) (A) (A) (A) (A) (A)
                 (A) (A) (A) (A) (A) (A) (A) (A) (A) (A) (A) (A)
                 (A) (A) (A) (A) (A) (A) (A) (A) (A) (A) (A) (A)
                 (A) (A) (A) (A) (A) (A) (A) (A) (A) (A) (A) (A)
                 (A) (A) (A) (A) (A) (A) (A) (A) (A) (A) (A) (A)
                 (A) (A) (A) (A) (A) (A) (A) (A) (A) (A) (A) (A)
                 (A) (A) (A) (A) (A) (A) (A) (A) (A) (A) (A) (A)
                 (A) (A) (A) (A) (A) (A) (A) (A) (A) (A) (A) (A)
                 (A) (A) (A) (A) (A) (A) (A) (A) (A) (A) (A) (A)
                 (A) (A) (A) (A) (A) (A) (A) (A) (A) (A) (A) (A)
                 (A) (A) (A) (A) (A) (A) (A) (A) (A) (A) (A) (A)
                 (A) (A) (A) (A) (A) (A) (A) (A) (A) (A) (A) (A)
                 (A) (A) (A) (A) (A) (A) (A) (A) (A) (A) (A) (A)
                 (A) (A) (A) (A) (A) (A) (A) (A) (A) (A) (A) (A)
                 (A) (A) (A) (A) (A) (A) (A) (A) (A) (A) (A) (A)
                 (A) (A) (A) (A) (A) (A) (A) (A) (A) (A) (A) (A)
                 (A) (A) (A) (A)
 The electronic state is 1-A.
 Alpha  occ. eigenvalues -- -256.18541 -30.03351 -25.87548 -25.87116 -25.87110
 Alpha  occ. eigenvalues --  -14.42243 -14.37140 -14.33764 -14.33741 -14.33691
 Alpha  occ. eigenvalues --  -14.33655 -10.26024 -10.24125 -10.21401 -10.21322
 Alpha  occ. eigenvalues --  -10.21266 -10.21242 -10.21221 -10.21214 -10.21205
 Alpha  occ. eigenvalues --  -10.21149 -10.21136 -10.20991 -10.19745 -10.19603
 Alpha  occ. eigenvalues --  -10.19163 -10.19125 -10.19036 -10.19012 -10.19005
 Alpha  occ. eigenvalues --  -10.18971 -10.18965 -10.18944 -10.18925 -10.18817
 Alpha  occ. eigenvalues --  -10.18789 -10.18748 -10.18729 -10.18631 -10.18595
 Alpha  occ. eigenvalues --  -10.18513 -10.18441 -10.18381 -10.18333 -10.18174
 Alpha  occ. eigenvalues --   -3.41147  -2.17945  -2.16931  -2.16915  -1.05823
 Alpha  occ. eigenvalues --   -0.97101  -0.96197  -0.96109  -0.95193  -0.91374
 Alpha  occ. eigenvalues --   -0.82422  -0.81936  -0.81660  -0.80873  -0.80582
 Alpha  occ. eigenvalues --   -0.80506  -0.79748  -0.79685  -0.76867  -0.75826
 Alpha  occ. eigenvalues --   -0.74441  -0.74108  -0.73296  -0.72160  -0.71130
 Alpha  occ. eigenvalues --   -0.70202  -0.68373  -0.68106  -0.67954  -0.64994
 Alpha  occ. eigenvalues --   -0.64415  -0.64303  -0.61760  -0.60716  -0.60039
 Alpha  occ. eigenvalues --   -0.58046  -0.56898  -0.56352  -0.54732  -0.53832
 Alpha  occ. eigenvalues --   -0.53397  -0.52710  -0.51367  -0.51175  -0.50728
 Alpha  occ. eigenvalues --   -0.48946  -0.48192  -0.48110  -0.47885  -0.47584
 Alpha  occ. eigenvalues --   -0.45099  -0.44876  -0.44681  -0.44587  -0.44208
 Alpha  occ. eigenvalues --   -0.43961  -0.43689  -0.43577  -0.43469  -0.43100
 Alpha  occ. eigenvalues --   -0.42929  -0.42812  -0.42687  -0.42428  -0.42049
 Alpha  occ. eigenvalues --   -0.41874  -0.41588  -0.41514  -0.40341  -0.40313
 Alpha  occ. eigenvalues --   -0.40247  -0.39902  -0.39722  -0.39443  -0.39300
 Alpha  occ. eigenvalues --   -0.38901  -0.38581  -0.38019  -0.37847  -0.37418
 Alpha  occ. eigenvalues --   -0.37021  -0.36539  -0.36152  -0.36041  -0.35637
 Alpha  occ. eigenvalues --   -0.34847  -0.34162  -0.34016  -0.33655  -0.32266
 Alpha  occ. eigenvalues --   -0.32056  -0.31000  -0.30640  -0.30112  -0.29431
 Alpha  occ. eigenvalues --   -0.28675  -0.27049  -0.26757  -0.24867  -0.24564
 Alpha  occ. eigenvalues --   -0.23673  -0.23027  -0.22171  -0.19976  -0.19135
 Alpha  occ. eigenvalues --   -0.18774  -0.18666  -0.18041
 Alpha virt. eigenvalues --   -0.06823  -0.06654  -0.02123  -0.02032   0.00427
 Alpha virt. eigenvalues --    0.01045   0.02038   0.02462   0.03863   0.04147
 Alpha virt. eigenvalues --    0.04533   0.05010   0.05276   0.05671   0.05865
 Alpha virt. eigenvalues --    0.06263   0.06927   0.07134   0.07633   0.07850
 Alpha virt. eigenvalues --    0.08326   0.08722   0.09383   0.09465   0.09569
 Alpha virt. eigenvalues --    0.09897   0.10640   0.10997   0.11125   0.11328
 Alpha virt. eigenvalues --    0.11665   0.11807   0.11932   0.12085   0.12320
 Alpha virt. eigenvalues --    0.12565   0.12838   0.12924   0.13290   0.13534
 Alpha virt. eigenvalues --    0.14008   0.14056   0.14305   0.14368   0.14601
 Alpha virt. eigenvalues --    0.14804   0.15312   0.15380   0.15493   0.15662
 Alpha virt. eigenvalues --    0.15757   0.15855   0.16019   0.16457   0.16870
 Alpha virt. eigenvalues --    0.16887   0.17129   0.17700   0.17806   0.17989
 Alpha virt. eigenvalues --    0.18219   0.18598   0.19068   0.19392   0.19546
 Alpha virt. eigenvalues --    0.19818   0.20043   0.20206   0.20630   0.20789
 Alpha virt. eigenvalues --    0.21029   0.21647   0.21832   0.21964   0.22353
 Alpha virt. eigenvalues --    0.22463   0.22726   0.22907   0.23364   0.23520
 Alpha virt. eigenvalues --    0.23796   0.24426   0.24997   0.25381   0.25469
 Alpha virt. eigenvalues --    0.25738   0.25796   0.26272   0.26455   0.26620
 Alpha virt. eigenvalues --    0.27081   0.27346   0.27531   0.27917   0.28306
 Alpha virt. eigenvalues --    0.28531   0.28867   0.28988   0.29333   0.29410
 Alpha virt. eigenvalues --    0.29554   0.29993   0.30054   0.30488   0.30677
 Alpha virt. eigenvalues --    0.31002   0.31059   0.31532   0.32082   0.32268
 Alpha virt. eigenvalues --    0.32419   0.32566   0.33122   0.33376   0.33677
 Alpha virt. eigenvalues --    0.33889   0.34126   0.34399   0.34506   0.34900
 Alpha virt. eigenvalues --    0.35294   0.35483   0.35961   0.36416   0.36639
 Alpha virt. eigenvalues --    0.36878   0.37116   0.37352   0.37541   0.37779
 Alpha virt. eigenvalues --    0.38174   0.38397   0.38654   0.38881   0.39181
 Alpha virt. eigenvalues --    0.39328   0.39472   0.39516   0.39977   0.40283
 Alpha virt. eigenvalues --    0.40452   0.40957   0.41024   0.41206   0.41480
 Alpha virt. eigenvalues --    0.41601   0.41691   0.41883   0.42271   0.42531
 Alpha virt. eigenvalues --    0.42751   0.42836   0.43090   0.43451   0.43630
 Alpha virt. eigenvalues --    0.43760   0.43963   0.44289   0.44399   0.44748
 Alpha virt. eigenvalues --    0.45083   0.45260   0.45423   0.45574   0.45903
 Alpha virt. eigenvalues --    0.46121   0.46434   0.46592   0.46833   0.47120
 Alpha virt. eigenvalues --    0.47226   0.47489   0.47577   0.47734   0.47951
 Alpha virt. eigenvalues --    0.48235   0.48442   0.48515   0.49016   0.49133
 Alpha virt. eigenvalues --    0.49254   0.49467   0.49772   0.49992   0.50162
 Alpha virt. eigenvalues --    0.50375   0.50451   0.50740   0.51108   0.51130
 Alpha virt. eigenvalues --    0.51684   0.51731   0.52027   0.52396   0.52670
 Alpha virt. eigenvalues --    0.52737   0.53095   0.53373   0.53563   0.54003
 Alpha virt. eigenvalues --    0.54231   0.54411   0.54569   0.54911   0.55368
 Alpha virt. eigenvalues --    0.55576   0.55743   0.55758   0.56030   0.56273
 Alpha virt. eigenvalues --    0.56562   0.57092   0.57270   0.57567   0.58020
 Alpha virt. eigenvalues --    0.58220   0.58587   0.58791   0.59061   0.59300
 Alpha virt. eigenvalues --    0.60072   0.60387   0.60466   0.60764   0.61442
 Alpha virt. eigenvalues --    0.61936   0.62052   0.62166   0.62511   0.62670
 Alpha virt. eigenvalues --    0.63037   0.63107   0.63770   0.63922   0.64070
 Alpha virt. eigenvalues --    0.64312   0.64751   0.65061   0.65395   0.65692
 Alpha virt. eigenvalues --    0.65779   0.66130   0.66472   0.67026   0.67073
 Alpha virt. eigenvalues --    0.67726   0.68145   0.68354   0.68838   0.69372
 Alpha virt. eigenvalues --    0.69694   0.69904   0.70256   0.70397   0.70772
 Alpha virt. eigenvalues --    0.71039   0.71212   0.71541   0.71767   0.72191
 Alpha virt. eigenvalues --    0.72370   0.72674   0.72908   0.73233   0.73397
 Alpha virt. eigenvalues --    0.73718   0.74083   0.74703   0.74921   0.75116
 Alpha virt. eigenvalues --    0.75549   0.76105   0.76370   0.76678   0.77042
 Alpha virt. eigenvalues --    0.77134   0.77443   0.77751   0.77992   0.78272
 Alpha virt. eigenvalues --    0.79032   0.79503   0.79787   0.80186   0.80407
 Alpha virt. eigenvalues --    0.80510   0.81114   0.81639   0.82112   0.82650
 Alpha virt. eigenvalues --    0.83263   0.83638   0.83970   0.84265   0.84330
 Alpha virt. eigenvalues --    0.84682   0.85057   0.85488   0.86212   0.86441
 Alpha virt. eigenvalues --    0.86738   0.86881   0.87537   0.88076   0.88149
 Alpha virt. eigenvalues --    0.88445   0.88725   0.89072   0.89796   0.90095
 Alpha virt. eigenvalues --    0.90226   0.90667   0.91032   0.91355   0.92003
 Alpha virt. eigenvalues --    0.92422   0.92849   0.93314   0.93733   0.94306
 Alpha virt. eigenvalues --    0.94415   0.94772   0.95120   0.95290   0.95907
 Alpha virt. eigenvalues --    0.96102   0.96427   0.96582   0.96960   0.97298
 Alpha virt. eigenvalues --    0.97670   0.98153   0.98553   0.99202   0.99472
 Alpha virt. eigenvalues --    0.99828   1.00054   1.00222   1.00351   1.01245
 Alpha virt. eigenvalues --    1.01547   1.01742   1.01989   1.02361   1.02446
 Alpha virt. eigenvalues --    1.02623   1.02880   1.03424   1.03776   1.04233
 Alpha virt. eigenvalues --    1.04382   1.04595   1.04787   1.05419   1.05589
 Alpha virt. eigenvalues --    1.05889   1.06904   1.07258   1.07738   1.08022
 Alpha virt. eigenvalues --    1.08348   1.08766   1.09112   1.09695   1.09869
 Alpha virt. eigenvalues --    1.10357   1.10589   1.10612   1.11336   1.11689
 Alpha virt. eigenvalues --    1.12546   1.12710   1.13102   1.13580   1.13924
 Alpha virt. eigenvalues --    1.14589   1.15265   1.15626   1.16132   1.16620
 Alpha virt. eigenvalues --    1.17103   1.17334   1.17780   1.18172   1.18434
 Alpha virt. eigenvalues --    1.18781   1.18984   1.19325   1.19776   1.20184
 Alpha virt. eigenvalues --    1.20700   1.21256   1.21398   1.21558   1.22177
 Alpha virt. eigenvalues --    1.23403   1.23704   1.24333   1.24420   1.25128
 Alpha virt. eigenvalues --    1.25583   1.25812   1.26243   1.26964   1.27370
 Alpha virt. eigenvalues --    1.27705   1.28090   1.28515   1.28631   1.29004
 Alpha virt. eigenvalues --    1.29083   1.29380   1.29586   1.30359   1.30606
 Alpha virt. eigenvalues --    1.31097   1.31516   1.31570   1.32253   1.32671
 Alpha virt. eigenvalues --    1.33690   1.34105   1.34300   1.35422   1.35893
 Alpha virt. eigenvalues --    1.36771   1.36880   1.38120   1.38628   1.38897
 Alpha virt. eigenvalues --    1.39154   1.39581   1.40565   1.41308   1.41509
 Alpha virt. eigenvalues --    1.42121   1.42998   1.43709   1.43926   1.44365
 Alpha virt. eigenvalues --    1.44965   1.45532   1.45794   1.46366   1.46654
 Alpha virt. eigenvalues --    1.46936   1.47221   1.47315   1.48110   1.48530
 Alpha virt. eigenvalues --    1.49022   1.49445   1.49583   1.50197   1.50283
 Alpha virt. eigenvalues --    1.50726   1.50874   1.51148   1.51432   1.51640
 Alpha virt. eigenvalues --    1.51783   1.52035   1.52234   1.52574   1.52869
 Alpha virt. eigenvalues --    1.53051   1.53239   1.53636   1.53945   1.54164
 Alpha virt. eigenvalues --    1.54563   1.54762   1.54993   1.55219   1.55317
 Alpha virt. eigenvalues --    1.55685   1.56184   1.56612   1.56714   1.57274
 Alpha virt. eigenvalues --    1.57422   1.57744   1.57872   1.58275   1.58517
 Alpha virt. eigenvalues --    1.58700   1.58764   1.59202   1.59720   1.60190
 Alpha virt. eigenvalues --    1.60351   1.60895   1.61154   1.61659   1.61840
 Alpha virt. eigenvalues --    1.62121   1.62415   1.62767   1.63139   1.63229
 Alpha virt. eigenvalues --    1.63442   1.63848   1.64149   1.64438   1.64844
 Alpha virt. eigenvalues --    1.65301   1.65520   1.65928   1.66180   1.66489
 Alpha virt. eigenvalues --    1.66871   1.66985   1.67225   1.67652   1.68245
 Alpha virt. eigenvalues --    1.68342   1.68997   1.69384   1.69424   1.70043
 Alpha virt. eigenvalues --    1.70488   1.70960   1.71195   1.71558   1.71812
 Alpha virt. eigenvalues --    1.72247   1.72547   1.73025   1.73740   1.73984
 Alpha virt. eigenvalues --    1.74650   1.75096   1.75158   1.75309   1.76334
 Alpha virt. eigenvalues --    1.76688   1.77705   1.78623   1.78969   1.79772
 Alpha virt. eigenvalues --    1.80173   1.80671   1.80895   1.81626   1.81831
 Alpha virt. eigenvalues --    1.82385   1.83365   1.83874   1.84024   1.84677
 Alpha virt. eigenvalues --    1.85239   1.85526   1.86196   1.86455   1.86522
 Alpha virt. eigenvalues --    1.86907   1.87132   1.87316   1.87936   1.88209
 Alpha virt. eigenvalues --    1.88704   1.89402   1.90098   1.90301   1.90869
 Alpha virt. eigenvalues --    1.91674   1.91802   1.92795   1.93466   1.93765
 Alpha virt. eigenvalues --    1.94045   1.94536   1.94946   1.95560   1.96161
 Alpha virt. eigenvalues --    1.96348   1.97045   1.97551   1.98033   1.98570
 Alpha virt. eigenvalues --    1.98830   1.99489   1.99563   2.00086   2.00520
 Alpha virt. eigenvalues --    2.00818   2.01710   2.01869   2.02206   2.02904
 Alpha virt. eigenvalues --    2.02916   2.03904   2.04671   2.05252   2.05564
 Alpha virt. eigenvalues --    2.05773   2.06533   2.07283   2.07569   2.08219
 Alpha virt. eigenvalues --    2.08584   2.08812   2.09549   2.09724   2.10137
 Alpha virt. eigenvalues --    2.10449   2.11159   2.11403   2.11954   2.12382
 Alpha virt. eigenvalues --    2.12761   2.12991   2.13576   2.14513   2.14908
 Alpha virt. eigenvalues --    2.15173   2.15689   2.16139   2.17052   2.17289
 Alpha virt. eigenvalues --    2.17779   2.18124   2.18451   2.18719   2.19105
 Alpha virt. eigenvalues --    2.19499   2.19782   2.20645   2.21202   2.21728
 Alpha virt. eigenvalues --    2.22222   2.22499   2.22984   2.23677   2.24109
 Alpha virt. eigenvalues --    2.24741   2.25151   2.25870   2.26430   2.27089
 Alpha virt. eigenvalues --    2.27339   2.27897   2.28255   2.28560   2.28870
 Alpha virt. eigenvalues --    2.29209   2.29706   2.29973   2.30480   2.31077
 Alpha virt. eigenvalues --    2.31572   2.31837   2.32454   2.32598   2.32899
 Alpha virt. eigenvalues --    2.33780   2.34286   2.35074   2.35637   2.35997
 Alpha virt. eigenvalues --    2.36215   2.36714   2.37272   2.37440   2.38072
 Alpha virt. eigenvalues --    2.38611   2.38819   2.38911   2.39284   2.40042
 Alpha virt. eigenvalues --    2.40325   2.40844   2.41270   2.42148   2.42262
 Alpha virt. eigenvalues --    2.43055   2.43334   2.43816   2.44525   2.44850
 Alpha virt. eigenvalues --    2.45069   2.45325   2.45915   2.46331   2.46593
 Alpha virt. eigenvalues --    2.46819   2.46931   2.47321   2.48040   2.48468
 Alpha virt. eigenvalues --    2.49043   2.49619   2.50468   2.50989   2.51231
 Alpha virt. eigenvalues --    2.52351   2.52438   2.52728   2.52936   2.53178
 Alpha virt. eigenvalues --    2.53605   2.54003   2.54435   2.54986   2.55286
 Alpha virt. eigenvalues --    2.55866   2.56120   2.56373   2.56589   2.56984
 Alpha virt. eigenvalues --    2.57797   2.57886   2.58194   2.58728   2.58909
 Alpha virt. eigenvalues --    2.59535   2.60004   2.60220   2.60613   2.60838
 Alpha virt. eigenvalues --    2.61613   2.61919   2.62275   2.63282   2.63671
 Alpha virt. eigenvalues --    2.63877   2.64735   2.64945   2.65175   2.65395
 Alpha virt. eigenvalues --    2.65464   2.66546   2.67135   2.67348   2.67626
 Alpha virt. eigenvalues --    2.67857   2.68139   2.68631   2.68958   2.69218
 Alpha virt. eigenvalues --    2.70178   2.70327   2.71327   2.71351   2.71990
 Alpha virt. eigenvalues --    2.72384   2.72817   2.73040   2.73647   2.74159
 Alpha virt. eigenvalues --    2.74251   2.75038   2.75118   2.75640   2.76224
 Alpha virt. eigenvalues --    2.76602   2.76905   2.77183   2.78060   2.78232
 Alpha virt. eigenvalues --    2.78868   2.79405   2.80228   2.80662   2.81350
 Alpha virt. eigenvalues --    2.81793   2.81973   2.82114   2.82852   2.83202
 Alpha virt. eigenvalues --    2.83333   2.83539   2.84277   2.85013   2.85179
 Alpha virt. eigenvalues --    2.85363   2.86165   2.86412   2.86972   2.87017
 Alpha virt. eigenvalues --    2.87433   2.87867   2.88342   2.88547   2.88887
 Alpha virt. eigenvalues --    2.89732   2.90092   2.90493   2.90624   2.90753
 Alpha virt. eigenvalues --    2.91427   2.91635   2.91982   2.92550   2.93091
 Alpha virt. eigenvalues --    2.93353   2.93751   2.94191   2.94358   2.94573
 Alpha virt. eigenvalues --    2.95283   2.95400   2.95737   2.96098   2.96337
 Alpha virt. eigenvalues --    2.96704   2.97256   2.97697   2.98333   2.98422
 Alpha virt. eigenvalues --    2.98858   2.99029   2.99491   2.99884   3.00270
 Alpha virt. eigenvalues --    3.00857   3.01403   3.01712   3.02039   3.02134
 Alpha virt. eigenvalues --    3.02517   3.02907   3.03428   3.03848   3.04412
 Alpha virt. eigenvalues --    3.04785   3.05382   3.05772   3.06022   3.06513
 Alpha virt. eigenvalues --    3.06591   3.07024   3.07199   3.07577   3.08039
 Alpha virt. eigenvalues --    3.08132   3.08587   3.09023   3.09292   3.09784
 Alpha virt. eigenvalues --    3.10154   3.10600   3.10843   3.11166   3.11520
 Alpha virt. eigenvalues --    3.12008   3.12371   3.12447   3.12821   3.13272
 Alpha virt. eigenvalues --    3.13473   3.13546   3.14127   3.14408   3.14822
 Alpha virt. eigenvalues --    3.15306   3.15854   3.16154   3.16492   3.16683
 Alpha virt. eigenvalues --    3.17089   3.17441   3.17671   3.17959   3.18328
 Alpha virt. eigenvalues --    3.18495   3.19182   3.19454   3.20266   3.20401
 Alpha virt. eigenvalues --    3.20597   3.20781   3.21112   3.21286   3.21666
 Alpha virt. eigenvalues --    3.22109   3.22217   3.22625   3.22827   3.23128
 Alpha virt. eigenvalues --    3.23586   3.23664   3.23998   3.24630   3.24951
 Alpha virt. eigenvalues --    3.25208   3.25462   3.25722   3.26031   3.26337
 Alpha virt. eigenvalues --    3.26501   3.26604   3.27072   3.27510   3.27964
 Alpha virt. eigenvalues --    3.28212   3.28352   3.28769   3.29094   3.29140
 Alpha virt. eigenvalues --    3.29403   3.29722   3.30170   3.30316   3.30383
 Alpha virt. eigenvalues --    3.30631   3.31081   3.31277   3.31619   3.31720
 Alpha virt. eigenvalues --    3.32058   3.32500   3.32797   3.33066   3.33275
 Alpha virt. eigenvalues --    3.33348   3.33695   3.34379   3.34528   3.34603
 Alpha virt. eigenvalues --    3.35143   3.35210   3.35689   3.35979   3.36303
 Alpha virt. eigenvalues --    3.36518   3.36812   3.37310   3.37537   3.37797
 Alpha virt. eigenvalues --    3.37954   3.38541   3.38623   3.38999   3.39047
 Alpha virt. eigenvalues --    3.39232   3.39550   3.39847   3.40562   3.40819
 Alpha virt. eigenvalues --    3.40992   3.41298   3.41904   3.42024   3.42765
 Alpha virt. eigenvalues --    3.42940   3.43219   3.43634   3.44182   3.44509
 Alpha virt. eigenvalues --    3.44760   3.45448   3.45665   3.46011   3.46910
 Alpha virt. eigenvalues --    3.46990   3.47601   3.48457   3.48851   3.49406
 Alpha virt. eigenvalues --    3.49560   3.49994   3.50432   3.50538   3.51655
 Alpha virt. eigenvalues --    3.52143   3.52533   3.53251   3.53584   3.53872
 Alpha virt. eigenvalues --    3.54599   3.54819   3.55331   3.55515   3.56124
 Alpha virt. eigenvalues --    3.56903   3.57270   3.57360   3.58157   3.58606
 Alpha virt. eigenvalues --    3.58859   3.59549   3.59912   3.60690   3.60921
 Alpha virt. eigenvalues --    3.61550   3.62069   3.62355   3.62819   3.63708
 Alpha virt. eigenvalues --    3.64008   3.64438   3.65070   3.65310   3.65678
 Alpha virt. eigenvalues --    3.66045   3.66428   3.67136   3.67484   3.68134
 Alpha virt. eigenvalues --    3.68322   3.69380   3.69772   3.70018   3.70296
 Alpha virt. eigenvalues --    3.70546   3.70908   3.71391   3.71677   3.72640
 Alpha virt. eigenvalues --    3.72688   3.73620   3.74033   3.74353   3.74729
 Alpha virt. eigenvalues --    3.74932   3.75417   3.75553   3.75963   3.76311
 Alpha virt. eigenvalues --    3.77368   3.77475   3.78012   3.78762   3.79857
 Alpha virt. eigenvalues --    3.80138   3.80643   3.81121   3.81321   3.82214
 Alpha virt. eigenvalues --    3.82734   3.83213   3.83429   3.84105   3.84955
 Alpha virt. eigenvalues --    3.85499   3.85549   3.86145   3.86673   3.87628
 Alpha virt. eigenvalues --    3.88668   3.88832   3.89432   3.90150   3.90663
 Alpha virt. eigenvalues --    3.90853   3.91076   3.92010   3.92617   3.92918
 Alpha virt. eigenvalues --    3.93228   3.93779   3.94125   3.96236   3.97059
 Alpha virt. eigenvalues --    3.97706   3.98012   3.98841   3.99096   3.99369
 Alpha virt. eigenvalues --    4.00129   4.00671   4.00965   4.01677   4.02746
 Alpha virt. eigenvalues --    4.02973   4.03582   4.04182   4.04477   4.05329
 Alpha virt. eigenvalues --    4.05541   4.06460   4.06707   4.07715   4.08383
 Alpha virt. eigenvalues --    4.08872   4.09213   4.10820   4.11641   4.12738
 Alpha virt. eigenvalues --    4.13561   4.13812   4.14492   4.15111   4.15531
 Alpha virt. eigenvalues --    4.16084   4.16291   4.16920   4.17734   4.18149
 Alpha virt. eigenvalues --    4.18278   4.18726   4.19389   4.19764   4.20321
 Alpha virt. eigenvalues --    4.21307   4.21963   4.22481   4.23627   4.23930
 Alpha virt. eigenvalues --    4.24510   4.24828   4.25173   4.25942   4.26092
 Alpha virt. eigenvalues --    4.26814   4.27294   4.28139   4.28627   4.29075
 Alpha virt. eigenvalues --    4.29802   4.30735   4.31110   4.31389   4.32222
 Alpha virt. eigenvalues --    4.32909   4.33214   4.33856   4.34332   4.35195
 Alpha virt. eigenvalues --    4.36078   4.36619   4.37063   4.37566   4.37836
 Alpha virt. eigenvalues --    4.39224   4.39629   4.40317   4.40651   4.41006
 Alpha virt. eigenvalues --    4.41640   4.42010   4.42329   4.43084   4.43871
 Alpha virt. eigenvalues --    4.44089   4.44696   4.44908   4.45287   4.45393
 Alpha virt. eigenvalues --    4.45794   4.46188   4.47722   4.48826   4.49613
 Alpha virt. eigenvalues --    4.50464   4.51488   4.52493   4.52669   4.53568
 Alpha virt. eigenvalues --    4.54681   4.55150   4.55772   4.55990   4.56861
 Alpha virt. eigenvalues --    4.57734   4.58541   4.59305   4.61459   4.63304
 Alpha virt. eigenvalues --    4.64218   4.64671   4.65458   4.65615   4.66802
 Alpha virt. eigenvalues --    4.67095   4.68417   4.69351   4.69840   4.71563
 Alpha virt. eigenvalues --    4.71895   4.72260   4.72845   4.73274   4.73535
 Alpha virt. eigenvalues --    4.74287   4.75305   4.75464   4.76705   4.78682
 Alpha virt. eigenvalues --    4.79055   4.80000   4.80263   4.82297   4.82632
 Alpha virt. eigenvalues --    4.83094   4.83713   4.83889   4.84275   4.85194
 Alpha virt. eigenvalues --    4.85499   4.86336   4.87096   4.88674   4.89144
 Alpha virt. eigenvalues --    4.89485   4.90698   4.91786   4.93054   4.93565
 Alpha virt. eigenvalues --    4.94251   4.94470   4.94902   4.95735   4.96564
 Alpha virt. eigenvalues --    4.97630   4.99285   5.00039   5.00790   5.01617
 Alpha virt. eigenvalues --    5.01784   5.02771   5.03330   5.05062   5.06151
 Alpha virt. eigenvalues --    5.06459   5.06879   5.08026   5.08339   5.10020
 Alpha virt. eigenvalues --    5.10366   5.11262   5.13829   5.14568   5.16106
 Alpha virt. eigenvalues --    5.16896   5.18349   5.18585   5.19926   5.20331
 Alpha virt. eigenvalues --    5.22327   5.23505   5.23794   5.24312   5.25315
 Alpha virt. eigenvalues --    5.25924   5.28606   5.29102   5.29987   5.33627
 Alpha virt. eigenvalues --    5.35363   5.36353   5.36660   5.37931   5.38954
 Alpha virt. eigenvalues --    5.39158   5.39576   5.40912   5.41256   5.42015
 Alpha virt. eigenvalues --    5.43518   5.46299   5.48147   5.48741   5.48855
 Alpha virt. eigenvalues --    5.50227   5.51707   5.53044   5.54168   5.55933
 Alpha virt. eigenvalues --    5.58155   5.60052   5.61501   5.62145   5.63726
 Alpha virt. eigenvalues --    5.64629   5.64784   5.66067   5.67446   5.69121
 Alpha virt. eigenvalues --    5.69246   5.72193   5.74005   5.75515   5.77850
 Alpha virt. eigenvalues --    5.79551   5.80089   5.81274   5.86651   5.91909
 Alpha virt. eigenvalues --    5.94120   5.95663   6.01142   6.02151   6.02755
 Alpha virt. eigenvalues --    6.07243   6.08628   6.12791   6.12868   6.14269
 Alpha virt. eigenvalues --    6.17128   6.18521   6.25960   6.34483   6.34934
 Alpha virt. eigenvalues --    6.41469  22.35562  22.36365  22.42864  22.43467
 Alpha virt. eigenvalues --   22.45581  22.53647  22.54316  22.58409  22.61442
 Alpha virt. eigenvalues --   22.76457  22.83958  22.87427  22.90655  22.92146
 Alpha virt. eigenvalues --   22.93156  22.95180  22.97155  23.02966  23.03835
 Alpha virt. eigenvalues --   23.07851  23.14989  23.26247  23.28005  23.30814
 Alpha virt. eigenvalues --   23.31858  23.38227  23.41215  23.50283  23.50746
 Alpha virt. eigenvalues --   23.55424  23.72765  23.78994  23.79776  23.88811
 Alpha virt. eigenvalues --   32.39566  32.70793  32.88882  32.91134  32.99273
 Alpha virt. eigenvalues --   33.04286
          Condensed to atoms (all electrons):
 Mulliken charges:
               1
     1  Fe  -0.168270
     2  N   -0.038734
     3  N   -0.110983
     4  N   -0.109084
     5  N   -0.026968
     6  C    0.255849
     7  C   -0.045003
     8  C   -0.059988
     9  C    0.264949
    10  C    0.288622
    11  C   -0.028434
    12  C    0.022168
    13  C    0.244484
    14  C    0.254531
    15  C   -0.068233
    16  C    0.053325
    17  C    0.290631
    18  C    0.240765
    19  C   -0.071949
    20  C   -0.022850
    21  C    0.248209
    22  C   -0.552183
    23  H    0.133723
    24  C   -0.462705
    25  H    0.123581
    26  C   -0.444860
    27  H    0.117187
    28  C   -0.453958
    29  H    0.113697
    30  C   -0.423116
    31  H    0.122327
    32  H    0.143672
    33  H    0.128333
    34  C   -0.401637
    35  H    0.129207
    36  H    0.139170
    37  H    0.120963
    38  C   -0.442665
    39  H    0.139004
    40  H    0.130236
    41  H    0.156841
    42  C   -0.209195
    43  H    0.112144
    44  C   -0.291638
    45  H    0.139330
    46  H    0.123355
    47  C   -0.451736
    48  H    0.139656
    49  H    0.130267
    50  H    0.157635
    51  C   -0.197185
    52  H    0.110447
    53  C   -0.286145
    54  H    0.136594
    55  H    0.121762
    56  C   -0.414710
    57  H    0.135747
    58  H    0.138034
    59  H    0.119902
    60  C   -0.409239
    61  H    0.127871
    62  H    0.121777
    63  H    0.139757
    64  C   -0.392616
    65  H    0.136768
    66  H    0.134799
    67  H    0.148403
    68  N   -0.231443
    69  H    0.236573
    70  C    0.181763
    71  C    0.016990
    72  H    0.178182
    73  N    0.024852
    74  C   -0.223754
    75  H    0.165202
 Sum of Mulliken charges =  -0.00000
 Mulliken charges with hydrogens summed into heavy atoms:
               1
     1  Fe  -0.168270
     2  N   -0.038734
     3  N   -0.110983
     4  N   -0.109084
     5  N   -0.026968
     6  C    0.255849
     7  C   -0.045003
     8  C   -0.059988
     9  C    0.264949
    10  C    0.288622
    11  C   -0.028434
    12  C    0.022168
    13  C    0.244484
    14  C    0.254531
    15  C   -0.068233
    16  C    0.053325
    17  C    0.290631
    18  C    0.240765
    19  C   -0.071949
    20  C   -0.022850
    21  C    0.248209
    22  C   -0.418460
    24  C   -0.339124
    26  C   -0.327673
    28  C   -0.340261
    30  C   -0.028785
    34  C   -0.012297
    38  C   -0.016584
    42  C   -0.097051
    44  C   -0.028954
    47  C   -0.024179
    51  C   -0.086739
    53  C   -0.027789
    56  C   -0.021027
    60  C   -0.019834
    64  C    0.027354
    68  N    0.005129
    70  C    0.181763
    71  C    0.195172
    73  N    0.024852
    74  C   -0.058553
 Electronic spatial extent (au):  <R**2>=          19699.6058
 Charge=             -0.0000 electrons
 Dipole moment (field-independent basis, Debye):
    X=              2.1267    Y=             -0.2611    Z=              5.8166  Tot=              6.1987
 Quadrupole moment (field-independent basis, Debye-Ang):
   XX=           -228.4940   YY=           -236.3705   ZZ=           -227.0485
   XY=             -0.1008   XZ=              3.2327   YZ=             -1.1587
 Traceless Quadrupole moment (field-independent basis, Debye-Ang):
   XX=              2.1437   YY=             -5.7328   ZZ=              3.5892
   XY=             -0.1008   XZ=              3.2327   YZ=             -1.1587
 Octapole moment (field-independent basis, Debye-Ang**2):
  XXX=             37.0608  YYY=            -10.4805  ZZZ=            139.9794  XYY=             33.7241
  XXY=              4.6632  XXZ=             17.4616  XZZ=             32.3894  YZZ=             -1.0950
  YYZ=             -5.6344  XYZ=             -0.4291
 Hexadecapole moment (field-independent basis, Debye-Ang**3):
 XXXX=         -11817.0896 YYYY=         -11618.6962 ZZZZ=          -2498.4232 XXXY=            -13.7424
 XXXZ=              3.4789 YYYX=             11.4447 YYYZ=            -52.6272 ZZZX=             81.5453
 ZZZY=              8.6873 XXYY=          -3973.4674 XXZZ=          -2547.8897 YYZZ=          -2615.4757
 XXYZ=              4.2742 YYXZ=            -82.7206 ZZXY=             -1.5647
 N-N= 5.576162746751D+03 E-N=-1.798424486970D+04  KE= 2.897417166757D+03
  Exact polarizability:     709.634       0.492     699.336      -5.604       0.888     296.656
 Approx polarizability:    1321.936       0.732    1278.483       7.244       0.003     483.632

 ----------------------------------------------------------------------

 Electric dipole moment (input orientation):
 (Debye = 10**-18 statcoulomb cm , SI units = C m)
                  (au)            (Debye)         (10**-30 SI)
   Tot        0.243875D+01      0.619868D+01      0.206766D+02
   x          0.179536D+01      0.456334D+01      0.152217D+02
   y         -0.543960D+00     -0.138261D+01     -0.461189D+01
   z          0.155830D+01      0.396080D+01      0.132118D+02

 Dipole polarizability, Alpha (input orientation).
 (esu units = cm**3 , SI units = C**2 m**2 J**-1)
 Alpha(0;0):
               (au)            (10**-24 esu)      (10**-40 SI)
   iso        0.568542D+03      0.842492D+02      0.937399D+02
   aniso      0.408046D+03      0.604661D+02      0.672776D+02
   xx         0.364963D+03      0.540820D+02      0.601743D+02
   yx         0.230397D+02      0.341414D+01      0.379874D+01
   yy         0.702378D+03      0.104082D+03      0.115806D+03
   zx        -0.151123D+03     -0.223942D+02     -0.249169D+02
   zy         0.459728D+01      0.681247D+00      0.757990D+00
   zz         0.638285D+03      0.945841D+02      0.105239D+03

 First dipole hyperpolarizability, Beta (input orientation).
 ||, _|_  parallel and perpendicular components, (z) with respect to z axis,
 vector components x,y,z.  Values do not include the 1/n! factor of 1/2.
 (esu units = statvolt**-1 cm**4 , SI units = C**3 m**3 J**-2)
 Beta(0;0,0):
               (au)            (10**-30 esu)      (10**-50 SI)
   || (z)    -0.583232D+03     -0.503867D+01     -0.187005D+01
   _|_(z)    -0.194411D+03     -0.167956D+01     -0.623351D+00
   x          0.169822D+04      0.146713D+02      0.544511D+01
   y          0.214724D+04      0.185505D+02      0.688484D+01
   z         -0.291616D+04     -0.251934D+02     -0.935026D+01
   ||         0.799965D+03      0.691107D+01      0.256498D+01
   xxx        0.164285D+03      0.141930D+01      0.526759D+00
   xxy       -0.799586D+02     -0.690780D+00     -0.256376D+00
   yxy        0.123296D+03      0.106518D+01      0.395332D+00
   yyy        0.122744D+04      0.106041D+02      0.393562D+01
   xxz       -0.239316D+02     -0.206750D+00     -0.767333D-01
   yxz        0.186186D+03      0.160850D+01      0.596980D+00
   yyz       -0.279442D+03     -0.241416D+01     -0.895993D+00
   zxz        0.278492D+03      0.240595D+01      0.892946D+00
   zyz       -0.431735D+03     -0.372985D+01     -0.138430D+01
   zzz       -0.668679D+03     -0.577687D+01     -0.214403D+01

 ----------------------------------------------------------------------

 Dipole orientation:
    26        -11.20677230         16.92453968         49.08898571
     7        -14.57611312         18.16477440         50.09315533
     7        -10.15772067         20.53857837         48.05072604
     7         -7.64667958         15.93381157         47.81873846
     7        -11.95321382         13.38573774         49.88609736
     6        -16.43846323         16.68799375         51.01647574
     6        -18.62333171         18.20308580         51.64124822
     6        -18.01929751         20.63764165         51.05659819
     6        -15.45827986         20.59610417         50.08720526
     6        -11.62651497         22.59962372         48.34605121
     6        -10.37774138         24.86636541         47.51425998
     6         -8.03046541         24.14239618         46.70443407
     6         -7.93652980         21.42157771         47.01119875
     6         -5.75667929         17.40019819         46.80127903
     6         -3.54866969         15.89353268         46.25373922
     6         -4.14248957         13.47612585         46.94171548
     6         -6.71777613         13.56970482         47.89450824
     6        -10.38881543         11.31783829         49.64059155
     6        -11.74725675          9.07547771         50.44459014
     6        -14.11112815          9.83843092         51.11782394
     6        -14.17139884         12.55656234         50.80272895
     6        -16.24258950         14.08549047         51.33168152
     1        -17.90275969         13.12719036         52.02824072
     6        -14.09425465         22.65677234         49.25725715
     1        -15.01957258         24.47804976         49.34678277
     6         -5.83689556         19.98661035         46.46740651
     1         -4.17938614         20.91228786         45.72709407
     6         -7.95617097         11.41997287         48.73213245
     1         -6.93784055          9.65221202         48.66153639
     6        -19.58238389         22.98121363         51.44775088
     1        -21.08181785         22.61847782         52.80828745
     1        -20.42346216         23.59073102         49.66810547
     1        -18.38106073         24.48549207         52.16088508
     6        -21.02185080         17.15182266         52.69396322
     1        -20.63108082         16.11274469         54.43651318
     1        -21.89970356         15.84566044         51.35660069
     1        -22.37137331         18.64436500         53.10947471
     6        -11.48897557         27.45273088         47.49288627
     1        -11.46099423         28.27865787         49.38315807
     1        -13.44056345         27.40982181         46.84382854
     1        -10.40704342         28.66683468         46.23446742
     6         -5.96785384         25.65462591         45.73275078
     1         -4.80161935         24.75175966         44.31149653
     6         -5.39739962         27.98815395         46.47278897
     1         -6.42547093         28.92663115         47.95561406
     1         -3.82661510         29.00880822         45.66917150
     6         -1.14716106         16.88864236         45.19087350
     1         -0.02114145         17.78621302         46.66838064
     1         -1.50869289         18.29181783         43.72847519
     1         -0.03798084         15.35923536         44.37732467
     6         -2.58970958         11.22739144         46.84593746
     1         -3.55592324          9.48231304         46.37829249
     6         -0.12433131         11.14124816         47.30973271
     1          0.94868100         12.78242449         47.85233652
     1          0.91209823          9.40060454         47.17850465
     6        -10.63798897          6.48270549         50.42559743
     1         -8.94235485          6.42159938         51.59646856
     1        -10.10616210          5.93729376         48.51078569
     1        -11.97194935          5.09464409         51.14394102
     6        -16.28693691          8.30720456         52.05465610
     1        -16.84724384          8.93593694         53.93791221
     1        -15.80348532          6.31333936         52.15142736
     1        -17.91329170          8.52281114         50.80396556
     6         -5.46663183         19.49928907         57.59405871
     1         -4.60451846         17.94961995         58.64869844
     1         -6.22126108         20.85112631         58.95425669
     1         -4.01137955         20.42285296         56.48326251
     7         -9.59447099         17.33177412         56.80086617
     1         -9.98651487         16.97081025         58.62747876
     6         -7.49396210         18.54145110         55.90378230
     6        -11.03879630         16.69156582         54.79447572
     1        -12.80860240         15.71646017         54.92618716
     7         -9.97784092         17.42175231         52.67269470
     6         -7.76824279         18.57976944         53.33597914
     1         -6.53052348         19.36071591         51.93720239

 Electric dipole moment (dipole orientation):
 (Debye = 10**-18 statcoulomb cm , SI units = C m)
                  (au)            (Debye)         (10**-30 SI)
   Tot        0.243875D+01      0.619868D+01      0.206766D+02
   x          0.000000D+00      0.000000D+00      0.000000D+00
   y          0.000000D+00      0.000000D+00      0.000000D+00
   z          0.243875D+01      0.619868D+01      0.206766D+02

 Dipole polarizability, Alpha (dipole orientation).
 (esu units = cm**3 , SI units = C**2 m**2 J**-1)
 Alpha(0;0):
               (au)            (10**-24 esu)      (10**-40 SI)
   iso        0.568542D+03      0.842492D+02      0.937399D+02
   aniso      0.408046D+03      0.604661D+02      0.672776D+02
   xx         0.667822D+03      0.989611D+02      0.110109D+03
   yx        -0.115122D+02     -0.170593D+01     -0.189810D+01
   yy         0.695513D+03      0.103064D+03      0.114675D+03
   zx        -0.119532D+03     -0.177128D+02     -0.197082D+02
   zy        -0.499592D+02     -0.740319D+01     -0.823716D+01
   zz         0.342290D+03      0.507222D+02      0.564361D+02

 First dipole hyperpolarizability, Beta (dipole orientation).
 ||, _|_  parallel and perpendicular components, (z) with respect to z axis,
 vector components x,y,z.  Values do not include the 1/n! factor of 1/2.
 (esu units = statvolt**-1 cm**4 , SI units = C**3 m**3 J**-2)
 Beta(0;0,0):
               (au)            (10**-30 esu)      (10**-50 SI)
   || (z)    -0.218419D+03     -0.188697D+01     -0.700331D+00
   _|_(z)    -0.728065D+02     -0.628991D+00     -0.233444D+00
   x          0.349861D+04      0.302253D+02      0.112178D+02
   y          0.160176D+04      0.138379D+02      0.513581D+01
   z         -0.109210D+04     -0.943487D+01     -0.350166D+01
   ||         0.799965D+03      0.691107D+01      0.256498D+01
   xxx        0.516473D+03      0.446193D+01      0.165600D+01
   xxy       -0.475715D+03     -0.410981D+01     -0.152532D+01
   yxy        0.555048D+03      0.479518D+01      0.177968D+01
   yyy        0.934196D+03      0.807072D+01      0.299537D+01
   xxz       -0.117994D+03     -0.101937D+01     -0.378330D+00
   yxz        0.771779D+02      0.666757D+00      0.247460D+00
   yyz       -0.366411D+03     -0.316551D+01     -0.117485D+01
   zxz        0.946833D+02      0.817990D+00      0.303589D+00
   zyz        0.754386D+02      0.651731D+00      0.241884D+00
   zzz        0.120373D+03      0.103993D+01      0.385958D+00

 ----------------------------------------------------------------------
 Unable to Open any file for archive entry.
 1\1\GINC-BGN1018\SP\RAPFD\def2TZVP\C34H34Fe1N6\BEBZHART\14-Jul-2024\0\
 \# polar def2tzvp apfd int=(grid=ultrafine)\\3gck_II_S\\0,1\Fe,0,16.05
 14887795,2.2959813338,22.9619585781\N,0,15.3150360362,2.6352072227,24.
 7604797877\N,0,16.2101866197,4.3285611967,22.6287862159\N,0,16.7650769
 561,2.126299644,21.0286070705\N,0,15.9100184617,0.3465131983,23.104584
 0644\C,0,14.9368064776,1.6697327441,25.6238897471\C,0,14.4866570418,2.
 2575698347,26.8651328147\C,0,14.6019126101,3.6078063873,26.7194878474\
 C,0,15.129161202,3.8366895307,25.3891089606\C,0,15.9142682873,5.273384
 0156,23.5441124945\C,0,16.1527109467,6.6008654098,23.0439231208\C,0,16
 .6302356921,6.4494172217,21.7702169353\C,0,16.6387643638,5.0220988489,
 21.5162042409\C,0,17.1158752857,3.0990181749,20.1213673086\C,0,17.6047
 554086,2.5076157712,18.8982185148\C,0,17.5342796314,1.1545243077,19.07
 68462114\C,0,16.9982692272,0.953547253,20.4133133874\C,0,16.2588439039
 ,-0.6026382366,22.1680497925\C,0,15.9720230452,-1.9201431289,22.704442
 5876\C,0,15.4374749761,-1.733449252,23.9430292296\C,0,15.4374825189,-0
 .3047415942,24.1807932018\C,0,14.9910020908,0.3075316692,25.346984294\
 H,0,14.6235323037,-0.3544190271,26.1161536848\C,0,15.3982179539,5.0643
 244107,24.820320924\H,0,15.2019106651,5.9392232906,25.4260378023\C,0,1
 7.0945197424,4.4612977327,20.3450050629\H,0,17.4422726275,5.1115325509
 ,19.5582273877\C,0,16.771978483,-0.3140330267,20.9252427613\H,0,17.011
 4418835,-1.1587748813,20.2960084121\C,0,14.3249067311,4.681287795,27.7
 372969875\H,0,14.3046089823,4.2550803928,28.7386555151\H,0,13.36602089
 41,5.1595044115,27.535145427\H,0,15.1079753499,5.4326715633,27.6879842
 991\C,0,13.9914874614,1.4667357088,28.0313950481\H,0,14.7536516994,0.7
 486100875,28.3457278216\H,0,13.0903131905,0.9078367023,27.7670068419\H
 ,0,13.7544952243,2.1119891332,28.8737935693\C,0,15.8879127284,7.871574
 8023,23.7748740382\H,0,16.6780038733,8.0737397038,24.5006185898\H,0,14
 .941544226,7.8227005871,24.3106222311\H,0,15.845252608,8.7004433489,23
 .0711796841\C,0,17.0624353203,7.4494067166,20.8166223674\H,0,16.873963
 9984,7.2157173496,19.7751556057\C,0,17.6764991164,8.5896680042,21.1200
 52431\H,0,17.9397810897,8.8416874576,22.13271726\H,0,17.9739082204,9.2
 915109097,20.3568650966\C,0,18.0940523817,3.2709933723,17.7207314446\H
 ,0,19.1160597138,3.616853675,17.8876015506\H,0,17.4706859355,4.1444256
 903,17.5327115881\H,0,18.0888991764,2.6410633218,16.8330230739\C,0,17.
 9277320124,0.0942951953,18.1741212994\H,0,17.3108064421,-0.7971573827,
 18.1864277397\C,0,18.9770673627,0.1260573042,17.3603407024\H,0,19.6555
 135013,0.9610108082,17.3195108339\H,0,19.2007586445,-0.696654219,16.70
 6754651\C,0,16.2200595809,-3.1894796296,21.9598523944\H,0,17.273538907
 3,-3.2691378017,21.68798\H,0,15.6335610631,-3.2151324749,21.0408357881
 \H,0,15.9538332968,-4.0572235891,22.5585805738\C,0,14.9505975171,-2.74
 50739676,24.9266955195\H,0,15.5191328456,-2.6744534539,25.855971697\H,
 0,15.0538240126,-3.7539454595,24.5357380808\H,0,13.8987524058,-2.57304
 51765,25.1628254621\C,0,21.5344337799,2.9175706896,23.9055053629\H,0,2
 2.1684861876,2.0436383439,23.7433471623\H,0,21.8687104699,3.4106619943
 ,24.818971378\H,0,21.6661071723,3.5997270613,23.0719994753\N,0,19.6484
 601945,1.6801660452,24.9895460157\H,0,20.2020562054,1.2585659784,25.71
 73028632\C,0,20.1071041292,2.5181154963,24.0107011279\C,0,18.321318605
 3,1.5119118499,24.7982235061\H,0,17.694077979,0.9021958113,25.41712770
 49\N,0,17.9092332932,2.1932682102,23.7536538123\C,0,19.0116491339,2.82
 63197571,23.2538220825\H,0,18.9465241143,3.4577552723,22.3908518556\\V
 ersion=ES64L-G16RevC.02\State=1-A\HF=-2907.5979241\RMSD=5.190e-09\Dipo
 le=1.7953574,-0.5439604,1.5582983\Polar=364.963269,23.0397259,702.3779
 939,-151.1232153,4.5972839,638.2849024\HyperPolar=164.2854394,-79.9585
 743,123.2961245,1227.4410884,-23.9315735,186.1861533,-279.4424199,278.
 4919679,-431.7346989,-668.679382\Quadrupole=0.4415208,-2.0546983,1.613
 1775,0.214197,2.6987183,-3.0983008\PG=C01 [X(C34H34Fe1N6)]\\@
 The archive entry for this job was punched.


 "PERFECTION IS NOT AN ACCIDENT"
         --  EAGLE ELECTRIC MANUFACTURING CO.,INC. NY
 Job cpu time:       1 days 22 hours 11 minutes 53.3 seconds.
 Elapsed time:       0 days  0 hours 40 minutes  4.5 seconds.
 File lengths (MBytes):  RWF=   1142 Int=      0 D2E=      0 Chk=    146 Scr=      1
 Normal termination of Gaussian 16 at Sun Jul 14 09:19:33 2024.
 Initial command:
 /sw/chem/gaussian/g16_C02/a100/g16/l1.exe "/local/bebzhart_7933178/Gau-1314178.inp" -scrdir="/local/bebzhart_7933178/"
 Entering Link 1 = /sw/chem/gaussian/g16_C02/a100/g16/l1.exe PID=   1315823.
  
 Copyright (c) 1988-2021, Gaussian, Inc.  All Rights Reserved.
  
 This is part of the Gaussian(R) 16 program.  It is based on
 the Gaussian(R) 09 system (copyright 2009, Gaussian, Inc.),
 the Gaussian(R) 03 system (copyright 2003, Gaussian, Inc.),
 the Gaussian(R) 98 system (copyright 1998, Gaussian, Inc.),
 the Gaussian(R) 94 system (copyright 1995, Gaussian, Inc.),
 the Gaussian 92(TM) system (copyright 1992, Gaussian, Inc.),
 the Gaussian 90(TM) system (copyright 1990, Gaussian, Inc.),
 the Gaussian 88(TM) system (copyright 1988, Gaussian, Inc.),
 the Gaussian 86(TM) system (copyright 1986, Carnegie Mellon
 University), and the Gaussian 82(TM) system (copyright 1983,
 Carnegie Mellon University). Gaussian is a federally registered
 trademark of Gaussian, Inc.
  
 This software contains proprietary and confidential information,
 including trade secrets, belonging to Gaussian, Inc.
  
 This software is provided under written license and may be
 used, copied, transmitted, or stored only in accord with that
 written license.
  
 The following legend is applicable only to US Government
 contracts under FAR:
  
                    RESTRICTED RIGHTS LEGEND
  
 Use, reproduction and disclosure by the US Government is
 subject to restrictions as set forth in subparagraphs (a)
 and (c) of the Commercial Computer Software - Restricted
 Rights clause in FAR 52.227-19.
  
 Gaussian, Inc.
 340 Quinnipiac St., Bldg. 40, Wallingford CT 06492
  
  
 ---------------------------------------------------------------
 Warning -- This program may not be used in any manner that
 competes with the business of Gaussian, Inc. or will provide
 assistance to any competitor of Gaussian, Inc.  The licensee
 of this program is prohibited from giving any competitor of
 Gaussian, Inc. access to this program.  By using this program,
 the user acknowledges that Gaussian, Inc. is engaged in the
 business of creating and licensing software in the field of
 computational chemistry and represents and warrants to the
 licensee that it is not a competitor of Gaussian, Inc. and that
 it will not use this program in any manner prohibited above.
 ---------------------------------------------------------------
  

 Cite this work as:
 Gaussian 16, Revision C.02,
 M. J. Frisch, G. W. Trucks, H. B. Schlegel, G. E. Scuseria, 
 M. A. Robb, J. R. Cheeseman, G. Scalmani, V. Barone, 
 G. A. Petersson, H. Nakatsuji, X. Li, M. Caricato, A. V. Marenich, 
 J. Bloino, B. G. Janesko, R. Gomperts, B. Mennucci, H. P. Hratchian, 
 J. V. Ortiz, A. F. Izmaylov, J. L. Sonnenberg, D. Williams-Young, 
 F. Ding, F. Lipparini, F. Egidi, J. Goings, B. Peng, A. Petrone, 
 T. Henderson, D. Ranasinghe, V. G. Zakrzewski, J. Gao, N. Rega, 
 G. Zheng, W. Liang, M. Hada, M. Ehara, K. Toyota, R. Fukuda, 
 J. Hasegawa, M. Ishida, T. Nakajima, Y. Honda, O. Kitao, H. Nakai, 
 T. Vreven, K. Throssell, J. A. Montgomery, Jr., J. E. Peralta, 
 F. Ogliaro, M. J. Bearpark, J. J. Heyd, E. N. Brothers, K. N. Kudin, 
 V. N. Staroverov, T. A. Keith, R. Kobayashi, J. Normand, 
 K. Raghavachari, A. P. Rendell, J. C. Burant, S. S. Iyengar, 
 J. Tomasi, M. Cossi, J. M. Millam, M. Klene, C. Adamo, R. Cammi, 
 J. W. Ochterski, R. L. Martin, K. Morokuma, O. Farkas, 
 J. B. Foresman, and D. J. Fox, Gaussian, Inc., Wallingford CT, 2019.
 
 ******************************************
 Gaussian 16:  ES64L-G16RevC.02  7-Dec-2021
                14-Jul-2024 
 ******************************************
 %mem=16GB
 %CPU=0-71
 SetSPE:  set environment variable "OMP_PROC_BIND" = "true"
 SetSPE:  set environment variable "OMP_PLACES" = "{0},{1},{2},{3},{4},{5},{6},{7},{8},{9},{10},{11},{12},{13},{14},{15},{16},{17},{18},{19},{20},{21},{22},{23},{24},{25},{26},{27},{28},{29},{30},{31},{32},{33},{34},{35},{36},{37},{38},{39},{40},{41},{42},{43},{44},{45},{46},{47},{48},{49},{50},{51},{52},{53},{54},{55},{56},{57},{58},{59},{60},{61},{62},{63},{64},{65},{66},{67},{68},{69},{70},{71}"
 Will use up to   72 processors via shared memory.
 %gpucpu=0,1,2,3=0,1,2,3
 Will use    4 GPUs:
 Thread  CPU   GPU
      0    0     0
      1    1     1
      2    2     2
      3    3     3
      4    4    -1
      5    5    -1
      6    6    -1
      7    7    -1
      8    8    -1
      9    9    -1
     10   10    -1
     11   11    -1
     12   12    -1
     13   13    -1
[...]
                                                    1481(v)
   138. CR (   1) N  68                  1.99938   -14.22613  1311(v),1285(v),1279(v)
                                                    1479(v),1286(v)
   139. CR (   1) C  70                  1.99915   -10.09377  1368(v),1483(g),1489(v)
                                                    1213(v),1256(v)
   140. CR (   1) C  71                  1.99937   -10.12808  1340(v),1480(v),1488(v)
                                                    148(r),147(r)
   141. CR (   1) N  73                  1.99931   -14.16503  148(r),147(r),151(r),1309(v)
                                                    1366(v),1368(v),1485(v)
                                                    164(r),166(r),170(r),165(r)
   142. CR (   1) C  74                  1.99899   -10.06477  1479(v),1283(v),1483(g)
                                                    1393(v),1340(v),1286(v)
                                                    148(r),147(r)
   158. LP (   1) N  68                  1.57648    -0.28946  1487(v),1484(v),1312(v)
                                                    1284(v),1278(v)
   159. LP (   1) N  73                  1.62894    -0.38676  147(r),148(r),151(r),1482(v)
                                                    1483(v),1309(v),1485(v)
                                                    1489(v),1366(v),1486(g)
                                                    1343(g),1488(g),165(r)
                                                    149(r),185(r),1406(r),179(r)
                                                    1399(r),267(r),189(r),241(r)
                                                    268(r),1398(r),190(r),242(r)
                                                    1407(r),215(r),1402(r)
                                                    1397(r),216(r),1408(r)
                                                    1403(r),1400(r),1404(r)
                                                    166(r)
  1211. RY*(   1) C  64                  0.00119     1.15898   
  1212. RY*(   2) C  64                  0.00077     1.99321   
  1213. RY*(   3) C  64                  0.00051     1.33387   
  1214. RY*(   4) C  64                  0.00012     1.27179   
  1215. RY*(   5) C  64                  0.00007     1.15394   
  1216. RY*(   6) C  64                  0.00008     2.31880   
  1217. RY*(   7) C  64                  0.00001     1.64103   
  1218. RY*(   8) C  64                  0.00001     1.85541   
  1219. RY*(   9) C  64                  0.00001     1.42831   
  1220. RY*(  10) C  64                  0.00001     2.30108   
  1221. RY*(  11) C  64                  0.00001     1.39852   
  1222. RY*(  12) C  64                  0.00000     3.25312   
  1223. RY*(  13) C  64                  0.00000     2.56944   
  1224. RY*(  14) C  64                  0.00000     2.77589   
  1225. RY*(  15) C  64                  0.00000     2.31324   
  1226. RY*(  16) C  64                  0.00000     3.16126   
  1227. RY*(  17) C  64                  0.00000     2.49073   
  1228. RY*(  18) C  64                  0.00000    21.59952   
  1229. RY*(  19) C  64                  0.00001     2.68982   
  1230. RY*(  20) C  64                  0.00000     3.67662   
  1231. RY*(  21) C  64                  0.00001     3.44543   
  1232. RY*(  22) C  64                  0.00000     3.33435   
  1233. RY*(  23) C  64                  0.00000     3.77858   
  1234. RY*(  24) C  64                  0.00000     3.33849   
  1235. RY*(  25) C  64                  0.00000     3.33549   
  1236. RY*(  26) C  64                  0.00000     3.23652   
  1237. RY*(   1) H  65                  0.00073     1.01062   
  1238. RY*(   2) H  65                  0.00015     1.68186   
  1239. RY*(   3) H  65                  0.00008     1.96115   
  1240. RY*(   4) H  65                  0.00006     1.99906   
  1241. RY*(   5) H  65                  0.00000     2.87420   
  1242. RY*(   1) H  66                  0.00072     0.99754   
  1243. RY*(   2) H  66                  0.00015     1.69075   
  1244. RY*(   3) H  66                  0.00008     1.97545   
  1245. RY*(   4) H  66                  0.00006     1.99126   
  1246. RY*(   5) H  66                  0.00000     2.87554   
  1247. RY*(   1) H  67                  0.00023     1.41258   
  1248. RY*(   2) H  67                  0.00012     1.71934   
  1249. RY*(   3) H  67                  0.00008     2.05430   
  1250. RY*(   4) H  67                  0.00002     1.58411   
  1251. RY*(   5) H  67                  0.00001     2.85909   
  1252. RY*(   1) N  68                  0.00282     0.66642   
  1253. RY*(   2) N  68                  0.00235     1.76024   
  1254. RY*(   3) N  68                  0.00101     2.06014   
  1255. RY*(   4) N  68                  0.00075     2.18229   
  1256. RY*(   5) N  68                  0.00052     1.14392   
  1257. RY*(   6) N  68                  0.00025     2.09366   
  1258. RY*(   7) N  68                  0.00020     1.66755   
  1259. RY*(   8) N  68                  0.00007     2.12796   
  1260. RY*(   9) N  68                  0.00006     2.45020   
  1261. RY*(  10) N  68                  0.00006     3.74498   
  1262. RY*(  11) N  68                  0.00004     2.83613   
  1263. RY*(  12) N  68                  0.00000    30.54999   
  1264. RY*(  13) N  68                  0.00001     4.27882   
  1265. RY*(  14) N  68                  0.00001     2.61171   
  1266. RY*(  15) N  68                  0.00000     3.59496   
  1267. RY*(  16) N  68                  0.00000     2.10056   
  1268. RY*(  17) N  68                  0.00000     4.26502   
  1269. RY*(  18) N  68                  0.00000     3.76410   
  1270. RY*(  19) N  68                  0.00000     4.14059   
  1271. RY*(  20) N  68                  0.00000     4.61890   
  1272. RY*(  21) N  68                  0.00000     4.87036   
  1273. RY*(  22) N  68                  0.00000     4.34576   
  1274. RY*(  23) N  68                  0.00000     4.56171   
  1275. RY*(  24) N  68                  0.00000     4.28359   
  1276. RY*(  25) N  68                  0.00000     4.52104   
  1277. RY*(  26) N  68                  0.00000     4.40633   
  1278. RY*(   1) H  69                  0.00057     2.14511   
  1279. RY*(   2) H  69                  0.00039     2.12467   
  1280. RY*(   3) H  69                  0.00029     1.15014   
  1281. RY*(   4) H  69                  0.00021     2.40612   
  1282. RY*(   5) H  69                  0.00001     3.06989   
  1283. RY*(   1) C  70                  0.00417     1.68851   
  1284. RY*(   2) C  70                  0.00260     0.97576   
  1285. RY*(   3) C  70                  0.00194     1.44674   
  1286. RY*(   4) C  70                  0.00163     2.03391   
  1287. RY*(   5) C  70                  0.00118     1.75714   
  1288. RY*(   6) C  70                  0.00107     1.71952   
  1289. RY*(   7) C  70                  0.00038     2.84395   
  1290. RY*(   8) C  70                  0.00018     2.72173   
  1291. RY*(   9) C  70                  0.00016     2.46074   
  1292. RY*(  10) C  70                  0.00007     3.67704   
  1293. RY*(  11) C  70                  0.00003     2.80442   
  1294. RY*(  12) C  70                  0.00002     1.97072   
  1295. RY*(  13) C  70                  0.00001     1.66454   
  1296. RY*(  14) C  70                  0.00000     1.05464   
  1297. RY*(  15) C  70                  0.00001     2.79542   
  1298. RY*(  16) C  70                  0.00001     1.92253   
  1299. RY*(  17) C  70                  0.00000     3.67848   
  1300. RY*(  18) C  70                  0.00000     1.69468   
  1301. RY*(  19) C  70                  0.00000    20.92531   
  1302. RY*(  20) C  70                  0.00000     4.04968   
  1303. RY*(  21) C  70                  0.00001     3.72559   
  1304. RY*(  22) C  70                  0.00000     3.29569   
  1305. RY*(  23) C  70                  0.00000     3.78080   
  1306. RY*(  24) C  70                  0.00000     3.27012   
  1307. RY*(  25) C  70                  0.00000     3.47027   
  1308. RY*(  26) C  70                  0.00000     3.50792   
  1309. RY*(   1) C  71                  0.00410     1.61016   
  1310. RY*(   2) C  71                  0.00326     0.70837   
  1311. RY*(   3) C  71                  0.00212     1.30415   
  1312. RY*(   4) C  71                  0.00129     2.47055   
  1313. RY*(   5) C  71                  0.00079     1.63164   
  1314. RY*(   6) C  71                  0.00039     1.62579   
  1315. RY*(   7) C  71                  0.00031     2.00568   
  1316. RY*(   8) C  71                  0.00008     2.43852   
  1317. RY*(   9) C  71                  0.00006     2.01593   
  1318. RY*(  10) C  71                  0.00004     3.10774   
  1319. RY*(  11) C  71                  0.00004     2.83090   
  1320. RY*(  12) C  71                  0.00003     1.49787   
  1321. RY*(  13) C  71                  0.00001     2.39520   
  1322. RY*(  14) C  71                  0.00001     2.91495   
  1323. RY*(  15) C  71                  0.00001     2.44801   
  1324. RY*(  16) C  71                  0.00001     3.64321   
  1325. RY*(  17) C  71                  0.00001     2.78554   
  1326. RY*(  18) C  71                  0.00000    21.33436   
  1327. RY*(  19) C  71                  0.00000     3.15382   
  1328. RY*(  20) C  71                  0.00001     3.86924   
  1329. RY*(  21) C  71                  0.00001     4.12348   
  1330. RY*(  22) C  71                  0.00000     3.55556   
  1331. RY*(  23) C  71                  0.00000     3.84645   
  1332. RY*(  24) C  71                  0.00000     3.49780   
  1333. RY*(  25) C  71                  0.00000     3.61036   
  1334. RY*(  26) C  71                  0.00000     3.32921   
  1335. RY*(   1) H  72                  0.00055     0.76983   
  1336. RY*(   2) H  72                  0.00031     2.38304   
  1337. RY*(   3) H  72                  0.00021     2.10627   
  1338. RY*(   4) H  72                  0.00011     2.40597   
  1339. RY*(   5) H  72                  0.00002     3.12122   
  1340. RY*(   1) N  73                  0.00628     1.33474   
  1341. RY*(   2) N  73                  0.00580     0.91704   
  1342. RY*(   3) N  73                  0.00548     1.45868   
  1343. RY*(   4) N  73                  0.00087     1.37343   
  1344. RY*(   5) N  73                  0.00074     1.62779   
  1345. RY*(   6) N  73                  0.00045     1.95076   
  1346. RY*(   7) N  73                  0.00039     3.09147   
  1347. RY*(   8) N  73                  0.00036     3.55948   
  1348. RY*(   9) N  73                  0.00013     3.36174   
  1349. RY*(  10) N  73                  0.00011     2.27921   
  1350. RY*(  11) N  73                  0.00009     2.74372   
  1351. RY*(  12) N  73                  0.00008     3.37368   
  1352. RY*(  13) N  73                  0.00006     3.42962   
  1353. RY*(  14) N  73                  0.00003     4.32525   
  1354. RY*(  15) N  73                  0.00003     4.30712   
  1355. RY*(  16) N  73                  0.00001     4.79553   
  1356. RY*(  17) N  73                  0.00001     4.48829   
  1357. RY*(  18) N  73                  0.00001     3.84171   
  1358. RY*(  19) N  73                  0.00001     4.19544   
  1359. RY*(  20) N  73                  0.00000     4.34316   
  1360. RY*(  21) N  73                  0.00000    31.38452   
  1361. RY*(  22) N  73                  0.00000     4.13977   
  1362. RY*(  23) N  73                  0.00000     4.79553   
  1363. RY*(  24) N  73                  0.00000     4.64223   
  1364. RY*(  25) N  73                  0.00000     4.78943   
  1365. RY*(  26) N  73                  0.00000     4.47942   
  1366. RY*(   1) C  74                  0.00396     1.45964   
  1367. RY*(   2) C  74                  0.00267     0.72246   
  1368. RY*(   3) C  74                  0.00173     1.75665   
  1369. RY*(   4) C  74                  0.00073     1.66914   
  1370. RY*(   5) C  74                  0.00056     1.77395   
  1371. RY*(   6) C  74                  0.00050     1.77804   
  1372. RY*(   7) C  74                  0.00045     1.90470   
  1373. RY*(   8) C  74                  0.00021     1.84929   
  1374. RY*(   9) C  74                  0.00017     1.94103   
  1375. RY*(  10) C  74                  0.00015     1.92633   
  1376. RY*(  11) C  74                  0.00010     1.07347   
  1377. RY*(  12) C  74                  0.00008     1.94436   
  1378. RY*(  13) C  74                  0.00005     1.90430   
  1379. RY*(  14) C  74                  0.00004     3.11863   
  1380. RY*(  15) C  74                  0.00003     3.48168   
  1381. RY*(  16) C  74                  0.00003     1.52040   
  1382. RY*(  17) C  74                  0.00001     3.69196   
  1383. RY*(  18) C  74                  0.00000     3.19707   
  1384. RY*(  19) C  74                  0.00000    21.27467   
  1385. RY*(  20) C  74                  0.00001     3.95399   
  1386. RY*(  21) C  74                  0.00001     4.13423   
  1387. RY*(  22) C  74                  0.00000     3.45677   
  1388. RY*(  23) C  74                  0.00000     3.71785   
  1389. RY*(  24) C  74                  0.00000     3.31413   
  1390. RY*(  25) C  74                  0.00000     3.69796   
  1391. RY*(  26) C  74                  0.00000     3.35003   
  1392. RY*(   1) H  75                  0.00055     0.70708   
  1393. RY*(   2) H  75                  0.00032     2.32794   
  1394. RY*(   3) H  75                  0.00024     2.28215   
  1395. RY*(   4) H  75                  0.00008     2.71326   
  1396. RY*(   5) H  75                  0.00001     3.11499   
  1476. BD*(   1) C  64 - H  65          0.01194     0.35402   
  1477. BD*(   1) C  64 - H  66          0.01153     0.35535   
  1478. BD*(   1) C  64 - H  67          0.00338     0.37083   
  1479. BD*(   1) C  64 - C  70          0.01363     0.38387   
  1480. BD*(   1) N  68 - H  69          0.01420     0.36101   
  1481. BD*(   1) N  68 - C  70          0.02700     0.42804   
  1482. BD*(   1) N  68 - C  71          0.02239     0.44175   
  1483. BD*(   1) C  70 - C  74          0.02127     0.55912   
  1484. BD*(   2) C  70 - C  74          0.29691     0.03012  1487(v),1476(v),1477(v)
                                                    1372(g),1287(g),1405(r)
                                                    1401(r)
  1485. BD*(   1) C  71 - H  72          0.01878     0.38419   
  1486. BD*(   1) C  71 - N  73          0.01527     0.53176   
  1487. BD*(   2) C  71 - N  73          0.42212    -0.01250  1484(v),1310(g),1341(g)
                                                    1367(v),150(r),1398(r)
                                                    1408(r),1405(r),1401(r)
  1488. BD*(   1) N  73 - C  74          0.01568     0.47525   
  1489. BD*(   1) C  74 - H  75          0.01420     0.42760   
       -------------------------------
              Total Lewis   42.70977  ( 97.7477%)
        Valence non-Lewis    0.90831  (  2.0788%)
        Rydberg non-Lewis    0.07582  (  0.1735%)
       -------------------------------
            Total unit  3   43.69389  (100.0000%)
           Charge unit  3    0.30611
 Unable to Open any file for archive entry.
 1\1\GINC-BGN1018\SP\RAPFD\def2TZVP\C34H34Fe1N6\BEBZHART\14-Jul-2024\0\
 \# apfd/def2TZVP int=(grid=ultrafine) geom=check guess=read pop=nbo sc
 f=qc\\3gck_II_S_nbo\\0,1\Fe,0,16.0514887795,2.2959813338,22.9619585781
 \N,0,15.3150360362,2.6352072227,24.7604797877\N,0,16.2101866197,4.3285
 611967,22.6287862159\N,0,16.7650769561,2.126299644,21.0286070705\N,0,1
 5.9100184617,0.3465131983,23.1045840644\C,0,14.9368064776,1.6697327441
 ,25.6238897471\C,0,14.4866570418,2.2575698347,26.8651328147\C,0,14.601
 9126101,3.6078063873,26.7194878474\C,0,15.129161202,3.8366895307,25.38
 91089606\C,0,15.9142682873,5.2733840156,23.5441124945\C,0,16.152710946
 7,6.6008654098,23.0439231208\C,0,16.6302356921,6.4494172217,21.7702169
 353\C,0,16.6387643638,5.0220988489,21.5162042409\C,0,17.1158752857,3.0
 990181749,20.1213673086\C,0,17.6047554086,2.5076157712,18.8982185148\C
 ,0,17.5342796314,1.1545243077,19.0768462114\C,0,16.9982692272,0.953547
 253,20.4133133874\C,0,16.2588439039,-0.6026382366,22.1680497925\C,0,15
 .9720230452,-1.9201431289,22.7044425876\C,0,15.4374749761,-1.733449252
 ,23.9430292296\C,0,15.4374825189,-0.3047415942,24.1807932018\C,0,14.99
 10020908,0.3075316692,25.346984294\H,0,14.6235323037,-0.3544190271,26.
 1161536848\C,0,15.3982179539,5.0643244107,24.820320924\H,0,15.20191066
 51,5.9392232906,25.4260378023\C,0,17.0945197424,4.4612977327,20.345005
 0629\H,0,17.4422726275,5.1115325509,19.5582273877\C,0,16.771978483,-0.
 3140330267,20.9252427613\H,0,17.0114418835,-1.1587748813,20.2960084121
 \C,0,14.3249067311,4.681287795,27.7372969875\H,0,14.3046089823,4.25508
 03928,28.7386555151\H,0,13.3660208941,5.1595044115,27.535145427\H,0,15
 .1079753499,5.4326715633,27.6879842991\C,0,13.9914874614,1.4667357088,
 28.0313950481\H,0,14.7536516994,0.7486100875,28.3457278216\H,0,13.0903
 131905,0.9078367023,27.7670068419\H,0,13.7544952243,2.1119891332,28.87
 37935693\C,0,15.8879127284,7.8715748023,23.7748740382\H,0,16.678003873
 3,8.0737397038,24.5006185898\H,0,14.941544226,7.8227005871,24.31062223
 11\H,0,15.845252608,8.7004433489,23.0711796841\C,0,17.0624353203,7.449
 4067166,20.8166223674\H,0,16.8739639984,7.2157173496,19.7751556057\C,0
 ,17.6764991164,8.5896680042,21.120052431\H,0,17.9397810897,8.841687457
 6,22.13271726\H,0,17.9739082204,9.2915109097,20.3568650966\C,0,18.0940
 523817,3.2709933723,17.7207314446\H,0,19.1160597138,3.616853675,17.887
 6015506\H,0,17.4706859355,4.1444256903,17.5327115881\H,0,18.0888991764
 ,2.6410633218,16.8330230739\C,0,17.9277320124,0.0942951953,18.17412129
 94\H,0,17.3108064421,-0.7971573827,18.1864277397\C,0,18.9770673627,0.1
 260573042,17.3603407024\H,0,19.6555135013,0.9610108082,17.3195108339\H
 ,0,19.2007586445,-0.696654219,16.706754651\C,0,16.2200595809,-3.189479
 6296,21.9598523944\H,0,17.2735389073,-3.2691378017,21.68798\H,0,15.633
 5610631,-3.2151324749,21.0408357881\H,0,15.9538332968,-4.0572235891,22
 .5585805738\C,0,14.9505975171,-2.7450739676,24.9266955195\H,0,15.51913
 28456,-2.6744534539,25.855971697\H,0,15.0538240126,-3.7539454595,24.53
 57380808\H,0,13.8987524058,-2.5730451765,25.1628254621\C,0,21.53443377
 99,2.9175706896,23.9055053629\H,0,22.1684861876,2.0436383439,23.743347
 1623\H,0,21.8687104699,3.4106619943,24.818971378\H,0,21.6661071723,3.5
 997270613,23.0719994753\N,0,19.6484601945,1.6801660452,24.9895460157\H
 ,0,20.2020562054,1.2585659784,25.7173028632\C,0,20.1071041292,2.518115
 4963,24.0107011279\C,0,18.3213186053,1.5119118499,24.7982235061\H,0,17
 .694077979,0.9021958113,25.4171277049\N,0,17.9092332932,2.1932682102,2
 3.7536538123\C,0,19.0116491339,2.8263197571,23.2538220825\H,0,18.94652
 41143,3.4577552723,22.3908518556\\Version=ES64L-G16RevC.02\State=1-A\H
 F=-2907.5979241\RMSD=3.308e-09\Dipole=1.7953574,-0.5439604,1.5582983\Q
 uadrupole=0.4415208,-2.0546983,1.6131775,0.214197,2.6987183,-3.0983008
 \PG=C01 [X(C34H34Fe1N6)]\\@
 The archive entry for this job was punched.


 GOD GAVE US TWO ENDS... ONE TO SIT ON...    
 AND THE OTHER TO THINK WITH...              
 YOUR SUCCESS DEPENDS UPON WHICH END YOU     
 USE THE MOST...                             
                                             
 IT'S A CASE OF HEADS YOU WIN TAILS YOU LOSE.
          SOURCE UNKNOWN(IT'S JUST AS WELL.) 
 Job cpu time:       0 days  0 hours 41 minutes  3.3 seconds.
 Elapsed time:       0 days  0 hours  0 minutes 52.0 seconds.
 File lengths (MBytes):  RWF=    749 Int=      0 D2E=      0 Chk=    150 Scr=      1
 Normal termination of Gaussian 16 at Sun Jul 14 09:20:27 2024.
