 Entering Gaussian System, Link 0=g16
 Input=3m8m01.com
 Output=3m8m01.log
 Initial command:
 /sw/chem/gaussian/g16_C02/a100/g16/l1.exe "/local/bebzhart_7933200/Gau-1416226.inp" -scrdir="/local/bebzhart_7933200/"
 Entering Link 1 = /sw/chem/gaussian/g16_C02/a100/g16/l1.exe PID=   1416227.
  
 Copyright (c) 1988-2021, Gaussian, Inc.  All Rights Reserved.
  
 This is part of the Gaussian(R) 16 program.  It is based on
 the Gaussian(R) 09 system (copyright 2009, Gaussian, Inc.),
 the Gaussian(R) 03 system (copyright 2003, Gaussian, Inc.),
 the Gaussian(R) 98 system (copyright 1998, Gaussian, Inc.),
 the Gaussian(R) 94 system (copyright 1995, Gaussian, Inc.),
 the Gaussian 92(TM) system (copyright 1992, Gaussian, Inc.),
 the Gaussian 90(TM) system (copyright 1990, Gaussian, Inc.),
 the Gaussian 88(TM) system (copyright 1988, Gaussian, Inc.),
 the Gaussian 86(TM) system (copyright 1986, Carnegie Mellon
 University), and the Gaussian 82(TM) system (copyright 1983,
 Carnegie Mellon University). Gaussian is a federally registered
 trademark of Gaussian, Inc.
  
 This software contains proprietary and confidential information,
 including trade secrets, belonging to Gaussian, Inc.
  
 This software is provided under written license and may be
 used, copied, transmitted, or stored only in accord with that
 written license.
  
 The following legend is applicable only to US Government
 contracts under FAR:
  
                    RESTRICTED RIGHTS LEGEND
  
 Use, reproduction and disclosure by the US Government is
 subject to restrictions as set forth in subparagraphs (a)
 and (c) of the Commercial Computer Software - Restricted
 Rights clause in FAR 52.227-19.
  
 Gaussian, Inc.
 340 Quinnipiac St., Bldg. 40, Wallingford CT 06492
  
  
 ---------------------------------------------------------------
 Warning -- This program may not be used in any manner that
 competes with the business of Gaussian, Inc. or will provide
 assistance to any competitor of Gaussian, Inc.  The licensee
 of this program is prohibited from giving any competitor of
 Gaussian, Inc. access to this program.  By using this program,
 the user acknowledges that Gaussian, Inc. is engaged in the
 business of creating and licensing software in the field of
 computational chemistry and represents and warrants to the
 licensee that it is not a competitor of Gaussian, Inc. and that
 it will not use this program in any manner prohibited above.
 ---------------------------------------------------------------
  

 Cite this work as:
 Gaussian 16, Revision C.02,
 M. J. Frisch, G. W. Trucks, H. B. Schlegel, G. E. Scuseria, 
 M. A. Robb, J. R. Cheeseman, G. Scalmani, V. Barone, 
 G. A. Petersson, H. Nakatsuji, X. Li, M. Caricato, A. V. Marenich, 
 J. Bloino, B. G. Janesko, R. Gomperts, B. Mennucci, H. P. Hratchian, 
 J. V. Ortiz, A. F. Izmaylov, J. L. Sonnenberg, D. Williams-Young, 
 F. Ding, F. Lipparini, F. Egidi, J. Goings, B. Peng, A. Petrone, 
 T. Henderson, D. Ranasinghe, V. G. Zakrzewski, J. Gao, N. Rega, 
 G. Zheng, W. Liang, M. Hada, M. Ehara, K. Toyota, R. Fukuda, 
 J. Hasegawa, M. Ishida, T. Nakajima, Y. Honda, O. Kitao, H. Nakai, 
 T. Vreven, K. Throssell, J. A. Montgomery, Jr., J. E. Peralta, 
 F. Ogliaro, M. J. Bearpark, J. J. Heyd, E. N. Brothers, K. N. Kudin, 
 V. N. Staroverov, T. A. Keith, R. Kobayashi, J. Normand, 
 K. Raghavachari, A. P. Rendell, J. C. Burant, S. S. Iyengar, 
 J. Tomasi, M. Cossi, J. M. Millam, M. Klene, C. Adamo, R. Cammi, 
 J. W. Ochterski, R. L. Martin, K. Morokuma, O. Farkas, 
 J. B. Foresman, and D. J. Fox, Gaussian, Inc., Wallingford CT, 2019.
 
 ******************************************
 Gaussian 16:  ES64L-G16RevC.02  7-Dec-2021
                14-Jul-2024 
 ******************************************
 %mem=16GB
 %CPU=0-71
 SetSPE:  set environment variable "OMP_PROC_BIND" = "true"
 SetSPE:  set environment variable "OMP_PLACES" = "{0},{1},{2},{3},{4},{5},{6},{7},{8},{9},{10},{11},{12},{13},{14},{15},{16},{17},{18},{19},{20},{21},{22},{23},{24},{25},{26},{27},{28},{29},{30},{31},{32},{33},{34},{35},{36},{37},{38},{39},{40},{41},{42},{43},{44},{45},{46},{47},{48},{49},{50},{51},{52},{53},{54},{55},{56},{57},{58},{59},{60},{61},{62},{63},{64},{65},{66},{67},{68},{69},{70},{71}"
 Will use up to   72 processors via shared memory.
 %gpucpu=0,1,2,3=0,1,2,3
 Will use    4 GPUs:
 Thread  CPU   GPU
      0    0     0
      1    1     1
      2    2     2
      3    3     3
      4    4    -1
      5    5    -1
      6    6    -1
      7    7    -1
      8    8    -1
      9    9    -1
     10   10    -1
     11   11    -1
     12   12    -1
     13   13    -1
     14   14    -1
     15   15    -1
     16   16    -1
     17   17    -1
     18   18    -1
     19   19    -1
     20   20    -1
     21   21    -1
     22   22    -1
     23   23    -1
     24   24    -1
     25   25    -1
     26   26    -1
     27   27    -1
     28   28    -1
     29   29    -1
     30   30    -1
     31   31    -1
     32   32    -1
     33   33    -1
     34   34    -1
     35   35    -1
     36   36    -1
     37   37    -1
     38   38    -1
     39   39    -1
     40   40    -1
     41   41    -1
     42   42    -1
     43   43    -1
     44   44    -1
     45   45    -1
     46   46    -1
     47   47    -1
     48   48    -1
     49   49    -1
     50   50    -1
     51   51    -1
     52   52    -1
     53   53    -1
     54   54    -1
     55   55    -1
     56   56    -1
     57   57    -1
     58   58    -1
     59   59    -1
     60   60    -1
     61   61    -1
     62   62    -1
     63   63    -1
     64   64    -1
     65   65    -1
     66   66    -1
     67   67    -1
     68   68    -1
     69   69    -1
     70   70    -1
     71   71    -1
 SetGPE:  set environment variable "OMP_PROC_BIND" = "true"
 SetGPE:  set environment variable "OMP_PLACES" = "{0},{1},{2},{3},{4},{5},{6},{7},{8},{9},{10},{11},{12},{13},{14},{15},{16},{17},{18},{19},{20},{21},{22},{23},{24},{25},{26},{27},{28},{29},{30},{31},{32},{33},{34},{35},{36},{37},{38},{39},{40},{41},{42},{43},{44},{45},{46},{47},{48},{49},{50},{51},{52},{53},{54},{55},{56},{57},{58},{59},{60},{61},{62},{63},{64},{65},{66},{67},{68},{69},{70},{71}"
 %chk=3m8m_II_O.chk
 Properties for Device   0
 Minimum vector length:                              32
 Maximum vector length:                            1024
 Number of SMPs:                                    108
 Maximum number of threads per SMP:                2048
 Number of ASync Engines:                             5
 Memory:                                           9207742464
 Properties for Device   1
 Minimum vector length:                              32
 Maximum vector length:                            1024
 Number of SMPs:                                    108
 Maximum number of threads per SMP:                2048
 Number of ASync Engines:                             5
 Memory:                                           9207742464
 Properties for Device   2
 Minimum vector length:                              32
 Maximum vector length:                            1024
 Number of SMPs:                                    108
 Maximum number of threads per SMP:                2048
 Number of ASync Engines:                             5
 Memory:                                           9207742464
 Properties for Device   3
 Minimum vector length:                              32
 Maximum vector length:                            1024
 Number of SMPs:                                    108
 Maximum number of threads per SMP:                2048
 Number of ASync Engines:                             5
 Memory:                                           9207742464
   8286968217 words of memory will be used on each GPU.
 ------------------------------------------
 # polar def2tzvp apfd int=(grid=ultrafine)
 ------------------------------------------
 1/38=1,172=1/1;
 2/12=2,17=6,18=5,40=1/2;
 3/5=44,7=101,11=2,25=1,30=1,74=-44,75=-5/1,2,3;
 4//1;
 5/5=2,38=5,98=1/2;
 8/6=4,10=90,11=11/1;
 10/6=1,13=10/2;
 6/7=2,8=2,9=2,10=2,28=1/1;
 99/5=1,9=1/99;
 ---------
 3m8m_II_S
 ---------
 Symbolic Z-matrix:
 Charge =  0 Multiplicity = 1
 Fe                    56.84862   21.21931   37.53624 
 N                     58.24017   21.58842   36.13632 
 N                     57.66018   19.43203   37.88955 
 N                     55.70671   21.02159   39.17108 
 N                     56.21742   23.12274   37.36108 
 C                     58.42317   22.73405   35.42764 
 C                     59.56173   22.61557   34.54587 
 C                     60.09014   21.38128   34.76709 
 C                     59.25222   20.75385   35.76498 
 C                     58.70649   18.85984   37.23321 
 C                     58.92326   17.51027   37.68497 
 C                     57.95409   17.25838   38.62089 
 C                     57.21054   18.49639   38.76608 
 C                     55.5809   19.90562   39.94134 
 C                     54.63211   20.11786   41.00442 
 C                     54.22997   21.42343   40.90295 
 C                     54.91173   21.96248   39.7415 
 C                     55.2117   23.71494   38.05691 
 C                     54.86537   24.99376   37.47608 
 C                     55.70601   25.17184   36.42261 
 C                     56.55284   23.99932   36.37707 
 C                     57.60819   23.84922   35.49736 
 H                     57.8177   24.66503   34.82241 
 C                     59.46638   19.47959   36.254 
 H                     60.29254   18.9235   35.83735 
 C                     56.23843   18.70711   39.72376 
 H                     55.98486   17.8809   40.37002 
 C                     54.62608   23.20216   39.19893 
 H                     53.88939   23.81152   39.70026 
 C                     61.28333   20.74031   34.14449 
 H                     61.75235   21.41044   33.42824 
 H                     61.00138   19.82498   33.62335 
 H                     62.02074   20.48161   34.90491 
 C                     60.02623   23.69119   33.62455 
 H                     60.27357   24.59456   34.18301 
 H                     59.24579   23.94259   32.90569 
 H                     60.90971   23.37573   33.07438 
 C                     60.02482   16.61758   37.22967 
 H                     60.93754   17.18711   37.06188 
 H                     59.76374   16.11682   36.29572 
 H                     60.22292   15.85698   37.98218 
 C                     57.71832   16.05534   39.38583 
 H                     57.32606   16.20209   40.38521 
 C                     57.9276   14.81421   38.95733 
 H                     58.26756   14.6008   37.95922 
 H                     57.73681   13.96158   39.58782 
 C                     54.28397   19.12369   42.05709 
 H                     55.15973   18.54494   42.34712 
 H                     53.52384   18.42802   41.69756 
 H                     53.89594   19.63202   42.93758 
 C                     53.32686   22.17582   41.74469 
 H                     53.56461   23.22765   41.85729 
 C                     52.25746   21.68704   42.36466 
 H                     51.9459   20.66368   42.24881 
 H                     51.63688   22.30667   42.99073 
 C                     53.7903   25.888    37.99142 
 H                     54.02507   26.22772   39.00067 
 H                     52.83676   25.36087   38.02677 
 H                     53.67641   26.76263   37.3556 
 C                     55.80034   26.31601   35.47229 
 H                     55.01842   27.046    35.66726 
 H                     55.69956   25.96915   34.44384 
 H                     56.765    26.81576   35.56733 
 O                     58.48     22.048    38.922 
 H                     59.214    22.255    38.343 
 H                     58.473    22.12     39.808 
 C                     52.2069   20.16987   34.66274 
 H                     52.17221   20.48743   33.62055 
 H                     51.60078   20.84888   35.25432 
 H                     51.77696   19.17034   34.72902 
 N                     54.60172   19.44252   34.58936 
 H                     54.49888   18.83767   33.79115 
 C                     53.60263   20.17931   35.16952 
 C                     55.73966   19.67683   35.28317 
 H                     56.68717   19.23388   35.05478 
 N                     55.5205   20.51692   36.26652 
 C                     54.1952   20.83723   36.20938 
 H                     53.76312   21.51562   36.91624 
 
 Stoichiometry    C34H36FeN6O
 Framework group  C1[X(C34H36FeN6O)]
 Deg. of freedom   228
 Full point group                 C1      NOp   1
 Largest Abelian subgroup         C1      NOp   1
 Largest concise Abelian subgroup C1      NOp   1
                         Standard orientation:                         
 ---------------------------------------------------------------------
 Center     Atomic      Atomic             Coordinates (Angstroms)
 Number     Number       Type             X           Y           Z
 ---------------------------------------------------------------------
      1         26           0        0.064770   -0.174322   -0.280235
      2          7           0        1.269725   -1.776177   -0.401034
      3          7           0        1.647623    1.037144   -0.349299
      4          7           0       -1.148268    1.399213   -0.541547
      5          7           0       -1.521834   -1.395337   -0.489817
      6          6           0        0.908201   -3.083393   -0.494212
      7          6           0        2.073027   -3.931243   -0.604625
      8          6           0        3.150930   -3.100818   -0.616598
      9          6           0        2.630020   -1.757638   -0.489767
     10          6           0        2.959630    0.675197   -0.373667
     11          6           0        3.815194    1.830039   -0.291405
     12          6           0        2.985429    2.915653   -0.183538
     13          6           0        1.634207    2.393677   -0.275016
     14          6           0       -0.785078    2.711692   -0.537317
     15          6           0       -1.933953    3.564529   -0.705109
     16          6           0       -3.006548    2.730799   -0.881088
     17          6           0       -2.487030    1.381342   -0.765203
     18          6           0       -2.830631   -1.031826   -0.525412
     19          6           0       -3.691126   -2.189108   -0.411655
     20          6           0       -2.867383   -3.267560   -0.330587
     21          6           0       -1.516904   -2.751989   -0.396725
     22          6           0       -0.391567   -3.553048   -0.442493
     23          1           0       -0.537743   -4.622451   -0.447975
     24          6           0        3.424226   -0.627560   -0.459360
     25          1           0        4.492786   -0.773991   -0.505298
     26          6           0        0.504112    3.182721   -0.357769
     27          1           0        0.635061    4.252388   -0.300891
     28          6           0       -3.292511    0.258920   -0.700810
     29          1           0       -4.358997    0.401021   -0.788993
     30          6           0        4.598906   -3.435887   -0.731689
     31          1           0        4.741009   -4.510029   -0.821730
     32          1           0        5.145542   -3.090510    0.146275
     33          1           0        5.034893   -2.958158   -1.609536
     34          6           0        2.023386   -5.416957   -0.712949
     35          1           0        1.447721   -5.718924   -1.588487
     36          1           0        1.548113   -5.849118    0.168196
     37          1           0        3.024356   -5.833007   -0.800758
     38          6           0        5.302555    1.804918   -0.360389
     39          1           0        5.642761    1.042810   -1.059685
     40          1           0        5.737196    1.584201    0.616109
     41          1           0        5.676415    2.771890   -0.690881
     42          6           0        3.327550    4.315054   -0.071153
     43          1           0        2.633373    5.007971   -0.531766
     44          6           0        4.395807    4.801214    0.553588
     45          1           0        5.094614    4.169265    1.072867
     46          1           0        4.592821    5.859852    0.590404
     47          6           0       -1.896168    5.050821   -0.789881
     48          1           0       -1.008138    5.385172   -1.324322
     49          1           0       -1.877823    5.495909    0.206402
     50          1           0       -2.776299    5.417765   -1.314245
     51          6           0       -4.391203    3.055615   -1.140781
     52          1           0       -4.922101    2.353507   -1.773834
     53          6           0       -5.039856    4.115538   -0.668882
     54          1           0       -4.577907    4.817565    0.003073
     55          1           0       -6.071420    4.301849   -0.918241
     56          6           0       -5.180282   -2.131920   -0.399933
     57          1           0       -5.556620   -1.743791   -1.346947
     58          1           0       -5.532928   -1.476552    0.396621
     59          1           0       -5.604442   -3.120958   -0.244638
     60          6           0       -3.211986   -4.712222   -0.206788
     61          1           0       -4.286705   -4.846464   -0.110535
     62          1           0       -2.730351   -5.147308    0.668951
     63          1           0       -2.876666   -5.263807   -1.085806
     64          8           0        0.243865   -0.264245   -2.566777
     65          1           0        0.819854   -1.009240   -2.740169
     66          1           0       -0.094500    0.290760   -3.173166
     67          6           0       -1.616093   -0.075376    5.017770
     68          1           0       -1.501574   -0.987278    5.603878
     69          1           0       -2.663621    0.043262    4.758895
     70          1           0       -1.311917    0.768442    5.637238
     71          7           0        0.555702   -0.326601    3.797204
     72          1           0        1.123401   -0.430648    4.622101
     73          6           0       -0.801815   -0.141115    3.777768
     74          6           0        0.985693   -0.342581    2.514221
     75          1           0        2.007461   -0.472613    2.222296
     76          7           0       -0.017528   -0.178501    1.685134
     77          6           0       -1.135878   -0.050371    2.456608
     78          1           0       -2.097672    0.096655    2.009513
 ---------------------------------------------------------------------
 Rotational constants (GHZ):           0.0928230           0.0906640           0.0594105
 Standard basis: def2TZVP (5D, 7F)
 There are  1744 symmetry adapted cartesian basis functions of A   symmetry.
 There are  1532 symmetry adapted basis functions of A   symmetry.
  1532 basis functions,  2481 primitive gaussians,  1744 cartesian basis functions
   158 alpha electrons      158 beta electrons
       nuclear repulsion energy      5959.5199548331 Hartrees.
 NAtoms=   78 NActive=   78 NUniq=   78 SFac= 1.00D+00 NAtFMM=   60 NAOKFM=T Big=T
 Integral buffers will be    131072 words long.
 Raffenetti 2 integral format.
 Two-electron integral symmetry is turned on.
 R6APFD:  NTU= -4 IXU= 1 FactS= 1.050
 Nuclear repulsion after empirical dispersion term =     5959.3678781628 Hartrees.
 One-electron integrals computed using PRISM.
   1 Symmetry operations used in ECPInt.
 ECPInt:  NShTT=  186355 NPrTT=  576197 LenC2=  147056 LenP2D=  300831.
 LDataN:  DoStor=T MaxTD1= 6 Len=  172
 Number of processors reduced to  23 by ecpmxn.
 NBasis=  1532 RedAO= T EigKep=  3.30D-06  NBF=  1532
 NBsUse=  1532 1.00D-06 EigRej= -1.00D+00 NBFU=  1532
 ExpMin= 4.20D-02 ExpMax= 3.01D+05 ExpMxC= 2.91D+03 IAcc=3 IRadAn=         5 AccDes= 0.00D+00
 Harris functional with IExCor= 3731 and IRadAn=       5 diagonalized for initial guess.
 HarFok:  IExCor= 3731 AccDes= 0.00D+00 IRadAn=         5 IDoV= 1 UseB2=F ITyADJ=14
 ICtDFT=  3500011 ScaDFX=  1.000000  1.000000  1.000000  1.000000
 FoFCou: FMM=F IPFlag=           0 FMFlag=      100000 FMFlg1=        2001
         NFxFlg=           0 DoJE=T BraDBF=F KetDBF=T FulRan=T
         wScrn=  0.000000 ICntrl=       500 IOpCl=  0 I1Cent=   200000004 NGrid=           0
         NMat0=    1 NMatS0=      1 NMatT0=    0 NMatD0=    1 NMtDS0=    0 NMtDT0=    0
 Petite list used in FoFCou.
 Requested convergence on RMS density matrix=1.00D-08 within 128 cycles.
 Requested convergence on MAX density matrix=1.00D-06.
 Requested convergence on             energy=1.00D-06.
 No special actions if energy rises.
 EnCoef did     4 forward-backward iterations
 EnCoef did   100 forward-backward iterations
 EnCoef did   100 forward-backward iterations
 EnCoef did     7 forward-backward iterations
 EnCoef did     6 forward-backward iterations
 EnCoef did     6 forward-backward iterations
 EnCoef did     2 forward-backward iterations
 Restarting incremental Fock formation.
 SCF Done:  E(RAPFD) =  -2984.02265972     A.U. after   28 cycles
            NFock= 28  Conv=0.18D-08     -V/T= 2.0034
 DoSCS=F DFT=T ScalE2(SS,OS)=  1.000000  1.000000
 Range of M.O.s used for correlation:     1  1532
 NBasis=  1532 NAE=   158 NBE=   158 NFC=     0 NFV=     0
 NROrb=   1532 NOA=   158 NOB=   158 NVA=  1374 NVB=  1374

 **** Warning!!: The largest alpha MO coefficient is  0.58734652D+02

          Differentiating once with respect to electric field.
                with respect to dipole field.
          Electric field/nuclear overlap derivatives assumed to be zero.
          There are     3 degrees of freedom in the 1st order CPHF.  IDoFFX=0 NUNeed=     3.
      3 vectors produced by pass  0 Test12= 7.24D-12 3.33D-08 XBig12= 1.86D+03 2.80D+01.
 AX will form     3 AO Fock derivatives at one time.
      3 vectors produced by pass  1 Test12= 7.24D-12 3.33D-08 XBig12= 1.22D+03 9.71D+00.
      3 vectors produced by pass  2 Test12= 7.24D-12 3.33D-08 XBig12= 3.27D+02 5.54D+00.
      3 vectors produced by pass  3 Test12= 7.24D-12 3.33D-08 XBig12= 2.81D+02 3.62D+00.
      3 vectors produced by pass  4 Test12= 7.24D-12 3.33D-08 XBig12= 1.69D+02 2.34D+00.
      3 vectors produced by pass  5 Test12= 7.24D-12 3.33D-08 XBig12= 6.99D+01 1.97D+00.
      3 vectors produced by pass  6 Test12= 7.24D-12 3.33D-08 XBig12= 5.45D+01 1.73D+00.
      3 vectors produced by pass  7 Test12= 7.24D-12 3.33D-08 XBig12= 2.78D+01 1.32D+00.
      3 vectors produced by pass  8 Test12= 7.24D-12 3.33D-08 XBig12= 1.71D+01 8.99D-01.
      3 vectors produced by pass  9 Test12= 7.24D-12 3.33D-08 XBig12= 8.08D+00 5.98D-01.
      3 vectors produced by pass 10 Test12= 7.24D-12 3.33D-08 XBig12= 4.48D+00 3.94D-01.
      3 vectors produced by pass 11 Test12= 7.24D-12 3.33D-08 XBig12= 1.52D+00 1.53D-01.
      3 vectors produced by pass 12 Test12= 7.24D-12 3.33D-08 XBig12= 5.69D-01 1.25D-01.
      3 vectors produced by pass 13 Test12= 7.24D-12 3.33D-08 XBig12= 1.54D-01 1.06D-01.
      3 vectors produced by pass 14 Test12= 7.24D-12 3.33D-08 XBig12= 1.06D-01 9.01D-02.
      3 vectors produced by pass 15 Test12= 7.24D-12 3.33D-08 XBig12= 4.05D-02 5.11D-02.
      3 vectors produced by pass 16 Test12= 7.24D-12 3.33D-08 XBig12= 1.34D-02 1.93D-02.
      3 vectors produced by pass 17 Test12= 7.24D-12 3.33D-08 XBig12= 3.75D-03 1.47D-02.
      3 vectors produced by pass 18 Test12= 7.24D-12 3.33D-08 XBig12= 9.92D-04 7.35D-03.
      3 vectors produced by pass 19 Test12= 7.24D-12 3.33D-08 XBig12= 2.69D-04 3.70D-03.
      3 vectors produced by pass 20 Test12= 7.24D-12 3.33D-08 XBig12= 5.66D-05 1.58D-03.
      3 vectors produced by pass 21 Test12= 7.24D-12 3.33D-08 XBig12= 2.32D-05 9.67D-04.
      3 vectors produced by pass 22 Test12= 7.24D-12 3.33D-08 XBig12= 6.07D-06 3.66D-04.
      3 vectors produced by pass 23 Test12= 7.24D-12 3.33D-08 XBig12= 1.10D-06 1.68D-04.
      3 vectors produced by pass 24 Test12= 7.24D-12 3.33D-08 XBig12= 1.86D-07 6.07D-05.
      3 vectors produced by pass 25 Test12= 7.24D-12 3.33D-08 XBig12= 3.42D-08 2.77D-05.
      3 vectors produced by pass 26 Test12= 7.24D-12 3.33D-08 XBig12= 5.89D-09 9.74D-06.
      3 vectors produced by pass 27 Test12= 7.24D-12 3.33D-08 XBig12= 6.89D-10 3.44D-06.
      3 vectors produced by pass 28 Test12= 7.24D-12 3.33D-08 XBig12= 1.39D-10 1.89D-06.
      3 vectors produced by pass 29 Test12= 7.24D-12 3.33D-08 XBig12= 2.18D-11 9.02D-07.
      3 vectors produced by pass 30 Test12= 7.24D-12 3.33D-08 XBig12= 2.91D-12 4.40D-07.
      2 vectors produced by pass 31 Test12= 7.24D-12 3.33D-08 XBig12= 3.93D-13 1.74D-07.
      1 vectors produced by pass 32 Test12= 7.24D-12 3.33D-08 XBig12= 6.73D-14 7.10D-08.
 InvSVY:  IOpt=1 It=  1 EMax= 2.84D-14
 Solved reduced A of dimension    96 with     3 vectors.
 Isotropic polarizability for W=    0.000000      576.44 Bohr**3.
 End of Minotr F.D. properties file   721 does not exist.
 End of Minotr F.D. properties file   722 does not exist.
 End of Minotr F.D. properties file   788 does not exist.

 **********************************************************************

            Population analysis using the SCF Density.

 **********************************************************************

 Orbital symmetries:
       Occupied  (A) (A) (A) (A) (A) (A) (A) (A) (A) (A) (A) (A)
                 (A) (A) (A) (A) (A) (A) (A) (A) (A) (A) (A) (A)
                 (A) (A) (A) (A) (A) (A) (A) (A) (A) (A) (A) (A)
                 (A) (A) (A) (A) (A) (A) (A) (A) (A) (A) (A) (A)
                 (A) (A) (A) (A) (A) (A) (A) (A) (A) (A) (A) (A)
                 (A) (A) (A) (A) (A) (A) (A) (A) (A) (A) (A) (A)
                 (A) (A) (A) (A) (A) (A) (A) (A) (A) (A) (A) (A)
                 (A) (A) (A) (A) (A) (A) (A) (A) (A) (A) (A) (A)
                 (A) (A) (A) (A) (A) (A) (A) (A) (A) (A) (A) (A)
                 (A) (A) (A) (A) (A) (A) (A) (A) (A) (A) (A) (A)
                 (A) (A) (A) (A) (A) (A) (A) (A) (A) (A) (A) (A)
                 (A) (A) (A) (A) (A) (A) (A) (A) (A) (A) (A) (A)
                 (A) (A) (A) (A) (A) (A) (A) (A) (A) (A) (A) (A)
                 (A) (A)
       Virtual   (A) (A) (A) (A) (A) (A) (A) (A) (A) (A) (A) (A)
                 (A) (A) (A) (A) (A) (A) (A) (A) (A) (A) (A) (A)
                 (A) (A) (A) (A) (A) (A) (A) (A) (A) (A) (A) (A)
                 (A) (A) (A) (A) (A) (A) (A) (A) (A) (A) (A) (A)
                 (A) (A) (A) (A) (A) (A) (A) (A) (A) (A) (A) (A)
                 (A) (A) (A) (A) (A) (A) (A) (A) (A) (A) (A) (A)
                 (A) (A) (A) (A) (A) (A) (A) (A) (A) (A) (A) (A)
                 (A) (A) (A) (A) (A) (A) (A) (A) (A) (A) (A) (A)
                 (A) (A) (A) (A) (A) (A) (A) (A) (A) (A) (A) (A)
                 (A) (A) (A) (A) (A) (A) (A) (A) (A) (A) (A) (A)
                 (A) (A) (A) (A) (A) (A) (A) (A) (A) (A) (A) (A)
                 (A) (A) (A) (A) (A) (A) (A) (A) (A) (A) (A) (A)
                 (A) (A) (A) (A) (A) (A) (A) (A) (A) (A) (A) (A)
                 (A) (A) (A) (A) (A) (A) (A) (A) (A) (A) (A) (A)
                 (A) (A) (A) (A) (A) (A) (A) (A) (A) (A) (A) (A)
                 (A) (A) (A) (A) (A) (A) (A) (A) (A) (A) (A) (A)
                 (A) (A) (A) (A) (A) (A) (A) (A) (A) (A) (A) (A)
                 (A) (A) (A) (A) (A) (A) (A) (A) (A) (A) (A) (A)
                 (A) (A) (A) (A) (A) (A) (A) (A) (A) (A) (A) (A)
                 (A) (A) (A) (A) (A) (A) (A) (A) (A) (A) (A) (A)
                 (A) (A) (A) (A) (A) (A) (A) (A) (A) (A) (A) (A)
                 (A) (A) (A) (A) (A) (A) (A) (A) (A) (A) (A) (A)
                 (A) (A) (A) (A) (A) (A) (A) (A) (A) (A) (A) (A)
                 (A) (A) (A) (A) (A) (A) (A) (A) (A) (A) (A) (A)
                 (A) (A) (A) (A) (A) (A) (A) (A) (A) (A) (A) (A)
                 (A) (A) (A) (A) (A) (A) (A) (A) (A) (A) (A) (A)
                 (A) (A) (A) (A) (A) (A) (A) (A) (A) (A) (A) (A)
                 (A) (A) (A) (A) (A) (A) (A) (A) (A) (A) (A) (A)
                 (A) (A) (A) (A) (A) (A) (A) (A) (A) (A) (A) (A)
                 (A) (A) (A) (A) (A) (A) (A) (A) (A) (A) (A) (A)
                 (A) (A) (A) (A) (A) (A) (A) (A) (A) (A) (A) (A)
                 (A) (A) (A) (A) (A) (A) (A) (A) (A) (A) (A) (A)
                 (A) (A) (A) (A) (A) (A) (A) (A) (A) (A) (A) (A)
                 (A) (A) (A) (A) (A) (A) (A) (A) (A) (A) (A) (A)
                 (A) (A) (A) (A) (A) (A) (A) (A) (A) (A) (A) (A)
                 (A) (A) (A) (A) (A) (A) (A) (A) (A) (A) (A) (A)
                 (A) (A) (A) (A) (A) (A) (A) (A) (A) (A) (A) (A)
                 (A) (A) (A) (A) (A) (A) (A) (A) (A) (A) (A) (A)
                 (A) (A) (A) (A) (A) (A) (A) (A) (A) (A) (A) (A)
                 (A) (A) (A) (A) (A) (A) (A) (A) (A) (A) (A) (A)
                 (A) (A) (A) (A) (A) (A) (A) (A) (A) (A) (A) (A)
                 (A) (A) (A) (A) (A) (A) (A) (A) (A) (A) (A) (A)
                 (A) (A) (A) (A) (A) (A) (A) (A) (A) (A) (A) (A)
                 (A) (A) (A) (A) (A) (A) (A) (A) (A) (A) (A) (A)
                 (A) (A) (A) (A) (A) (A) (A) (A) (A) (A) (A) (A)
                 (A) (A) (A) (A) (A) (A) (A) (A) (A) (A) (A) (A)
                 (A) (A) (A) (A) (A) (A) (A) (A) (A) (A) (A) (A)
                 (A) (A) (A) (A) (A) (A) (A) (A) (A) (A) (A) (A)
                 (A) (A) (A) (A) (A) (A) (A) (A) (A) (A) (A) (A)
                 (A) (A) (A) (A) (A) (A) (A) (A) (A) (A) (A) (A)
                 (A) (A) (A) (A) (A) (A) (A) (A) (A) (A) (A) (A)
                 (A) (A) (A) (A) (A) (A) (A) (A) (A) (A) (A) (A)
                 (A) (A) (A) (A) (A) (A) (A) (A) (A) (A) (A) (A)
                 (A) (A) (A) (A) (A) (A) (A) (A) (A) (A) (A) (A)
                 (A) (A) (A) (A) (A) (A) (A) (A) (A) (A) (A) (A)
                 (A) (A) (A) (A) (A) (A) (A) (A) (A) (A) (A) (A)
                 (A) (A) (A) (A) (A) (A) (A) (A) (A) (A) (A) (A)
                 (A) (A) (A) (A) (A) (A) (A) (A) (A) (A) (A) (A)
                 (A) (A) (A) (A) (A) (A) (A) (A) (A) (A) (A) (A)
                 (A) (A) (A) (A) (A) (A) (A) (A) (A) (A) (A) (A)
                 (A) (A) (A) (A) (A) (A) (A) (A) (A) (A) (A) (A)
                 (A) (A) (A) (A) (A) (A) (A) (A) (A) (A) (A) (A)
                 (A) (A) (A) (A) (A) (A) (A) (A) (A) (A) (A) (A)
                 (A) (A) (A) (A) (A) (A) (A) (A) (A) (A) (A) (A)
                 (A) (A) (A) (A) (A) (A) (A) (A) (A) (A) (A) (A)
                 (A) (A) (A) (A) (A) (A) (A) (A) (A) (A) (A) (A)
                 (A) (A) (A) (A) (A) (A) (A) (A) (A) (A) (A) (A)
                 (A) (A) (A) (A) (A) (A) (A) (A) (A) (A) (A) (A)
                 (A) (A) (A) (A) (A) (A) (A) (A) (A) (A) (A) (A)
                 (A) (A) (A) (A) (A) (A) (A) (A) (A) (A) (A) (A)
                 (A) (A) (A) (A) (A) (A) (A) (A) (A) (A) (A) (A)
                 (A) (A) (A) (A) (A) (A) (A) (A) (A) (A) (A) (A)
                 (A) (A) (A) (A) (A) (A) (A) (A) (A) (A) (A) (A)
                 (A) (A) (A) (A) (A) (A) (A) (A) (A) (A) (A) (A)
                 (A) (A) (A) (A) (A) (A) (A) (A) (A) (A) (A) (A)
                 (A) (A) (A) (A) (A) (A) (A) (A) (A) (A) (A) (A)
                 (A) (A) (A) (A) (A) (A) (A) (A) (A) (A) (A) (A)
                 (A) (A) (A) (A) (A) (A) (A) (A) (A) (A) (A) (A)
                 (A) (A) (A) (A) (A) (A) (A) (A) (A) (A) (A) (A)
                 (A) (A) (A) (A) (A) (A) (A) (A) (A) (A) (A) (A)
                 (A) (A) (A) (A) (A) (A) (A) (A) (A) (A) (A) (A)
                 (A) (A) (A) (A) (A) (A) (A) (A) (A) (A) (A) (A)
                 (A) (A) (A) (A) (A) (A) (A) (A) (A) (A) (A) (A)
                 (A) (A) (A) (A) (A) (A) (A) (A) (A) (A) (A) (A)
                 (A) (A) (A) (A) (A) (A) (A) (A) (A) (A) (A) (A)
                 (A) (A) (A) (A) (A) (A) (A) (A) (A) (A) (A) (A)
                 (A) (A) (A) (A) (A) (A) (A) (A) (A) (A) (A) (A)
                 (A) (A) (A) (A) (A) (A) (A) (A) (A) (A) (A) (A)
                 (A) (A) (A) (A) (A) (A) (A) (A) (A) (A) (A) (A)
                 (A) (A) (A) (A) (A) (A) (A) (A) (A) (A) (A) (A)
                 (A) (A) (A) (A) (A) (A) (A) (A) (A) (A) (A) (A)
                 (A) (A) (A) (A) (A) (A) (A) (A) (A) (A) (A) (A)
                 (A) (A) (A) (A) (A) (A) (A) (A) (A) (A) (A) (A)
                 (A) (A) (A) (A) (A) (A) (A) (A) (A) (A) (A) (A)
                 (A) (A) (A) (A) (A) (A) (A) (A) (A) (A) (A) (A)
                 (A) (A) (A) (A) (A) (A) (A) (A) (A) (A) (A) (A)
                 (A) (A) (A) (A) (A) (A) (A) (A) (A) (A) (A) (A)
                 (A) (A) (A) (A) (A) (A) (A) (A) (A) (A) (A) (A)
                 (A) (A) (A) (A) (A) (A) (A) (A) (A) (A) (A) (A)
                 (A) (A) (A) (A) (A) (A) (A) (A) (A) (A) (A) (A)
                 (A) (A) (A) (A) (A) (A) (A) (A) (A) (A) (A) (A)
                 (A) (A) (A) (A) (A) (A) (A) (A) (A) (A) (A) (A)
                 (A) (A) (A) (A) (A) (A) (A) (A) (A) (A) (A) (A)
                 (A) (A) (A) (A) (A) (A) (A) (A) (A) (A) (A) (A)
                 (A) (A) (A) (A) (A) (A) (A) (A) (A) (A) (A) (A)
                 (A) (A) (A) (A) (A) (A) (A) (A) (A) (A) (A) (A)
                 (A) (A) (A) (A) (A) (A) (A) (A) (A) (A) (A) (A)
                 (A) (A) (A) (A) (A) (A) (A) (A) (A) (A) (A) (A)
                 (A) (A) (A) (A) (A) (A) (A) (A) (A) (A) (A) (A)
                 (A) (A) (A) (A) (A) (A) (A) (A) (A) (A) (A) (A)
                 (A) (A) (A) (A) (A) (A) (A) (A) (A) (A) (A) (A)
                 (A) (A) (A) (A) (A) (A) (A) (A) (A) (A) (A) (A)
                 (A) (A) (A) (A) (A) (A) (A) (A) (A) (A) (A) (A)
                 (A) (A) (A) (A) (A) (A) (A) (A) (A) (A) (A) (A)
                 (A) (A) (A) (A) (A) (A)
 The electronic state is 1-A.
 Alpha  occ. eigenvalues -- -256.17473 -30.02458 -25.86627 -25.86235 -25.86181
 Alpha  occ. eigenvalues --  -19.16391 -14.41828 -14.36656 -14.33182 -14.33098
 Alpha  occ. eigenvalues --  -14.33026 -14.32641 -10.25563 -10.23823 -10.21154
 Alpha  occ. eigenvalues --  -10.20910 -10.20766 -10.20719 -10.20706 -10.20692
 Alpha  occ. eigenvalues --  -10.20661 -10.20510 -10.20441 -10.20392 -10.19419
 Alpha  occ. eigenvalues --  -10.19386 -10.18826 -10.18753 -10.18743 -10.18682
 Alpha  occ. eigenvalues --  -10.18649 -10.18572 -10.18434 -10.18418 -10.18365
 Alpha  occ. eigenvalues --  -10.18357 -10.18343 -10.18328 -10.18251 -10.18242
 Alpha  occ. eigenvalues --  -10.18164 -10.18117 -10.18092 -10.18059 -10.17973
 Alpha  occ. eigenvalues --  -10.17963  -3.40062  -2.16707  -2.15935  -2.15834
 Alpha  occ. eigenvalues --   -1.05398  -1.04284  -0.96664  -0.95807  -0.95610
 Alpha  occ. eigenvalues --   -0.94717  -0.91035  -0.82018  -0.81654  -0.81343
 Alpha  occ. eigenvalues --   -0.80602  -0.80333  -0.80175  -0.79362  -0.79287
 Alpha  occ. eigenvalues --   -0.76552  -0.75487  -0.74137  -0.73714  -0.73011
 Alpha  occ. eigenvalues --   -0.71903  -0.70777  -0.69920  -0.68152  -0.67716
 Alpha  occ. eigenvalues --   -0.67621  -0.64667  -0.63936  -0.63843  -0.61373
 Alpha  occ. eigenvalues --   -0.60447  -0.59868  -0.59800  -0.57606  -0.56376
 Alpha  occ. eigenvalues --   -0.55997  -0.54314  -0.53438  -0.53097  -0.52399
 Alpha  occ. eigenvalues --   -0.50887  -0.50823  -0.50322  -0.48561  -0.47867
 Alpha  occ. eigenvalues --   -0.47689  -0.47540  -0.47062  -0.44824  -0.44643
 Alpha  occ. eigenvalues --   -0.44377  -0.44336  -0.43940  -0.43428  -0.43334
 Alpha  occ. eigenvalues --   -0.43302  -0.43108  -0.42950  -0.42802  -0.42528
 Alpha  occ. eigenvalues --   -0.42481  -0.42218  -0.41749  -0.41523  -0.41455
 Alpha  occ. eigenvalues --   -0.41157  -0.40723  -0.40157  -0.40004  -0.39959
 Alpha  occ. eigenvalues --   -0.39362  -0.39238  -0.39068  -0.38770  -0.38376
 Alpha  occ. eigenvalues --   -0.38081  -0.37599  -0.37291  -0.36985  -0.36805
 Alpha  occ. eigenvalues --   -0.36207  -0.35767  -0.35349  -0.35147  -0.34210
 Alpha  occ. eigenvalues --   -0.33946  -0.33806  -0.33428  -0.33349  -0.31865
 Alpha  occ. eigenvalues --   -0.31637  -0.30498  -0.30258  -0.29553  -0.28870
 Alpha  occ. eigenvalues --   -0.28616  -0.26542  -0.26411  -0.24428  -0.23654
 Alpha  occ. eigenvalues --   -0.23202  -0.22448  -0.21818  -0.19112  -0.18227
 Alpha  occ. eigenvalues --   -0.17747  -0.17642  -0.17442
 Alpha virt. eigenvalues --   -0.06342  -0.06269  -0.01842   0.00742   0.01271
 Alpha virt. eigenvalues --    0.01395   0.02457   0.02946   0.03686   0.04676
 Alpha virt. eigenvalues --    0.04903   0.05026   0.05392   0.05856   0.06146
 Alpha virt. eigenvalues --    0.06418   0.06504   0.07084   0.08031   0.08176
 Alpha virt. eigenvalues --    0.08411   0.08949   0.09210   0.09473   0.09709
 Alpha virt. eigenvalues --    0.09948   0.10253   0.10547   0.11334   0.11553
 Alpha virt. eigenvalues --    0.11657   0.11833   0.11900   0.12116   0.12321
 Alpha virt. eigenvalues --    0.12569   0.12944   0.13234   0.13454   0.13575
 Alpha virt. eigenvalues --    0.13683   0.14384   0.14435   0.14654   0.14793
 Alpha virt. eigenvalues --    0.14968   0.15125   0.15462   0.15554   0.15765
 Alpha virt. eigenvalues --    0.15902   0.16083   0.16174   0.16388   0.16630
 Alpha virt. eigenvalues --    0.17118   0.17239   0.17456   0.17791   0.17908
 Alpha virt. eigenvalues --    0.18301   0.18826   0.19328   0.19714   0.19998
 Alpha virt. eigenvalues --    0.20074   0.20174   0.20436   0.20589   0.20963
 Alpha virt. eigenvalues --    0.21182   0.21404   0.21656   0.21976   0.22346
 Alpha virt. eigenvalues --    0.22505   0.22867   0.23214   0.23513   0.23912
 Alpha virt. eigenvalues --    0.24330   0.24585   0.25029   0.25272   0.25493
 Alpha virt. eigenvalues --    0.25862   0.25921   0.26543   0.26618   0.26930
 Alpha virt. eigenvalues --    0.27216   0.27326   0.27449   0.27861   0.28321
 Alpha virt. eigenvalues --    0.28501   0.28795   0.29101   0.29152   0.29530
 Alpha virt. eigenvalues --    0.29662   0.30189   0.30228   0.30346   0.30676
 Alpha virt. eigenvalues --    0.30928   0.31361   0.31518   0.31565   0.32118
 Alpha virt. eigenvalues --    0.32305   0.32635   0.32970   0.33212   0.33571
 Alpha virt. eigenvalues --    0.33765   0.34125   0.34482   0.34617   0.34811
 Alpha virt. eigenvalues --    0.35417   0.35708   0.36009   0.36215   0.36419
 Alpha virt. eigenvalues --    0.36629   0.36921   0.37173   0.37505   0.37614
 Alpha virt. eigenvalues --    0.37854   0.38112   0.38307   0.38817   0.39004
 Alpha virt. eigenvalues --    0.39155   0.39573   0.39691   0.39794   0.40138
 Alpha virt. eigenvalues --    0.40286   0.40464   0.40691   0.40927   0.41135
 Alpha virt. eigenvalues --    0.41366   0.41624   0.41837   0.42105   0.42196
 Alpha virt. eigenvalues --    0.42323   0.42710   0.42755   0.43187   0.43365
 Alpha virt. eigenvalues --    0.43583   0.43695   0.43954   0.44102   0.44393
 Alpha virt. eigenvalues --    0.44707   0.44929   0.45010   0.45288   0.45595
 Alpha virt. eigenvalues --    0.45748   0.46001   0.46447   0.46574   0.46783
 Alpha virt. eigenvalues --    0.47080   0.47228   0.47464   0.47531   0.47717
 Alpha virt. eigenvalues --    0.47860   0.47925   0.48340   0.48491   0.48754
 Alpha virt. eigenvalues --    0.49283   0.49417   0.49504   0.49637   0.49997
 Alpha virt. eigenvalues --    0.50054   0.50233   0.50582   0.50847   0.51142
 Alpha virt. eigenvalues --    0.51175   0.51499   0.51689   0.51969   0.52053
 Alpha virt. eigenvalues --    0.52345   0.52652   0.52807   0.52970   0.53072
 Alpha virt. eigenvalues --    0.53526   0.53629   0.54069   0.54334   0.54392
 Alpha virt. eigenvalues --    0.54798   0.55062   0.55611   0.55775   0.56083
 Alpha virt. eigenvalues --    0.56242   0.56360   0.56590   0.56896   0.57111
 Alpha virt. eigenvalues --    0.57621   0.57815   0.58009   0.58229   0.58463
 Alpha virt. eigenvalues --    0.58597   0.59175   0.59236   0.59520   0.60033
 Alpha virt. eigenvalues --    0.60453   0.60851   0.61262   0.61515   0.61803
 Alpha virt. eigenvalues --    0.62040   0.62193   0.62644   0.63172   0.63411
 Alpha virt. eigenvalues --    0.63534   0.63926   0.64328   0.64517   0.64955
 Alpha virt. eigenvalues --    0.65128   0.65585   0.65845   0.66155   0.66320
 Alpha virt. eigenvalues --    0.66504   0.66655   0.66940   0.67212   0.67637
 Alpha virt. eigenvalues --    0.67918   0.68026   0.68763   0.69103   0.69715
 Alpha virt. eigenvalues --    0.69901   0.70351   0.70795   0.71112   0.71239
 Alpha virt. eigenvalues --    0.71403   0.71713   0.71763   0.72135   0.72653
 Alpha virt. eigenvalues --    0.73225   0.73470   0.73506   0.73860   0.74126
 Alpha virt. eigenvalues --    0.74598   0.74769   0.75113   0.75604   0.75714
 Alpha virt. eigenvalues --    0.76422   0.76662   0.77065   0.77320   0.77646
 Alpha virt. eigenvalues --    0.77819   0.78234   0.78391   0.79014   0.79250
 Alpha virt. eigenvalues --    0.79647   0.80068   0.80087   0.80313   0.80450
 Alpha virt. eigenvalues --    0.80571   0.80902   0.81418   0.81532   0.82193
 Alpha virt. eigenvalues --    0.82448   0.83238   0.83876   0.84230   0.84581
 Alpha virt. eigenvalues --    0.85151   0.85606   0.85682   0.85866   0.86335
 Alpha virt. eigenvalues --    0.86938   0.87270   0.87622   0.88175   0.88609
 Alpha virt. eigenvalues --    0.88640   0.89296   0.89447   0.90086   0.90477
 Alpha virt. eigenvalues --    0.91052   0.91571   0.91662   0.91926   0.92523
 Alpha virt. eigenvalues --    0.92792   0.93281   0.93593   0.93970   0.94614
 Alpha virt. eigenvalues --    0.94837   0.95077   0.95592   0.95656   0.96063
 Alpha virt. eigenvalues --    0.96365   0.96843   0.97021   0.97540   0.97884
 Alpha virt. eigenvalues --    0.98230   0.98930   0.98995   0.99518   0.99575
 Alpha virt. eigenvalues --    1.00165   1.00547   1.00614   1.01095   1.01657
 Alpha virt. eigenvalues --    1.02230   1.02296   1.02568   1.02611   1.03088
 Alpha virt. eigenvalues --    1.03128   1.03156   1.03725   1.03963   1.04285
 Alpha virt. eigenvalues --    1.04401   1.04733   1.04998   1.05489   1.05843
 Alpha virt. eigenvalues --    1.06259   1.06544   1.06884   1.07304   1.08136
 Alpha virt. eigenvalues --    1.08435   1.08578   1.09074   1.09388   1.10021
 Alpha virt. eigenvalues --    1.10158   1.10649   1.11369   1.11665   1.12152
 Alpha virt. eigenvalues --    1.12449   1.12862   1.13360   1.13934   1.14284
 Alpha virt. eigenvalues --    1.14620   1.15022   1.16309   1.16401   1.16627
 Alpha virt. eigenvalues --    1.17373   1.17484   1.17644   1.18162   1.18825
 Alpha virt. eigenvalues --    1.18862   1.19498   1.19752   1.19935   1.20128
 Alpha virt. eigenvalues --    1.20737   1.21098   1.21524   1.21863   1.22129
 Alpha virt. eigenvalues --    1.22669   1.22719   1.23140   1.23973   1.24162
 Alpha virt. eigenvalues --    1.24743   1.25407   1.25723   1.26534   1.27147
 Alpha virt. eigenvalues --    1.27382   1.28027   1.28107   1.28344   1.28934
 Alpha virt. eigenvalues --    1.29079   1.29301   1.29793   1.29863   1.30406
 Alpha virt. eigenvalues --    1.30948   1.31248   1.31501   1.31837   1.32046
 Alpha virt. eigenvalues --    1.32374   1.33146   1.33424   1.33955   1.34269
 Alpha virt. eigenvalues --    1.35239   1.36543   1.36710   1.37167   1.37563
 Alpha virt. eigenvalues --    1.37892   1.38477   1.39080   1.39660   1.40346
 Alpha virt. eigenvalues --    1.40778   1.41686   1.41904   1.42213   1.43336
 Alpha virt. eigenvalues --    1.43552   1.44349   1.44556   1.45184   1.45680
 Alpha virt. eigenvalues --    1.45765   1.46162   1.46811   1.47290   1.47506
 Alpha virt. eigenvalues --    1.47835   1.48273   1.48548   1.48777   1.49058
 Alpha virt. eigenvalues --    1.49489   1.49691   1.49961   1.50307   1.50732
 Alpha virt. eigenvalues --    1.50881   1.51148   1.51516   1.51602   1.51992
 Alpha virt. eigenvalues --    1.52298   1.52539   1.52656   1.52930   1.53254
 Alpha virt. eigenvalues --    1.54022   1.54146   1.54163   1.54534   1.54860
 Alpha virt. eigenvalues --    1.55118   1.55307   1.55381   1.55644   1.55922
 Alpha virt. eigenvalues --    1.56069   1.56468   1.56656   1.56977   1.57166
 Alpha virt. eigenvalues --    1.57826   1.58039   1.58251   1.58517   1.58787
 Alpha virt. eigenvalues --    1.59143   1.59311   1.59601   1.60081   1.60301
 Alpha virt. eigenvalues --    1.60403   1.60786   1.61357   1.61654   1.62219
 Alpha virt. eigenvalues --    1.62675   1.62712   1.63049   1.63138   1.63226
 Alpha virt. eigenvalues --    1.63694   1.63820   1.64410   1.64744   1.64970
 Alpha virt. eigenvalues --    1.65198   1.65589   1.65797   1.66192   1.66334
 Alpha virt. eigenvalues --    1.66417   1.67021   1.67338   1.67766   1.68395
 Alpha virt. eigenvalues --    1.68820   1.69421   1.69558   1.69846   1.70147
 Alpha virt. eigenvalues --    1.70446   1.70680   1.70892   1.71725   1.71848
 Alpha virt. eigenvalues --    1.72072   1.72692   1.73062   1.73427   1.73696
 Alpha virt. eigenvalues --    1.74820   1.75039   1.75236   1.75593   1.76567
 Alpha virt. eigenvalues --    1.77347   1.78117   1.78759   1.79088   1.79551
 Alpha virt. eigenvalues --    1.80436   1.80972   1.81227   1.81491   1.82019
 Alpha virt. eigenvalues --    1.82858   1.83072   1.83370   1.83833   1.84130
 Alpha virt. eigenvalues --    1.84450   1.85010   1.85453   1.85680   1.85960
 Alpha virt. eigenvalues --    1.86292   1.86584   1.86945   1.87695   1.87980
 Alpha virt. eigenvalues --    1.88310   1.88604   1.89480   1.90100   1.90973
 Alpha virt. eigenvalues --    1.91158   1.91521   1.92030   1.92875   1.92919
 Alpha virt. eigenvalues --    1.93566   1.94066   1.94415   1.95187   1.95202
 Alpha virt. eigenvalues --    1.95886   1.96039   1.96375   1.96916   1.97661
 Alpha virt. eigenvalues --    1.98808   1.99098   1.99305   1.99829   2.00096
 Alpha virt. eigenvalues --    2.00298   2.00740   2.01147   2.01605   2.01771
 Alpha virt. eigenvalues --    2.02583   2.02901   2.03320   2.04312   2.04386
 Alpha virt. eigenvalues --    2.04953   2.05239   2.06033   2.06493   2.06962
 Alpha virt. eigenvalues --    2.07278   2.08510   2.08590   2.08880   2.09185
 Alpha virt. eigenvalues --    2.09425   2.09739   2.10507   2.11056   2.11245
 Alpha virt. eigenvalues --    2.11720   2.12341   2.12650   2.12845   2.13474
 Alpha virt. eigenvalues --    2.14013   2.14502   2.14789   2.15429   2.16164
 Alpha virt. eigenvalues --    2.16450   2.16973   2.17521   2.18043   2.18404
 Alpha virt. eigenvalues --    2.18755   2.18944   2.19102   2.19718   2.19930
 Alpha virt. eigenvalues --    2.20718   2.20956   2.21593   2.21946   2.21975
 Alpha virt. eigenvalues --    2.22839   2.24260   2.24381   2.24988   2.25532
 Alpha virt. eigenvalues --    2.25674   2.25841   2.26854   2.26999   2.28068
 Alpha virt. eigenvalues --    2.28231   2.28317   2.29063   2.29649   2.29728
 Alpha virt. eigenvalues --    2.30099   2.30929   2.31258   2.31447   2.32021
 Alpha virt. eigenvalues --    2.32249   2.32494   2.32797   2.33601   2.34012
 Alpha virt. eigenvalues --    2.34570   2.34910   2.35399   2.35920   2.35960
 Alpha virt. eigenvalues --    2.36429   2.36842   2.37108   2.37324   2.37608
 Alpha virt. eigenvalues --    2.38055   2.38778   2.39226   2.39368   2.40023
 Alpha virt. eigenvalues --    2.40572   2.40916   2.41722   2.42192   2.42440
 Alpha virt. eigenvalues --    2.42708   2.43465   2.44196   2.44567   2.44924
 Alpha virt. eigenvalues --    2.45005   2.45505   2.45959   2.46233   2.46818
 Alpha virt. eigenvalues --    2.47177   2.47340   2.47621   2.48073   2.48976
 Alpha virt. eigenvalues --    2.49226   2.49481   2.49694   2.51009   2.51428
 Alpha virt. eigenvalues --    2.51851   2.52491   2.52548   2.52939   2.53228
 Alpha virt. eigenvalues --    2.53431   2.54276   2.54876   2.55240   2.55813
 Alpha virt. eigenvalues --    2.56162   2.56501   2.56678   2.57138   2.57332
 Alpha virt. eigenvalues --    2.57656   2.57847   2.58264   2.58485   2.59363
 Alpha virt. eigenvalues --    2.59972   2.60180   2.60488   2.60848   2.61081
 Alpha virt. eigenvalues --    2.61512   2.61956   2.62535   2.62754   2.62932
 Alpha virt. eigenvalues --    2.63156   2.63522   2.63835   2.65075   2.65394
 Alpha virt. eigenvalues --    2.65550   2.66081   2.66195   2.66405   2.66877
 Alpha virt. eigenvalues --    2.67277   2.67921   2.68213   2.68624   2.68730
 Alpha virt. eigenvalues --    2.69167   2.69434   2.69892   2.70511   2.70855
 Alpha virt. eigenvalues --    2.71304   2.71790   2.72333   2.72696   2.72836
 Alpha virt. eigenvalues --    2.73012   2.73617   2.74631   2.74848   2.75358
 Alpha virt. eigenvalues --    2.75891   2.76132   2.76671   2.77296   2.77749
 Alpha virt. eigenvalues --    2.78189   2.78403   2.78712   2.78960   2.79740
 Alpha virt. eigenvalues --    2.80454   2.80860   2.81031   2.81374   2.81946
 Alpha virt. eigenvalues --    2.82336   2.82703   2.83262   2.83799   2.83938
 Alpha virt. eigenvalues --    2.84607   2.84688   2.84995   2.85855   2.86055
 Alpha virt. eigenvalues --    2.86269   2.87076   2.87285   2.87643   2.88099
 Alpha virt. eigenvalues --    2.88313   2.88760   2.89406   2.89530   2.89950
 Alpha virt. eigenvalues --    2.90070   2.90707   2.91179   2.91489   2.91998
 Alpha virt. eigenvalues --    2.92401   2.92498   2.92790   2.93106   2.93929
 Alpha virt. eigenvalues --    2.94124   2.94456   2.94763   2.95130   2.95371
 Alpha virt. eigenvalues --    2.95851   2.96096   2.96699   2.96896   2.97373
 Alpha virt. eigenvalues --    2.97502   2.97712   2.98234   2.98499   2.98926
 Alpha virt. eigenvalues --    2.99389   2.99536   3.00061   3.00079   3.00283
 Alpha virt. eigenvalues --    3.00822   3.01015   3.01743   3.02280   3.02836
 Alpha virt. eigenvalues --    3.03425   3.03719   3.03991   3.04328   3.05068
 Alpha virt. eigenvalues --    3.05433   3.05763   3.06190   3.06517   3.07362
 Alpha virt. eigenvalues --    3.07422   3.07842   3.08069   3.08281   3.08615
 Alpha virt. eigenvalues --    3.08675   3.09029   3.09222   3.09601   3.10227
 Alpha virt. eigenvalues --    3.10627   3.10913   3.11062   3.11427   3.11852
 Alpha virt. eigenvalues --    3.12071   3.12580   3.13174   3.13415   3.13454
 Alpha virt. eigenvalues --    3.14077   3.14207   3.14317   3.15007   3.15146
 Alpha virt. eigenvalues --    3.15531   3.15640   3.16487   3.16657   3.16985
 Alpha virt. eigenvalues --    3.17043   3.17620   3.17869   3.18381   3.18641
 Alpha virt. eigenvalues --    3.18982   3.19098   3.19883   3.20102   3.20304
 Alpha virt. eigenvalues --    3.20790   3.21007   3.21297   3.21642   3.21898
 Alpha virt. eigenvalues --    3.22071   3.22630   3.23087   3.23339   3.23480
 Alpha virt. eigenvalues --    3.23822   3.23981   3.24637   3.24854   3.25100
 Alpha virt. eigenvalues --    3.25535   3.25656   3.26035   3.26261   3.26459
 Alpha virt. eigenvalues --    3.26785   3.26928   3.27313   3.27540   3.27941
 Alpha virt. eigenvalues --    3.28193   3.28742   3.28959   3.29150   3.29529
 Alpha virt. eigenvalues --    3.29804   3.30113   3.30254   3.30488   3.30672
 Alpha virt. eigenvalues --    3.31059   3.31214   3.31502   3.31736   3.32183
 Alpha virt. eigenvalues --    3.32536   3.32850   3.33395   3.33468   3.33836
 Alpha virt. eigenvalues --    3.34035   3.34507   3.34808   3.35062   3.35672
 Alpha virt. eigenvalues --    3.35693   3.35918   3.36073   3.36230   3.36573
 Alpha virt. eigenvalues --    3.36957   3.37131   3.37424   3.37653   3.38283
 Alpha virt. eigenvalues --    3.38495   3.38700   3.39113   3.39198   3.39316
 Alpha virt. eigenvalues --    3.39626   3.39863   3.40081   3.40334   3.40665
 Alpha virt. eigenvalues --    3.41230   3.41909   3.42626   3.42777   3.43220
 Alpha virt. eigenvalues --    3.43575   3.44085   3.44480   3.44825   3.45254
 Alpha virt. eigenvalues --    3.45387   3.45873   3.46278   3.46560   3.47080
 Alpha virt. eigenvalues --    3.47420   3.47621   3.48463   3.48677   3.48708
 Alpha virt. eigenvalues --    3.49325   3.49757   3.50848   3.51170   3.51815
 Alpha virt. eigenvalues --    3.52329   3.52959   3.53178   3.53597   3.53944
 Alpha virt. eigenvalues --    3.54355   3.54830   3.55182   3.55784   3.55888
 Alpha virt. eigenvalues --    3.56333   3.56814   3.57166   3.57708   3.58109
 Alpha virt. eigenvalues --    3.58263   3.58903   3.59689   3.60166   3.60350
 Alpha virt. eigenvalues --    3.61207   3.61454   3.61721   3.62836   3.63249
 Alpha virt. eigenvalues --    3.63563   3.64369   3.64478   3.65666   3.65714
 Alpha virt. eigenvalues --    3.66093   3.66373   3.66602   3.67242   3.67609
 Alpha virt. eigenvalues --    3.68117   3.68762   3.69007   3.69902   3.70145
 Alpha virt. eigenvalues --    3.70628   3.70909   3.71442   3.71488   3.71743
 Alpha virt. eigenvalues --    3.72010   3.72416   3.73321   3.73473   3.73635
 Alpha virt. eigenvalues --    3.74550   3.74841   3.74979   3.75408   3.75903
 Alpha virt. eigenvalues --    3.75940   3.76343   3.77564   3.78291   3.78500
 Alpha virt. eigenvalues --    3.79102   3.79677   3.80202   3.80549   3.80980
 Alpha virt. eigenvalues --    3.81457   3.82836   3.83119   3.83880   3.84343
 Alpha virt. eigenvalues --    3.84677   3.85124   3.86000   3.86430   3.86948
 Alpha virt. eigenvalues --    3.87362   3.87939   3.88915   3.89810   3.90120
 Alpha virt. eigenvalues --    3.90633   3.90985   3.91171   3.91714   3.92130
 Alpha virt. eigenvalues --    3.92273   3.93250   3.93708   3.94469   3.94949
 Alpha virt. eigenvalues --    3.96506   3.96748   3.97496   3.97899   3.98895
 Alpha virt. eigenvalues --    3.99509   4.00017   4.00401   4.00599   4.01299
 Alpha virt. eigenvalues --    4.01732   4.02402   4.03386   4.03884   4.04004
 Alpha virt. eigenvalues --    4.05115   4.05358   4.05560   4.06435   4.06571
 Alpha virt. eigenvalues --    4.07210   4.08602   4.08828   4.10029   4.10839
 Alpha virt. eigenvalues --    4.11831   4.12071   4.12225   4.13591   4.14689
 Alpha virt. eigenvalues --    4.15230   4.16148   4.16324   4.16801   4.16825
 Alpha virt. eigenvalues --    4.17567   4.18355   4.18509   4.18983   4.19229
 Alpha virt. eigenvalues --    4.19964   4.20520   4.20997   4.21277   4.21977
 Alpha virt. eigenvalues --    4.22847   4.22944   4.23359   4.24371   4.25332
 Alpha virt. eigenvalues --    4.25891   4.26226   4.26514   4.26917   4.28060
 Alpha virt. eigenvalues --    4.28812   4.29593   4.29979   4.30447   4.30681
 Alpha virt. eigenvalues --    4.31102   4.31857   4.32478   4.32835   4.33459
 Alpha virt. eigenvalues --    4.34513   4.34771   4.35215   4.35284   4.36315
 Alpha virt. eigenvalues --    4.36728   4.38549   4.38712   4.39304   4.40227
 Alpha virt. eigenvalues --    4.40806   4.41191   4.41418   4.41893   4.42087
 Alpha virt. eigenvalues --    4.42617   4.43409   4.43549   4.44456   4.45007
 Alpha virt. eigenvalues --    4.45494   4.45563   4.46749   4.46996   4.47062
 Alpha virt. eigenvalues --    4.47420   4.48248   4.48901   4.49199   4.49919
 Alpha virt. eigenvalues --    4.51827   4.52344   4.52486   4.53540   4.54062
 Alpha virt. eigenvalues --    4.55004   4.55910   4.56877   4.56959   4.57951
 Alpha virt. eigenvalues --    4.58672   4.59019   4.59740   4.61703   4.63388
 Alpha virt. eigenvalues --    4.64433   4.65506   4.66359   4.67202   4.68762
 Alpha virt. eigenvalues --    4.69038   4.69460   4.69662   4.70129   4.71468
 Alpha virt. eigenvalues --    4.72172   4.73094   4.73479   4.74224   4.74693
 Alpha virt. eigenvalues --    4.75790   4.76317   4.76972   4.78195   4.80382
 Alpha virt. eigenvalues --    4.80992   4.81865   4.82533   4.83091   4.83784
 Alpha virt. eigenvalues --    4.84295   4.84392   4.84828   4.85485   4.86543
 Alpha virt. eigenvalues --    4.86855   4.87537   4.88097   4.89136   4.90285
 Alpha virt. eigenvalues --    4.91544   4.92810   4.93830   4.94517   4.94793
 Alpha virt. eigenvalues --    4.95517   4.96010   4.96502   4.97555   4.98088
 Alpha virt. eigenvalues --    4.98271   4.99624   5.01803   5.01968   5.02568
 Alpha virt. eigenvalues --    5.03427   5.04406   5.05024   5.05985   5.07528
 Alpha virt. eigenvalues --    5.07833   5.08645   5.09110   5.09891   5.10360
 Alpha virt. eigenvalues --    5.10799   5.11546   5.14267   5.14780   5.17075
 Alpha virt. eigenvalues --    5.17784   5.19283   5.19939   5.21018   5.21412
 Alpha virt. eigenvalues --    5.21920   5.23335   5.24111   5.25102   5.26505
 Alpha virt. eigenvalues --    5.26942   5.27369   5.29192   5.30178   5.32247
 Alpha virt. eigenvalues --    5.33384   5.35679   5.36756   5.37342   5.37583
 Alpha virt. eigenvalues --    5.38423   5.38964   5.39834   5.40597   5.41164
 Alpha virt. eigenvalues --    5.41547   5.42712   5.43157   5.45004   5.47209
 Alpha virt. eigenvalues --    5.49380   5.49967   5.50947   5.51871   5.52105
 Alpha virt. eigenvalues --    5.52917   5.54074   5.56420   5.58242   5.59327
 Alpha virt. eigenvalues --    5.61900   5.62108   5.62606   5.63931   5.64495
 Alpha virt. eigenvalues --    5.65983   5.66766   5.67969   5.68137   5.68663
 Alpha virt. eigenvalues --    5.70144   5.72591   5.77585   5.77960   5.78675
 Alpha virt. eigenvalues --    5.81237   5.83031   5.90178   5.92049   5.93839
 Alpha virt. eigenvalues --    5.94254   5.98233   6.02042   6.02586   6.03385
 Alpha virt. eigenvalues --    6.08313   6.12878   6.13662   6.14271   6.14703
 Alpha virt. eigenvalues --    6.17361   6.19093   6.25251   6.28201   6.34893
 Alpha virt. eigenvalues --    6.35636   6.41860   6.47791   6.52177   6.53926
 Alpha virt. eigenvalues --    6.67124   6.98020   7.29907  22.36411  22.37305
 Alpha virt. eigenvalues --   22.43892  22.46132  22.46936  22.52823  22.53555
 Alpha virt. eigenvalues --   22.62655  22.63188  22.77412  22.85464  22.87717
 Alpha virt. eigenvalues --   22.92670  22.95189  22.95279  22.96371  22.98189
 Alpha virt. eigenvalues --   23.03845  23.04660  23.07370  23.15110  23.27337
 Alpha virt. eigenvalues --   23.28365  23.31006  23.31949  23.41576  23.42457
 Alpha virt. eigenvalues --   23.51363  23.51892  23.56306  23.75056  23.79575
 Alpha virt. eigenvalues --   23.80483  23.89471  32.40482  32.71270  32.89284
 Alpha virt. eigenvalues --   32.98564  32.99036  33.12994  44.03126
          Condensed to atoms (all electrons):
 Mulliken charges:
               1
     1  Fe  -0.265563
     2  N   -0.083729
     3  N    0.007553
     4  N   -0.040779
     5  N   -0.029248
     6  C    0.227139
     7  C   -0.049784
     8  C   -0.036219
     9  C    0.190239
    10  C    0.218360
    11  C   -0.054780
    12  C    0.032979
    13  C    0.233659
    14  C    0.231548
    15  C   -0.073582
    16  C    0.089729
    17  C    0.182475
    18  C    0.168831
    19  C   -0.027741
    20  C   -0.058386
    21  C    0.243975
    22  C   -0.431101
    23  H    0.136916
    24  C   -0.466879
    25  H    0.128173
    26  C   -0.407175
    27  H    0.113954
    28  C   -0.423246
    29  H    0.123968
    30  C   -0.412488
    31  H    0.120198
    32  H    0.130749
    33  H    0.136194
    34  C   -0.413663
    35  H    0.135661
    36  H    0.133704
    37  H    0.119028
    38  C   -0.447397
    39  H    0.127511
    40  H    0.136791
    41  H    0.158012
    42  C   -0.200605
    43  H    0.103975
    44  C   -0.288186
    45  H    0.135394
    46  H    0.121248
    47  C   -0.446364
    48  H    0.126443
    49  H    0.141573
    50  H    0.154719
    51  C   -0.214877
    52  H    0.114862
    53  C   -0.290362
    54  H    0.139086
    55  H    0.121483
    56  C   -0.415686
    57  H    0.135510
    58  H    0.134673
    59  H    0.118687
    60  C   -0.417075
    61  H    0.119154
    62  H    0.133806
    63  H    0.134133
    64  O   -0.564980
    65  H    0.357375
    66  H    0.321951
    67  C   -0.392567
    68  H    0.134174
    69  H    0.147040
    70  H    0.136784
    71  N   -0.229891
    72  H    0.235639
    73  C    0.179376
    74  C    0.003535
    75  H    0.175503
    76  N    0.092452
    77  C   -0.225855
    78  H    0.162290
 Sum of Mulliken charges =  -0.00000
 Mulliken charges with hydrogens summed into heavy atoms:
               1
     1  Fe  -0.265563
     2  N   -0.083729
     3  N    0.007553
     4  N   -0.040779
     5  N   -0.029248
     6  C    0.227139
     7  C   -0.049784
     8  C   -0.036219
     9  C    0.190239
    10  C    0.218360
    11  C   -0.054780
    12  C    0.032979
    13  C    0.233659
    14  C    0.231548
    15  C   -0.073582
    16  C    0.089729
    17  C    0.182475
    18  C    0.168831
    19  C   -0.027741
    20  C   -0.058386
    21  C    0.243975
    22  C   -0.294185
    24  C   -0.338706
    26  C   -0.293221
    28  C   -0.299279
    30  C   -0.025347
    34  C   -0.025270
    38  C   -0.025083
    42  C   -0.096630
    44  C   -0.031544
    47  C   -0.023629
    51  C   -0.100015
    53  C   -0.029793
    56  C   -0.026816
    60  C   -0.029982
    64  O    0.114345
    67  C    0.025431
    71  N    0.005748
    73  C    0.179376
    74  C    0.179038
    76  N    0.092452
    77  C   -0.063565
 Electronic spatial extent (au):  <R**2>=          20043.6392
 Charge=             -0.0000 electrons
 Dipole moment (field-independent basis, Debye):
    X=              0.8603    Y=             -1.9477    Z=              3.6840  Tot=              4.2550
 Quadrupole moment (field-independent basis, Debye-Ang):
   XX=           -241.1212   YY=           -245.8385   ZZ=           -222.1675
   XY=             -2.8988   XZ=              2.5639   YZ=             -0.3051
 Traceless Quadrupole moment (field-independent basis, Debye-Ang):
   XX=             -4.7455   YY=             -9.4627   ZZ=             14.2082
   XY=             -2.8988   XZ=              2.5639   YZ=             -0.3051
 Octapole moment (field-independent basis, Debye-Ang**2):
  XXX=              3.3795  YYY=            -34.4776  ZZZ=            106.4324  XYY=             -1.6351
  XXY=            -36.5628  XXZ=             11.5233  XZZ=             16.6243  YZZ=            -24.5251
  YYZ=             -9.2292  XYZ=              2.5802
 Hexadecapole moment (field-independent basis, Debye-Ang**3):
 XXXX=         -12003.8879 YYYY=         -11571.0751 ZZZZ=          -2788.7494 XXXY=            -32.4189
 XXXZ=             93.1348 YYYX=             -8.7875 YYYZ=             57.1717 ZZZX=             34.4835
 ZZZY=            -38.9106 XXYY=          -4010.0984 XXZZ=          -2631.6670 YYZZ=          -2681.2668
 XXYZ=             46.0413 YYXZ=            -33.7260 ZZXY=            -32.0749
 N-N= 5.959367878163D+03 E-N=-1.893302238581D+04  KE= 2.973859171126D+03
  Exact polarizability:     716.166      -1.902     700.092      13.132      10.260     313.057
 Approx polarizability:    1328.177      -8.049    1290.478      40.889      18.537     498.909

 ----------------------------------------------------------------------

 Electric dipole moment (input orientation):
 (Debye = 10**-18 statcoulomb cm , SI units = C m)
                  (au)            (Debye)         (10**-30 SI)
   Tot        0.167406D+01      0.425504D+01      0.141933D+02
   x         -0.477146D+00     -0.121278D+01     -0.404541D+01
   y         -0.254189D+00     -0.646083D+00     -0.215510D+01
   z         -0.158436D+01     -0.402705D+01     -0.134328D+02

 Dipole polarizability, Alpha (input orientation).
 (esu units = cm**3 , SI units = C**2 m**2 J**-1)
 Alpha(0;0):
               (au)            (10**-24 esu)      (10**-40 SI)
   iso        0.576438D+03      0.854193D+02      0.950418D+02
   aniso      0.396383D+03      0.587379D+02      0.653547D+02
   xx         0.538792D+03      0.798408D+02      0.888349D+02
   yx        -0.956100D+02     -0.141679D+02     -0.157640D+02
   yy         0.659125D+03      0.976722D+02      0.108675D+03
   zx        -0.175452D+03     -0.259993D+02     -0.289281D+02
   zy        -0.854809D+02     -0.126670D+02     -0.140939D+02
   zz         0.531398D+03      0.787450D+02      0.876156D+02

 First dipole hyperpolarizability, Beta (input orientation).
 ||, _|_  parallel and perpendicular components, (z) with respect to z axis,
 vector components x,y,z.  Values do not include the 1/n! factor of 1/2.
 (esu units = statvolt**-1 cm**4 , SI units = C**3 m**3 J**-2)
 Beta(0;0,0):
               (au)            (10**-30 esu)      (10**-50 SI)
   || (z)     0.657381D+03      0.567926D+01      0.210780D+01
   _|_(z)     0.219127D+03      0.189309D+01      0.702601D+00
   x         -0.191851D+04     -0.165744D+02     -0.615143D+01
   y         -0.441478D+04     -0.381403D+02     -0.141554D+02
   z          0.328691D+04      0.283963D+02      0.105390D+02
   ||         0.116576D+04      0.100712D+02      0.373784D+01
   xxx       -0.361606D+03     -0.312400D+01     -0.115944D+01
   xxy       -0.293217D+02     -0.253316D+00     -0.940159D-01
   yxy        0.454533D+03      0.392681D+01      0.145740D+01
   yyy       -0.158471D+04     -0.136907D+02     -0.508115D+01
   xxz        0.348124D+03      0.300752D+01      0.111621D+01
   yxz       -0.269179D+03     -0.232550D+01     -0.863085D+00
   yyz        0.597563D+02      0.516248D+00      0.191600D+00
   zxz       -0.732430D+03     -0.632762D+01     -0.234843D+01
   zyz        0.142437D+03      0.123055D+01      0.456706D+00
   zzz        0.687755D+03      0.594167D+01      0.220519D+01

 ----------------------------------------------------------------------

 Dipole orientation:
    26         81.83540535        -26.46464133       -103.84055663
     7         85.09381526        -27.49710192       -102.19224632
     7         83.18981069        -22.99168985       -104.39672510
     7         78.89532947        -25.67431677       -106.09263768
     7         80.70675202        -30.09576385       -103.73345899
     6         85.75876754        -29.83205366       -101.35208756
     6         88.30043807        -29.81596887       -100.35432484
     6         89.19002856        -27.42545215       -100.68040771
     6         87.16155142        -26.00271276       -101.83375296
     6         85.46209351        -22.06758514       -103.62225437
     6         85.66801359        -19.40873858       -104.15972134
     6         83.41945964        -18.71054096       -105.23930242
     6         81.94278427        -21.01192451       -105.45370631
     6         78.29952408        -23.37467922       -107.08224245
     6         75.99988802        -23.50583145       -108.53340067
     6         75.27147116        -25.98979632       -108.50994335
     6         77.10897513        -27.30100246       -106.95458846
     6         78.48587781        -31.04421746       -104.60616363
     6         78.11783150        -33.61342489       -103.74775971
     6         80.20005012        -34.21290751       -102.36755518
     6         81.80732736        -32.00090723       -102.40577318
     6         84.19854024        -31.92868031       -101.35780334
     1         84.90719518        -33.63695766       -100.49759484
     6         87.33951833        -23.47390567       -102.45808233
     1         89.08335701        -22.52034375       -101.99833128
     6         79.65776552        -21.17145091       -106.70337538
     1         78.88520571        -19.45385726       -107.48554084
     6         76.83183841        -29.78359267       -106.18608429
     1         75.20217188        -30.80858869       -106.86073485
     6         91.71298246        -26.35705791       -100.02567050
     1         92.91994447        -27.79423373        -99.18957260
     1         91.52157692        -24.80920001        -98.67912062
     1         92.64962464        -25.62480206       -101.70859546
     6         89.59262069        -32.06935900        -99.26539108
     1         89.70176658        -33.58563516       -100.65661100
     1         88.55598657        -32.77788300        -97.63149668
     1         91.50206537        -31.60103443        -98.66675047
     6         87.94552493        -17.82614172       -103.68260467
     1         89.66475973        -18.89944280       -104.03754195
     1         87.99682356        -17.17000906       -101.72796174
     1         87.93089563        -16.18160137       -104.91691709
     6         82.63106954        -16.25448394       -106.13518857
     1         81.37628323        -16.25822983       -107.75338858
     6         83.29298228        -14.05101554       -105.12543036
     1         84.45517108        -13.92463266       -103.46221244
     1         82.64372738        -12.28598421       -105.90563710
     6         74.84425856        -21.36195716       -109.94329340
     1         76.29822239        -20.16121626       -110.76763819
     1         73.69065069        -20.19801179       -108.69124504
     1         73.64597684        -22.07485129       -111.45487854
     6         73.15107859        -27.19118740       -109.74481015
     1         73.47677124        -29.11302210       -110.37607531
     6         70.90116667        -26.14552084       -110.13737407
     1         70.44238502        -24.28088030       -109.46873222
     1         69.41415127        -27.14901042       -111.10062680
     6         75.85590524        -35.18056423       -104.34698704
     1         75.72315666        -35.51548967       -106.37592606
     1         74.13228175        -34.22616368       -103.74534835
     1         75.95536723        -37.00102418       -103.39944816
     6         80.83464207        -36.61817689       -101.04703983
     1         79.28301326        -37.95824241       -101.18404293
     1         81.22066696        -36.26980859        -99.05386930
     1         82.50931280        -37.48359236       -101.87999192
     8         84.00838431        -27.54591347       -107.43540578
     1         85.64071192        -28.06774811       -106.85462038
     1         83.51547010        -27.42643180       -109.03687969
     6         75.02172812        -25.52450296        -95.90015763
     1         75.50690119        -26.41800176        -94.10867287
     1         73.57696453        -26.64817213        -96.82654073
     1         74.24947660        -23.65709099        -95.50031776
     7         79.42848956        -24.08672956        -96.85009665
     1         79.69759691        -23.19061912        -95.19357456
     6         77.27583765        -25.33808288        -97.56098479
     6         81.10559404        -24.27736928        -98.77110747
     1         82.96301856        -23.47595168        -98.74588276
     7         80.14377703        -25.57315602       -100.65280574
     6         77.76116434        -26.24337439        -99.92868480
     1         76.56950172        -27.32548492       -101.15481967

 Electric dipole moment (dipole orientation):
 (Debye = 10**-18 statcoulomb cm , SI units = C m)
                  (au)            (Debye)         (10**-30 SI)
   Tot        0.167406D+01      0.425504D+01      0.141933D+02
   x          0.000000D+00      0.000000D+00      0.000000D+00
   y          0.000000D+00      0.000000D+00      0.000000D+00
   z          0.167406D+01      0.425504D+01      0.141933D+02

 Dipole polarizability, Alpha (dipole orientation).
 (esu units = cm**3 , SI units = C**2 m**2 J**-1)
 Alpha(0;0):
               (au)            (10**-24 esu)      (10**-40 SI)
   iso        0.576438D+03      0.854193D+02      0.950418D+02
   aniso      0.396383D+03      0.587379D+02      0.653547D+02
   xx         0.637083D+03      0.944060D+02      0.105041D+03
   yx         0.453419D+02      0.671897D+01      0.747586D+01
   yy         0.684788D+03      0.101475D+03      0.112906D+03
   zx         0.151086D+03      0.223886D+02      0.249107D+02
   zy        -0.741744D+02     -0.109915D+02     -0.122297D+02
   zz         0.407443D+03      0.603768D+02      0.671783D+02

 First dipole hyperpolarizability, Beta (dipole orientation).
 ||, _|_  parallel and perpendicular components, (z) with respect to z axis,
 vector components x,y,z.  Values do not include the 1/n! factor of 1/2.
 (esu units = statvolt**-1 cm**4 , SI units = C**3 m**3 J**-2)
 Beta(0;0,0):
               (au)            (10**-30 esu)      (10**-50 SI)
   || (z)    -0.378726D+03     -0.327190D+01     -0.121433D+01
   _|_(z)    -0.126242D+03     -0.109063D+01     -0.404777D+00
   x         -0.267712D+04     -0.231282D+02     -0.858381D+01
   y          0.481892D+04      0.416317D+02      0.154512D+02
   z         -0.189363D+04     -0.163595D+02     -0.607166D+01
   ||         0.116576D+04      0.100712D+02      0.373784D+01
   xxx       -0.786657D+03     -0.679610D+01     -0.252231D+01
   xxy       -0.414595D+01     -0.358178D-01     -0.132934D-01
   yxy        0.514081D+03      0.444126D+01      0.164833D+01
   yyy        0.158230D+04      0.136698D+02      0.507342D+01
   xxz       -0.597363D+03     -0.516075D+01     -0.191536D+01
   yxz       -0.976904D+02     -0.843969D+00     -0.313231D+00
   yyz        0.583388D+02      0.504001D+00      0.187055D+00
   zxz       -0.619797D+03     -0.535457D+01     -0.198729D+01
   zyz        0.281533D+02      0.243222D+00      0.902695D-01
   zzz       -0.921855D+02     -0.796411D+00     -0.295580D+00

 ----------------------------------------------------------------------
 Unable to Open any file for archive entry.
 1\1\GINC-BGN1039\SP\RAPFD\def2TZVP\C34H36Fe1N6O1\BEBZHART\14-Jul-2024\
 0\\# polar def2tzvp apfd int=(grid=ultrafine)\\3m8m_II_S\\0,1\Fe,0,56.
 8486221022,21.2193141191,37.5362431258\N,0,58.2401732921,21.5884169589
 ,36.1363154845\N,0,57.6601769974,19.4320282557,37.8895548914\N,0,55.70
 671149,21.0215938678,39.1710837122\N,0,56.2174152124,23.1227357003,37.
 3610775801\C,0,58.4231722959,22.7340539514,35.4276383424\C,0,59.561729
 246,22.6155675045,34.5458744315\C,0,60.0901415833,21.3812783045,34.767
 0873678\C,0,59.2522156727,20.7538532633,35.7649763433\C,0,58.706492269
 5,18.8598410278,37.2332111864\C,0,58.9232613382,17.5102684901,37.68496
 67576\C,0,57.95408585,17.2583754388,38.6208896863\C,0,57.2105372014,18
 .4963918468,38.7660752649\C,0,55.5809013137,19.9056173909,39.941340065
 2\C,0,54.6321084961,20.117856201,41.0044236177\C,0,54.2299705971,21.42
 3429879,40.9029544563\C,0,54.9117339232,21.9624786878,39.7414956211\C,
 0,55.2116986639,23.7149434058,38.0569087961\C,0,54.8653654194,24.99376
 31189,37.476076307\C,0,55.7060129581,25.1718392143,36.4226140173\C,0,5
 6.5528392804,23.9993236354,36.3770669185\C,0,57.6081884803,23.84921609
 87,35.4973623248\H,0,57.8176981151,24.665034129,34.8224055332\C,0,59.4
 663811438,19.4795878476,36.2540020202\H,0,60.2925422439,18.9235025784,
 35.8373479348\C,0,56.2384327186,18.7071061314,39.7237639102\H,0,55.984
 8560854,17.8808976677,40.3700221508\C,0,54.6260785991,23.2021592634,39
 .1989349914\H,0,53.8893854328,23.8115218961,39.7002556016\C,0,61.28332
 67017,20.7403119519,34.1444944804\H,0,61.7523496079,21.4104427156,33.4
 282373784\H,0,61.0013819505,19.8249797228,33.6233512686\H,0,62.0207366
 246,20.4816111464,34.9049068749\C,0,60.0262285304,23.6911861173,33.624
 5549414\H,0,60.2735692315,24.5945610638,34.1830145472\H,0,59.245788000
 5,23.9425934336,32.9056865662\H,0,60.9097092279,23.3757275928,33.07437
 50339\C,0,60.0248249777,16.6175805847,37.229665965\H,0,60.9375390498,1
 7.187110183,37.0618788496\H,0,59.7637440232,16.1168236955,36.295719304
 2\H,0,60.222924651,15.8569845417,37.9821830271\C,0,57.7183228121,16.05
 53414525,39.3858250079\H,0,57.3260573038,16.2020864111,40.3852118203\C
 ,0,57.9275993427,14.8142055637,38.9573290837\H,0,58.267562505,14.60080
 49158,37.9592164226\H,0,57.7368122222,13.9615833152,39.5878201911\C,0,
 54.2839749692,19.1236867821,42.0570910809\H,0,55.1597285845,18.5449371
 426,42.347123378\H,0,53.5238425483,18.4280204107,41.6975556691\H,0,53.
 8959381124,19.6320204957,42.9375802293\C,0,53.3268553535,22.1758183594
 ,41.7446857927\H,0,53.5646109753,23.2276533245,41.8572949031\C,0,52.25
 74584275,21.6870447768,42.3646588402\H,0,51.9459042087,20.6636798747,4
 2.2488085707\H,0,51.6368845553,22.306672241,42.9907302971\C,0,53.79030
 43616,25.8879963683,37.9914242457\H,0,54.0250680258,26.2277190971,39.0
 006739746\H,0,52.8367564575,25.360870121,38.0267659577\H,0,53.67640605
 73,26.7626264792,37.3555996511\C,0,55.8003381317,26.3160065141,35.4722
 925184\H,0,55.0184179912,27.0460036983,35.6672609721\H,0,55.6995616148
 ,25.9691483332,34.4438355426\H,0,56.7649979821,26.8157636574,35.567331
 2013\O,0,58.48,22.048,38.922\H,0,59.214,22.255,38.343\H,0,58.473,22.12
 ,39.808\C,0,52.2068992171,20.169865992,34.6627412353\H,0,52.1722077798
 ,20.4874303291,33.6205547849\H,0,51.6007758584,20.8488768525,35.254318
 3766\H,0,51.7769626636,19.1703384158,34.7290157075\N,0,54.6017214551,1
 9.4425187267,34.5893561834\H,0,54.4988777382,18.8376665306,33.79114587
 33\C,0,53.602629494,20.1793107952,35.1695182159\C,0,55.7396641358,19.6
 768263448,35.2831705925\H,0,56.687172009,19.2338764731,35.0547805163\N
 ,0,55.5205013164,20.5169162636,36.2665199957\C,0,54.1951970289,20.8372
 303156,36.2093754447\H,0,53.7631186724,21.5156168472,36.9162397191\\Ve
 rsion=ES64L-G16RevC.02\State=1-A\HF=-2984.0226597\RMSD=1.850e-09\Dipol
 e=-0.4771461,-0.2541888,-1.5843628\Polar=538.7924561,-95.6100114,659.1
 246634,-175.4520173,-85.4808591,531.3976013\HyperPolar=-361.6061419,-2
 9.3216661,454.5332852,-1584.7104017,348.1240395,-269.1790619,59.756327
 4,-732.4298571,142.4374392,687.7550193\Quadrupole=1.1286904,-4.0593917
 ,2.9307013,3.5946045,5.0244992,6.614904\PG=C01 [X(C34H36Fe1N6O1)]\\@
 The archive entry for this job was punched.


 SOME PEOPLE TRY TO PULL THE WOOL OVER YOUR EYES
 USING THE WRONG YARN.
 Job cpu time:       2 days  6 hours 33 minutes 34.6 seconds.
 Elapsed time:       0 days  0 hours 47 minutes 15.7 seconds.
 File lengths (MBytes):  RWF=   1208 Int=      0 D2E=      0 Chk=    155 Scr=      1
 Normal termination of Gaussian 16 at Sun Jul 14 18:32:47 2024.
 Initial command:
 /sw/chem/gaussian/g16_C02/a100/g16/l1.exe "/local/bebzhart_7933200/Gau-1416226.inp" -scrdir="/local/bebzhart_7933200/"
 Entering Link 1 = /sw/chem/gaussian/g16_C02/a100/g16/l1.exe PID=   1418041.
  
 Copyright (c) 1988-2021, Gaussian, Inc.  All Rights Reserved.
  
 This is part of the Gaussian(R) 16 program.  It is based on
 the Gaussian(R) 09 system (copyright 2009, Gaussian, Inc.),
 the Gaussian(R) 03 system (copyright 2003, Gaussian, Inc.),
 the Gaussian(R) 98 system (copyright 1998, Gaussian, Inc.),
 the Gaussian(R) 94 system (copyright 1995, Gaussian, Inc.),
 the Gaussian 92(TM) system (copyright 1992, Gaussian, Inc.),
 the Gaussian 90(TM) system (copyright 1990, Gaussian, Inc.),
 the Gaussian 88(TM) system (copyright 1988, Gaussian, Inc.),
 the Gaussian 86(TM) system (copyright 1986, Carnegie Mellon
 University), and the Gaussian 82(TM) system (copyright 1983,
 Carnegie Mellon University). Gaussian is a federally registered
 trademark of Gaussian, Inc.
  
 This software contains proprietary and confidential information,
 including trade secrets, belonging to Gaussian, Inc.
  
 This software is provided under written license and may be
 used, copied, transmitted, or stored only in accord with that
 written license.
  
 The following legend is applicable only to US Government
 contracts under FAR:
  
                    RESTRICTED RIGHTS LEGEND
  
 Use, reproduction and disclosure by the US Government is
 subject to restrictions as set forth in subparagraphs (a)
 and (c) of the Commercial Computer Software - Restricted
 Rights clause in FAR 52.227-19.
  
 Gaussian, Inc.
 340 Quinnipiac St., Bldg. 40, Wallingford CT 06492
  
  
 ---------------------------------------------------------------
 Warning -- This program may not be used in any manner that
 competes with the business of Gaussian, Inc. or will provide
 assistance to any competitor of Gaussian, Inc.  The licensee
 of this program is prohibited from giving any competitor of
 Gaussian, Inc. access to this program.  By using this program,
 the user acknowledges that Gaussian, Inc. is engaged in the
 business of creating and licensing software in the field of
 computational chemistry and represents and warrants to the
 licensee that it is not a competitor of Gaussian, Inc. and that
 it will not use this program in any manner prohibited above.
 ---------------------------------------------------------------
  

 Cite this work as:
 Gaussian 16, Revision C.02,
 M. J. Frisch, G. W. Trucks, H. B. Schlegel, G. E. Scuseria, 
 M. A. Robb, J. R. Cheeseman, G. Scalmani, V. Barone, 
[...]
   141. CR (   1) N  71                  1.99939   -14.22279  1352(v),1326(v),1320(v)
                                                    1327(v),1522(v)
   142. CR (   1) C  73                  1.99915   -10.09072  1409(v),1526(g),1532(v)
                                                    1254(v)
   143. CR (   1) C  74                  1.99935   -10.12361  1382(v),1523(v),1531(v)
                                                    1377(v),150(r),151(r),154(r)
   144. CR (   1) N  76                  1.99932   -14.15455  150(r),151(r),154(r),1350(v)
                                                    1407(v),1528(v),172(r)
                                                    168(r),176(r)
   145. CR (   1) C  77                  1.99898   -10.06101  1324(v),1522(v),1526(g)
                                                    1383(v),1327(v),1434(v)
                                                    150(r),151(r)
   163. LP (   1) N  71                  1.57904    -0.28543  1530(v),1527(v),1353(v)
                                                    1325(v),1319(v),1351(v)
                                                    169(r)
   164. LP (   1) N  76                  1.60904    -0.36695  150(r),151(r),154(r),1525(v)
                                                    1526(v),1350(v),1528(v)
                                                    1532(v),1529(g),1384(g)
                                                    1407(v),1531(g),170(r)
                                                    1383(g),183(r),247(r),195(r)
                                                    273(r),221(r),194(r),158(r)
                                                    246(r),1447(r),1441(r)
                                                    220(r),1445(r),1446(r)
                                                    272(r),1440(r),1438(r)
                                                    1442(r),1444(r),1448(r)
                                                    179(r),278(r),244(r),192(r)
                                                    252(r),181(r),1443(r),176(r)
                                                    226(r),168(r)
  1252. RY*(   1) C  67                  0.00118     1.15475   
  1253. RY*(   2) C  67                  0.00078     2.00242   
  1254. RY*(   3) C  67                  0.00051     1.33359   
  1255. RY*(   4) C  67                  0.00012     1.26298   
  1256. RY*(   5) C  67                  0.00008     2.20943   
  1257. RY*(   6) C  67                  0.00007     1.30446   
  1258. RY*(   7) C  67                  0.00001     1.69877   
  1259. RY*(   8) C  67                  0.00001     1.87217   
  1260. RY*(   9) C  67                  0.00001     1.46674   
  1261. RY*(  10) C  67                  0.00001     2.29970   
  1262. RY*(  11) C  67                  0.00001     1.39139   
  1263. RY*(  12) C  67                  0.00000     3.25678   
  1264. RY*(  13) C  67                  0.00000     2.55488   
  1265. RY*(  14) C  67                  0.00000     2.75519   
  1266. RY*(  15) C  67                  0.00000     2.30881   
  1267. RY*(  16) C  67                  0.00000     3.15265   
  1268. RY*(  17) C  67                  0.00000     2.49788   
  1269. RY*(  18) C  67                  0.00000    21.60014   
  1270. RY*(  19) C  67                  0.00001     2.68970   
  1271. RY*(  20) C  67                  0.00000     3.66719   
  1272. RY*(  21) C  67                  0.00001     3.44477   
  1273. RY*(  22) C  67                  0.00000     3.33260   
  1274. RY*(  23) C  67                  0.00000     3.75053   
  1275. RY*(  24) C  67                  0.00000     3.35949   
  1276. RY*(  25) C  67                  0.00000     3.31803   
  1277. RY*(  26) C  67                  0.00000     3.25525   
  1278. RY*(   1) H  68                  0.00073     1.00203   
  1279. RY*(   2) H  68                  0.00015     1.68413   
  1280. RY*(   3) H  68                  0.00008     1.96725   
  1281. RY*(   4) H  68                  0.00006     2.00860   
  1282. RY*(   5) H  68                  0.00000     2.87938   
  1283. RY*(   1) H  69                  0.00024     1.39544   
  1284. RY*(   2) H  69                  0.00012     1.73482   
  1285. RY*(   3) H  69                  0.00008     2.05561   
  1286. RY*(   4) H  69                  0.00002     1.58514   
  1287. RY*(   5) H  69                  0.00001     2.86289   
  1288. RY*(   1) H  70                  0.00074     1.00305   
  1289. RY*(   2) H  70                  0.00015     1.69274   
  1290. RY*(   3) H  70                  0.00008     1.95632   
  1291. RY*(   4) H  70                  0.00006     2.01036   
  1292. RY*(   5) H  70                  0.00000     2.88068   
  1293. RY*(   1) N  71                  0.00281     0.66735   
  1294. RY*(   2) N  71                  0.00223     1.77541   
  1295. RY*(   3) N  71                  0.00099     2.07617   
  1296. RY*(   4) N  71                  0.00078     2.17892   
  1297. RY*(   5) N  71                  0.00052     1.13944   
  1298. RY*(   6) N  71                  0.00027     2.00655   
  1299. RY*(   7) N  71                  0.00021     1.72969   
  1300. RY*(   8) N  71                  0.00006     3.39838   
  1301. RY*(   9) N  71                  0.00006     2.41160   
  1302. RY*(  10) N  71                  0.00006     2.36724   
  1303. RY*(  11) N  71                  0.00005     3.32463   
  1304. RY*(  12) N  71                  0.00001     2.66731   
  1305. RY*(  13) N  71                  0.00001     4.34027   
  1306. RY*(  14) N  71                  0.00000    30.56711   
  1307. RY*(  15) N  71                  0.00000     3.44119   
  1308. RY*(  16) N  71                  0.00000     2.09825   
  1309. RY*(  17) N  71                  0.00000     4.65771   
  1310. RY*(  18) N  71                  0.00001     3.77336   
  1311. RY*(  19) N  71                  0.00001     3.61487   
  1312. RY*(  20) N  71                  0.00000     4.62295   
  1313. RY*(  21) N  71                  0.00000     4.81539   
  1314. RY*(  22) N  71                  0.00000     4.36158   
  1315. RY*(  23) N  71                  0.00000     4.51635   
  1316. RY*(  24) N  71                  0.00000     4.31202   
  1317. RY*(  25) N  71                  0.00000     4.49509   
  1318. RY*(  26) N  71                  0.00000     4.41047   
  1319. RY*(   1) H  72                  0.00057     2.14844   
  1320. RY*(   2) H  72                  0.00039     2.13121   
  1321. RY*(   3) H  72                  0.00029     1.04668   
  1322. RY*(   4) H  72                  0.00021     2.50518   
  1323. RY*(   5) H  72                  0.00001     3.07702   
  1324. RY*(   1) C  73                  0.00408     1.68751   
  1325. RY*(   2) C  73                  0.00259     0.99661   
  1326. RY*(   3) C  73                  0.00188     1.49164   
  1327. RY*(   4) C  73                  0.00164     2.02455   
  1328. RY*(   5) C  73                  0.00125     1.72393   
  1329. RY*(   6) C  73                  0.00109     1.71270   
  1330. RY*(   7) C  73                  0.00037     2.86289   
  1331. RY*(   8) C  73                  0.00019     2.70232   
  1332. RY*(   9) C  73                  0.00016     2.53953   
  1333. RY*(  10) C  73                  0.00007     3.65860   
  1334. RY*(  11) C  73                  0.00003     2.65983   
  1335. RY*(  12) C  73                  0.00002     1.99666   
  1336. RY*(  13) C  73                  0.00001     1.32434   
  1337. RY*(  14) C  73                  0.00001     2.03449   
  1338. RY*(  15) C  73                  0.00001     2.85267   
  1339. RY*(  16) C  73                  0.00000     1.06911   
  1340. RY*(  17) C  73                  0.00000     3.26556   
  1341. RY*(  18) C  73                  0.00001     1.55336   
  1342. RY*(  19) C  73                  0.00000    21.30587   
  1343. RY*(  20) C  73                  0.00000     4.07621   
  1344. RY*(  21) C  73                  0.00000     3.69963   
  1345. RY*(  22) C  73                  0.00000     3.54880   
  1346. RY*(  23) C  73                  0.00000     3.77839   
  1347. RY*(  24) C  73                  0.00000     3.41113   
  1348. RY*(  25) C  73                  0.00000     3.53892   
  1349. RY*(  26) C  73                  0.00000     3.50915   
  1350. RY*(   1) C  74                  0.00405     1.58109   
  1351. RY*(   2) C  74                  0.00328     0.65256   
  1352. RY*(   3) C  74                  0.00196     1.34426   
  1353. RY*(   4) C  74                  0.00127     2.57879   
  1354. RY*(   5) C  74                  0.00079     1.59461   
  1355. RY*(   6) C  74                  0.00040     1.74164   
  1356. RY*(   7) C  74                  0.00024     1.84414   
  1357. RY*(   8) C  74                  0.00008     2.71654   
  1358. RY*(   9) C  74                  0.00005     1.93019   
  1359. RY*(  10) C  74                  0.00005     2.38282   
  1360. RY*(  11) C  74                  0.00004     3.51618   
  1361. RY*(  12) C  74                  0.00003     2.01971   
  1362. RY*(  13) C  74                  0.00001     2.49162   
  1363. RY*(  14) C  74                  0.00001     2.07476   
  1364. RY*(  15) C  74                  0.00002     3.02602   
  1365. RY*(  16) C  74                  0.00001     3.59129   
  1366. RY*(  17) C  74                  0.00001     2.79154   
  1367. RY*(  18) C  74                  0.00001     3.87728   
  1368. RY*(  19) C  74                  0.00000    21.38707   
  1369. RY*(  20) C  74                  0.00000     3.21815   
  1370. RY*(  21) C  74                  0.00001     3.98393   
  1371. RY*(  22) C  74                  0.00000     3.52117   
  1372. RY*(  23) C  74                  0.00000     3.77907   
  1373. RY*(  24) C  74                  0.00000     3.64919   
  1374. RY*(  25) C  74                  0.00000     3.47577   
  1375. RY*(  26) C  74                  0.00000     3.34503   
  1376. RY*(   1) H  75                  0.00059     0.80424   
  1377. RY*(   2) H  75                  0.00027     2.34249   
  1378. RY*(   3) H  75                  0.00021     2.08748   
  1379. RY*(   4) H  75                  0.00011     2.38475   
  1380. RY*(   5) H  75                  0.00002     3.14322   
  1381. RY*(   1) N  76                  0.00749     0.85528   
  1382. RY*(   2) N  76                  0.00693     1.32723   
  1383. RY*(   3) N  76                  0.00584     1.42894   
  1384. RY*(   4) N  76                  0.00082     1.59455   
  1385. RY*(   5) N  76                  0.00072     1.73483   
  1386. RY*(   6) N  76                  0.00053     1.95350   
  1387. RY*(   7) N  76                  0.00036     3.44422   
  1388. RY*(   8) N  76                  0.00033     3.21933   
  1389. RY*(   9) N  76                  0.00011     2.87886   
  1390. RY*(  10) N  76                  0.00008     2.41368   
  1391. RY*(  11) N  76                  0.00009     3.24754   
  1392. RY*(  12) N  76                  0.00007     3.35600   
  1393. RY*(  13) N  76                  0.00006     2.96525   
  1394. RY*(  14) N  76                  0.00004     3.67408   
  1395. RY*(  15) N  76                  0.00003     4.88978   
  1396. RY*(  16) N  76                  0.00000    31.41297   
  1397. RY*(  17) N  76                  0.00000     4.84360   
  1398. RY*(  18) N  76                  0.00001     4.86278   
  1399. RY*(  19) N  76                  0.00001     3.94883   
  1400. RY*(  20) N  76                  0.00000     4.40366   
  1401. RY*(  21) N  76                  0.00001     4.31114   
  1402. RY*(  22) N  76                  0.00000     4.14986   
  1403. RY*(  23) N  76                  0.00000     4.67660   
  1404. RY*(  24) N  76                  0.00000     4.66105   
  1405. RY*(  25) N  76                  0.00000     4.73233   
  1406. RY*(  26) N  76                  0.00000     4.53984   
  1407. RY*(   1) C  77                  0.00401     1.49358   
  1408. RY*(   2) C  77                  0.00249     0.71713   
  1409. RY*(   3) C  77                  0.00169     1.85608   
  1410. RY*(   4) C  77                  0.00071     1.87729   
  1411. RY*(   5) C  77                  0.00058     1.67366   
  1412. RY*(   6) C  77                  0.00048     1.66416   
  1413. RY*(   7) C  77                  0.00043     2.24370   
  1414. RY*(   8) C  77                  0.00024     1.40306   
  1415. RY*(   9) C  77                  0.00020     1.78892   
  1416. RY*(  10) C  77                  0.00017     1.79730   
  1417. RY*(  11) C  77                  0.00011     1.21670   
  1418. RY*(  12) C  77                  0.00005     1.87703   
  1419. RY*(  13) C  77                  0.00005     2.15229   
  1420. RY*(  14) C  77                  0.00003     1.49417   
  1421. RY*(  15) C  77                  0.00003     3.53021   
  1422. RY*(  16) C  77                  0.00004     3.06257   
  1423. RY*(  17) C  77                  0.00002     6.27250   
  1424. RY*(  18) C  77                  0.00000     3.27801   
  1425. RY*(  19) C  77                  0.00000    18.97233   
  1426. RY*(  20) C  77                  0.00001     3.98105   
  1427. RY*(  21) C  77                  0.00000     3.60127   
  1428. RY*(  22) C  77                  0.00000     3.47722   
  1429. RY*(  23) C  77                  0.00000     3.97070   
  1430. RY*(  24) C  77                  0.00000     3.38704   
  1431. RY*(  25) C  77                  0.00000     3.66646   
  1432. RY*(  26) C  77                  0.00000     3.46844   
  1433. RY*(   1) H  78                  0.00052     0.77337   
  1434. RY*(   2) H  78                  0.00032     2.24015   
  1435. RY*(   3) H  78                  0.00024     2.27820   
  1436. RY*(   4) H  78                  0.00007     2.73745   
  1437. RY*(   5) H  78                  0.00001     3.10590   
  1519. BD*(   1) C  67 - H  68          0.01155     0.35791   
  1520. BD*(   1) C  67 - H  69          0.00343     0.37180   
  1521. BD*(   1) C  67 - H  70          0.01207     0.35845   
  1522. BD*(   1) C  67 - C  73          0.01363     0.38774   
  1523. BD*(   1) N  71 - H  72          0.01408     0.36564   
  1524. BD*(   1) N  71 - C  73          0.02718     0.42848   
  1525. BD*(   1) N  71 - C  74          0.02219     0.44435   
  1526. BD*(   1) C  73 - C  77          0.02091     0.56389   
  1527. BD*(   2) C  73 - C  77          0.29998     0.03309  1530(v),1521(v),1519(v)
                                                    1413(g),1328(g)
  1528. BD*(   1) C  74 - H  75          0.01733     0.38825   
  1529. BD*(   1) C  74 - N  76          0.01631     0.53264   
  1530. BD*(   2) C  74 - N  76          0.42341    -0.00849  1527(v),1351(g),1381(g)
                                                    1408(v),153(r),1447(r)
  1531. BD*(   1) N  76 - C  77          0.01652     0.47783   
  1532. BD*(   1) C  77 - H  78          0.01413     0.42948   
       -------------------------------
              Total Lewis   42.68717  ( 97.7319%)
        Valence non-Lewis    0.91273  (  2.0897%)
        Rydberg non-Lewis    0.07792  (  0.1784%)
       -------------------------------
            Total unit  4   43.67783  (100.0000%)
           Charge unit  4    0.32217
 Unable to Open any file for archive entry.
 1\1\GINC-BGN1039\SP\RAPFD\def2TZVP\C34H36Fe1N6O1\BEBZHART\14-Jul-2024\
 0\\# apfd/def2TZVP int=(grid=ultrafine) geom=check guess=read pop=nbo 
 scf=qc\\3m8m_II_S_nbo\\0,1\Fe,0,56.8486221022,21.2193141191,37.5362431
 258\N,0,58.2401732921,21.5884169589,36.1363154845\N,0,57.6601769974,19
 .4320282557,37.8895548914\N,0,55.70671149,21.0215938678,39.1710837122\
 N,0,56.2174152124,23.1227357003,37.3610775801\C,0,58.4231722959,22.734
 0539514,35.4276383424\C,0,59.561729246,22.6155675045,34.5458744315\C,0
 ,60.0901415833,21.3812783045,34.7670873678\C,0,59.2522156727,20.753853
 2633,35.7649763433\C,0,58.7064922695,18.8598410278,37.2332111864\C,0,5
 8.9232613382,17.5102684901,37.6849667576\C,0,57.95408585,17.2583754388
 ,38.6208896863\C,0,57.2105372014,18.4963918468,38.7660752649\C,0,55.58
 09013137,19.9056173909,39.9413400652\C,0,54.6321084961,20.117856201,41
 .0044236177\C,0,54.2299705971,21.423429879,40.9029544563\C,0,54.911733
 9232,21.9624786878,39.7414956211\C,0,55.2116986639,23.7149434058,38.05
 69087961\C,0,54.8653654194,24.9937631189,37.476076307\C,0,55.706012958
 1,25.1718392143,36.4226140173\C,0,56.5528392804,23.9993236354,36.37706
 69185\C,0,57.6081884803,23.8492160987,35.4973623248\H,0,57.8176981151,
 24.665034129,34.8224055332\C,0,59.4663811438,19.4795878476,36.25400202
 02\H,0,60.2925422439,18.9235025784,35.8373479348\C,0,56.2384327186,18.
 7071061314,39.7237639102\H,0,55.9848560854,17.8808976677,40.3700221508
 \C,0,54.6260785991,23.2021592634,39.1989349914\H,0,53.8893854328,23.81
 15218961,39.7002556016\C,0,61.2833267017,20.7403119519,34.1444944804\H
 ,0,61.7523496079,21.4104427156,33.4282373784\H,0,61.0013819505,19.8249
 797228,33.6233512686\H,0,62.0207366246,20.4816111464,34.9049068749\C,0
 ,60.0262285304,23.6911861173,33.6245549414\H,0,60.2735692315,24.594561
 0638,34.1830145472\H,0,59.2457880005,23.9425934336,32.9056865662\H,0,6
 0.9097092279,23.3757275928,33.0743750339\C,0,60.0248249777,16.61758058
 47,37.229665965\H,0,60.9375390498,17.187110183,37.0618788496\H,0,59.76
 37440232,16.1168236955,36.2957193042\H,0,60.222924651,15.8569845417,37
 .9821830271\C,0,57.7183228121,16.0553414525,39.3858250079\H,0,57.32605
 73038,16.2020864111,40.3852118203\C,0,57.9275993427,14.8142055637,38.9
 573290837\H,0,58.267562505,14.6008049158,37.9592164226\H,0,57.73681222
 22,13.9615833152,39.5878201911\C,0,54.2839749692,19.1236867821,42.0570
 910809\H,0,55.1597285845,18.5449371426,42.347123378\H,0,53.5238425483,
 18.4280204107,41.6975556691\H,0,53.8959381124,19.6320204957,42.9375802
 293\C,0,53.3268553535,22.1758183594,41.7446857927\H,0,53.5646109753,23
 .2276533245,41.8572949031\C,0,52.2574584275,21.6870447768,42.364658840
 2\H,0,51.9459042087,20.6636798747,42.2488085707\H,0,51.6368845553,22.3
 06672241,42.9907302971\C,0,53.7903043616,25.8879963683,37.9914242457\H
 ,0,54.0250680258,26.2277190971,39.0006739746\H,0,52.8367564575,25.3608
 70121,38.0267659577\H,0,53.6764060573,26.7626264792,37.3555996511\C,0,
 55.8003381317,26.3160065141,35.4722925184\H,0,55.0184179912,27.0460036
 983,35.6672609721\H,0,55.6995616148,25.9691483332,34.4438355426\H,0,56
 .7649979821,26.8157636574,35.5673312013\O,0,58.48,22.048,38.922\H,0,59
 .214,22.255,38.343\H,0,58.473,22.12,39.808\C,0,52.2068992171,20.169865
 992,34.6627412353\H,0,52.1722077798,20.4874303291,33.6205547849\H,0,51
 .6007758584,20.8488768525,35.2543183766\H,0,51.7769626636,19.170338415
 8,34.7290157075\N,0,54.6017214551,19.4425187267,34.5893561834\H,0,54.4
 988777382,18.8376665306,33.7911458733\C,0,53.602629494,20.1793107952,3
 5.1695182159\C,0,55.7396641358,19.6768263448,35.2831705925\H,0,56.6871
 72009,19.2338764731,35.0547805163\N,0,55.5205013164,20.5169162636,36.2
 665199957\C,0,54.1951970289,20.8372303156,36.2093754447\H,0,53.7631186
 724,21.5156168472,36.9162397191\\Version=ES64L-G16RevC.02\State=1-A\HF
 =-2984.0226597\RMSD=7.574e-10\Dipole=-0.4771461,-0.2541888,-1.5843628\
 Quadrupole=1.1286904,-4.0593917,2.9307013,3.5946045,5.0244992,6.614904
 \PG=C01 [X(C34H36Fe1N6O1)]\\@
 The archive entry for this job was punched.


 THERE IS NOTHING NOBLE IN BEING SUPERIOR TO SOME OTHER MAN.
 TRUE NOBILITY IS BEING SUPERIOR TO YOUR FORMER SELF.

                                                   -- HINDU PROVERB
 Job cpu time:       0 days  0 hours 45 minutes 10.0 seconds.
 Elapsed time:       0 days  0 hours  0 minutes 54.4 seconds.
 File lengths (MBytes):  RWF=    792 Int=      0 D2E=      0 Chk=    155 Scr=      1
 Normal termination of Gaussian 16 at Sun Jul 14 18:33:43 2024.
