 Entering Gaussian System, Link 0=g16
 Input=3qjs01.com
 Output=3qjs01.log
 Initial command:
 /sw/chem/gaussian/g16_C02/a100/g16/l1.exe "/local/bebzhart_7933215/Gau-233711.inp" -scrdir="/local/bebzhart_7933215/"
 Entering Link 1 = /sw/chem/gaussian/g16_C02/a100/g16/l1.exe PID=    233712.
  
 Copyright (c) 1988-2021, Gaussian, Inc.  All Rights Reserved.
  
 This is part of the Gaussian(R) 16 program.  It is based on
 the Gaussian(R) 09 system (copyright 2009, Gaussian, Inc.),
 the Gaussian(R) 03 system (copyright 2003, Gaussian, Inc.),
 the Gaussian(R) 98 system (copyright 1998, Gaussian, Inc.),
 the Gaussian(R) 94 system (copyright 1995, Gaussian, Inc.),
 the Gaussian 92(TM) system (copyright 1992, Gaussian, Inc.),
 the Gaussian 90(TM) system (copyright 1990, Gaussian, Inc.),
 the Gaussian 88(TM) system (copyright 1988, Gaussian, Inc.),
 the Gaussian 86(TM) system (copyright 1986, Carnegie Mellon
 University), and the Gaussian 82(TM) system (copyright 1983,
 Carnegie Mellon University). Gaussian is a federally registered
 trademark of Gaussian, Inc.
  
 This software contains proprietary and confidential information,
 including trade secrets, belonging to Gaussian, Inc.
  
 This software is provided under written license and may be
 used, copied, transmitted, or stored only in accord with that
 written license.
  
 The following legend is applicable only to US Government
 contracts under FAR:
  
                    RESTRICTED RIGHTS LEGEND
  
 Use, reproduction and disclosure by the US Government is
 subject to restrictions as set forth in subparagraphs (a)
 and (c) of the Commercial Computer Software - Restricted
 Rights clause in FAR 52.227-19.
  
 Gaussian, Inc.
 340 Quinnipiac St., Bldg. 40, Wallingford CT 06492
  
  
 ---------------------------------------------------------------
 Warning -- This program may not be used in any manner that
 competes with the business of Gaussian, Inc. or will provide
 assistance to any competitor of Gaussian, Inc.  The licensee
 of this program is prohibited from giving any competitor of
 Gaussian, Inc. access to this program.  By using this program,
 the user acknowledges that Gaussian, Inc. is engaged in the
 business of creating and licensing software in the field of
 computational chemistry and represents and warrants to the
 licensee that it is not a competitor of Gaussian, Inc. and that
 it will not use this program in any manner prohibited above.
 ---------------------------------------------------------------
  

 Cite this work as:
 Gaussian 16, Revision C.02,
 M. J. Frisch, G. W. Trucks, H. B. Schlegel, G. E. Scuseria, 
 M. A. Robb, J. R. Cheeseman, G. Scalmani, V. Barone, 
 G. A. Petersson, H. Nakatsuji, X. Li, M. Caricato, A. V. Marenich, 
 J. Bloino, B. G. Janesko, R. Gomperts, B. Mennucci, H. P. Hratchian, 
 J. V. Ortiz, A. F. Izmaylov, J. L. Sonnenberg, D. Williams-Young, 
 F. Ding, F. Lipparini, F. Egidi, J. Goings, B. Peng, A. Petrone, 
 T. Henderson, D. Ranasinghe, V. G. Zakrzewski, J. Gao, N. Rega, 
 G. Zheng, W. Liang, M. Hada, M. Ehara, K. Toyota, R. Fukuda, 
 J. Hasegawa, M. Ishida, T. Nakajima, Y. Honda, O. Kitao, H. Nakai, 
 T. Vreven, K. Throssell, J. A. Montgomery, Jr., J. E. Peralta, 
 F. Ogliaro, M. J. Bearpark, J. J. Heyd, E. N. Brothers, K. N. Kudin, 
 V. N. Staroverov, T. A. Keith, R. Kobayashi, J. Normand, 
 K. Raghavachari, A. P. Rendell, J. C. Burant, S. S. Iyengar, 
 J. Tomasi, M. Cossi, J. M. Millam, M. Klene, C. Adamo, R. Cammi, 
 J. W. Ochterski, R. L. Martin, K. Morokuma, O. Farkas, 
 J. B. Foresman, and D. J. Fox, Gaussian, Inc., Wallingford CT, 2019.
 
 ******************************************
 Gaussian 16:  ES64L-G16RevC.02  7-Dec-2021
                14-Jul-2024 
 ******************************************
 %mem=16GB
 %CPU=0-71
 SetSPE:  set environment variable "OMP_PROC_BIND" = "true"
 SetSPE:  set environment variable "OMP_PLACES" = "{0},{1},{2},{3},{4},{5},{6},{7},{8},{9},{10},{11},{12},{13},{14},{15},{16},{17},{18},{19},{20},{21},{22},{23},{24},{25},{26},{27},{28},{29},{30},{31},{32},{33},{34},{35},{36},{37},{38},{39},{40},{41},{42},{43},{44},{45},{46},{47},{48},{49},{50},{51},{52},{53},{54},{55},{56},{57},{58},{59},{60},{61},{62},{63},{64},{65},{66},{67},{68},{69},{70},{71}"
 Will use up to   72 processors via shared memory.
 %gpucpu=0,1,2,3=0,1,2,3
 Will use    4 GPUs:
 Thread  CPU   GPU
      0    0     0
      1    1     1
      2    2     2
      3    3     3
      4    4    -1
      5    5    -1
      6    6    -1
      7    7    -1
      8    8    -1
      9    9    -1
     10   10    -1
     11   11    -1
     12   12    -1
     13   13    -1
     14   14    -1
     15   15    -1
     16   16    -1
     17   17    -1
     18   18    -1
     19   19    -1
     20   20    -1
     21   21    -1
     22   22    -1
     23   23    -1
     24   24    -1
     25   25    -1
     26   26    -1
     27   27    -1
     28   28    -1
     29   29    -1
     30   30    -1
     31   31    -1
     32   32    -1
     33   33    -1
     34   34    -1
     35   35    -1
     36   36    -1
     37   37    -1
     38   38    -1
     39   39    -1
     40   40    -1
     41   41    -1
     42   42    -1
     43   43    -1
     44   44    -1
     45   45    -1
     46   46    -1
     47   47    -1
     48   48    -1
     49   49    -1
     50   50    -1
     51   51    -1
     52   52    -1
     53   53    -1
     54   54    -1
     55   55    -1
     56   56    -1
     57   57    -1
     58   58    -1
     59   59    -1
     60   60    -1
     61   61    -1
     62   62    -1
     63   63    -1
     64   64    -1
     65   65    -1
     66   66    -1
     67   67    -1
     68   68    -1
     69   69    -1
     70   70    -1
     71   71    -1
 SetGPE:  set environment variable "OMP_PROC_BIND" = "true"
 SetGPE:  set environment variable "OMP_PLACES" = "{0},{1},{2},{3},{4},{5},{6},{7},{8},{9},{10},{11},{12},{13},{14},{15},{16},{17},{18},{19},{20},{21},{22},{23},{24},{25},{26},{27},{28},{29},{30},{31},{32},{33},{34},{35},{36},{37},{38},{39},{40},{41},{42},{43},{44},{45},{46},{47},{48},{49},{50},{51},{52},{53},{54},{55},{56},{57},{58},{59},{60},{61},{62},{63},{64},{65},{66},{67},{68},{69},{70},{71}"
 %chk=3qjs_II_O.chk
 Properties for Device   0
 Minimum vector length:                              32
 Maximum vector length:                            1024
 Number of SMPs:                                    108
 Maximum number of threads per SMP:                2048
 Number of ASync Engines:                             5
 Memory:                                           9207742464
 Properties for Device   1
 Minimum vector length:                              32
 Maximum vector length:                            1024
 Number of SMPs:                                    108
 Maximum number of threads per SMP:                2048
 Number of ASync Engines:                             5
 Memory:                                           9207742464
 Properties for Device   2
 Minimum vector length:                              32
 Maximum vector length:                            1024
 Number of SMPs:                                    108
 Maximum number of threads per SMP:                2048
 Number of ASync Engines:                             5
 Memory:                                           9207742464
 Properties for Device   3
 Minimum vector length:                              32
 Maximum vector length:                            1024
 Number of SMPs:                                    108
 Maximum number of threads per SMP:                2048
 Number of ASync Engines:                             5
 Memory:                                           9207742464
   8286968217 words of memory will be used on each GPU.
 ------------------------------------------
 # polar def2tzvp apfd int=(grid=ultrafine)
 ------------------------------------------
 1/38=1,172=1/1;
 2/12=2,17=6,18=5,40=1/2;
 3/5=44,7=101,11=2,25=1,30=1,74=-44,75=-5/1,2,3;
 4//1;
 5/5=2,38=5,98=1/2;
 8/6=4,10=90,11=11/1;
 10/6=1,13=10/2;
 6/7=2,8=2,9=2,10=2,28=1/1;
 99/5=1,9=1/99;
 ---------
 3qjs_II_S
 ---------
 Symbolic Z-matrix:
 Charge =  0 Multiplicity = 1
 Fe                   -36.41641   15.67258   3.04514 
 N                    -38.19027   16.54821   3.30454 
 N                    -37.33767   14.00036   2.3929 
 N                    -34.63569   14.77204   2.68918 
 N                    -35.45907   17.31176   3.62443 
 C                    -38.37731   17.84917   3.64411 
 C                    -39.72344   18.27312   3.33323 
 C                    -40.34867   17.18848   2.79843 
 C                    -39.37455   16.12073   2.79322 
 C                    -38.67917   13.83809   2.22745 
 C                    -38.98617   12.48696   1.84015 
 C                    -37.79073   11.82436   1.76181 
 C                    -36.77318   12.80502   2.08567 
 C                    -34.42479   13.47758   2.32493 
 C                    -33.01702   13.18181   2.26565 
 C                    -32.36724   14.34448   2.58877 
 C                    -33.40721   15.31914   2.86248 
 C                    -34.11977   17.51227   3.69667 
 C                    -33.82887   18.8002   4.29097 
 C                    -35.02992   19.38222   4.55061 
 C                    -36.03886   18.44334   4.1075 
 C                    -37.39923   18.69064   4.15794 
 H                    -37.71478   19.6638   4.50577 
 C                    -39.63426   14.83067   2.37316 
 H                    -40.65022   14.58729   2.09932 
 C                    -35.41489   12.55242   2.03918 
 H                    -35.10755   11.57007   1.71541 
 C                    -33.15471   16.6108   3.29041 
 H                    -32.12346   16.91956   3.37069 
 C                    -41.74324   17.05587   2.28915 
 H                    -42.27631   18.00075   2.36345 
 H                    -42.29004   16.30849   2.86494 
 H                    -41.74235   16.74152   1.24515 
 C                    -40.25359   19.64628   3.57243 
 H                    -39.68439   20.38525   3.00703 
 H                    -40.1834   19.90563   4.6292 
 H                    -41.29655   19.71568   3.27306 
 C                    -40.35661   11.94844   1.61208 
 H                    -40.86817   12.51671   0.83433 
 H                    -40.95231   12.01521   2.52296 
 H                    -40.31231   10.90535   1.30854 
 C                    -37.59249   10.42409   1.44644 
 H                    -38.23772   10.02752   0.66913 
 C                    -36.73901   9.60343   2.04886 
 H                    -36.11112   9.92441   2.863 
 H                    -36.65378   8.56837   1.76115 
 C                    -32.43374   11.84354   1.96895 
 H                    -32.3387   11.68995   0.89234 
 H                    -33.06422   11.04918   2.36515 
 H                    -31.44444   11.7593   2.41487 
 C                    -30.94758   14.5954   2.69013 
 H                    -30.65191   15.3289   3.43144 
 C                    -30.00508   14.01396   1.95406 
 H                    -30.23881   13.31501   1.1704 
 H                    -28.96104   14.24133   2.09406 
 C                    -32.45511   19.32551   4.53284 
 H                    -31.89252   19.37289   3.60007 
 H                    -31.91255   18.67684   5.22101 
 H                    -32.4921   20.32434   4.96123 
 C                    -35.32641   20.71177   5.15708 
 H                    -34.40834   21.22865   5.42568 
 H                    -35.93185   20.59777   6.05667 
 H                    -35.87925   21.33908   4.45661 
 C                    -36.93692   15.08665   8.5765 
 H                    -36.03588   14.9095   9.164 
 H                    -37.71948   14.4231   8.94487 
 H                    -37.25322   16.11421   8.72603 
 N                    -36.26719   13.63591   6.6489 
 H                    -36.1033   12.80791   7.19749 
 C                    -36.68035   14.84997   7.1329 
 C                    -36.12583   13.75638   5.30937 
 H                    -35.81315   12.96043   4.66554 
 N                    -36.42356   14.97021   4.91656 
 C                    -36.77036   15.66228   6.03953 
 H                    -37.06019   16.69075   5.98313 
 C                    -35.93827   16.19698  -2.50855 
 H                    -35.14724   16.84198  -2.89148 
 H                    -36.84056   16.38107  -3.09197 
 H                    -35.6398   15.16234  -2.64591 
 N                    -36.58024   17.68108  -0.59623 
 H                    -36.74892   18.50091  -1.15551 
 C                    -36.17933   16.45725  -1.06654 
 C                    -36.70457   17.58176   0.74664 
 H                    -37.0065   18.38958   1.38082 
 N                    -36.40971   16.3727   1.15389 
 C                    -36.08039   15.66174   0.0383 
 H                    -35.79492   14.63271   0.10454 
 
 Stoichiometry    C38H40FeN8
 Framework group  C1[X(C38H40FeN8)]
 Deg. of freedom   255
 Full point group                 C1      NOp   1
 Largest Abelian subgroup         C1      NOp   1
 Largest concise Abelian subgroup C1      NOp   1
                         Standard orientation:                         
 ---------------------------------------------------------------------
 Center     Atomic      Atomic             Coordinates (Angstroms)
 Number     Number       Type             X           Y           Z
 ---------------------------------------------------------------------
      1         26           0       -0.206407   -0.013225    0.059688
      2          7           0       -1.922815   -1.026017    0.153513
      3          7           0        0.820952   -1.747857    0.137365
      4          7           0        1.558560    0.968006   -0.115611
      5          7           0       -1.169167    1.716890   -0.077340
      6          6           0       -3.159435   -0.481837    0.021549
      7          6           0       -4.137370   -1.498246   -0.293084
      8          6           0       -3.457009   -2.676330   -0.343961
      9          6           0       -2.076057   -2.359583   -0.058185
     10          6           0        0.281207   -2.997317    0.166974
     11          6           0        1.307934   -3.993622    0.318688
     12          6           0        2.498366   -3.319548    0.371014
     13          6           0        2.164697   -1.916076    0.226370
     14          6           0        2.808967    0.440407   -0.011126
     15          6           0        3.811350    1.470702   -0.092038
     16          6           0        3.135454    2.649945   -0.268056
     17          6           0        1.725627    2.305278   -0.264909
     18          6           0       -0.637508    2.957717   -0.207025
     19          6           0       -1.674975    3.965717   -0.142289
     20          6           0       -2.849951    3.297173    0.003181
     21          6           0       -2.514778    1.888930    0.021274
     22          6           0       -3.450569    0.873413    0.106863
     23          1           0       -4.493090    1.157530    0.111748
     24          6           0       -1.065061   -3.296074    0.036840
     25          1           0       -1.338418   -4.338384   -0.035704
     26          6           0        3.102650   -0.903749    0.146532
     27          1           0        4.142035   -1.192712    0.168061
     28          6           0        0.707483    3.238545   -0.352513
     29          1           0        0.985939    4.273076   -0.484638
     30          6           0       -3.960554   -4.047787   -0.639499
     31          1           0       -5.025615   -4.032670   -0.858365
     32          1           0       -3.796051   -4.706533    0.213785
     33          1           0       -3.438121   -4.471903   -1.497371
     34          6           0       -5.588896   -1.235603   -0.512080
     35          1           0       -5.737375   -0.559191   -1.354790
     36          1           0       -6.032428   -0.774112    0.370678
     37          1           0       -6.122469   -2.160403   -0.717612
     38          6           0        1.072539   -5.460904    0.427284
     39          1           0        0.541802   -5.830873   -0.450760
     40          1           0        0.467891   -5.689193    1.305518
     41          1           0        2.015912   -5.994469    0.513901
     42          6           0        3.814875   -3.894559    0.559927
     43          1           0        3.991621   -4.830430    0.039639
     44          6           0        4.776141   -3.401937    1.333295
     45          1           0        4.641717   -2.506406    1.916442
     46          1           0        5.730723   -3.893066    1.427930
     47          6           0        5.277734    1.253918    0.056077
     48          1           0        5.728853    0.975954   -0.898347
     49          1           0        5.481801    0.454974    0.767089
     50          1           0        5.757100    2.165466    0.408121
     51          6           0        3.661675    3.989845   -0.396208
     52          1           0        3.036414    4.780281    0.002855
     53          6           0        4.821142    4.314559   -0.960451
     54          1           0        5.462325    3.581261   -1.417011
     55          1           0        5.156737    5.337452   -1.009184
     56          6           0       -1.430706    5.433249   -0.233655
     57          1           0       -0.930160    5.681514   -1.169941
     58          1           0       -0.795582    5.767740    0.586980
     59          1           0       -2.366554    5.985300   -0.189127
     60          6           0       -4.236424    3.833495    0.119235
     61          1           0       -4.234481    4.920568    0.098303
     62          1           0       -4.697459    3.509047    1.052503
     63          1           0       -4.856620    3.477046   -0.704236
     64          6           0       -1.431589    0.741440    5.457793
     65          1           0       -0.960545    1.572606    5.982860
     66          1           0       -1.406788   -0.131427    6.110398
     67          1           0       -2.467453    0.997856    5.259032
     68          7           0        0.590599    0.111655    4.122512
     69          1           0        1.204993    0.006044    4.912932
     70          6           0       -0.733226    0.462981    4.176950
     71          6           0        0.912725   -0.068284    2.821478
     72          1           0        1.886764   -0.350092    2.478468
     73          7           0       -0.124237    0.147366    2.050430
     74          6           0       -1.155702    0.478804    2.878993
     75          1           0       -2.125316    0.703265    2.486065
     76          6           0        1.051643   -0.838408   -5.333220
     77          1           0        1.050050    0.029006   -5.993521
     78          1           0        0.573284   -1.666271   -5.856859
     79          1           0        2.080623   -1.109930   -5.118950
     80          7           0       -0.978774   -0.173639   -4.026659
     81          1           0       -1.586382   -0.078732   -4.823642
     82          6           0        0.342900   -0.536230   -4.063731
     83          6           0       -1.309783    0.031474   -2.731671
     84          1           0       -2.285208    0.325346   -2.402877
     85          7           0       -0.281904   -0.180511   -1.948635
     86          6           0        0.753611   -0.533590   -2.761957
     87          1           0        1.718838   -0.759379   -2.359277
 ---------------------------------------------------------------------
 Rotational constants (GHZ):           0.0781040           0.0741266           0.0597143
 Standard basis: def2TZVP (5D, 7F)
 There are  1948 symmetry adapted cartesian basis functions of A   symmetry.
 There are  1711 symmetry adapted basis functions of A   symmetry.
  1711 basis functions,  2768 primitive gaussians,  1948 cartesian basis functions
   175 alpha electrons      175 beta electrons
       nuclear repulsion energy      7169.7554771806 Hartrees.
 NAtoms=   87 NActive=   87 NUniq=   87 SFac= 1.00D+00 NAtFMM=   60 NAOKFM=T Big=T
 Integral buffers will be    131072 words long.
 Raffenetti 2 integral format.
 Two-electron integral symmetry is turned on.
 R6APFD:  NTU= -4 IXU= 1 FactS= 1.050
 Nuclear repulsion after empirical dispersion term =     7169.5857640886 Hartrees.
 One-electron integrals computed using PRISM.
   1 Symmetry operations used in ECPInt.
 ECPInt:  NShTT=  232221 NPrTT=  716997 LenC2=  183324 LenP2D=  371619.
 LDataN:  DoStor=T MaxTD1= 6 Len=  172
 Number of processors reduced to  20 by ecpmxn.
 NBasis=  1711 RedAO= T EigKep=  3.30D-06  NBF=  1711
 NBsUse=  1711 1.00D-06 EigRej= -1.00D+00 NBFU=  1711
 ExpMin= 4.20D-02 ExpMax= 3.01D+05 ExpMxC= 2.91D+03 IAcc=3 IRadAn=         5 AccDes= 0.00D+00
 Harris functional with IExCor= 3731 and IRadAn=       5 diagonalized for initial guess.
 HarFok:  IExCor= 3731 AccDes= 0.00D+00 IRadAn=         5 IDoV= 1 UseB2=F ITyADJ=14
 ICtDFT=  3500011 ScaDFX=  1.000000  1.000000  1.000000  1.000000
 FoFCou: FMM=F IPFlag=           0 FMFlag=      100000 FMFlg1=        2001
         NFxFlg=           0 DoJE=T BraDBF=F KetDBF=T FulRan=T
         wScrn=  0.000000 ICntrl=       500 IOpCl=  0 I1Cent=   200000004 NGrid=           0
         NMat0=    1 NMatS0=      1 NMatT0=    0 NMatD0=    1 NMtDS0=    0 NMtDT0=    0
 Petite list used in FoFCou.
 Requested convergence on RMS density matrix=1.00D-08 within 128 cycles.
 Requested convergence on MAX density matrix=1.00D-06.
 Requested convergence on             energy=1.00D-06.
 No special actions if energy rises.
 EnCoef did   100 forward-backward iterations
 EnCoef did   100 forward-backward iterations
 EnCoef did   100 forward-backward iterations
 EnCoef did   100 forward-backward iterations
 EnCoef did    15 forward-backward iterations
 EnCoef did     4 forward-backward iterations
 Restarting incremental Fock formation.
 SCF Done:  E(RAPFD) =  -3173.07784091     A.U. after   27 cycles
            NFock= 27  Conv=0.21D-08     -V/T= 2.0035
 DoSCS=F DFT=T ScalE2(SS,OS)=  1.000000  1.000000
 Range of M.O.s used for correlation:     1  1711
 NBasis=  1711 NAE=   175 NBE=   175 NFC=     0 NFV=     0
 NROrb=   1711 NOA=   175 NOB=   175 NVA=  1536 NVB=  1536

 **** Warning!!: The largest alpha MO coefficient is  0.42604913D+02

          Differentiating once with respect to electric field.
                with respect to dipole field.
          Electric field/nuclear overlap derivatives assumed to be zero.
          There are     3 degrees of freedom in the 1st order CPHF.  IDoFFX=0 NUNeed=     3.
      3 vectors produced by pass  0 Test12= 8.96D-12 3.33D-08 XBig12= 1.92D+03 2.51D+01.
 AX will form     3 AO Fock derivatives at one time.
      3 vectors produced by pass  1 Test12= 8.96D-12 3.33D-08 XBig12= 1.37D+03 7.87D+00.
      3 vectors produced by pass  2 Test12= 8.96D-12 3.33D-08 XBig12= 4.17D+02 3.08D+00.
      3 vectors produced by pass  3 Test12= 8.96D-12 3.33D-08 XBig12= 3.57D+02 4.32D+00.
      3 vectors produced by pass  4 Test12= 8.96D-12 3.33D-08 XBig12= 2.27D+02 2.39D+00.
      3 vectors produced by pass  5 Test12= 8.96D-12 3.33D-08 XBig12= 1.13D+02 1.90D+00.
      3 vectors produced by pass  6 Test12= 8.96D-12 3.33D-08 XBig12= 6.91D+01 1.38D+00.
      3 vectors produced by pass  7 Test12= 8.96D-12 3.33D-08 XBig12= 3.81D+01 1.06D+00.
      3 vectors produced by pass  8 Test12= 8.96D-12 3.33D-08 XBig12= 1.45D+01 5.62D-01.
      3 vectors produced by pass  9 Test12= 8.96D-12 3.33D-08 XBig12= 5.13D+00 5.85D-01.
      3 vectors produced by pass 10 Test12= 8.96D-12 3.33D-08 XBig12= 2.06D+00 3.58D-01.
      3 vectors produced by pass 11 Test12= 8.96D-12 3.33D-08 XBig12= 1.35D+00 3.01D-01.
      3 vectors produced by pass 12 Test12= 8.96D-12 3.33D-08 XBig12= 6.13D-01 2.07D-01.
      3 vectors produced by pass 13 Test12= 8.96D-12 3.33D-08 XBig12= 3.54D-01 1.68D-01.
      3 vectors produced by pass 14 Test12= 8.96D-12 3.33D-08 XBig12= 1.68D-01 8.45D-02.
      3 vectors produced by pass 15 Test12= 8.96D-12 3.33D-08 XBig12= 6.77D-02 6.30D-02.
      3 vectors produced by pass 16 Test12= 8.96D-12 3.33D-08 XBig12= 2.59D-02 2.58D-02.
      3 vectors produced by pass 17 Test12= 8.96D-12 3.33D-08 XBig12= 9.85D-03 1.62D-02.
      3 vectors produced by pass 18 Test12= 8.96D-12 3.33D-08 XBig12= 2.48D-03 8.47D-03.
      3 vectors produced by pass 19 Test12= 8.96D-12 3.33D-08 XBig12= 5.70D-04 3.77D-03.
      3 vectors produced by pass 20 Test12= 8.96D-12 3.33D-08 XBig12= 1.97D-04 2.78D-03.
      3 vectors produced by pass 21 Test12= 8.96D-12 3.33D-08 XBig12= 5.19D-05 1.67D-03.
      3 vectors produced by pass 22 Test12= 8.96D-12 3.33D-08 XBig12= 1.32D-05 1.04D-03.
      3 vectors produced by pass 23 Test12= 8.96D-12 3.33D-08 XBig12= 2.48D-06 3.43D-04.
      3 vectors produced by pass 24 Test12= 8.96D-12 3.33D-08 XBig12= 5.61D-07 1.55D-04.
      3 vectors produced by pass 25 Test12= 8.96D-12 3.33D-08 XBig12= 9.27D-08 5.05D-05.
      3 vectors produced by pass 26 Test12= 8.96D-12 3.33D-08 XBig12= 2.06D-08 2.15D-05.
      3 vectors produced by pass 27 Test12= 8.96D-12 3.33D-08 XBig12= 3.48D-09 1.00D-05.
      3 vectors produced by pass 28 Test12= 8.96D-12 3.33D-08 XBig12= 7.33D-10 3.07D-06.
      3 vectors produced by pass 29 Test12= 8.96D-12 3.33D-08 XBig12= 1.66D-10 1.56D-06.
      3 vectors produced by pass 30 Test12= 8.96D-12 3.33D-08 XBig12= 2.78D-11 6.60D-07.
      3 vectors produced by pass 31 Test12= 8.96D-12 3.33D-08 XBig12= 3.44D-12 2.48D-07.
      2 vectors produced by pass 32 Test12= 8.96D-12 3.33D-08 XBig12= 4.40D-13 7.30D-08.
 InvSVY:  IOpt=1 It=  1 EMax= 6.39D-14
 Solved reduced A of dimension    98 with     3 vectors.
 Isotropic polarizability for W=    0.000000      613.96 Bohr**3.
 End of Minotr F.D. properties file   721 does not exist.
 End of Minotr F.D. properties file   722 does not exist.
 End of Minotr F.D. properties file   788 does not exist.

 **********************************************************************

            Population analysis using the SCF Density.

 **********************************************************************

 Orbital symmetries:
       Occupied  (A) (A) (A) (A) (A) (A) (A) (A) (A) (A) (A) (A)
                 (A) (A) (A) (A) (A) (A) (A) (A) (A) (A) (A) (A)
                 (A) (A) (A) (A) (A) (A) (A) (A) (A) (A) (A) (A)
                 (A) (A) (A) (A) (A) (A) (A) (A) (A) (A) (A) (A)
                 (A) (A) (A) (A) (A) (A) (A) (A) (A) (A) (A) (A)
                 (A) (A) (A) (A) (A) (A) (A) (A) (A) (A) (A) (A)
                 (A) (A) (A) (A) (A) (A) (A) (A) (A) (A) (A) (A)
                 (A) (A) (A) (A) (A) (A) (A) (A) (A) (A) (A) (A)
                 (A) (A) (A) (A) (A) (A) (A) (A) (A) (A) (A) (A)
                 (A) (A) (A) (A) (A) (A) (A) (A) (A) (A) (A) (A)
                 (A) (A) (A) (A) (A) (A) (A) (A) (A) (A) (A) (A)
                 (A) (A) (A) (A) (A) (A) (A) (A) (A) (A) (A) (A)
                 (A) (A) (A) (A) (A) (A) (A) (A) (A) (A) (A) (A)
                 (A) (A) (A) (A) (A) (A) (A) (A) (A) (A) (A) (A)
                 (A) (A) (A) (A) (A) (A) (A)
       Virtual   (A) (A) (A) (A) (A) (A) (A) (A) (A) (A) (A) (A)
                 (A) (A) (A) (A) (A) (A) (A) (A) (A) (A) (A) (A)
                 (A) (A) (A) (A) (A) (A) (A) (A) (A) (A) (A) (A)
                 (A) (A) (A) (A) (A) (A) (A) (A) (A) (A) (A) (A)
                 (A) (A) (A) (A) (A) (A) (A) (A) (A) (A) (A) (A)
                 (A) (A) (A) (A) (A) (A) (A) (A) (A) (A) (A) (A)
                 (A) (A) (A) (A) (A) (A) (A) (A) (A) (A) (A) (A)
                 (A) (A) (A) (A) (A) (A) (A) (A) (A) (A) (A) (A)
                 (A) (A) (A) (A) (A) (A) (A) (A) (A) (A) (A) (A)
                 (A) (A) (A) (A) (A) (A) (A) (A) (A) (A) (A) (A)
                 (A) (A) (A) (A) (A) (A) (A) (A) (A) (A) (A) (A)
                 (A) (A) (A) (A) (A) (A) (A) (A) (A) (A) (A) (A)
                 (A) (A) (A) (A) (A) (A) (A) (A) (A) (A) (A) (A)
                 (A) (A) (A) (A) (A) (A) (A) (A) (A) (A) (A) (A)
                 (A) (A) (A) (A) (A) (A) (A) (A) (A) (A) (A) (A)
                 (A) (A) (A) (A) (A) (A) (A) (A) (A) (A) (A) (A)
                 (A) (A) (A) (A) (A) (A) (A) (A) (A) (A) (A) (A)
                 (A) (A) (A) (A) (A) (A) (A) (A) (A) (A) (A) (A)
                 (A) (A) (A) (A) (A) (A) (A) (A) (A) (A) (A) (A)
                 (A) (A) (A) (A) (A) (A) (A) (A) (A) (A) (A) (A)
                 (A) (A) (A) (A) (A) (A) (A) (A) (A) (A) (A) (A)
                 (A) (A) (A) (A) (A) (A) (A) (A) (A) (A) (A) (A)
                 (A) (A) (A) (A) (A) (A) (A) (A) (A) (A) (A) (A)
                 (A) (A) (A) (A) (A) (A) (A) (A) (A) (A) (A) (A)
                 (A) (A) (A) (A) (A) (A) (A) (A) (A) (A) (A) (A)
                 (A) (A) (A) (A) (A) (A) (A) (A) (A) (A) (A) (A)
                 (A) (A) (A) (A) (A) (A) (A) (A) (A) (A) (A) (A)
                 (A) (A) (A) (A) (A) (A) (A) (A) (A) (A) (A) (A)
                 (A) (A) (A) (A) (A) (A) (A) (A) (A) (A) (A) (A)
                 (A) (A) (A) (A) (A) (A) (A) (A) (A) (A) (A) (A)
                 (A) (A) (A) (A) (A) (A) (A) (A) (A) (A) (A) (A)
                 (A) (A) (A) (A) (A) (A) (A) (A) (A) (A) (A) (A)
                 (A) (A) (A) (A) (A) (A) (A) (A) (A) (A) (A) (A)
                 (A) (A) (A) (A) (A) (A) (A) (A) (A) (A) (A) (A)
                 (A) (A) (A) (A) (A) (A) (A) (A) (A) (A) (A) (A)
                 (A) (A) (A) (A) (A) (A) (A) (A) (A) (A) (A) (A)
                 (A) (A) (A) (A) (A) (A) (A) (A) (A) (A) (A) (A)
                 (A) (A) (A) (A) (A) (A) (A) (A) (A) (A) (A) (A)
                 (A) (A) (A) (A) (A) (A) (A) (A) (A) (A) (A) (A)
                 (A) (A) (A) (A) (A) (A) (A) (A) (A) (A) (A) (A)
                 (A) (A) (A) (A) (A) (A) (A) (A) (A) (A) (A) (A)
                 (A) (A) (A) (A) (A) (A) (A) (A) (A) (A) (A) (A)
                 (A) (A) (A) (A) (A) (A) (A) (A) (A) (A) (A) (A)
                 (A) (A) (A) (A) (A) (A) (A) (A) (A) (A) (A) (A)
                 (A) (A) (A) (A) (A) (A) (A) (A) (A) (A) (A) (A)
                 (A) (A) (A) (A) (A) (A) (A) (A) (A) (A) (A) (A)
                 (A) (A) (A) (A) (A) (A) (A) (A) (A) (A) (A) (A)
                 (A) (A) (A) (A) (A) (A) (A) (A) (A) (A) (A) (A)
                 (A) (A) (A) (A) (A) (A) (A) (A) (A) (A) (A) (A)
                 (A) (A) (A) (A) (A) (A) (A) (A) (A) (A) (A) (A)
                 (A) (A) (A) (A) (A) (A) (A) (A) (A) (A) (A) (A)
                 (A) (A) (A) (A) (A) (A) (A) (A) (A) (A) (A) (A)
                 (A) (A) (A) (A) (A) (A) (A) (A) (A) (A) (A) (A)
                 (A) (A) (A) (A) (A) (A) (A) (A) (A) (A) (A) (A)
                 (A) (A) (A) (A) (A) (A) (A) (A) (A) (A) (A) (A)
                 (A) (A) (A) (A) (A) (A) (A) (A) (A) (A) (A) (A)
                 (A) (A) (A) (A) (A) (A) (A) (A) (A) (A) (A) (A)
                 (A) (A) (A) (A) (A) (A) (A) (A) (A) (A) (A) (A)
                 (A) (A) (A) (A) (A) (A) (A) (A) (A) (A) (A) (A)
                 (A) (A) (A) (A) (A) (A) (A) (A) (A) (A) (A) (A)
                 (A) (A) (A) (A) (A) (A) (A) (A) (A) (A) (A) (A)
                 (A) (A) (A) (A) (A) (A) (A) (A) (A) (A) (A) (A)
                 (A) (A) (A) (A) (A) (A) (A) (A) (A) (A) (A) (A)
                 (A) (A) (A) (A) (A) (A) (A) (A) (A) (A) (A) (A)
                 (A) (A) (A) (A) (A) (A) (A) (A) (A) (A) (A) (A)
                 (A) (A) (A) (A) (A) (A) (A) (A) (A) (A) (A) (A)
                 (A) (A) (A) (A) (A) (A) (A) (A) (A) (A) (A) (A)
                 (A) (A) (A) (A) (A) (A) (A) (A) (A) (A) (A) (A)
                 (A) (A) (A) (A) (A) (A) (A) (A) (A) (A) (A) (A)
                 (A) (A) (A) (A) (A) (A) (A) (A) (A) (A) (A) (A)
                 (A) (A) (A) (A) (A) (A) (A) (A) (A) (A) (A) (A)
                 (A) (A) (A) (A) (A) (A) (A) (A) (A) (A) (A) (A)
                 (A) (A) (A) (A) (A) (A) (A) (A) (A) (A) (A) (A)
                 (A) (A) (A) (A) (A) (A) (A) (A) (A) (A) (A) (A)
                 (A) (A) (A) (A) (A) (A) (A) (A) (A) (A) (A) (A)
                 (A) (A) (A) (A) (A) (A) (A) (A) (A) (A) (A) (A)
                 (A) (A) (A) (A) (A) (A) (A) (A) (A) (A) (A) (A)
                 (A) (A) (A) (A) (A) (A) (A) (A) (A) (A) (A) (A)
                 (A) (A) (A) (A) (A) (A) (A) (A) (A) (A) (A) (A)
                 (A) (A) (A) (A) (A) (A) (A) (A) (A) (A) (A) (A)
                 (A) (A) (A) (A) (A) (A) (A) (A) (A) (A) (A) (A)
                 (A) (A) (A) (A) (A) (A) (A) (A) (A) (A) (A) (A)
                 (A) (A) (A) (A) (A) (A) (A) (A) (A) (A) (A) (A)
                 (A) (A) (A) (A) (A) (A) (A) (A) (A) (A) (A) (A)
                 (A) (A) (A) (A) (A) (A) (A) (A) (A) (A) (A) (A)
                 (A) (A) (A) (A) (A) (A) (A) (A) (A) (A) (A) (A)
                 (A) (A) (A) (A) (A) (A) (A) (A) (A) (A) (A) (A)
                 (A) (A) (A) (A) (A) (A) (A) (A) (A) (A) (A) (A)
                 (A) (A) (A) (A) (A) (A) (A) (A) (A) (A) (A) (A)
                 (A) (A) (A) (A) (A) (A) (A) (A) (A) (A) (A) (A)
                 (A) (A) (A) (A) (A) (A) (A) (A) (A) (A) (A) (A)
                 (A) (A) (A) (A) (A) (A) (A) (A) (A) (A) (A) (A)
                 (A) (A) (A) (A) (A) (A) (A) (A) (A) (A) (A) (A)
                 (A) (A) (A) (A) (A) (A) (A) (A) (A) (A) (A) (A)
                 (A) (A) (A) (A) (A) (A) (A) (A) (A) (A) (A) (A)
                 (A) (A) (A) (A) (A) (A) (A) (A) (A) (A) (A) (A)
                 (A) (A) (A) (A) (A) (A) (A) (A) (A) (A) (A) (A)
                 (A) (A) (A) (A) (A) (A) (A) (A) (A) (A) (A) (A)
                 (A) (A) (A) (A) (A) (A) (A) (A) (A) (A) (A) (A)
                 (A) (A) (A) (A) (A) (A) (A) (A) (A) (A) (A) (A)
                 (A) (A) (A) (A) (A) (A) (A) (A) (A) (A) (A) (A)
                 (A) (A) (A) (A) (A) (A) (A) (A) (A) (A) (A) (A)
                 (A) (A) (A) (A) (A) (A) (A) (A) (A) (A) (A) (A)
                 (A) (A) (A) (A) (A) (A) (A) (A) (A) (A) (A) (A)
                 (A) (A) (A) (A) (A) (A) (A) (A) (A) (A) (A) (A)
                 (A) (A) (A) (A) (A) (A) (A) (A) (A) (A) (A) (A)
                 (A) (A) (A) (A) (A) (A) (A) (A) (A) (A) (A) (A)
                 (A) (A) (A) (A) (A) (A) (A) (A) (A) (A) (A) (A)
                 (A) (A) (A) (A) (A) (A) (A) (A) (A) (A) (A) (A)
                 (A) (A) (A) (A) (A) (A) (A) (A) (A) (A) (A) (A)
                 (A) (A) (A) (A) (A) (A) (A) (A) (A) (A) (A) (A)
                 (A) (A) (A) (A) (A) (A) (A) (A) (A) (A) (A) (A)
                 (A) (A) (A) (A) (A) (A) (A) (A) (A) (A) (A) (A)
                 (A) (A) (A) (A) (A) (A) (A) (A) (A) (A) (A) (A)
                 (A) (A) (A) (A) (A) (A) (A) (A) (A) (A) (A) (A)
                 (A) (A) (A) (A) (A) (A) (A) (A) (A) (A) (A) (A)
                 (A) (A) (A) (A) (A) (A) (A) (A) (A) (A) (A) (A)
                 (A) (A) (A) (A) (A) (A) (A) (A) (A) (A) (A) (A)
                 (A) (A) (A) (A) (A) (A) (A) (A) (A) (A) (A) (A)
                 (A) (A) (A) (A) (A) (A) (A) (A) (A) (A) (A) (A)
                 (A) (A) (A) (A) (A) (A) (A) (A) (A) (A) (A) (A)
                 (A) (A) (A) (A) (A) (A) (A) (A) (A) (A) (A) (A)
                 (A) (A) (A) (A) (A) (A) (A) (A) (A) (A) (A) (A)
                 (A) (A) (A) (A) (A) (A) (A) (A) (A) (A) (A) (A)
                 (A) (A) (A) (A) (A) (A) (A) (A) (A) (A) (A) (A)
                 (A) (A) (A) (A) (A) (A) (A) (A) (A) (A) (A) (A)
                 (A) (A) (A) (A) (A) (A) (A) (A) (A) (A) (A) (A)
                 (A) (A) (A) (A) (A) (A) (A) (A) (A) (A) (A) (A)
 The electronic state is 1-A.
 Alpha  occ. eigenvalues -- -256.16453 -30.01619 -25.85739 -25.85401 -25.85340
 Alpha  occ. eigenvalues --  -14.40773 -14.40772 -14.35077 -14.34964 -14.32410
 Alpha  occ. eigenvalues --  -14.32284 -14.32213 -14.32177 -10.24406 -10.24366
 Alpha  occ. eigenvalues --  -10.22809 -10.22764 -10.20472 -10.20396 -10.20351
 Alpha  occ. eigenvalues --  -10.20134 -10.20121 -10.20071 -10.20036 -10.19959
 Alpha  occ. eigenvalues --  -10.19917 -10.19857 -10.19828 -10.19786 -10.19409
 Alpha  occ. eigenvalues --  -10.18957 -10.18376 -10.18288 -10.18282 -10.18269
 Alpha  occ. eigenvalues --  -10.18207 -10.18180 -10.18088 -10.18041 -10.17984
 Alpha  occ. eigenvalues --  -10.17977 -10.17960 -10.17928 -10.17909 -10.17861
 Alpha  occ. eigenvalues --  -10.17784 -10.17735 -10.17625 -10.17618 -10.17523
 Alpha  occ. eigenvalues --  -10.17481  -3.38995  -2.15492  -2.14910  -2.14843
 Alpha  occ. eigenvalues --   -1.04346  -1.04320  -0.96133  -0.95201  -0.95133
 Alpha  occ. eigenvalues --   -0.94207  -0.89917  -0.89831  -0.81557  -0.81207
 Alpha  occ. eigenvalues --   -0.80864  -0.80068  -0.79768  -0.79439  -0.79389
 Alpha  occ. eigenvalues --   -0.78972  -0.78757  -0.76327  -0.75172  -0.73685
 Alpha  occ. eigenvalues --   -0.73193  -0.72641  -0.71017  -0.70947  -0.70171
 Alpha  occ. eigenvalues --   -0.69454  -0.67645  -0.67321  -0.67199  -0.63680
 Alpha  occ. eigenvalues --   -0.63642  -0.63473  -0.63263  -0.60380  -0.60354
 Alpha  occ. eigenvalues --   -0.60119  -0.59599  -0.56874  -0.55864  -0.55053
 Alpha  occ. eigenvalues --   -0.55039  -0.53798  -0.53491  -0.52708  -0.51425
 Alpha  occ. eigenvalues --   -0.50568  -0.50056  -0.49743  -0.47879  -0.47413
 Alpha  occ. eigenvalues --   -0.47080  -0.46793  -0.46754  -0.46698  -0.46501
 Alpha  occ. eigenvalues --   -0.45582  -0.44138  -0.43975  -0.43907  -0.43549
 Alpha  occ. eigenvalues --   -0.42965  -0.42897  -0.42812  -0.42485  -0.42368
 Alpha  occ. eigenvalues --   -0.42321  -0.42205  -0.41859  -0.41777  -0.41680
 Alpha  occ. eigenvalues --   -0.41672  -0.41444  -0.41104  -0.40999  -0.40950
 Alpha  occ. eigenvalues --   -0.40904  -0.40890  -0.39726  -0.39575  -0.39388
 Alpha  occ. eigenvalues --   -0.39028  -0.38887  -0.38604  -0.38241  -0.37982
 Alpha  occ. eigenvalues --   -0.37694  -0.37169  -0.37034  -0.36487  -0.36309
 Alpha  occ. eigenvalues --   -0.36152  -0.35820  -0.35217  -0.34695  -0.33895
 Alpha  occ. eigenvalues --   -0.33664  -0.33115  -0.32449  -0.32425  -0.31243
 Alpha  occ. eigenvalues --   -0.30919  -0.30625  -0.30074  -0.29553  -0.28628
 Alpha  occ. eigenvalues --   -0.28236  -0.27353  -0.26002  -0.25880  -0.23487
 Alpha  occ. eigenvalues --   -0.23221  -0.23144  -0.22197  -0.21896  -0.21199
 Alpha  occ. eigenvalues --   -0.18196  -0.17415  -0.17165  -0.16796  -0.16435
 Alpha virt. eigenvalues --   -0.05882  -0.05693  -0.01424   0.00833   0.02367
 Alpha virt. eigenvalues --    0.02483   0.02528   0.02635   0.03409   0.04439
 Alpha virt. eigenvalues --    0.05089   0.05186   0.05575   0.05981   0.06118
 Alpha virt. eigenvalues --    0.06249   0.06454   0.06799   0.07121   0.07233
 Alpha virt. eigenvalues --    0.07440   0.08236   0.08467   0.08558   0.08912
 Alpha virt. eigenvalues --    0.09132   0.09701   0.09813   0.10266   0.10386
 Alpha virt. eigenvalues --    0.10794   0.10875   0.11199   0.11655   0.11819
 Alpha virt. eigenvalues --    0.12168   0.12418   0.12689   0.12810   0.12936
 Alpha virt. eigenvalues --    0.13014   0.13282   0.13363   0.13500   0.13582
 Alpha virt. eigenvalues --    0.13956   0.14357   0.14598   0.14694   0.15058
 Alpha virt. eigenvalues --    0.15096   0.15263   0.15491   0.15782   0.15933
 Alpha virt. eigenvalues --    0.16141   0.16225   0.16478   0.16566   0.16763
 Alpha virt. eigenvalues --    0.17061   0.17136   0.17445   0.17609   0.17891
 Alpha virt. eigenvalues --    0.18077   0.18379   0.18622   0.19041   0.19158
 Alpha virt. eigenvalues --    0.19692   0.19873   0.20241   0.20494   0.20681
 Alpha virt. eigenvalues --    0.20700   0.20810   0.20988   0.21334   0.21799
 Alpha virt. eigenvalues --    0.21850   0.21999   0.22258   0.22410   0.22725
 Alpha virt. eigenvalues --    0.23255   0.23399   0.23890   0.24136   0.24279
 Alpha virt. eigenvalues --    0.24434   0.24856   0.24912   0.24990   0.25508
 Alpha virt. eigenvalues --    0.25943   0.26183   0.26270   0.26712   0.26920
 Alpha virt. eigenvalues --    0.27166   0.27692   0.28074   0.28148   0.28514
 Alpha virt. eigenvalues --    0.28567   0.28851   0.28944   0.29151   0.29510
 Alpha virt. eigenvalues --    0.29688   0.29730   0.29975   0.30193   0.30609
 Alpha virt. eigenvalues --    0.30677   0.30909   0.31244   0.31264   0.31616
 Alpha virt. eigenvalues --    0.32381   0.32481   0.32757   0.32928   0.33057
 Alpha virt. eigenvalues --    0.33390   0.33638   0.33875   0.34136   0.34316
 Alpha virt. eigenvalues --    0.34697   0.35051   0.35164   0.35335   0.35607
 Alpha virt. eigenvalues --    0.35844   0.35979   0.36409   0.36431   0.36989
 Alpha virt. eigenvalues --    0.37110   0.37443   0.37857   0.38109   0.38173
 Alpha virt. eigenvalues --    0.38268   0.38580   0.38875   0.39218   0.39486
 Alpha virt. eigenvalues --    0.39660   0.39830   0.40072   0.40239   0.40341
 Alpha virt. eigenvalues --    0.40792   0.40897   0.41140   0.41386   0.41580
 Alpha virt. eigenvalues --    0.41758   0.41927   0.42131   0.42377   0.42631
 Alpha virt. eigenvalues --    0.42783   0.42913   0.43028   0.43296   0.43374
 Alpha virt. eigenvalues --    0.43761   0.43899   0.43998   0.44133   0.44360
 Alpha virt. eigenvalues --    0.44418   0.44599   0.44685   0.44844   0.45018
 Alpha virt. eigenvalues --    0.45229   0.45362   0.45570   0.45815   0.45993
 Alpha virt. eigenvalues --    0.46373   0.46494   0.46650   0.46931   0.47040
 Alpha virt. eigenvalues --    0.47290   0.47551   0.47688   0.47808   0.47971
 Alpha virt. eigenvalues --    0.48153   0.48333   0.48366   0.48591   0.48860
 Alpha virt. eigenvalues --    0.49010   0.49103   0.49286   0.49434   0.49651
 Alpha virt. eigenvalues --    0.49953   0.50273   0.50404   0.50624   0.50902
 Alpha virt. eigenvalues --    0.51056   0.51237   0.51313   0.51536   0.51857
 Alpha virt. eigenvalues --    0.52106   0.52181   0.52479   0.52588   0.52905
 Alpha virt. eigenvalues --    0.53286   0.53392   0.53569   0.53840   0.54062
 Alpha virt. eigenvalues --    0.54452   0.54720   0.54976   0.55079   0.55237
 Alpha virt. eigenvalues --    0.55733   0.55910   0.55983   0.56174   0.56424
 Alpha virt. eigenvalues --    0.56596   0.56798   0.57026   0.57623   0.57885
 Alpha virt. eigenvalues --    0.58167   0.58323   0.58356   0.58778   0.59058
 Alpha virt. eigenvalues --    0.59226   0.59434   0.59637   0.60059   0.60160
 Alpha virt. eigenvalues --    0.60247   0.60408   0.60797   0.61185   0.61384
 Alpha virt. eigenvalues --    0.61584   0.61840   0.62032   0.62767   0.62929
 Alpha virt. eigenvalues --    0.63068   0.63292   0.63603   0.63946   0.64143
 Alpha virt. eigenvalues --    0.64468   0.64869   0.65300   0.65753   0.65869
 Alpha virt. eigenvalues --    0.66250   0.66414   0.66614   0.66875   0.67072
 Alpha virt. eigenvalues --    0.67228   0.67535   0.67897   0.68231   0.68645
 Alpha virt. eigenvalues --    0.68975   0.69316   0.69651   0.69783   0.70132
 Alpha virt. eigenvalues --    0.70376   0.70956   0.70990   0.71751   0.71850
 Alpha virt. eigenvalues --    0.72230   0.72494   0.72764   0.72899   0.73378
 Alpha virt. eigenvalues --    0.73740   0.73878   0.74083   0.74608   0.74727
 Alpha virt. eigenvalues --    0.75004   0.75267   0.75685   0.75937   0.76261
 Alpha virt. eigenvalues --    0.76510   0.76649   0.77251   0.77661   0.77932
 Alpha virt. eigenvalues --    0.78049   0.78221   0.78672   0.78749   0.79211
 Alpha virt. eigenvalues --    0.79675   0.79973   0.80273   0.80458   0.80874
 Alpha virt. eigenvalues --    0.80955   0.81291   0.82261   0.82507   0.82717
 Alpha virt. eigenvalues --    0.83038   0.83196   0.83277   0.83677   0.83978
 Alpha virt. eigenvalues --    0.84093   0.84338   0.85162   0.85393   0.85609
 Alpha virt. eigenvalues --    0.86061   0.86426   0.86598   0.87517   0.87811
 Alpha virt. eigenvalues --    0.88245   0.88519   0.88971   0.89343   0.89688
 Alpha virt. eigenvalues --    0.90003   0.90393   0.90641   0.90685   0.90825
 Alpha virt. eigenvalues --    0.91212   0.91565   0.92241   0.92415   0.93008
 Alpha virt. eigenvalues --    0.93241   0.93427   0.93609   0.93932   0.94486
 Alpha virt. eigenvalues --    0.94772   0.94980   0.95215   0.95599   0.95816
 Alpha virt. eigenvalues --    0.95945   0.96418   0.96523   0.97032   0.97070
 Alpha virt. eigenvalues --    0.97616   0.98300   0.98391   0.98802   0.99084
 Alpha virt. eigenvalues --    0.99428   0.99586   0.99858   1.00113   1.00298
 Alpha virt. eigenvalues --    1.00573   1.01123   1.01284   1.01463   1.01651
 Alpha virt. eigenvalues --    1.02183   1.02671   1.03320   1.03363   1.03728
 Alpha virt. eigenvalues --    1.03879   1.04079   1.04597   1.04758   1.05154
 Alpha virt. eigenvalues --    1.05214   1.05845   1.05911   1.06334   1.06470
 Alpha virt. eigenvalues --    1.07189   1.07355   1.07717   1.08154   1.08362
 Alpha virt. eigenvalues --    1.08646   1.08789   1.09509   1.09666   1.10061
 Alpha virt. eigenvalues --    1.10514   1.10955   1.11354   1.11618   1.12035
 Alpha virt. eigenvalues --    1.12213   1.12453   1.12968   1.13427   1.13575
 Alpha virt. eigenvalues --    1.13960   1.14441   1.14573   1.15005   1.15971
 Alpha virt. eigenvalues --    1.16042   1.16356   1.16926   1.17166   1.17235
 Alpha virt. eigenvalues --    1.17722   1.18005   1.18285   1.18501   1.19116
 Alpha virt. eigenvalues --    1.19468   1.19872   1.20162   1.20572   1.20867
 Alpha virt. eigenvalues --    1.21394   1.21777   1.21883   1.22241   1.22482
 Alpha virt. eigenvalues --    1.22925   1.23368   1.24068   1.24233   1.24477
 Alpha virt. eigenvalues --    1.24767   1.25305   1.25895   1.26008   1.26641
 Alpha virt. eigenvalues --    1.27047   1.27177   1.27524   1.27672   1.28255
 Alpha virt. eigenvalues --    1.28644   1.28786   1.29044   1.29520   1.29892
 Alpha virt. eigenvalues --    1.30061   1.30362   1.30777   1.31206   1.31641
 Alpha virt. eigenvalues --    1.32047   1.32454   1.33005   1.33106   1.33619
 Alpha virt. eigenvalues --    1.34041   1.34633   1.34997   1.35269   1.35739
 Alpha virt. eigenvalues --    1.35941   1.36388   1.36920   1.37234   1.38190
 Alpha virt. eigenvalues --    1.38533   1.38844   1.39202   1.39389   1.40096
 Alpha virt. eigenvalues --    1.40826   1.40935   1.41324   1.41736   1.42563
 Alpha virt. eigenvalues --    1.42883   1.43191   1.43254   1.43758   1.44418
 Alpha virt. eigenvalues --    1.44920   1.45462   1.45968   1.46261   1.46787
 Alpha virt. eigenvalues --    1.47073   1.47139   1.47488   1.47627   1.48123
 Alpha virt. eigenvalues --    1.48715   1.48773   1.49346   1.49486   1.49884
 Alpha virt. eigenvalues --    1.50187   1.51002   1.51062   1.51228   1.51393
 Alpha virt. eigenvalues --    1.51923   1.52044   1.52129   1.52457   1.52713
 Alpha virt. eigenvalues --    1.52865   1.53118   1.53237   1.53486   1.53771
 Alpha virt. eigenvalues --    1.53926   1.54272   1.54322   1.54829   1.54896
 Alpha virt. eigenvalues --    1.55463   1.55528   1.55741   1.56017   1.56108
 Alpha virt. eigenvalues --    1.56464   1.56604   1.57038   1.57363   1.57485
 Alpha virt. eigenvalues --    1.57589   1.57798   1.58152   1.58223   1.58601
 Alpha virt. eigenvalues --    1.59143   1.59405   1.59593   1.59930   1.60225
 Alpha virt. eigenvalues --    1.60282   1.60578   1.61085   1.61504   1.61798
 Alpha virt. eigenvalues --    1.62218   1.62408   1.62572   1.62910   1.63076
 Alpha virt. eigenvalues --    1.63475   1.63551   1.63931   1.64013   1.64445
 Alpha virt. eigenvalues --    1.64592   1.64732   1.65569   1.65685   1.65767
 Alpha virt. eigenvalues --    1.66105   1.66387   1.66742   1.66765   1.67203
 Alpha virt. eigenvalues --    1.67376   1.67909   1.67977   1.68310   1.68980
 Alpha virt. eigenvalues --    1.69074   1.69386   1.69445   1.69923   1.70272
 Alpha virt. eigenvalues --    1.70596   1.71071   1.71389   1.71594   1.72273
 Alpha virt. eigenvalues --    1.72306   1.72668   1.72902   1.73592   1.74024
 Alpha virt. eigenvalues --    1.74263   1.74354   1.74844   1.74941   1.75221
 Alpha virt. eigenvalues --    1.75998   1.76656   1.77162   1.77701   1.78317
 Alpha virt. eigenvalues --    1.78601   1.78934   1.79153   1.79658   1.80315
 Alpha virt. eigenvalues --    1.81027   1.81400   1.81740   1.82182   1.83111
 Alpha virt. eigenvalues --    1.83339   1.83589   1.84318   1.84912   1.85520
 Alpha virt. eigenvalues --    1.85565   1.85877   1.86496   1.86831   1.86922
 Alpha virt. eigenvalues --    1.87363   1.87568   1.87977   1.88344   1.88712
 Alpha virt. eigenvalues --    1.88863   1.89445   1.89955   1.90356   1.90666
 Alpha virt. eigenvalues --    1.91511   1.91840   1.92606   1.92781   1.93577
 Alpha virt. eigenvalues --    1.93693   1.94233   1.94860   1.94967   1.95272
 Alpha virt. eigenvalues --    1.95409   1.96364   1.96732   1.97044   1.97431
 Alpha virt. eigenvalues --    1.98029   1.98408   1.98465   1.98809   1.99268
 Alpha virt. eigenvalues --    1.99740   1.99866   2.00347   2.00620   2.01194
 Alpha virt. eigenvalues --    2.01251   2.01798   2.02262   2.02794   2.02889
 Alpha virt. eigenvalues --    2.03318   2.03734   2.03811   2.04200   2.04755
 Alpha virt. eigenvalues --    2.05465   2.05883   2.06143   2.06914   2.07049
 Alpha virt. eigenvalues --    2.07855   2.08339   2.08856   2.09028   2.09134
 Alpha virt. eigenvalues --    2.09671   2.10254   2.10267   2.10813   2.11281
 Alpha virt. eigenvalues --    2.11456   2.12060   2.12406   2.12606   2.13021
 Alpha virt. eigenvalues --    2.13599   2.13901   2.14558   2.14742   2.15173
 Alpha virt. eigenvalues --    2.15217   2.15652   2.15874   2.17006   2.17261
 Alpha virt. eigenvalues --    2.17671   2.18087   2.18128   2.18875   2.19265
 Alpha virt. eigenvalues --    2.19892   2.20501   2.20699   2.20908   2.21156
 Alpha virt. eigenvalues --    2.21376   2.21734   2.21953   2.22183   2.23085
 Alpha virt. eigenvalues --    2.23690   2.24132   2.24783   2.25206   2.25877
 Alpha virt. eigenvalues --    2.26023   2.26446   2.27297   2.27430   2.27683
 Alpha virt. eigenvalues --    2.28169   2.28410   2.28835   2.29064   2.29542
 Alpha virt. eigenvalues --    2.30035   2.30282   2.30813   2.31018   2.31490
 Alpha virt. eigenvalues --    2.31748   2.32559   2.32750   2.33099   2.33271
 Alpha virt. eigenvalues --    2.33895   2.33986   2.34133   2.35029   2.35204
 Alpha virt. eigenvalues --    2.35716   2.36294   2.36704   2.36741   2.36986
 Alpha virt. eigenvalues --    2.37276   2.37369   2.37937   2.38232   2.38525
 Alpha virt. eigenvalues --    2.38722   2.38980   2.39449   2.39621   2.40362
 Alpha virt. eigenvalues --    2.40570   2.40867   2.41680   2.41841   2.42076
 Alpha virt. eigenvalues --    2.42613   2.42947   2.43394   2.43625   2.44137
 Alpha virt. eigenvalues --    2.44607   2.45012   2.45741   2.46525   2.46712
 Alpha virt. eigenvalues --    2.47073   2.47168   2.47698   2.48116   2.48553
 Alpha virt. eigenvalues --    2.48830   2.48917   2.49134   2.49425   2.50340
 Alpha virt. eigenvalues --    2.50901   2.51106   2.51463   2.51814   2.52534
 Alpha virt. eigenvalues --    2.52873   2.53054   2.53219   2.53520   2.53744
 Alpha virt. eigenvalues --    2.54036   2.54274   2.54924   2.55158   2.55697
 Alpha virt. eigenvalues --    2.56290   2.56648   2.56835   2.57440   2.57738
 Alpha virt. eigenvalues --    2.57894   2.58156   2.58555   2.58707   2.59094
 Alpha virt. eigenvalues --    2.59468   2.59783   2.60395   2.60681   2.61418
 Alpha virt. eigenvalues --    2.61622   2.62053   2.62100   2.62554   2.62948
 Alpha virt. eigenvalues --    2.63055   2.63333   2.64092   2.64640   2.65014
 Alpha virt. eigenvalues --    2.65193   2.65870   2.65942   2.66623   2.66975
 Alpha virt. eigenvalues --    2.67011   2.67817   2.68094   2.68523   2.68737
 Alpha virt. eigenvalues --    2.68970   2.69375   2.69828   2.70104   2.70847
 Alpha virt. eigenvalues --    2.71273   2.71474   2.71708   2.72162   2.72418
 Alpha virt. eigenvalues --    2.72864   2.73156   2.73429   2.73976   2.74508
 Alpha virt. eigenvalues --    2.74794   2.75244   2.75478   2.75900   2.76149
 Alpha virt. eigenvalues --    2.76837   2.77099   2.77662   2.78006   2.78385
 Alpha virt. eigenvalues --    2.78821   2.79296   2.79792   2.79890   2.80487
 Alpha virt. eigenvalues --    2.80784   2.81318   2.81454   2.82063   2.82536
 Alpha virt. eigenvalues --    2.82733   2.82808   2.83557   2.84121   2.84582
 Alpha virt. eigenvalues --    2.84859   2.85039   2.85554   2.85737   2.85930
 Alpha virt. eigenvalues --    2.86324   2.86657   2.87076   2.87313   2.87856
 Alpha virt. eigenvalues --    2.88097   2.88646   2.89171   2.89578   2.89785
 Alpha virt. eigenvalues --    2.89904   2.90137   2.91066   2.91209   2.91726
 Alpha virt. eigenvalues --    2.91843   2.92311   2.92685   2.92952   2.93184
 Alpha virt. eigenvalues --    2.93489   2.93848   2.94186   2.94476   2.94879
 Alpha virt. eigenvalues --    2.95226   2.95459   2.95653   2.95679   2.96206
 Alpha virt. eigenvalues --    2.96655   2.96703   2.97028   2.97255   2.97919
 Alpha virt. eigenvalues --    2.98038   2.98549   2.98637   2.99263   2.99592
 Alpha virt. eigenvalues --    2.99760   2.99954   3.00450   3.00581   3.00896
 Alpha virt. eigenvalues --    3.01156   3.01705   3.02007   3.02430   3.02664
 Alpha virt. eigenvalues --    3.03258   3.03548   3.03942   3.04167   3.04747
 Alpha virt. eigenvalues --    3.04765   3.05160   3.05568   3.05971   3.06095
 Alpha virt. eigenvalues --    3.06429   3.06822   3.06872   3.07565   3.07746
 Alpha virt. eigenvalues --    3.08027   3.08340   3.08675   3.09291   3.09534
 Alpha virt. eigenvalues --    3.09817   3.10157   3.10212   3.10606   3.10951
 Alpha virt. eigenvalues --    3.11177   3.11335   3.11623   3.11928   3.12243
 Alpha virt. eigenvalues --    3.12502   3.12643   3.12958   3.13042   3.13576
 Alpha virt. eigenvalues --    3.13627   3.14196   3.14376   3.14687   3.15073
 Alpha virt. eigenvalues --    3.15371   3.15505   3.15717   3.15981   3.16199
 Alpha virt. eigenvalues --    3.16647   3.16835   3.17138   3.17435   3.17809
 Alpha virt. eigenvalues --    3.18009   3.18387   3.18544   3.18626   3.19215
 Alpha virt. eigenvalues --    3.19462   3.19788   3.20390   3.20743   3.20783
 Alpha virt. eigenvalues --    3.21140   3.21387   3.22020   3.22519   3.22638
 Alpha virt. eigenvalues --    3.22813   3.23460   3.23601   3.24150   3.24210
 Alpha virt. eigenvalues --    3.24280   3.24706   3.24996   3.25387   3.25541
 Alpha virt. eigenvalues --    3.25806   3.25975   3.26184   3.26541   3.26852
 Alpha virt. eigenvalues --    3.27032   3.27332   3.27477   3.27973   3.28199
 Alpha virt. eigenvalues --    3.28265   3.28343   3.28620   3.28964   3.29217
 Alpha virt. eigenvalues --    3.29266   3.29619   3.29985   3.30264   3.30459
 Alpha virt. eigenvalues --    3.30699   3.30875   3.30972   3.31184   3.31349
 Alpha virt. eigenvalues --    3.31696   3.31757   3.32001   3.32338   3.32642
 Alpha virt. eigenvalues --    3.33055   3.33417   3.33477   3.33787   3.34054
 Alpha virt. eigenvalues --    3.34391   3.34543   3.35167   3.35240   3.35506
 Alpha virt. eigenvalues --    3.35651   3.36120   3.36226   3.36497   3.36785
 Alpha virt. eigenvalues --    3.37097   3.37388   3.37662   3.37781   3.38169
 Alpha virt. eigenvalues --    3.38553   3.38696   3.38865   3.39382   3.39639
 Alpha virt. eigenvalues --    3.39754   3.39905   3.40513   3.40839   3.40917
 Alpha virt. eigenvalues --    3.41333   3.41688   3.41851   3.42137   3.42472
 Alpha virt. eigenvalues --    3.43349   3.43634   3.43813   3.44164   3.44608
 Alpha virt. eigenvalues --    3.44752   3.45382   3.45605   3.46178   3.46531
 Alpha virt. eigenvalues --    3.46629   3.47019   3.47439   3.47487   3.47769
 Alpha virt. eigenvalues --    3.48178   3.48498   3.48950   3.49609   3.49858
 Alpha virt. eigenvalues --    3.50195   3.50340   3.51247   3.51532   3.52149
 Alpha virt. eigenvalues --    3.52470   3.52513   3.53041   3.53582   3.53932
 Alpha virt. eigenvalues --    3.54127   3.54341   3.54770   3.55572   3.55821
 Alpha virt. eigenvalues --    3.56088   3.56709   3.57104   3.57316   3.57505
 Alpha virt. eigenvalues --    3.57933   3.58463   3.58725   3.58831   3.59085
 Alpha virt. eigenvalues --    3.59672   3.60189   3.60640   3.60934   3.61325
 Alpha virt. eigenvalues --    3.62014   3.62286   3.62760   3.62953   3.63444
 Alpha virt. eigenvalues --    3.63519   3.64086   3.64500   3.65215   3.65675
 Alpha virt. eigenvalues --    3.66467   3.66502   3.66745   3.67115   3.67379
 Alpha virt. eigenvalues --    3.67847   3.68182   3.69041   3.69740   3.69871
 Alpha virt. eigenvalues --    3.70482   3.70633   3.70899   3.71098   3.71709
 Alpha virt. eigenvalues --    3.72051   3.72135   3.72337   3.72833   3.73154
 Alpha virt. eigenvalues --    3.73400   3.73663   3.73911   3.74159   3.74475
 Alpha virt. eigenvalues --    3.75121   3.75417   3.75761   3.75945   3.76493
 Alpha virt. eigenvalues --    3.76728   3.76898   3.77666   3.78033   3.78613
 Alpha virt. eigenvalues --    3.78795   3.79504   3.79871   3.80691   3.81290
 Alpha virt. eigenvalues --    3.81987   3.82193   3.82363   3.82702   3.83418
 Alpha virt. eigenvalues --    3.84071   3.84550   3.85586   3.85801   3.86223
 Alpha virt. eigenvalues --    3.87080   3.87230   3.87880   3.88633   3.88829
 Alpha virt. eigenvalues --    3.89282   3.90037   3.90826   3.90947   3.91599
 Alpha virt. eigenvalues --    3.92042   3.92561   3.93129   3.93272   3.93443
 Alpha virt. eigenvalues --    3.94074   3.94530   3.94982   3.95840   3.95977
 Alpha virt. eigenvalues --    3.96545   3.97958   3.98295   3.98773   3.99281
 Alpha virt. eigenvalues --    3.99910   4.00017   4.01001   4.01377   4.01538
 Alpha virt. eigenvalues --    4.02236   4.02910   4.03564   4.03948   4.04208
 Alpha virt. eigenvalues --    4.04762   4.05158   4.05577   4.06287   4.06862
 Alpha virt. eigenvalues --    4.06938   4.07995   4.08550   4.08878   4.09420
 Alpha virt. eigenvalues --    4.11755   4.12538   4.13126   4.14430   4.14962
 Alpha virt. eigenvalues --    4.15312   4.15969   4.16718   4.17006   4.17952
 Alpha virt. eigenvalues --    4.18412   4.18831   4.19062   4.19476   4.19687
 Alpha virt. eigenvalues --    4.20550   4.20942   4.21305   4.21444   4.21739
 Alpha virt. eigenvalues --    4.22037   4.23137   4.23528   4.24007   4.24294
 Alpha virt. eigenvalues --    4.25356   4.25427   4.26089   4.26225   4.26762
 Alpha virt. eigenvalues --    4.26990   4.27710   4.28136   4.28626   4.29045
 Alpha virt. eigenvalues --    4.29336   4.30758   4.31170   4.31592   4.31709
 Alpha virt. eigenvalues --    4.33195   4.33375   4.34030   4.34725   4.34887
 Alpha virt. eigenvalues --    4.35622   4.35884   4.36454   4.37060   4.38095
 Alpha virt. eigenvalues --    4.38253   4.38568   4.39423   4.40210   4.40345
 Alpha virt. eigenvalues --    4.41184   4.41481   4.41500   4.42342   4.42382
 Alpha virt. eigenvalues --    4.42563   4.43079   4.43490   4.43847   4.43902
 Alpha virt. eigenvalues --    4.44435   4.44690   4.45125   4.45729   4.46269
 Alpha virt. eigenvalues --    4.46759   4.46886   4.47527   4.48282   4.48613
 Alpha virt. eigenvalues --    4.49001   4.49679   4.50265   4.50902   4.51379
 Alpha virt. eigenvalues --    4.52548   4.53667   4.54381   4.54714   4.56084
 Alpha virt. eigenvalues --    4.56958   4.57363   4.58073   4.58449   4.58713
 Alpha virt. eigenvalues --    4.59459   4.60369   4.61673   4.63609   4.64421
 Alpha virt. eigenvalues --    4.65284   4.65530   4.65849   4.66557   4.68134
 Alpha virt. eigenvalues --    4.68621   4.69507   4.69900   4.70426   4.71368
 Alpha virt. eigenvalues --    4.72193   4.73027   4.73283   4.73977   4.74257
 Alpha virt. eigenvalues --    4.74361   4.75249   4.75734   4.76261   4.76450
 Alpha virt. eigenvalues --    4.76939   4.77078   4.78093   4.79410   4.80955
 Alpha virt. eigenvalues --    4.81469   4.82409   4.82936   4.83627   4.84293
 Alpha virt. eigenvalues --    4.85018   4.85148   4.85434   4.86057   4.86443
 Alpha virt. eigenvalues --    4.87205   4.87684   4.88004   4.88478   4.89353
 Alpha virt. eigenvalues --    4.90279   4.91339   4.92320   4.92821   4.94495
 Alpha virt. eigenvalues --    4.95083   4.95723   4.96679   4.96875   4.97352
 Alpha virt. eigenvalues --    4.97540   4.97979   4.98759   5.00081   5.00641
 Alpha virt. eigenvalues --    5.01007   5.01404   5.02325   5.03125   5.03906
 Alpha virt. eigenvalues --    5.04646   5.05297   5.05454   5.06098   5.06674
 Alpha virt. eigenvalues --    5.07770   5.08814   5.09242   5.10055   5.10683
 Alpha virt. eigenvalues --    5.11282   5.12017   5.12542   5.13743   5.14003
 Alpha virt. eigenvalues --    5.14544   5.15474   5.17467   5.18077   5.19684
 Alpha virt. eigenvalues --    5.21426   5.21597   5.22418   5.23945   5.24367
 Alpha virt. eigenvalues --    5.25052   5.26644   5.26913   5.28682   5.28899
 Alpha virt. eigenvalues --    5.29719   5.30440   5.32139   5.33604   5.35512
 Alpha virt. eigenvalues --    5.35668   5.36656   5.37755   5.38438   5.39830
 Alpha virt. eigenvalues --    5.40361   5.40598   5.41921   5.42302   5.43574
 Alpha virt. eigenvalues --    5.44806   5.45354   5.45657   5.45945   5.46694
 Alpha virt. eigenvalues --    5.47521   5.49147   5.50570   5.51525   5.51827
 Alpha virt. eigenvalues --    5.52647   5.53666   5.54456   5.55166   5.57690
 Alpha virt. eigenvalues --    5.58246   5.61826   5.62574   5.63419   5.64280
 Alpha virt. eigenvalues --    5.64732   5.65995   5.66244   5.68072   5.68265
 Alpha virt. eigenvalues --    5.68545   5.69588   5.69988   5.70723   5.73561
 Alpha virt. eigenvalues --    5.75398   5.76198   5.78068   5.79507   5.82916
 Alpha virt. eigenvalues --    5.85432   5.87233   5.93463   5.94757   5.97839
 Alpha virt. eigenvalues --    6.00425   6.02219   6.02758   6.03533   6.04980
 Alpha virt. eigenvalues --    6.05937   6.09442   6.11501   6.12201   6.16283
 Alpha virt. eigenvalues --    6.16865   6.18513   6.19702   6.21162   6.21873
 Alpha virt. eigenvalues --    6.25785   6.29244   6.35135   6.37466   6.43184
 Alpha virt. eigenvalues --   22.36750  22.37487  22.44861  22.44972  22.46315
 Alpha virt. eigenvalues --   22.47203  22.54370  22.55340  22.61692  22.62911
 Alpha virt. eigenvalues --   22.78724  22.86203  22.88231  22.88743  22.94935
 Alpha virt. eigenvalues --   22.97232  22.97334  22.99886  23.00713  23.05222
 Alpha virt. eigenvalues --   23.05919  23.10658  23.14137  23.16836  23.28863
 Alpha virt. eigenvalues --   23.29766  23.31275  23.32357  23.33668  23.43796
 Alpha virt. eigenvalues --   23.47492  23.52506  23.54030  23.58468  23.75578
 Alpha virt. eigenvalues --   23.80740  23.82368  23.92337  32.42112  32.45065
 Alpha virt. eigenvalues --   32.81170  32.89163  32.94486  33.06749  33.16517
 Alpha virt. eigenvalues --   33.43190
          Condensed to atoms (all electrons):
 Mulliken charges:
               1
     1  Fe  -0.388340
     2  N   -0.037709
     3  N   -0.010801
     4  N   -0.018370
     5  N   -0.001380
     6  C    0.184818
     7  C    0.004379
     8  C   -0.081806
     9  C    0.297170
    10  C    0.263965
    11  C   -0.115644
    12  C    0.129663
    13  C    0.216302
    14  C    0.274383
    15  C   -0.039490
    16  C    0.039782
    17  C    0.237023
    18  C    0.223931
    19  C   -0.053341
    20  C   -0.011974
    21  C    0.171205
    22  C   -0.569924
    23  H    0.125404
    24  C   -0.497980
    25  H    0.129778
    26  C   -0.672795
    27  H    0.167365
    28  C   -0.448332
    29  H    0.111653
    30  C   -0.419419
    31  H    0.116776
    32  H    0.134302
    33  H    0.135497
    34  C   -0.420140
    35  H    0.132255
    36  H    0.133882
    37  H    0.118774
    38  C   -0.399398
    39  H    0.131104
    40  H    0.138552
    41  H    0.121855
    42  C   -0.262358
    43  H    0.114334
    44  C   -0.301865
    45  H    0.133952
    46  H    0.120822
    47  C   -0.454581
    48  H    0.139900
    49  H    0.124700
    50  H    0.156583
    51  C   -0.211406
    52  H    0.104688
    53  C   -0.288520
    54  H    0.136515
    55  H    0.118955
    56  C   -0.419562
    57  H    0.134181
    58  H    0.137457
    59  H    0.116566
    60  C   -0.417116
    61  H    0.119423
    62  H    0.133137
    63  H    0.130143
    64  C   -0.399402
    65  H    0.133687
    66  H    0.133695
    67  H    0.143972
    68  N   -0.230805
    69  H    0.232126
    70  C    0.166492
    71  C    0.013975
    72  H    0.178096
    73  N    0.151178
    74  C   -0.195909
    75  H    0.158075
    76  C   -0.397910
    77  H    0.134019
    78  H    0.131956
    79  H    0.145981
    80  N   -0.233497
    81  H    0.231324
    82  C    0.168335
    83  C    0.007624
    84  H    0.173335
    85  N    0.092281
    86  C   -0.217648
    87  H    0.160100
 Sum of Mulliken charges =  -0.00000
 Mulliken charges with hydrogens summed into heavy atoms:
               1
     1  Fe  -0.388340
     2  N   -0.037709
     3  N   -0.010801
     4  N   -0.018370
     5  N   -0.001380
     6  C    0.184818
     7  C    0.004379
     8  C   -0.081806
     9  C    0.297170
    10  C    0.263965
    11  C   -0.115644
    12  C    0.129663
    13  C    0.216302
    14  C    0.274383
    15  C   -0.039490
    16  C    0.039782
    17  C    0.237023
    18  C    0.223931
    19  C   -0.053341
    20  C   -0.011974
    21  C    0.171205
    22  C   -0.444520
    24  C   -0.368201
    26  C   -0.505431
    28  C   -0.336679
    30  C   -0.032844
    34  C   -0.035229
    38  C   -0.007886
    42  C   -0.148024
    44  C   -0.047091
    47  C   -0.033398
    51  C   -0.106718
    53  C   -0.033050
    56  C   -0.031358
    60  C   -0.034412
    64  C    0.011951
    68  N    0.001321
    70  C    0.166492
    71  C    0.192070
    73  N    0.151178
    74  C   -0.037834
    76  C    0.014045
    80  N   -0.002173
    82  C    0.168335
    83  C    0.180959
    85  N    0.092281
    86  C   -0.057548
 Electronic spatial extent (au):  <R**2>=          22319.2665
 Charge=              0.0000 electrons
 Dipole moment (field-independent basis, Debye):
    X=             -1.6749    Y=             -0.4161    Z=             -0.1759  Tot=              1.7347
 Quadrupole moment (field-independent basis, Debye-Ang):
   XX=           -269.9874   YY=           -277.8660   ZZ=           -231.7633
   XY=             -4.2679   XZ=              9.7510   YZ=              5.2341
 Traceless Quadrupole moment (field-independent basis, Debye-Ang):
   XX=            -10.1151   YY=            -17.9938   ZZ=             28.1089
   XY=             -4.2679   XZ=              9.7510   YZ=              5.2341
 Octapole moment (field-independent basis, Debye-Ang**2):
  XXX=            -44.3774  YYY=             -5.9280  ZZZ=             11.4355  XYY=            -25.0826
  XXY=             -7.9461  XXZ=             -9.4324  XZZ=            -20.1528  YZZ=             -3.6759
  YYZ=             -7.6764  XYZ=             -1.6898
 Hexadecapole moment (field-independent basis, Debye-Ang**3):
 XXXX=         -12408.4325 YYYY=         -11251.3591 ZZZZ=          -5209.1051 XXXY=            -78.8853
 XXXZ=             24.4178 YYYX=            -18.2433 YYYZ=             57.3674 ZZZX=            239.8341
 ZZZY=            121.1151 XXYY=          -4009.3040 XXZZ=          -3119.4713 YYZZ=          -3183.4392
 XXYZ=              9.5572 YYXZ=            -26.4922 ZZXY=            -34.2834
 N-N= 7.169585764089D+03 E-N=-2.179200800542D+04  KE= 3.161912893729D+03
  Exact polarizability:     740.394      10.182     694.042       4.146     -14.141     407.451
 Approx polarizability:    1423.684       9.803    1316.937      18.258     -38.016     615.700

 ----------------------------------------------------------------------

 Electric dipole moment (input orientation):
 (Debye = 10**-18 statcoulomb cm , SI units = C m)
                  (au)            (Debye)         (10**-30 SI)
   Tot        0.682501D+00      0.173474D+01      0.578648D+01
   x         -0.481689D+00     -0.122433D+01     -0.408393D+01
   y          0.479576D+00      0.121896D+01      0.406602D+01
   z          0.615613D-01      0.156473D+00      0.521939D+00

 Dipole polarizability, Alpha (input orientation).
 (esu units = cm**3 , SI units = C**2 m**2 J**-1)
 Alpha(0;0):
               (au)            (10**-24 esu)      (10**-40 SI)
   iso        0.613962D+03      0.909798D+02      0.101229D+03
   aniso      0.313894D+03      0.465143D+02      0.517541D+02
   xx         0.715568D+03      0.106036D+03      0.117981D+03
   yx        -0.294317D+02     -0.436132D+01     -0.485263D+01
   yy         0.687038D+03      0.101809D+03      0.113277D+03
   zx         0.922391D+01      0.136684D+01      0.152082D+01
   zy         0.938256D+02      0.139035D+02      0.154697D+02
   zz         0.439281D+03      0.650948D+02      0.724277D+02

 First dipole hyperpolarizability, Beta (input orientation).
 ||, _|_  parallel and perpendicular components, (z) with respect to z axis,
 vector components x,y,z.  Values do not include the 1/n! factor of 1/2.
 (esu units = statvolt**-1 cm**4 , SI units = C**3 m**3 J**-2)
 Beta(0;0,0):
               (au)            (10**-30 esu)      (10**-50 SI)
   || (z)    -0.179834D+03     -0.155362D+01     -0.576613D+00
   _|_(z)    -0.599446D+02     -0.517875D+00     -0.192204D+00
   x          0.323963D+04      0.279879D+02      0.103874D+02
   y         -0.392964D+04     -0.339491D+02     -0.125999D+02
   z         -0.899170D+03     -0.776812D+01     -0.288306D+01
   ||         0.103433D+04      0.893578D+01      0.331643D+01
   xxx        0.139926D+04      0.120885D+02      0.448653D+01
   xxy       -0.399350D+03     -0.345007D+01     -0.128046D+01
   yxy       -0.345603D+03     -0.298574D+01     -0.110813D+01
   yyy       -0.947581D+03     -0.818636D+01     -0.303829D+01
   xxz       -0.340437D+03     -0.294111D+01     -0.109156D+01
   yxz        0.919441D+02      0.794325D+00      0.294806D+00
   yyz       -0.766856D+02     -0.662504D+00     -0.245882D+00
   zxz        0.262195D+02      0.226516D+00      0.840692D-01
   zyz        0.370494D+02      0.320078D+00      0.118794D+00
   zzz        0.117400D+03      0.101424D+01      0.376425D+00

 ----------------------------------------------------------------------

 Dipole orientation:
    26        -19.84057380        -19.14471580         69.89914479
     7        -20.56242328        -20.10873185         73.47190421
     7        -23.09345783        -20.79942186         68.79618488
     7        -19.26187698        -18.07232212         66.26770718
     7        -16.67635194        -17.39628172         70.89766288
     6        -19.18314897        -19.37540893         75.50672743
     6        -20.61488051        -19.68146607         77.81203140
     6        -22.90222460        -20.63014762         77.11450529
     6        -22.82728916        -20.88975905         74.39659699
     6        -24.83041589        -21.90069764         70.34169647
     6        -26.82350588        -23.04721368         68.89100224
     6        -26.27068720        -22.60059063         66.40344135
     6        -23.95142164        -21.14204364         66.40370786
     6        -20.64400196        -18.74566368         64.20547666
     6        -19.53250567        -17.76257799         61.92505844
     6        -17.43520622        -16.43102233         62.65738182
     6        -17.29965429        -16.68078027         65.38527568
     6        -15.03311086        -16.13360717         69.38999062
     6        -12.83478333        -15.34113405         70.81350867
     6        -13.22082074        -16.11662060         73.23246734
     6        -15.65438335        -17.36622715         73.25586596
     6        -16.77068497        -18.34692905         75.40719043
     1        -15.79406893        -18.07394927         77.17955290
     6        -24.76304462        -21.88898651         72.95834861
     1        -26.38017299        -22.65033631         73.94349876
     6        -22.83654688        -20.17383777         64.24878292
     1        -23.79739736        -20.49533299         62.47927934
     6        -15.35941439        -15.69655348         66.83660449
     1        -13.92855321        -14.59743654         65.88489090
     6        -25.12671994        -21.28982182         78.71157024
     1        -24.76246324        -20.86984241         80.68987054
     1        -25.56243151        -23.29713093         78.54657559
     1        -26.78842237        -20.22775580         78.11501002
     6        -19.65955845        -19.03514159         80.38325598
     1        -19.19421722        -17.03107258         80.50898073
     1        -17.95514981        -20.10992596         80.81414979
     1        -21.06957050        -19.46244319         81.81538208
     6        -28.99710567        -24.47918663         69.96483472
     1        -30.07093021        -23.29867539         71.26911465
     1        -28.33623227        -26.13175158         71.00324794
     1        -30.25315082        -25.11645676         68.46892068
     6        -27.69155973        -23.45911767         64.22592434
     1        -29.73137025        -23.39160591         64.42738723
     6        -26.71763459        -24.37381040         62.10058987
     1        -24.71146421        -24.58326989         61.82815429
     1        -27.90364563        -24.98861607         60.56345180
     6        -20.48000855        -18.25078524         59.31951479
     1        -21.95038557        -16.89830021         58.80531035
     1        -21.28150891        -20.14013541         59.17314795
     1        -18.94237110        -18.07957558         57.96422745
     6        -15.62731795        -15.08581618         61.11442523
     1        -13.70463261        -15.05765382         61.82044135
     6        -16.14154556        -13.89934885         58.95986621
     1        -18.02744645        -13.78230214         58.20991609
     1        -14.68787249        -12.95268812         57.89320168
     6        -10.65072584        -13.93828000         69.72007288
     1        -11.27664823        -12.16708201         68.87365953
     1         -9.73368774        -15.05630799         68.25241693
     1         -9.25872552        -13.50625504         71.16874933
     6        -11.57334526        -15.80222271         75.49674232
     1         -9.82855951        -14.83530140         75.00441002
     1        -11.09290942        -17.63506398         76.30617999
     1        -12.53569728        -14.69877825         76.94765893
     6        -13.50121034        -27.54280898         70.75815587
     1        -11.94518536        -27.73152813         69.42134184
     1        -14.38346842        -29.39069576         70.98356434
     1        -12.74308297        -26.95091844         72.56994736
     7        -16.63183513        -25.90738661         67.60997448
     1        -16.44373765        -27.35100813         66.38544086
     6        -15.36669760        -25.65006725         69.85561740
     6        -18.16974065        -23.88260546         67.35309191
     1        -19.39174164        -23.58180308         65.76941244
     7        -17.95574719        -22.36200975         69.29501210
     6        -16.21903526        -23.43576080         70.86793750
     1        -15.70762007        -22.54672016         72.61054007
     6        -26.30610278        -10.81700365         69.01113711
     1        -25.45051744         -8.96167067         68.74733218
     1        -27.85198733        -10.62759347         70.35952893
     1        -27.07238447        -11.44770640         67.21578494
     7        -23.13871031        -12.37378526         72.16397781
     1        -23.35298818        -10.92853160         73.38223979
     6        -24.40654201        -12.66992158         69.92403840
     6        -21.56066864        -14.36648786         72.42681344
     1        -20.33030522        -14.63296317         74.01027621
     7        -21.75423513        -15.90379871         70.49750669
     6        -23.51529193        -14.87440476         68.92408219
     1        -24.01855364        -15.78084617         67.18821685

 Electric dipole moment (dipole orientation):
 (Debye = 10**-18 statcoulomb cm , SI units = C m)
                  (au)            (Debye)         (10**-30 SI)
   Tot        0.682501D+00      0.173474D+01      0.578648D+01
   x          0.000000D+00      0.000000D+00      0.000000D+00
   y          0.000000D+00      0.000000D+00      0.000000D+00
   z          0.682501D+00      0.173474D+01      0.578648D+01

 Dipole polarizability, Alpha (dipole orientation).
 (esu units = cm**3 , SI units = C**2 m**2 J**-1)
 Alpha(0;0):
               (au)            (10**-24 esu)      (10**-40 SI)
   iso        0.613962D+03      0.909798D+02      0.101229D+03
   aniso      0.313894D+03      0.465143D+02      0.517541D+02
   xx         0.624817D+03      0.925883D+02      0.103018D+03
   yx         0.120761D+03      0.178950D+02      0.199109D+02
   yy         0.477926D+03      0.708213D+02      0.787993D+02
   zx         0.177472D+02      0.262986D+01      0.292612D+01
   zy        -0.282434D+02     -0.418523D+01     -0.465670D+01
   zz         0.739144D+03      0.109530D+03      0.121868D+03

 First dipole hyperpolarizability, Beta (dipole orientation).
 ||, _|_  parallel and perpendicular components, (z) with respect to z axis,
 vector components x,y,z.  Values do not include the 1/n! factor of 1/2.
 (esu units = statvolt**-1 cm**4 , SI units = C**3 m**3 J**-2)
 Beta(0;0,0):
               (au)            (10**-30 esu)      (10**-50 SI)
   || (z)    -0.102576D+04     -0.886177D+01     -0.328896D+01
   _|_(z)    -0.341920D+03     -0.295392D+01     -0.109632D+01
   x         -0.662743D+03     -0.572558D+01     -0.212499D+01
   y         -0.443894D+02     -0.383490D+00     -0.142329D+00
   z         -0.512880D+04     -0.443089D+02     -0.164448D+02
   ||         0.103433D+04      0.893578D+01      0.331643D+01
   xxx       -0.204598D+03     -0.176756D+01     -0.656014D+00
   xxy       -0.286041D+03     -0.247117D+01     -0.917151D+00
   yxy       -0.181149D+03     -0.156499D+01     -0.580830D+00
   yyy       -0.192885D+03     -0.166638D+01     -0.618459D+00
   xxz       -0.278046D+03     -0.240210D+01     -0.891515D+00
   yxz       -0.439049D+03     -0.379304D+01     -0.140775D+01
   yyz       -0.472312D+03     -0.408041D+01     -0.151440D+01
   zxz        0.164833D+03      0.142403D+01      0.528513D+00
   zyz        0.464130D+03      0.400972D+01      0.148817D+01
   zzz       -0.959243D+03     -0.828711D+01     -0.307568D+01

 ----------------------------------------------------------------------
 Unable to Open any file for archive entry.
 1\1\GINC-BGN1012\SP\RAPFD\def2TZVP\C38H40Fe1N8\BEBZHART\15-Jul-2024\0\
 \# polar def2tzvp apfd int=(grid=ultrafine)\\3qjs_II_S\\0,1\Fe,0,-36.4
 16409554,15.6725800584,3.045141308\N,0,-38.1902711433,16.5482136704,3.
 3045391186\N,0,-37.3376659462,14.0003617534,2.3928999555\N,0,-34.63568
 57399,14.772044519,2.6891792852\N,0,-35.4590653519,17.3117554449,3.624
 4323686\C,0,-38.3773087946,17.8491669775,3.6441145611\C,0,-39.72343692
 29,18.2731151511,3.3332344554\C,0,-40.3486669814,17.1884814627,2.79842
 51903\C,0,-39.3745460613,16.1207338564,2.7932155723\C,0,-38.6791747386
 ,13.8380889634,2.2274519869\C,0,-38.9861685492,12.4869550986,1.8401528
 464\C,0,-37.7907304422,11.8243599317,1.7618111146\C,0,-36.773180199,12
 .8050217852,2.0856729916\C,0,-34.4247926002,13.4775792539,2.3249275511
 \C,0,-33.01701844,13.1818058346,2.265648861\C,0,-32.3672368197,14.3444
 77838,2.5887739265\C,0,-33.4072095392,15.3191381364,2.8624761228\C,0,-
 34.1197706062,17.5122657999,3.6966708385\C,0,-33.8288680299,18.8001994
 133,4.2909715836\C,0,-35.0299166358,19.3822230484,4.5506123254\C,0,-36
 .0388575479,18.4433381134,4.1075003226\C,0,-37.3992252536,18.690642797
 7,4.1579360918\H,0,-37.7147760222,19.6637995382,4.5057736184\C,0,-39.6
 342550283,14.8306713742,2.3731559766\H,0,-40.6502155098,14.5872925318,
 2.0993169438\C,0,-35.414885922,12.5524170731,2.0391789841\H,0,-35.1075
 50587,11.5700726311,1.715405953\C,0,-33.1547079822,16.610801047,3.2904
[...]
  1516. RY*(   3) C  83                  0.00205     1.30817   
  1517. RY*(   4) C  83                  0.00129     2.56408   
  1518. RY*(   5) C  83                  0.00098     1.39250   
  1519. RY*(   6) C  83                  0.00041     1.67497   
  1520. RY*(   7) C  83                  0.00024     1.75311   
  1521. RY*(   8) C  83                  0.00013     2.46835   
  1522. RY*(   9) C  83                  0.00006     3.12648   
  1523. RY*(  10) C  83                  0.00006     2.07991   
  1524. RY*(  11) C  83                  0.00004     1.95255   
  1525. RY*(  12) C  83                  0.00003     2.95938   
  1526. RY*(  13) C  83                  0.00003     3.65560   
  1527. RY*(  14) C  83                  0.00002     2.64586   
  1528. RY*(  15) C  83                  0.00003     2.74382   
  1529. RY*(  16) C  83                  0.00000     3.56018   
  1530. RY*(  17) C  83                  0.00000     3.08977   
  1531. RY*(  18) C  83                  0.00000     3.28201   
  1532. RY*(  19) C  83                  0.00000    21.24759   
  1533. RY*(  20) C  83                  0.00001     3.07851   
  1534. RY*(  21) C  83                  0.00001     4.17677   
  1535. RY*(  22) C  83                  0.00000     3.61887   
  1536. RY*(  23) C  83                  0.00000     3.83321   
  1537. RY*(  24) C  83                  0.00000     3.67123   
  1538. RY*(  25) C  83                  0.00000     3.46152   
  1539. RY*(  26) C  83                  0.00000     3.48543   
  1540. RY*(   1) H  84                  0.00068     0.67084   
  1541. RY*(   2) H  84                  0.00032     2.48320   
  1542. RY*(   3) H  84                  0.00021     2.15067   
  1543. RY*(   4) H  84                  0.00012     2.46663   
  1544. RY*(   5) H  84                  0.00002     3.19039   
  1545. RY*(   1) N  85                  0.00782     1.09565   
  1546. RY*(   2) N  85                  0.00773     1.14574   
  1547. RY*(   3) N  85                  0.00645     1.46106   
  1548. RY*(   4) N  85                  0.00086     1.71092   
  1549. RY*(   5) N  85                  0.00070     1.75990   
  1550. RY*(   6) N  85                  0.00053     2.01387   
  1551. RY*(   7) N  85                  0.00036     3.49618   
  1552. RY*(   8) N  85                  0.00028     3.44246   
  1553. RY*(   9) N  85                  0.00014     2.78508   
  1554. RY*(  10) N  85                  0.00010     3.79059   
  1555. RY*(  11) N  85                  0.00009     2.38797   
  1556. RY*(  12) N  85                  0.00008     3.22079   
  1557. RY*(  13) N  85                  0.00005     3.33008   
  1558. RY*(  14) N  85                  0.00003     3.76701   
  1559. RY*(  15) N  85                  0.00002     4.93835   
  1560. RY*(  16) N  85                  0.00001     4.65304   
  1561. RY*(  17) N  85                  0.00000     4.86475   
  1562. RY*(  18) N  85                  0.00001     4.00320   
  1563. RY*(  19) N  85                  0.00001     4.14419   
  1564. RY*(  20) N  85                  0.00000     4.54614   
  1565. RY*(  21) N  85                  0.00000    31.74935   
  1566. RY*(  22) N  85                  0.00000     4.18449   
  1567. RY*(  23) N  85                  0.00000     4.76819   
  1568. RY*(  24) N  85                  0.00000     4.67890   
  1569. RY*(  25) N  85                  0.00000     4.66529   
  1570. RY*(  26) N  85                  0.00000     4.61778   
  1571. RY*(   1) C  86                  0.00404     1.51274   
  1572. RY*(   2) C  86                  0.00264     0.74310   
  1573. RY*(   3) C  86                  0.00171     1.80918   
  1574. RY*(   4) C  86                  0.00060     2.04483   
  1575. RY*(   5) C  86                  0.00058     1.60424   
  1576. RY*(   6) C  86                  0.00044     2.29560   
  1577. RY*(   7) C  86                  0.00044     1.82537   
  1578. RY*(   8) C  86                  0.00025     1.42410   
  1579. RY*(   9) C  86                  0.00023     1.71825   
  1580. RY*(  10) C  86                  0.00016     1.81242   
  1581. RY*(  11) C  86                  0.00010     1.15550   
  1582. RY*(  12) C  86                  0.00006     1.89268   
  1583. RY*(  13) C  86                  0.00006     2.24997   
  1584. RY*(  14) C  86                  0.00004     3.50700   
  1585. RY*(  15) C  86                  0.00002     1.44695   
  1586. RY*(  16) C  86                  0.00001     3.64481   
  1587. RY*(  17) C  86                  0.00001     3.58779   
  1588. RY*(  18) C  86                  0.00000     3.36416   
  1589. RY*(  19) C  86                  0.00000    21.30330   
  1590. RY*(  20) C  86                  0.00001     3.99809   
  1591. RY*(  21) C  86                  0.00001     4.04294   
  1592. RY*(  22) C  86                  0.00000     3.51980   
  1593. RY*(  23) C  86                  0.00000     3.71529   
  1594. RY*(  24) C  86                  0.00000     3.44823   
  1595. RY*(  25) C  86                  0.00000     3.59565   
  1596. RY*(  26) C  86                  0.00000     3.56350   
  1597. RY*(   1) H  87                  0.00052     0.70777   
  1598. RY*(   2) H  87                  0.00033     2.38019   
  1599. RY*(   3) H  87                  0.00025     2.32860   
  1600. RY*(   4) H  87                  0.00008     2.76452   
  1601. RY*(   5) H  87                  0.00001     3.18575   
  1602. BD*(   1)Fe   1 - N   2          0.04896     0.47864   
  1603. BD*(   1)Fe   1 - N   3          0.04962     0.47700   
  1604. BD*(   1)Fe   1 - N   4          0.04887     0.47364   
  1605. BD*(   1)Fe   1 - N   5          0.04964     0.48074   
  1606. BD*(   1)Fe   1 - N  73          0.05346     0.44855   
  1607. BD*(   1)Fe   1 - N  85          0.05394     0.45278   
  1608. BD*(   1) N   2 - C   6          0.02716     0.53236   
  1609. BD*(   1) N   2 - C   9          0.02678     0.53184   
  1610. BD*(   2) N   2 - C   9          0.62837     0.02597  174(v),1623(v),169(v),390(g)
                                                    757(v),206(g)
  1611. BD*(   1) N   3 - C  10          0.02707     0.52823   
  1612. BD*(   1) N   3 - C  13          0.02654     0.53371   
  1613. BD*(   2) N   3 - C  13          0.61107     0.02561  175(v),1631(v),170(v),494(g)
                                                    1619(r),788(v),232(g)
  1614. BD*(   1) N   4 - C  14          0.02737     0.52855   
  1615. BD*(   1) N   4 - C  17          0.02562     0.53727   
  1616. BD*(   2) N   4 - C  17          0.59058     0.03056  176(v),1639(v),171(v),598(g)
                                                    258(g),819(v)
  1617. BD*(   1) N   5 - C  18          0.02682     0.53676   
  1618. BD*(   1) N   5 - C  21          0.02785     0.52906   
  1619. BD*(   2) N   5 - C  21          0.62146     0.02475  173(v),1647(v),172(v),702(g)
                                                    1613(r),726(v),284(g)
  1620. BD*(   1) C   6 - C   7          0.03627     0.50504   
  1621. BD*(   1) C   6 - C  22          0.02183     0.57698   
  1622. BD*(   1) C   7 - C   8          0.02258     0.61614   
  1623. BD*(   2) C   7 - C   8          0.25610     0.07926  1610(v),169(v),1659(v)
                                                    1657(v),1658(v),1660(v)
                                                    340(g)
  1624. BD*(   1) C   7 - C  34          0.01771     0.42177   
  1625. BD*(   1) C   8 - C   9          0.03530     0.50483   
  1626. BD*(   1) C   8 - C  30          0.01744     0.42379   
  1627. BD*(   1) C   9 - C  24          0.02100     0.59201   
  1628. BD*(   1) C  10 - C  11          0.03408     0.51147   
  1629. BD*(   1) C  10 - C  24          0.02104     0.58572   
  1630. BD*(   1) C  11 - C  12          0.02223     0.60082   
  1631. BD*(   2) C  11 - C  12          0.28597     0.07564  1667(v),1613(v),170(v)
                                                    1663(v),1662(v),1665(v)
  1632. BD*(   1) C  11 - C  38          0.01685     0.42385   
  1633. BD*(   1) C  12 - C  13          0.03929     0.50123   
  1634. BD*(   1) C  12 - C  42          0.02689     0.50225   
  1635. BD*(   1) C  13 - C  26          0.02153     0.58532   
  1636. BD*(   1) C  14 - C  15          0.03539     0.51371   
  1637. BD*(   1) C  14 - C  26          0.02241     0.58366   
  1638. BD*(   1) C  15 - C  16          0.02461     0.60248   
  1639. BD*(   2) C  15 - C  16          0.29175     0.07684  1675(v),1616(v),171(v)
                                                    1670(v)
  1640. BD*(   1) C  15 - C  47          0.01677     0.42595   
  1641. BD*(   1) C  16 - C  17          0.03445     0.49983   
  1642. BD*(   1) C  16 - C  51          0.02661     0.50978   
  1643. BD*(   1) C  17 - C  28          0.02097     0.58850   
  1644. BD*(   1) C  18 - C  19          0.03500     0.50205   
  1645. BD*(   1) C  18 - C  28          0.02113     0.59253   
  1646. BD*(   1) C  19 - C  20          0.02237     0.61899   
  1647. BD*(   2) C  19 - C  20          0.24674     0.08085  1619(v),172(v),1683(v)
                                                    1679(v),1682(v),1678(v)
  1648. BD*(   1) C  19 - C  56          0.01733     0.42474   
  1649. BD*(   1) C  20 - C  21          0.03614     0.50327   
  1650. BD*(   1) C  20 - C  60          0.01764     0.42248   
  1651. BD*(   1) C  21 - C  22          0.02149     0.58250   
  1652. BD*(   1) C  22 - H  23          0.01332     0.44633   
  1653. BD*(   1) C  24 - H  25          0.01259     0.44336   
  1654. BD*(   1) C  26 - H  27          0.01495     0.45599   
  1655. BD*(   1) C  28 - H  29          0.01286     0.44546   
  1656. BD*(   1) C  30 - H  31          0.00681     0.39713   
  1657. BD*(   1) C  30 - H  32          0.01137     0.38658   
  1658. BD*(   1) C  30 - H  33          0.01105     0.38758   
  1659. BD*(   1) C  34 - H  35          0.01162     0.38412   
  1660. BD*(   1) C  34 - H  36          0.01117     0.38548   
  1661. BD*(   1) C  34 - H  37          0.00683     0.39649   
  1662. BD*(   1) C  38 - H  39          0.01080     0.38622   
  1663. BD*(   1) C  38 - H  40          0.01116     0.38803   
  1664. BD*(   1) C  38 - H  41          0.00621     0.39806   
  1665. BD*(   1) C  42 - H  43          0.02223     0.42737   
  1666. BD*(   1) C  42 - C  44          0.00732     0.62829   
  1667. BD*(   2) C  42 - C  44          0.07304     0.07257   
  1668. BD*(   1) C  44 - H  45          0.01187     0.43813   
  1669. BD*(   1) C  44 - H  46          0.00906     0.44036   
  1670. BD*(   1) C  47 - H  48          0.01316     0.38641   
  1671. BD*(   1) C  47 - H  49          0.01008     0.39549   
  1672. BD*(   1) C  47 - H  50          0.00850     0.40111   
  1673. BD*(   1) C  51 - H  52          0.02147     0.43334   
  1674. BD*(   1) C  51 - C  53          0.00786     0.64159   
  1675. BD*(   2) C  51 - C  53          0.08289     0.06710   
  1676. BD*(   1) C  53 - H  54          0.01118     0.44495   
  1677. BD*(   1) C  53 - H  55          0.00867     0.44362   
  1678. BD*(   1) C  56 - H  57          0.01091     0.38854   
  1679. BD*(   1) C  56 - H  58          0.01138     0.38862   
  1680. BD*(   1) C  56 - H  59          0.00683     0.39845   
  1681. BD*(   1) C  60 - H  61          0.00681     0.39775   
  1682. BD*(   1) C  60 - H  62          0.01129     0.38674   
  1683. BD*(   1) C  60 - H  63          0.01150     0.38485   
  1684. BD*(   1) C  64 - H  65          0.01215     0.36457   
  1685. BD*(   1) C  64 - H  66          0.01214     0.36458   
  1686. BD*(   1) C  64 - H  67          0.00350     0.37798   
  1687. BD*(   1) C  64 - C  70          0.01398     0.39559   
  1688. BD*(   1) N  68 - H  69          0.01442     0.37486   
  1689. BD*(   1) N  68 - C  70          0.02721     0.43754   
  1690. BD*(   1) N  68 - C  71          0.02322     0.45594   
  1691. BD*(   1) C  70 - C  74          0.02137     0.57527   
  1692. BD*(   2) C  70 - C  74          0.30117     0.04327  1695(v),1684(v),1685(v)
                                                    1390(g),1306(g)
  1693. BD*(   1) C  71 - H  72          0.01899     0.40247   
  1694. BD*(   1) C  71 - N  73          0.01786     0.55097   
  1695. BD*(   2) C  71 - N  73          0.41361     0.00548  1692(v),1329(g),1709(r)
                                                    1359(g),1386(v)
  1696. BD*(   1) N  73 - C  74          0.01719     0.49322   
  1697. BD*(   1) C  74 - H  75          0.01522     0.44254   
  1698. BD*(   1) C  76 - H  77          0.01220     0.36539   
  1699. BD*(   1) C  76 - H  78          0.01203     0.36492   
  1700. BD*(   1) C  76 - H  79          0.00350     0.37912   
  1701. BD*(   1) C  76 - C  82          0.01399     0.39640   
  1702. BD*(   1) N  80 - H  81          0.01454     0.37441   
  1703. BD*(   1) N  80 - C  82          0.02724     0.43737   
  1704. BD*(   1) N  80 - C  83          0.02329     0.45564   
  1705. BD*(   1) C  82 - C  86          0.02147     0.57592   
  1706. BD*(   2) C  82 - C  86          0.29946     0.04413  1709(v),1698(v),1699(v)
                                                    1576(g),1492(g)
  1707. BD*(   1) C  83 - H  84          0.01853     0.40091   
  1708. BD*(   1) C  83 - N  85          0.01773     0.55317   
  1709. BD*(   2) C  83 - N  85          0.41272     0.00595  1706(v),1515(g),1695(r)
  1710. BD*(   1) N  85 - C  86          0.01702     0.49476   
  1711. BD*(   1) C  86 - H  87          0.01465     0.44328   
       -------------------------------
              Total Lewis  339.25228  ( 96.9292%)
        Valence non-Lewis   10.05424  (  2.8726%)
        Rydberg non-Lewis    0.69349  (  0.1981%)
       -------------------------------
            Total unit  1  350.00000  (100.0000%)
           Charge unit  1    0.00000
 Unable to Open any file for archive entry.
 1\1\GINC-BGN1012\SP\RAPFD\def2TZVP\C38H40Fe1N8\BEBZHART\15-Jul-2024\0\
 \# apfd/def2TZVP int=(grid=ultrafine) geom=check guess=read pop=nbo sc
 f=qc\\3qjs_II_S_nbo\\0,1\Fe,0,-36.416409554,15.6725800584,3.045141308\
 N,0,-38.1902711433,16.5482136704,3.3045391186\N,0,-37.3376659462,14.00
 03617534,2.3928999555\N,0,-34.6356857399,14.772044519,2.6891792852\N,0
 ,-35.4590653519,17.3117554449,3.6244323686\C,0,-38.3773087946,17.84916
 69775,3.6441145611\C,0,-39.7234369229,18.2731151511,3.3332344554\C,0,-
 40.3486669814,17.1884814627,2.7984251903\C,0,-39.3745460613,16.1207338
 564,2.7932155723\C,0,-38.6791747386,13.8380889634,2.2274519869\C,0,-38
 .9861685492,12.4869550986,1.8401528464\C,0,-37.7907304422,11.824359931
 7,1.7618111146\C,0,-36.773180199,12.8050217852,2.0856729916\C,0,-34.42
 47926002,13.4775792539,2.3249275511\C,0,-33.01701844,13.1818058346,2.2
 65648861\C,0,-32.3672368197,14.344477838,2.5887739265\C,0,-33.40720953
 92,15.3191381364,2.8624761228\C,0,-34.1197706062,17.5122657999,3.69667
 08385\C,0,-33.8288680299,18.8001994133,4.2909715836\C,0,-35.0299166358
 ,19.3822230484,4.5506123254\C,0,-36.0388575479,18.4433381134,4.1075003
 226\C,0,-37.3992252536,18.6906427977,4.1579360918\H,0,-37.7147760222,1
 9.6637995382,4.5057736184\C,0,-39.6342550283,14.8306713742,2.373155976
 6\H,0,-40.6502155098,14.5872925318,2.0993169438\C,0,-35.414885922,12.5
 524170731,2.0391789841\H,0,-35.107550587,11.5700726311,1.715405953\C,0
 ,-33.1547079822,16.610801047,3.290412743\H,0,-32.1234602913,16.9195625
 021,3.3706859722\C,0,-41.7432435276,17.0558673454,2.2891487212\H,0,-42
 .2763113248,18.0007507191,2.3634530853\H,0,-42.2900438622,16.308489454
 ,2.8649411624\H,0,-41.7423470836,16.7415186789,1.2451469423\C,0,-40.25
 35930899,19.6462824378,3.572425858\H,0,-39.6843908339,20.3852526563,3.
 0070298156\H,0,-40.1834047732,19.9056279501,4.6291991223\H,0,-41.29655
 25437,19.7156752209,3.2730627905\C,0,-40.3566103041,11.9484437807,1.61
 20810859\H,0,-40.8681696179,12.5167079477,0.8343262226\H,0,-40.9523085
 066,12.0152137308,2.5229564692\H,0,-40.3123058573,10.9053504095,1.3085
 357916\C,0,-37.5924941792,10.4240857191,1.4464444689\H,0,-38.237718029
 ,10.0275188985,0.6691330242\C,0,-36.7390119041,9.6034311949,2.04885709
 72\H,0,-36.1111190956,9.9244140202,2.8629988088\H,0,-36.6537760171,8.5
 683715011,1.7611471341\C,0,-32.4337356056,11.8435365639,1.9689454345\H
 ,0,-32.3387012563,11.6899469859,0.8923412176\H,0,-33.064224115,11.0491
 829937,2.365151227\H,0,-31.4444412698,11.7592956132,2.4148664612\C,0,-
 30.9475781691,14.595395995,2.6901318004\H,0,-30.6519082202,15.32890368
 07,3.4314396022\C,0,-30.0050780505,14.0139585271,1.9540633958\H,0,-30.
 2388131193,13.3150091059,1.1704022855\H,0,-28.9610420154,14.2413299583
 ,2.0940587853\C,0,-32.4551088871,19.3255085376,4.5328409142\H,0,-31.89
 25162005,19.3728909019,3.6000709855\H,0,-31.9125510407,18.6768427287,5
 .2210075892\H,0,-32.4921048821,20.3243432026,4.9612259643\C,0,-35.3264
 133253,20.7117729005,5.1570798809\H,0,-34.4083359086,21.2286461464,5.4
 256795228\H,0,-35.9318474693,20.5977734161,6.0566702909\H,0,-35.879252
 9892,21.3390842562,4.4566131906\C,0,-36.9369165134,15.0866533,8.576496
 7092\H,0,-36.035879285,14.9095037083,9.1640025261\H,0,-37.7194832265,1
 4.4231045677,8.944868986\H,0,-37.2532175682,16.1142053594,8.7260319887
 \N,0,-36.2671898532,13.6359057708,6.6488955601\H,0,-36.1033044632,12.8
 079079828,7.1974921569\C,0,-36.6803502525,14.8499659568,7.1329030602\C
 ,0,-36.1258314971,13.7563814358,5.3093671714\H,0,-35.8131511869,12.960
 4325578,4.6655351526\N,0,-36.423556294,14.9702083223,4.9165626029\C,0,
 -36.7703589083,15.662281345,6.0395271887\H,0,-37.0601934121,16.6907463
 236,5.9831263353\C,0,-35.9382746228,16.1969778991,-2.5085477334\H,0,-3
 5.1472408707,16.8419844165,-2.8914832038\H,0,-36.8405552334,16.3810736
 439,-3.0919706545\H,0,-35.6397997012,15.1623390881,-2.6459118902\N,0,-
 36.5802441096,17.6810761864,-0.5962340048\H,0,-36.7489184244,18.500912
 3019,-1.1555146447\C,0,-36.1793321726,16.4572502444,-1.0665418071\C,0,
 -36.7045688637,17.581762851,0.74664043\H,0,-37.0065016872,18.389582287
 3,1.3808211342\N,0,-36.4097079585,16.3727040805,1.1538914238\C,0,-36.0
 803932176,15.6617432148,0.038304464\H,0,-35.7949203644,14.6327083712,0
 .1045423316\\Version=ES64L-G16RevC.02\State=1-A\HF=-3173.0778409\RMSD=
 9.368e-10\Dipole=-0.4816893,0.4795761,0.0615613\Quadrupole=-15.5956342
 ,0.0982933,15.4973409,-2.1784536,3.1653039,-12.5472974\PG=C01 [X(C38H4
 0Fe1N8)]\\@
 The archive entry for this job was punched.


 EXPERIMENTALISTS THINK SILICON IS REALLY FUN TO USE
     ITS PLACE IN NOVEL COMPOUNDS IS CERTAIN TO AMUSE
 THEY SIT ALL DAY IN LABORATORIES MAKING ALL THIS SLUDGE
     "LOADED WITH THE SILICON THEY SAY", TO ME IT LOOKS LIKE FUDGE.
 FOR HAPPY THOUGH THEY BE WITH CRUD, I'D LIKE TO KNOW A LITTLE
      ABOUT THE PI BONDS ON THE EDGE AND SIGMAS IN THE MIDDLE.

 SO LETS DERIVE A WAVEFUNCTION.....6-31G*
     USE AN OPTIMAL GEOMETRY AND SEE WHERE ELECTRONS ARE.
 BUT WHAT OF CORRELATION?  ASKS THE WIRY LITTLE SKEPTIC.
     WE'LL THROW IN PERTURBATION AS AN ELECTRON ANTISEPTIC.
 AND WHEN THE PROGRAM GIVES US ANSWERS IN THEM WE CAN TRUST
     SINCE NOBODY CAN MAKE THE STUFF, WE HAVE NO CHOICE, WE MUST.

 SO THEORY GUYS HAVE GOT IT MADE, IN ROOMS FREE OF POLLUTION.
     INSTEAD OF PROBLEMS WITH THE REFLUX, THEY HAVE ONLY SOLUTIONS.
 AND WHEN THE FEDS ANNOUNCE THE LIST OF CARCINOGENIC TERRORS,
     THE THEORISTS SIT SAFELY AT THEIR TERMINALS FIXING ERRORS.
 IN OTHER WORDS, EXPERIMENTALISTS WILL LIKELY DIE OF CANCER
     FROM WORKING HARD YET FRUITLESSLY...TILL THEORY GIVES THE ANSWER.
          -- THOMAS A. HOLME, 1983
 Job cpu time:       0 days  1 hours  2 minutes 58.0 seconds.
 Elapsed time:       0 days  0 hours  1 minutes 13.9 seconds.
 File lengths (MBytes):  RWF=    987 Int=      0 D2E=      0 Chk=    233 Scr=      1
 Normal termination of Gaussian 16 at Mon Jul 15 00:58:14 2024.
