 Entering Gaussian System, Link 0=g16
 Input=3rwl01.com
 Output=3rwl01.log
 Initial command:
 /sw/chem/gaussian/g16_C02/a100/g16/l1.exe "/local/bebzhart_7933221/Gau-1093877.inp" -scrdir="/local/bebzhart_7933221/"
 Entering Link 1 = /sw/chem/gaussian/g16_C02/a100/g16/l1.exe PID=   1093878.
  
 Copyright (c) 1988-2021, Gaussian, Inc.  All Rights Reserved.
  
 This is part of the Gaussian(R) 16 program.  It is based on
 the Gaussian(R) 09 system (copyright 2009, Gaussian, Inc.),
 the Gaussian(R) 03 system (copyright 2003, Gaussian, Inc.),
 the Gaussian(R) 98 system (copyright 1998, Gaussian, Inc.),
 the Gaussian(R) 94 system (copyright 1995, Gaussian, Inc.),
 the Gaussian 92(TM) system (copyright 1992, Gaussian, Inc.),
 the Gaussian 90(TM) system (copyright 1990, Gaussian, Inc.),
 the Gaussian 88(TM) system (copyright 1988, Gaussian, Inc.),
 the Gaussian 86(TM) system (copyright 1986, Carnegie Mellon
 University), and the Gaussian 82(TM) system (copyright 1983,
 Carnegie Mellon University). Gaussian is a federally registered
 trademark of Gaussian, Inc.
  
 This software contains proprietary and confidential information,
 including trade secrets, belonging to Gaussian, Inc.
  
 This software is provided under written license and may be
 used, copied, transmitted, or stored only in accord with that
 written license.
  
 The following legend is applicable only to US Government
 contracts under FAR:
  
                    RESTRICTED RIGHTS LEGEND
  
 Use, reproduction and disclosure by the US Government is
 subject to restrictions as set forth in subparagraphs (a)
 and (c) of the Commercial Computer Software - Restricted
 Rights clause in FAR 52.227-19.
  
 Gaussian, Inc.
 340 Quinnipiac St., Bldg. 40, Wallingford CT 06492
  
  
 ---------------------------------------------------------------
 Warning -- This program may not be used in any manner that
 competes with the business of Gaussian, Inc. or will provide
 assistance to any competitor of Gaussian, Inc.  The licensee
 of this program is prohibited from giving any competitor of
 Gaussian, Inc. access to this program.  By using this program,
 the user acknowledges that Gaussian, Inc. is engaged in the
 business of creating and licensing software in the field of
 computational chemistry and represents and warrants to the
 licensee that it is not a competitor of Gaussian, Inc. and that
 it will not use this program in any manner prohibited above.
 ---------------------------------------------------------------
  

 Cite this work as:
 Gaussian 16, Revision C.02,
 M. J. Frisch, G. W. Trucks, H. B. Schlegel, G. E. Scuseria, 
 M. A. Robb, J. R. Cheeseman, G. Scalmani, V. Barone, 
 G. A. Petersson, H. Nakatsuji, X. Li, M. Caricato, A. V. Marenich, 
 J. Bloino, B. G. Janesko, R. Gomperts, B. Mennucci, H. P. Hratchian, 
 J. V. Ortiz, A. F. Izmaylov, J. L. Sonnenberg, D. Williams-Young, 
 F. Ding, F. Lipparini, F. Egidi, J. Goings, B. Peng, A. Petrone, 
 T. Henderson, D. Ranasinghe, V. G. Zakrzewski, J. Gao, N. Rega, 
 G. Zheng, W. Liang, M. Hada, M. Ehara, K. Toyota, R. Fukuda, 
 J. Hasegawa, M. Ishida, T. Nakajima, Y. Honda, O. Kitao, H. Nakai, 
 T. Vreven, K. Throssell, J. A. Montgomery, Jr., J. E. Peralta, 
 F. Ogliaro, M. J. Bearpark, J. J. Heyd, E. N. Brothers, K. N. Kudin, 
 V. N. Staroverov, T. A. Keith, R. Kobayashi, J. Normand, 
 K. Raghavachari, A. P. Rendell, J. C. Burant, S. S. Iyengar, 
 J. Tomasi, M. Cossi, J. M. Millam, M. Klene, C. Adamo, R. Cammi, 
 J. W. Ochterski, R. L. Martin, K. Morokuma, O. Farkas, 
 J. B. Foresman, and D. J. Fox, Gaussian, Inc., Wallingford CT, 2019.
 
 ******************************************
 Gaussian 16:  ES64L-G16RevC.02  7-Dec-2021
                15-Jul-2024 
 ******************************************
 %mem=16GB
 %CPU=0-71
 SetSPE:  set environment variable "OMP_PROC_BIND" = "true"
 SetSPE:  set environment variable "OMP_PLACES" = "{0},{1},{2},{3},{4},{5},{6},{7},{8},{9},{10},{11},{12},{13},{14},{15},{16},{17},{18},{19},{20},{21},{22},{23},{24},{25},{26},{27},{28},{29},{30},{31},{32},{33},{34},{35},{36},{37},{38},{39},{40},{41},{42},{43},{44},{45},{46},{47},{48},{49},{50},{51},{52},{53},{54},{55},{56},{57},{58},{59},{60},{61},{62},{63},{64},{65},{66},{67},{68},{69},{70},{71}"
 Will use up to   72 processors via shared memory.
 %gpucpu=0,1,2,3=0,1,2,3
 Will use    4 GPUs:
 Thread  CPU   GPU
      0    0     0
      1    1     1
      2    2     2
      3    3     3
      4    4    -1
      5    5    -1
      6    6    -1
      7    7    -1
      8    8    -1
      9    9    -1
     10   10    -1
     11   11    -1
     12   12    -1
     13   13    -1
     14   14    -1
     15   15    -1
     16   16    -1
     17   17    -1
     18   18    -1
     19   19    -1
     20   20    -1
     21   21    -1
     22   22    -1
     23   23    -1
     24   24    -1
     25   25    -1
     26   26    -1
     27   27    -1
     28   28    -1
     29   29    -1
     30   30    -1
     31   31    -1
     32   32    -1
     33   33    -1
     34   34    -1
     35   35    -1
     36   36    -1
     37   37    -1
     38   38    -1
     39   39    -1
     40   40    -1
     41   41    -1
     42   42    -1
     43   43    -1
     44   44    -1
     45   45    -1
     46   46    -1
     47   47    -1
     48   48    -1
     49   49    -1
     50   50    -1
     51   51    -1
     52   52    -1
     53   53    -1
     54   54    -1
     55   55    -1
     56   56    -1
     57   57    -1
     58   58    -1
     59   59    -1
     60   60    -1
     61   61    -1
     62   62    -1
     63   63    -1
     64   64    -1
     65   65    -1
     66   66    -1
     67   67    -1
     68   68    -1
     69   69    -1
     70   70    -1
     71   71    -1
 SetGPE:  set environment variable "OMP_PROC_BIND" = "true"
 SetGPE:  set environment variable "OMP_PLACES" = "{0},{1},{2},{3},{4},{5},{6},{7},{8},{9},{10},{11},{12},{13},{14},{15},{16},{17},{18},{19},{20},{21},{22},{23},{24},{25},{26},{27},{28},{29},{30},{31},{32},{33},{34},{35},{36},{37},{38},{39},{40},{41},{42},{43},{44},{45},{46},{47},{48},{49},{50},{51},{52},{53},{54},{55},{56},{57},{58},{59},{60},{61},{62},{63},{64},{65},{66},{67},{68},{69},{70},{71}"
 %chk=3rwl_II_O.chk
 Properties for Device   0
 Minimum vector length:                              32
 Maximum vector length:                            1024
 Number of SMPs:                                    108
 Maximum number of threads per SMP:                2048
 Number of ASync Engines:                             5
 Memory:                                           9207742464
 Properties for Device   1
 Minimum vector length:                              32
 Maximum vector length:                            1024
 Number of SMPs:                                    108
 Maximum number of threads per SMP:                2048
 Number of ASync Engines:                             5
 Memory:                                           9207742464
 Properties for Device   2
 Minimum vector length:                              32
 Maximum vector length:                            1024
 Number of SMPs:                                    108
 Maximum number of threads per SMP:                2048
 Number of ASync Engines:                             5
 Memory:                                           9207742464
 Properties for Device   3
 Minimum vector length:                              32
 Maximum vector length:                            1024
 Number of SMPs:                                    108
 Maximum number of threads per SMP:                2048
 Number of ASync Engines:                             5
 Memory:                                           9207742464
   8286968217 words of memory will be used on each GPU.
 ------------------------------------------
 # polar def2tzvp apfd int=(grid=ultrafine)
 ------------------------------------------
 1/38=1,172=1/1;
 2/12=2,17=6,18=5,40=1/2;
 3/5=44,7=101,11=2,25=1,30=1,74=-44,75=-5/1,2,3;
 4//1;
 5/5=2,38=5,98=1/2;
 8/6=4,10=90,11=11/1;
 10/6=1,13=10/2;
 6/7=2,8=2,9=2,10=2,28=1/1;
 99/5=1,9=1/99;
 ---------
 3rwl_II_S
 ---------
 Symbolic Z-matrix:
 Charge =  0 Multiplicity = 1
 Fe                    24.78619  -17.9673  -1.3885 
 N                     26.35744  -19.19122  -1.803 
 N                     26.04266  -16.39913  -1.57025 
 N                     23.36627  -16.76151  -0.71941 
 N                     23.71298  -19.57456  -0.91574 
 C                     26.30767  -20.54465  -1.92984 
 C                     27.59452  -21.06782  -2.32948 
 C                     28.42898  -19.99777  -2.42885 
 C                     27.62989  -18.83181  -2.12823 
 C                     27.35438  -16.40457  -1.93336 
 C                     27.82999  -15.06657  -2.17087 
 C                     26.77287  -14.23287  -1.9183 
 C                     25.67238  -15.09072  -1.5253 
 C                     23.33362  -15.40643  -0.83732 
 C                     22.04573  -14.89026  -0.45153 
 C                     21.29332  -15.97482  -0.08338 
 C                     22.13793  -17.13572  -0.285 
 C                     22.45905  -19.56589  -0.39394 
 C                     21.95524  -20.91641  -0.2542 
 C                     22.90825  -21.73309  -0.77521 
 C                     24.00214  -20.87399  -1.17649 
 C                     25.20292  -21.3366  -1.67692 
 H                     25.30346  -22.39841  -1.83885 
 C                     28.12027  -17.54131  -2.13517 
 H                     29.15563  -17.40487  -2.40594 
 C                     24.40819  -14.6229  -1.21916 
 H                     24.2498  -13.55679  -1.27271 
 C                     21.73535  -18.43901  -0.05534 
 H                     20.74058  -18.59117   0.3341 
 C                     29.87313  -19.95535  -2.79291 
 H                     30.25893  -20.95786  -2.9598 
 H                     30.45587  -19.49233  -1.99629 
 H                     30.02334  -19.37387  -3.70303 
 C                     27.88348  -22.51344  -2.54428 
 H                     27.22696  -22.92517  -3.31085 
 H                     27.72388  -23.07725  -1.62478 
 H                     28.91325  -22.6593  -2.86089 
 C                     29.22648  -14.70636  -2.53939 
 H                     29.38981  -14.82315  -3.61226 
 H                     29.93962  -15.34404  -2.01912 
 H                     29.42641  -13.67047  -2.27316 
 C                     26.71203  -12.78956  -1.98635 
 H                     26.0706  -12.3131  -1.25421 
 C                     27.36376  -12.0327  -2.86289 
 H                     27.97682  -12.45455  -3.64026 
 H                     27.28383  -10.95855  -2.8487 
 C                     21.68194  -13.44811  -0.39374 
 H                     21.38097  -13.08397  -1.37748 
 H                     22.52691  -12.84937  -0.05758 
 H                     20.85362  -13.29929   0.29585 
 C                     19.93606  -16.02054   0.41397 
 H                     19.72888  -16.80359   1.13413 
 C                     18.95471  -15.19959   0.05499 
 H                     19.0896  -14.4369  -0.69178 
 H                     17.96759  -15.28363   0.47829 
 C                     20.62616  -21.26262   0.3223 
 H                     19.82497  -20.83336  -0.27985 
 H                     20.53489  -20.87146   1.33552 
 H                     20.48886  -22.3405   0.35728 
 C                     22.91382  -23.21652  -0.9122 
 H                     21.97172  -23.63953  -0.57296 
 H                     23.71941  -23.65438  -0.32197 
 H                     23.06337  -23.50233  -1.95329 
 O                     25.585   -18.12     0.712 
 H                     26.343   -18.695    0.604 
 H                     25.31    -17.75     1.472 
 C                     25.47226  -17.92803  -4.66958 
 H                     26.27747  -17.32747  -4.25997 
 H                     25.19755  -17.59581  -5.66606 
 H                     25.7672  -18.97212  -4.69054 
 S                     24.01066  -17.82337  -3.57621 
 H                     23.88569  -16.49314  -3.67601 
 
 Stoichiometry    C31H34FeN4OS
 Framework group  C1[X(C31H34FeN4OS)]
 Deg. of freedom   210
 Full point group                 C1      NOp   1
 Largest Abelian subgroup         C1      NOp   1
 Largest concise Abelian subgroup C1      NOp   1
                         Standard orientation:                         
 ---------------------------------------------------------------------
 Center     Atomic      Atomic             Coordinates (Angstroms)
 Number     Number       Type             X           Y           Z
 ---------------------------------------------------------------------
      1         26           0        0.031727   -0.179452   -0.081385
      2          7           0       -1.529433   -1.479572   -0.186768
      3          7           0       -1.287744    1.325455   -0.336701
      4          7           0        1.533740    1.096370   -0.265753
      5          7           0        1.274754   -1.730968   -0.160407
      6          6           0       -1.460067   -2.829566   -0.034974
      7          6           0       -2.780795   -3.415963   -0.069953
      8          6           0       -3.651488   -2.387872   -0.260022
      9          6           0       -2.853852   -1.183404   -0.297634
     10          6           0       -2.644408    1.255133   -0.420309
     11          6           0       -3.233843    2.567564   -0.366062
     12          6           0       -2.192557    3.452407   -0.270416
     13          6           0       -0.985003    2.650389   -0.273825
     14          6           0        1.462426    2.450916   -0.159343
     15          6           0        2.779948    3.030319   -0.110850
     16          6           0        3.661379    1.984945   -0.201449
     17          6           0        2.852765    0.783774   -0.272310
     18          6           0        2.628384   -1.659517   -0.245686
     19          6           0        3.213183   -2.983529   -0.198174
     20          6           0        2.181991   -3.847519   -0.006325
     21          6           0        0.977914   -3.043970    0.007042
     22          6           0       -0.297211   -3.566163    0.094680
     23          1           0       -0.394933   -4.632286    0.227355
     24          6           0       -3.379891    0.081888   -0.465646
     25          1           0       -4.452202    0.167018   -0.548238
     26          6           0        0.286477    3.179997   -0.157183
     27          1           0        0.368443    4.252263   -0.067343
     28          6           0        3.369035   -0.497557   -0.343308
     29          1           0        4.442402   -0.599830   -0.385938
     30          6           0       -5.135772   -2.416784   -0.386386
     31          1           0       -5.507273   -3.437461   -0.342565
     32          1           0       -5.448394   -1.978944   -1.334619
     33          1           0       -5.601386   -1.847221    0.418469
     34          6           0       -3.055604   -4.874767    0.055821
     35          1           0       -2.665933   -5.257693    0.999058
     36          1           0       -2.578901   -5.426193   -0.755054
     37          1           0       -4.124272   -5.071536    0.021651
     38          6           0       -4.689520    2.858357   -0.476384
     39          1           0       -5.187680    2.729120    0.486169
     40          1           0       -5.163495    2.189286   -1.193030
     41          1           0       -4.840348    3.884547   -0.805173
     42          6           0       -2.225170    4.896654   -0.202987
     43          1           0       -1.403436    5.406718   -0.691926
     44          6           0       -3.161698    5.617339    0.404846
     45          1           0       -3.973947    5.163005    0.945149
     46          1           0       -3.132132    6.694154    0.405009
     47          6           0        3.074445    4.488580   -0.063774
     48          1           0        3.021134    4.862506    0.960075
     49          1           0        2.357849    5.047310   -0.663582
     50          1           0        4.074220    4.680216   -0.447858
     51          6           0        5.107181    2.006956   -0.229342
     52          1           0        5.574204    1.237971   -0.833721
     53          6           0        5.878335    2.872722    0.419992
     54          1           0        5.471866    3.624742    1.073293
     55          1           0        6.952298    2.838267    0.342067
     56          6           0        4.672290   -3.262668   -0.306597
     57          1           0        5.212547   -2.797891    0.518538
     58          1           0        5.070059   -2.863130   -1.239379
     59          1           0        4.864042   -4.332503   -0.282490
     60          6           0        2.201903   -5.330072    0.138559
     61          1           0        3.221924   -5.705644    0.129379
     62          1           0        1.654012   -5.803710   -0.676639
     63          1           0        1.735060   -5.627315    1.077500
     64          8           0       -0.031310   -0.361323   -2.325593
     65          1           0       -0.755215   -0.972698   -2.463560
     66          1           0        0.458489    0.024839   -2.958919
     67          6           0       -1.686593   -0.187702    2.796991
     68          1           0       -2.341808    0.375094    2.140654
     69          1           0       -1.767345    0.153027    3.824701
     70          1           0       -1.922806   -1.244891    2.732898
     71         16           0        0.044782   -0.007846    2.237803
     72          1           0        0.067702    1.326413    2.357434
 ---------------------------------------------------------------------
 Rotational constants (GHZ):           0.1093259           0.1072680           0.0596793
 Standard basis: def2TZVP (5D, 7F)
 There are  1594 symmetry adapted cartesian basis functions of A   symmetry.
 There are  1402 symmetry adapted basis functions of A   symmetry.
  1402 basis functions,  2279 primitive gaussians,  1594 cartesian basis functions
   149 alpha electrons      149 beta electrons
       nuclear repulsion energy      5415.1081758185 Hartrees.
 NAtoms=   72 NActive=   72 NUniq=   72 SFac= 1.00D+00 NAtFMM=   60 NAOKFM=T Big=T
 Integral buffers will be    131072 words long.
 Raffenetti 2 integral format.
 Two-electron integral symmetry is turned on.
 R6APFD:  NTU= -4 IXU= 1 FactS= 1.050
 Nuclear repulsion after empirical dispersion term =     5414.9561124970 Hartrees.
 One-electron integrals computed using PRISM.
   1 Symmetry operations used in ECPInt.
 ECPInt:  NShTT=  157080 NPrTT=  488567 LenC2=  124738 LenP2D=  258779.
 LDataN:  DoStor=T MaxTD1= 6 Len=  172
 Number of processors reduced to  25 by ecpmxn.
 NBasis=  1402 RedAO= T EigKep=  3.41D-06  NBF=  1402
 NBsUse=  1402 1.00D-06 EigRej= -1.00D+00 NBFU=  1402
 ExpMin= 4.20D-02 ExpMax= 3.01D+05 ExpMxC= 2.91D+03 IAcc=3 IRadAn=         5 AccDes= 0.00D+00
 Harris functional with IExCor= 3731 and IRadAn=       5 diagonalized for initial guess.
 HarFok:  IExCor= 3731 AccDes= 0.00D+00 IRadAn=         5 IDoV= 1 UseB2=F ITyADJ=14
 ICtDFT=  3500011 ScaDFX=  1.000000  1.000000  1.000000  1.000000
 FoFCou: FMM=F IPFlag=           0 FMFlag=      100000 FMFlg1=        2001
         NFxFlg=           0 DoJE=T BraDBF=F KetDBF=T FulRan=T
         wScrn=  0.000000 ICntrl=       500 IOpCl=  0 I1Cent=   200000004 NGrid=           0
         NMat0=    1 NMatS0=      1 NMatT0=    0 NMatD0=    1 NMtDS0=    0 NMtDT0=    0
 Petite list used in FoFCou.
 Requested convergence on RMS density matrix=1.00D-08 within 128 cycles.
 Requested convergence on MAX density matrix=1.00D-06.
 Requested convergence on             energy=1.00D-06.
 No special actions if energy rises.
 EnCoef did     3 forward-backward iterations
 EnCoef did   100 forward-backward iterations
 EnCoef did   100 forward-backward iterations
 EnCoef did   100 forward-backward iterations
 EnCoef did     3 forward-backward iterations
 Restarting incremental Fock formation.
 SCF Done:  E(RAPFD) =  -3157.19241568     A.U. after   28 cycles
            NFock= 28  Conv=0.17D-08     -V/T= 2.0031
 DoSCS=F DFT=T ScalE2(SS,OS)=  1.000000  1.000000
 Range of M.O.s used for correlation:     1  1402
 NBasis=  1402 NAE=   149 NBE=   149 NFC=     0 NFV=     0
 NROrb=   1402 NOA=   149 NOB=   149 NVA=  1253 NVB=  1253

 **** Warning!!: The largest alpha MO coefficient is  0.58703421D+02

          Differentiating once with respect to electric field.
                with respect to dipole field.
          Electric field/nuclear overlap derivatives assumed to be zero.
          There are     3 degrees of freedom in the 1st order CPHF.  IDoFFX=0 NUNeed=     3.
      3 vectors produced by pass  0 Test12= 6.22D-12 3.33D-08 XBig12= 1.83D+03 2.76D+01.
 AX will form     3 AO Fock derivatives at one time.
      3 vectors produced by pass  1 Test12= 6.22D-12 3.33D-08 XBig12= 1.18D+03 7.55D+00.
      3 vectors produced by pass  2 Test12= 6.22D-12 3.33D-08 XBig12= 4.37D+02 4.02D+00.
      3 vectors produced by pass  3 Test12= 6.22D-12 3.33D-08 XBig12= 2.67D+02 3.14D+00.
      3 vectors produced by pass  4 Test12= 6.22D-12 3.33D-08 XBig12= 1.55D+02 2.72D+00.
      3 vectors produced by pass  5 Test12= 6.22D-12 3.33D-08 XBig12= 7.71D+01 2.54D+00.
      3 vectors produced by pass  6 Test12= 6.22D-12 3.33D-08 XBig12= 5.26D+01 2.51D+00.
      3 vectors produced by pass  7 Test12= 6.22D-12 3.33D-08 XBig12= 4.00D+01 2.10D+00.
      3 vectors produced by pass  8 Test12= 6.22D-12 3.33D-08 XBig12= 1.55D+01 1.17D+00.
      3 vectors produced by pass  9 Test12= 6.22D-12 3.33D-08 XBig12= 7.54D+00 5.99D-01.
      3 vectors produced by pass 10 Test12= 6.22D-12 3.33D-08 XBig12= 3.47D+00 4.19D-01.
      3 vectors produced by pass 11 Test12= 6.22D-12 3.33D-08 XBig12= 1.40D+00 4.08D-01.
      3 vectors produced by pass 12 Test12= 6.22D-12 3.33D-08 XBig12= 4.63D-01 2.08D-01.
      3 vectors produced by pass 13 Test12= 6.22D-12 3.33D-08 XBig12= 1.30D-01 1.02D-01.
      3 vectors produced by pass 14 Test12= 6.22D-12 3.33D-08 XBig12= 4.17D-02 3.82D-02.
      3 vectors produced by pass 15 Test12= 6.22D-12 3.33D-08 XBig12= 1.46D-02 2.07D-02.
      3 vectors produced by pass 16 Test12= 6.22D-12 3.33D-08 XBig12= 3.52D-03 9.52D-03.
      3 vectors produced by pass 17 Test12= 6.22D-12 3.33D-08 XBig12= 6.03D-04 3.58D-03.
      3 vectors produced by pass 18 Test12= 6.22D-12 3.33D-08 XBig12= 1.13D-04 1.77D-03.
      3 vectors produced by pass 19 Test12= 6.22D-12 3.33D-08 XBig12= 2.69D-05 7.63D-04.
      3 vectors produced by pass 20 Test12= 6.22D-12 3.33D-08 XBig12= 5.63D-06 4.43D-04.
      3 vectors produced by pass 21 Test12= 6.22D-12 3.33D-08 XBig12= 1.13D-06 2.21D-04.
      3 vectors produced by pass 22 Test12= 6.22D-12 3.33D-08 XBig12= 2.19D-07 9.31D-05.
      3 vectors produced by pass 23 Test12= 6.22D-12 3.33D-08 XBig12= 7.23D-08 4.49D-05.
      3 vectors produced by pass 24 Test12= 6.22D-12 3.33D-08 XBig12= 1.05D-08 1.22D-05.
      3 vectors produced by pass 25 Test12= 6.22D-12 3.33D-08 XBig12= 1.43D-09 7.04D-06.
      3 vectors produced by pass 26 Test12= 6.22D-12 3.33D-08 XBig12= 1.98D-10 2.39D-06.
      3 vectors produced by pass 27 Test12= 6.22D-12 3.33D-08 XBig12= 4.80D-11 7.38D-07.
      3 vectors produced by pass 28 Test12= 6.22D-12 3.33D-08 XBig12= 6.50D-12 3.34D-07.
      3 vectors produced by pass 29 Test12= 6.22D-12 3.33D-08 XBig12= 9.85D-13 1.08D-07.
      2 vectors produced by pass 30 Test12= 6.22D-12 3.33D-08 XBig12= 1.45D-13 4.40D-08.
 InvSVY:  IOpt=1 It=  1 EMax= 1.42D-14
 Solved reduced A of dimension    92 with     3 vectors.
 Isotropic polarizability for W=    0.000000      548.81 Bohr**3.
 End of Minotr F.D. properties file   721 does not exist.
 End of Minotr F.D. properties file   722 does not exist.
 End of Minotr F.D. properties file   788 does not exist.

 **********************************************************************

            Population analysis using the SCF Density.

 **********************************************************************

 Orbital symmetries:
       Occupied  (A) (A) (A) (A) (A) (A) (A) (A) (A) (A) (A) (A)
                 (A) (A) (A) (A) (A) (A) (A) (A) (A) (A) (A) (A)
                 (A) (A) (A) (A) (A) (A) (A) (A) (A) (A) (A) (A)
                 (A) (A) (A) (A) (A) (A) (A) (A) (A) (A) (A) (A)
                 (A) (A) (A) (A) (A) (A) (A) (A) (A) (A) (A) (A)
                 (A) (A) (A) (A) (A) (A) (A) (A) (A) (A) (A) (A)
                 (A) (A) (A) (A) (A) (A) (A) (A) (A) (A) (A) (A)
                 (A) (A) (A) (A) (A) (A) (A) (A) (A) (A) (A) (A)
                 (A) (A) (A) (A) (A) (A) (A) (A) (A) (A) (A) (A)
                 (A) (A) (A) (A) (A) (A) (A) (A) (A) (A) (A) (A)
                 (A) (A) (A) (A) (A) (A) (A) (A) (A) (A) (A) (A)
                 (A) (A) (A) (A) (A) (A) (A) (A) (A) (A) (A) (A)
                 (A) (A) (A) (A) (A)
       Virtual   (A) (A) (A) (A) (A) (A) (A) (A) (A) (A) (A) (A)
                 (A) (A) (A) (A) (A) (A) (A) (A) (A) (A) (A) (A)
                 (A) (A) (A) (A) (A) (A) (A) (A) (A) (A) (A) (A)
                 (A) (A) (A) (A) (A) (A) (A) (A) (A) (A) (A) (A)
                 (A) (A) (A) (A) (A) (A) (A) (A) (A) (A) (A) (A)
                 (A) (A) (A) (A) (A) (A) (A) (A) (A) (A) (A) (A)
                 (A) (A) (A) (A) (A) (A) (A) (A) (A) (A) (A) (A)
                 (A) (A) (A) (A) (A) (A) (A) (A) (A) (A) (A) (A)
                 (A) (A) (A) (A) (A) (A) (A) (A) (A) (A) (A) (A)
                 (A) (A) (A) (A) (A) (A) (A) (A) (A) (A) (A) (A)
                 (A) (A) (A) (A) (A) (A) (A) (A) (A) (A) (A) (A)
                 (A) (A) (A) (A) (A) (A) (A) (A) (A) (A) (A) (A)
                 (A) (A) (A) (A) (A) (A) (A) (A) (A) (A) (A) (A)
                 (A) (A) (A) (A) (A) (A) (A) (A) (A) (A) (A) (A)
                 (A) (A) (A) (A) (A) (A) (A) (A) (A) (A) (A) (A)
                 (A) (A) (A) (A) (A) (A) (A) (A) (A) (A) (A) (A)
                 (A) (A) (A) (A) (A) (A) (A) (A) (A) (A) (A) (A)
                 (A) (A) (A) (A) (A) (A) (A) (A) (A) (A) (A) (A)
                 (A) (A) (A) (A) (A) (A) (A) (A) (A) (A) (A) (A)
                 (A) (A) (A) (A) (A) (A) (A) (A) (A) (A) (A) (A)
                 (A) (A) (A) (A) (A) (A) (A) (A) (A) (A) (A) (A)
                 (A) (A) (A) (A) (A) (A) (A) (A) (A) (A) (A) (A)
                 (A) (A) (A) (A) (A) (A) (A) (A) (A) (A) (A) (A)
                 (A) (A) (A) (A) (A) (A) (A) (A) (A) (A) (A) (A)
                 (A) (A) (A) (A) (A) (A) (A) (A) (A) (A) (A) (A)
                 (A) (A) (A) (A) (A) (A) (A) (A) (A) (A) (A) (A)
                 (A) (A) (A) (A) (A) (A) (A) (A) (A) (A) (A) (A)
                 (A) (A) (A) (A) (A) (A) (A) (A) (A) (A) (A) (A)
                 (A) (A) (A) (A) (A) (A) (A) (A) (A) (A) (A) (A)
                 (A) (A) (A) (A) (A) (A) (A) (A) (A) (A) (A) (A)
                 (A) (A) (A) (A) (A) (A) (A) (A) (A) (A) (A) (A)
                 (A) (A) (A) (A) (A) (A) (A) (A) (A) (A) (A) (A)
                 (A) (A) (A) (A) (A) (A) (A) (A) (A) (A) (A) (A)
                 (A) (A) (A) (A) (A) (A) (A) (A) (A) (A) (A) (A)
                 (A) (A) (A) (A) (A) (A) (A) (A) (A) (A) (A) (A)
                 (A) (A) (A) (A) (A) (A) (A) (A) (A) (A) (A) (A)
                 (A) (A) (A) (A) (A) (A) (A) (A) (A) (A) (A) (A)
                 (A) (A) (A) (A) (A) (A) (A) (A) (A) (A) (A) (A)
                 (A) (A) (A) (A) (A) (A) (A) (A) (A) (A) (A) (A)
                 (A) (A) (A) (A) (A) (A) (A) (A) (A) (A) (A) (A)
                 (A) (A) (A) (A) (A) (A) (A) (A) (A) (A) (A) (A)
                 (A) (A) (A) (A) (A) (A) (A) (A) (A) (A) (A) (A)
                 (A) (A) (A) (A) (A) (A) (A) (A) (A) (A) (A) (A)
                 (A) (A) (A) (A) (A) (A) (A) (A) (A) (A) (A) (A)
                 (A) (A) (A) (A) (A) (A) (A) (A) (A) (A) (A) (A)
                 (A) (A) (A) (A) (A) (A) (A) (A) (A) (A) (A) (A)
                 (A) (A) (A) (A) (A) (A) (A) (A) (A) (A) (A) (A)
                 (A) (A) (A) (A) (A) (A) (A) (A) (A) (A) (A) (A)
                 (A) (A) (A) (A) (A) (A) (A) (A) (A) (A) (A) (A)
                 (A) (A) (A) (A) (A) (A) (A) (A) (A) (A) (A) (A)
                 (A) (A) (A) (A) (A) (A) (A) (A) (A) (A) (A) (A)
                 (A) (A) (A) (A) (A) (A) (A) (A) (A) (A) (A) (A)
                 (A) (A) (A) (A) (A) (A) (A) (A) (A) (A) (A) (A)
                 (A) (A) (A) (A) (A) (A) (A) (A) (A) (A) (A) (A)
                 (A) (A) (A) (A) (A) (A) (A) (A) (A) (A) (A) (A)
                 (A) (A) (A) (A) (A) (A) (A) (A) (A) (A) (A) (A)
                 (A) (A) (A) (A) (A) (A) (A) (A) (A) (A) (A) (A)
                 (A) (A) (A) (A) (A) (A) (A) (A) (A) (A) (A) (A)
                 (A) (A) (A) (A) (A) (A) (A) (A) (A) (A) (A) (A)
                 (A) (A) (A) (A) (A) (A) (A) (A) (A) (A) (A) (A)
                 (A) (A) (A) (A) (A) (A) (A) (A) (A) (A) (A) (A)
                 (A) (A) (A) (A) (A) (A) (A) (A) (A) (A) (A) (A)
                 (A) (A) (A) (A) (A) (A) (A) (A) (A) (A) (A) (A)
                 (A) (A) (A) (A) (A) (A) (A) (A) (A) (A) (A) (A)
                 (A) (A) (A) (A) (A) (A) (A) (A) (A) (A) (A) (A)
                 (A) (A) (A) (A) (A) (A) (A) (A) (A) (A) (A) (A)
                 (A) (A) (A) (A) (A) (A) (A) (A) (A) (A) (A) (A)
                 (A) (A) (A) (A) (A) (A) (A) (A) (A) (A) (A) (A)
                 (A) (A) (A) (A) (A) (A) (A) (A) (A) (A) (A) (A)
                 (A) (A) (A) (A) (A) (A) (A) (A) (A) (A) (A) (A)
                 (A) (A) (A) (A) (A) (A) (A) (A) (A) (A) (A) (A)
                 (A) (A) (A) (A) (A) (A) (A) (A) (A) (A) (A) (A)
                 (A) (A) (A) (A) (A) (A) (A) (A) (A) (A) (A) (A)
                 (A) (A) (A) (A) (A) (A) (A) (A) (A) (A) (A) (A)
                 (A) (A) (A) (A) (A) (A) (A) (A) (A) (A) (A) (A)
                 (A) (A) (A) (A) (A) (A) (A) (A) (A) (A) (A) (A)
                 (A) (A) (A) (A) (A) (A) (A) (A) (A) (A) (A) (A)
                 (A) (A) (A) (A) (A) (A) (A) (A) (A) (A) (A) (A)
                 (A) (A) (A) (A) (A) (A) (A) (A) (A) (A) (A) (A)
                 (A) (A) (A) (A) (A) (A) (A) (A) (A) (A) (A) (A)
                 (A) (A) (A) (A) (A) (A) (A) (A) (A) (A) (A) (A)
                 (A) (A) (A) (A) (A) (A) (A) (A) (A) (A) (A) (A)
                 (A) (A) (A) (A) (A) (A) (A) (A) (A) (A) (A) (A)
                 (A) (A) (A) (A) (A) (A) (A) (A) (A) (A) (A) (A)
                 (A) (A) (A) (A) (A) (A) (A) (A) (A) (A) (A) (A)
                 (A) (A) (A) (A) (A) (A) (A) (A) (A) (A) (A) (A)
                 (A) (A) (A) (A) (A) (A) (A) (A) (A) (A) (A) (A)
                 (A) (A) (A) (A) (A) (A) (A) (A) (A) (A) (A) (A)
                 (A) (A) (A) (A) (A) (A) (A) (A) (A) (A) (A) (A)
                 (A) (A) (A) (A) (A) (A) (A) (A) (A) (A) (A) (A)
                 (A) (A) (A) (A) (A) (A) (A) (A) (A) (A) (A) (A)
                 (A) (A) (A) (A) (A) (A) (A) (A) (A) (A) (A) (A)
                 (A) (A) (A) (A) (A) (A) (A) (A) (A) (A) (A) (A)
                 (A) (A) (A) (A) (A) (A) (A) (A) (A) (A) (A) (A)
                 (A) (A) (A) (A) (A) (A) (A) (A) (A) (A) (A) (A)
                 (A) (A) (A) (A) (A) (A) (A) (A) (A) (A) (A) (A)
                 (A) (A) (A) (A) (A) (A) (A) (A) (A) (A) (A) (A)
                 (A) (A) (A) (A) (A) (A) (A) (A) (A) (A) (A) (A)
                 (A) (A) (A) (A) (A) (A) (A) (A) (A) (A) (A) (A)
                 (A) (A) (A) (A) (A) (A) (A) (A) (A) (A) (A) (A)
                 (A) (A) (A) (A) (A) (A) (A) (A) (A) (A) (A) (A)
                 (A) (A) (A) (A) (A) (A) (A) (A) (A) (A) (A) (A)
                 (A) (A) (A) (A) (A) (A) (A) (A) (A) (A) (A) (A)
                 (A) (A) (A) (A) (A) (A) (A) (A) (A) (A) (A) (A)
                 (A) (A) (A) (A) (A)
 The electronic state is 1-A.
 Alpha  occ. eigenvalues -- -256.18835 -88.96531 -30.03775 -25.87956 -25.87576
 Alpha  occ. eigenvalues --  -25.87479 -19.17325 -14.34064 -14.34061 -14.33888
 Alpha  occ. eigenvalues --  -14.33575 -10.22057 -10.21536 -10.21527 -10.21502
 Alpha  occ. eigenvalues --  -10.21500 -10.21488 -10.21408 -10.21250 -10.21134
 Alpha  occ. eigenvalues --  -10.19984 -10.19874 -10.19513 -10.19477 -10.19369
 Alpha  occ. eigenvalues --  -10.19295 -10.19247 -10.19199 -10.19042 -10.19039
 Alpha  occ. eigenvalues --  -10.19038 -10.19000 -10.18946 -10.18879 -10.18854
 Alpha  occ. eigenvalues --  -10.18841 -10.18823 -10.18780 -10.18779 -10.18687
 Alpha  occ. eigenvalues --  -10.18552 -10.18454  -7.99276  -5.93845  -5.93562
 Alpha  occ. eigenvalues --   -5.93067  -3.41410  -2.18131  -2.17285  -2.17112
 Alpha  occ. eigenvalues --   -1.05234  -0.97543  -0.96727  -0.96440  -0.95600
 Alpha  occ. eigenvalues --   -0.82808  -0.82337  -0.82013  -0.81308  -0.80819
 Alpha  occ. eigenvalues --   -0.80410  -0.80108  -0.80070  -0.77177  -0.76133
 Alpha  occ. eigenvalues --   -0.74748  -0.74518  -0.73574  -0.71432  -0.70556
 Alpha  occ. eigenvalues --   -0.68783  -0.68367  -0.68243  -0.66510  -0.64688
 Alpha  occ. eigenvalues --   -0.64601  -0.61099  -0.60783  -0.60442  -0.58349
 Alpha  occ. eigenvalues --   -0.57189  -0.54985  -0.54135  -0.53796  -0.53099
 Alpha  occ. eigenvalues --   -0.51585  -0.51534  -0.51072  -0.49234  -0.48333
 Alpha  occ. eigenvalues --   -0.47811  -0.46768  -0.45811  -0.45413  -0.45112
 Alpha  occ. eigenvalues --   -0.44922  -0.44526  -0.44300  -0.43918  -0.43837
 Alpha  occ. eigenvalues --   -0.43541  -0.43472  -0.43135  -0.42814  -0.42271
 Alpha  occ. eigenvalues --   -0.41994  -0.41616  -0.41582  -0.41166  -0.40631
 Alpha  occ. eigenvalues --   -0.40554  -0.40217  -0.39926  -0.39824  -0.39735
 Alpha  occ. eigenvalues --   -0.39533  -0.39104  -0.38810  -0.38291  -0.37951
 Alpha  occ. eigenvalues --   -0.37717  -0.37424  -0.36793  -0.36497  -0.36282
 Alpha  occ. eigenvalues --   -0.35857  -0.34919  -0.34839  -0.34609  -0.34178
 Alpha  occ. eigenvalues --   -0.34111  -0.32477  -0.31364  -0.30921  -0.30245
 Alpha  occ. eigenvalues --   -0.29773  -0.29583  -0.28595  -0.27321  -0.26985
 Alpha  occ. eigenvalues --   -0.24851  -0.24127  -0.23208  -0.22619  -0.20361
 Alpha  occ. eigenvalues --   -0.19139  -0.19020  -0.18778  -0.18411
 Alpha virt. eigenvalues --   -0.07096  -0.07056  -0.02381  -0.00926   0.00175
 Alpha virt. eigenvalues --    0.01208   0.01808   0.03096   0.03580   0.03991
 Alpha virt. eigenvalues --    0.04711   0.05175   0.05551   0.05850   0.05996
 Alpha virt. eigenvalues --    0.06783   0.07349   0.07731   0.07844   0.08343
 Alpha virt. eigenvalues --    0.08558   0.09284   0.09555   0.09829   0.10019
 Alpha virt. eigenvalues --    0.10309   0.10767   0.10898   0.11277   0.11310
 Alpha virt. eigenvalues --    0.11549   0.11977   0.12338   0.12570   0.12810
 Alpha virt. eigenvalues --    0.12999   0.13480   0.13753   0.13836   0.14008
 Alpha virt. eigenvalues --    0.14342   0.14489   0.14786   0.15060   0.15198
 Alpha virt. eigenvalues --    0.15363   0.15456   0.15734   0.15902   0.16277
 Alpha virt. eigenvalues --    0.16596   0.16659   0.17021   0.17356   0.17514
 Alpha virt. eigenvalues --    0.17680   0.17733   0.18400   0.18795   0.19078
 Alpha virt. eigenvalues --    0.19324   0.19798   0.19942   0.20210   0.20376
 Alpha virt. eigenvalues --    0.20815   0.20896   0.21156   0.21582   0.21895
 Alpha virt. eigenvalues --    0.22049   0.22488   0.22952   0.23225   0.23651
 Alpha virt. eigenvalues --    0.24163   0.24548   0.24696   0.25073   0.25426
 Alpha virt. eigenvalues --    0.25722   0.25774   0.26071   0.26161   0.26734
 Alpha virt. eigenvalues --    0.26799   0.27240   0.27442   0.27806   0.28104
 Alpha virt. eigenvalues --    0.28308   0.28722   0.28959   0.29151   0.29275
 Alpha virt. eigenvalues --    0.29594   0.29866   0.29932   0.30265   0.30652
 Alpha virt. eigenvalues --    0.30680   0.31203   0.31435   0.31968   0.32051
 Alpha virt. eigenvalues --    0.32389   0.32647   0.33135   0.33313   0.33395
 Alpha virt. eigenvalues --    0.34082   0.34289   0.34755   0.35222   0.35670
 Alpha virt. eigenvalues --    0.35816   0.36061   0.36320   0.36662   0.36897
 Alpha virt. eigenvalues --    0.37156   0.37381   0.37740   0.37782   0.38474
 Alpha virt. eigenvalues --    0.38578   0.38789   0.39037   0.39305   0.39743
 Alpha virt. eigenvalues --    0.39906   0.39989   0.40116   0.40424   0.40831
 Alpha virt. eigenvalues --    0.40957   0.41230   0.41429   0.41616   0.41801
 Alpha virt. eigenvalues --    0.42077   0.42203   0.42515   0.42552   0.42913
 Alpha virt. eigenvalues --    0.43231   0.43441   0.43812   0.43913   0.44070
 Alpha virt. eigenvalues --    0.44404   0.44858   0.44947   0.45191   0.45513
 Alpha virt. eigenvalues --    0.46047   0.46225   0.46270   0.46768   0.46907
 Alpha virt. eigenvalues --    0.47158   0.47276   0.47611   0.47811   0.47881
 Alpha virt. eigenvalues --    0.48204   0.48600   0.48687   0.48865   0.49057
 Alpha virt. eigenvalues --    0.49374   0.49454   0.49872   0.50083   0.50435
 Alpha virt. eigenvalues --    0.50611   0.51050   0.51191   0.51410   0.51538
 Alpha virt. eigenvalues --    0.51894   0.52110   0.52513   0.52624   0.52911
 Alpha virt. eigenvalues --    0.53107   0.53264   0.53425   0.53544   0.53942
 Alpha virt. eigenvalues --    0.54441   0.54598   0.54654   0.55206   0.55589
 Alpha virt. eigenvalues --    0.55736   0.55998   0.56446   0.56620   0.57133
 Alpha virt. eigenvalues --    0.57436   0.57654   0.57763   0.58333   0.58718
 Alpha virt. eigenvalues --    0.58723   0.59151   0.59336   0.60472   0.60794
 Alpha virt. eigenvalues --    0.61322   0.61674   0.61980   0.62079   0.62619
 Alpha virt. eigenvalues --    0.62648   0.62887   0.63063   0.63156   0.63488
 Alpha virt. eigenvalues --    0.63750   0.64161   0.64433   0.64572   0.65166
 Alpha virt. eigenvalues --    0.65680   0.66044   0.66192   0.66432   0.66722
 Alpha virt. eigenvalues --    0.66930   0.67423   0.67684   0.67874   0.68217
 Alpha virt. eigenvalues --    0.68415   0.69013   0.69162   0.69573   0.70347
 Alpha virt. eigenvalues --    0.70626   0.70983   0.71142   0.71861   0.72062
 Alpha virt. eigenvalues --    0.72385   0.72423   0.72761   0.72986   0.73222
 Alpha virt. eigenvalues --    0.73648   0.73794   0.74080   0.74629   0.74951
 Alpha virt. eigenvalues --    0.75861   0.76086   0.76503   0.76762   0.76945
 Alpha virt. eigenvalues --    0.77202   0.77785   0.77929   0.78418   0.78639
 Alpha virt. eigenvalues --    0.79075   0.79523   0.79692   0.80163   0.81030
 Alpha virt. eigenvalues --    0.81125   0.81230   0.81721   0.81990   0.82360
 Alpha virt. eigenvalues --    0.83118   0.83381   0.83469   0.84283   0.84762
 Alpha virt. eigenvalues --    0.85416   0.85526   0.85752   0.85809   0.86704
 Alpha virt. eigenvalues --    0.86899   0.87325   0.88055   0.88492   0.88757
 Alpha virt. eigenvalues --    0.89534   0.89738   0.90207   0.90606   0.90993
 Alpha virt. eigenvalues --    0.91315   0.91532   0.92270   0.92610   0.92852
 Alpha virt. eigenvalues --    0.93335   0.93863   0.94008   0.94253   0.94396
 Alpha virt. eigenvalues --    0.95199   0.95535   0.95994   0.96408   0.96759
 Alpha virt. eigenvalues --    0.97280   0.97850   0.98284   0.98402   0.98917
 Alpha virt. eigenvalues --    0.99247   0.99323   0.99727   1.00012   1.00453
 Alpha virt. eigenvalues --    1.01040   1.01331   1.01563   1.01762   1.01831
 Alpha virt. eigenvalues --    1.02473   1.02891   1.03414   1.03592   1.03648
 Alpha virt. eigenvalues --    1.03954   1.04409   1.04645   1.04761   1.05528
 Alpha virt. eigenvalues --    1.05858   1.06612   1.07040   1.07249   1.07377
 Alpha virt. eigenvalues --    1.07738   1.08592   1.08964   1.09360   1.09864
 Alpha virt. eigenvalues --    1.10658   1.10895   1.10941   1.12286   1.12623
 Alpha virt. eigenvalues --    1.12905   1.13268   1.14112   1.14474   1.14978
 Alpha virt. eigenvalues --    1.15797   1.16296   1.17103   1.17486   1.17615
 Alpha virt. eigenvalues --    1.17771   1.18814   1.19113   1.19396   1.19882
 Alpha virt. eigenvalues --    1.19894   1.20286   1.20705   1.21118   1.21416
 Alpha virt. eigenvalues --    1.21922   1.22532   1.23137   1.23618   1.23943
 Alpha virt. eigenvalues --    1.25008   1.25319   1.25660   1.26016   1.26352
 Alpha virt. eigenvalues --    1.26901   1.27171   1.27369   1.27832   1.28612
 Alpha virt. eigenvalues --    1.28850   1.29101   1.29396   1.29562   1.29744
 Alpha virt. eigenvalues --    1.30404   1.30749   1.31472   1.31835   1.32740
 Alpha virt. eigenvalues --    1.33388   1.34279   1.34714   1.35829   1.36208
 Alpha virt. eigenvalues --    1.37298   1.37963   1.38339   1.38573   1.39187
 Alpha virt. eigenvalues --    1.39939   1.40592   1.40891   1.41881   1.42477
 Alpha virt. eigenvalues --    1.43056   1.43259   1.43680   1.44628   1.45020
 Alpha virt. eigenvalues --    1.45877   1.46270   1.46418   1.46962   1.47086
 Alpha virt. eigenvalues --    1.47521   1.47957   1.48246   1.48504   1.49021
 Alpha virt. eigenvalues --    1.49383   1.49681   1.49784   1.50471   1.50552
 Alpha virt. eigenvalues --    1.50837   1.51409   1.51918   1.51993   1.52134
 Alpha virt. eigenvalues --    1.52653   1.52692   1.53262   1.53561   1.54023
 Alpha virt. eigenvalues --    1.54282   1.54584   1.54747   1.54953   1.55240
 Alpha virt. eigenvalues --    1.55519   1.55753   1.56121   1.56243   1.56330
 Alpha virt. eigenvalues --    1.56763   1.56956   1.57215   1.57600   1.57822
 Alpha virt. eigenvalues --    1.58027   1.58363   1.58813   1.59444   1.59555
 Alpha virt. eigenvalues --    1.60163   1.60339   1.60507   1.60799   1.61394
 Alpha virt. eigenvalues --    1.61864   1.62288   1.62581   1.62780   1.62978
 Alpha virt. eigenvalues --    1.63073   1.63645   1.64158   1.64558   1.64662
 Alpha virt. eigenvalues --    1.65035   1.65146   1.65414   1.65928   1.66289
 Alpha virt. eigenvalues --    1.66824   1.66951   1.67403   1.67931   1.68032
 Alpha virt. eigenvalues --    1.68898   1.69067   1.69239   1.69508   1.69993
 Alpha virt. eigenvalues --    1.70247   1.70528   1.70713   1.70912   1.71293
 Alpha virt. eigenvalues --    1.72113   1.72430   1.72587   1.73242   1.73688
 Alpha virt. eigenvalues --    1.74033   1.74677   1.74982   1.75167   1.76187
 Alpha virt. eigenvalues --    1.76445   1.77026   1.77892   1.78214   1.78831
 Alpha virt. eigenvalues --    1.79251   1.79285   1.79936   1.80875   1.81626
 Alpha virt. eigenvalues --    1.81848   1.82441   1.82633   1.83489   1.83629
 Alpha virt. eigenvalues --    1.83918   1.84566   1.84861   1.85568   1.86299
 Alpha virt. eigenvalues --    1.86547   1.87028   1.87283   1.87715   1.88253
 Alpha virt. eigenvalues --    1.88575   1.89120   1.89245   1.90330   1.90646
 Alpha virt. eigenvalues --    1.90818   1.91357   1.92085   1.92589   1.93172
 Alpha virt. eigenvalues --    1.93749   1.94011   1.94334   1.94865   1.95888
 Alpha virt. eigenvalues --    1.95958   1.96236   1.97500   1.98096   1.98513
 Alpha virt. eigenvalues --    1.98871   1.98923   1.99365   2.00067   2.00540
 Alpha virt. eigenvalues --    2.00636   2.01107   2.01742   2.01841   2.02585
 Alpha virt. eigenvalues --    2.02852   2.03732   2.04344   2.04531   2.05466
 Alpha virt. eigenvalues --    2.05865   2.06950   2.07543   2.07689   2.08269
 Alpha virt. eigenvalues --    2.08738   2.08806   2.09431   2.09708   2.10430
 Alpha virt. eigenvalues --    2.10487   2.11173   2.11947   2.12125   2.12499
 Alpha virt. eigenvalues --    2.13297   2.13491   2.14000   2.14819   2.15312
 Alpha virt. eigenvalues --    2.15488   2.16083   2.16952   2.17426   2.17918
 Alpha virt. eigenvalues --    2.18221   2.18834   2.19401   2.19682   2.20194
 Alpha virt. eigenvalues --    2.20818   2.20917   2.21106   2.21628   2.22431
 Alpha virt. eigenvalues --    2.23241   2.23382   2.24463   2.25114   2.25451
 Alpha virt. eigenvalues --    2.25976   2.26561   2.27050   2.27313   2.27922
 Alpha virt. eigenvalues --    2.28380   2.28606   2.28891   2.29522   2.29880
 Alpha virt. eigenvalues --    2.30554   2.30761   2.31229   2.32285   2.32559
 Alpha virt. eigenvalues --    2.33081   2.33644   2.34209   2.34742   2.35384
 Alpha virt. eigenvalues --    2.35462   2.35802   2.36239   2.36580   2.36994
 Alpha virt. eigenvalues --    2.37245   2.37494   2.37858   2.38037   2.38628
 Alpha virt. eigenvalues --    2.39037   2.39982   2.40485   2.40986   2.41019
 Alpha virt. eigenvalues --    2.41738   2.42086   2.42328   2.43045   2.43785
 Alpha virt. eigenvalues --    2.44353   2.44381   2.44910   2.45619   2.45979
 Alpha virt. eigenvalues --    2.46386   2.46674   2.47112   2.47793   2.48284
 Alpha virt. eigenvalues --    2.48720   2.49480   2.49596   2.49928   2.50118
 Alpha virt. eigenvalues --    2.51374   2.52497   2.52744   2.53032   2.53638
 Alpha virt. eigenvalues --    2.53672   2.54124   2.54888   2.55326   2.55459
 Alpha virt. eigenvalues --    2.55820   2.56218   2.56454   2.56663   2.56969
 Alpha virt. eigenvalues --    2.57539   2.57727   2.58143   2.58890   2.59175
 Alpha virt. eigenvalues --    2.59516   2.59908   2.60113   2.60334   2.60923
 Alpha virt. eigenvalues --    2.61688   2.62033   2.62151   2.62452   2.63012
 Alpha virt. eigenvalues --    2.63454   2.63487   2.64423   2.64979   2.65053
 Alpha virt. eigenvalues --    2.65853   2.66289   2.66731   2.66872   2.67671
 Alpha virt. eigenvalues --    2.68284   2.68414   2.68488   2.69377   2.69524
 Alpha virt. eigenvalues --    2.69745   2.70708   2.70937   2.71354   2.71864
 Alpha virt. eigenvalues --    2.72016   2.72518   2.73427   2.73690   2.74082
 Alpha virt. eigenvalues --    2.74884   2.75083   2.75531   2.76107   2.76824
 Alpha virt. eigenvalues --    2.77105   2.77741   2.78399   2.78606   2.79086
 Alpha virt. eigenvalues --    2.79495   2.80025   2.80451   2.81137   2.81250
 Alpha virt. eigenvalues --    2.82167   2.82217   2.82620   2.82853   2.82920
 Alpha virt. eigenvalues --    2.83542   2.83900   2.84241   2.84847   2.85408
 Alpha virt. eigenvalues --    2.85577   2.86666   2.86971   2.87182   2.87336
 Alpha virt. eigenvalues --    2.88132   2.88477   2.88686   2.89015   2.90053
 Alpha virt. eigenvalues --    2.90273   2.90551   2.91164   2.91452   2.91784
 Alpha virt. eigenvalues --    2.92245   2.92792   2.93423   2.93949   2.94281
 Alpha virt. eigenvalues --    2.94740   2.95177   2.95767   2.95913   2.96360
 Alpha virt. eigenvalues --    2.96681   2.97232   2.97489   2.98002   2.98079
 Alpha virt. eigenvalues --    2.99075   2.99168   2.99376   2.99651   3.00279
 Alpha virt. eigenvalues --    3.00706   3.01051   3.01417   3.01883   3.02981
 Alpha virt. eigenvalues --    3.03515   3.03670   3.04804   3.04941   3.05221
 Alpha virt. eigenvalues --    3.05736   3.06558   3.06800   3.07135   3.07357
 Alpha virt. eigenvalues --    3.07914   3.08076   3.08212   3.08531   3.09350
 Alpha virt. eigenvalues --    3.09641   3.10182   3.10327   3.10686   3.10920
 Alpha virt. eigenvalues --    3.11476   3.11893   3.12364   3.12454   3.12739
 Alpha virt. eigenvalues --    3.12989   3.13367   3.14181   3.14324   3.14887
 Alpha virt. eigenvalues --    3.15355   3.16129   3.16280   3.16345   3.16976
 Alpha virt. eigenvalues --    3.17211   3.18222   3.18445   3.18925   3.19026
 Alpha virt. eigenvalues --    3.19489   3.19738   3.20140   3.20460   3.21003
 Alpha virt. eigenvalues --    3.21139   3.21380   3.21578   3.22115   3.22300
 Alpha virt. eigenvalues --    3.22656   3.22934   3.23283   3.23635   3.23713
 Alpha virt. eigenvalues --    3.24425   3.24830   3.25307   3.25506   3.25697
 Alpha virt. eigenvalues --    3.26043   3.26325   3.26451   3.26870   3.27203
 Alpha virt. eigenvalues --    3.27277   3.27823   3.28226   3.28486   3.28842
 Alpha virt. eigenvalues --    3.29213   3.29834   3.29884   3.30174   3.30235
 Alpha virt. eigenvalues --    3.30632   3.30765   3.31404   3.31672   3.32124
 Alpha virt. eigenvalues --    3.32362   3.32765   3.32972   3.33617   3.33799
 Alpha virt. eigenvalues --    3.34195   3.34376   3.34634   3.34837   3.35107
 Alpha virt. eigenvalues --    3.35303   3.35435   3.35783   3.35963   3.36729
 Alpha virt. eigenvalues --    3.37041   3.37381   3.37773   3.38054   3.38358
 Alpha virt. eigenvalues --    3.38724   3.38756   3.39096   3.39274   3.39506
 Alpha virt. eigenvalues --    3.39882   3.40240   3.40746   3.40899   3.41751
 Alpha virt. eigenvalues --    3.41919   3.42273   3.42823   3.42977   3.43465
 Alpha virt. eigenvalues --    3.43921   3.44327   3.44764   3.45268   3.45579
 Alpha virt. eigenvalues --    3.46328   3.46458   3.46801   3.47679   3.47954
 Alpha virt. eigenvalues --    3.48307   3.48610   3.48911   3.49946   3.50758
 Alpha virt. eigenvalues --    3.51326   3.52031   3.52264   3.52948   3.53561
 Alpha virt. eigenvalues --    3.53779   3.54088   3.54965   3.55661   3.55755
 Alpha virt. eigenvalues --    3.56393   3.57148   3.57601   3.58015   3.58520
 Alpha virt. eigenvalues --    3.58962   3.59317   3.59569   3.60064   3.60678
 Alpha virt. eigenvalues --    3.61359   3.61654   3.62762   3.62878   3.63783
 Alpha virt. eigenvalues --    3.64229   3.64853   3.65228   3.66143   3.66260
 Alpha virt. eigenvalues --    3.66597   3.67656   3.67833   3.68047   3.68637
 Alpha virt. eigenvalues --    3.69089   3.69409   3.70308   3.71085   3.71379
 Alpha virt. eigenvalues --    3.71769   3.72258   3.72862   3.73169   3.73948
 Alpha virt. eigenvalues --    3.74186   3.74380   3.74545   3.74821   3.75085
 Alpha virt. eigenvalues --    3.75261   3.76441   3.76918   3.77245   3.78088
 Alpha virt. eigenvalues --    3.79073   3.79385   3.80151   3.80255   3.81140
 Alpha virt. eigenvalues --    3.82041   3.82647   3.82988   3.84265   3.84673
 Alpha virt. eigenvalues --    3.85256   3.86214   3.86700   3.87006   3.87670
 Alpha virt. eigenvalues --    3.87803   3.88985   3.89052   3.90205   3.90499
 Alpha virt. eigenvalues --    3.90742   3.92161   3.92815   3.93702   3.94055
 Alpha virt. eigenvalues --    3.95557   3.96537   3.97203   3.97438   3.97784
 Alpha virt. eigenvalues --    3.98966   3.99151   3.99781   4.00388   4.00575
 Alpha virt. eigenvalues --    4.00996   4.01893   4.03109   4.03288   4.03876
 Alpha virt. eigenvalues --    4.04436   4.04957   4.05645   4.05895   4.06836
 Alpha virt. eigenvalues --    4.07739   4.08001   4.09538   4.10268   4.11349
 Alpha virt. eigenvalues --    4.11663   4.12091   4.13673   4.14339   4.15258
 Alpha virt. eigenvalues --    4.15293   4.15858   4.15972   4.16444   4.17196
 Alpha virt. eigenvalues --    4.17535   4.18435   4.18821   4.19261   4.19872
 Alpha virt. eigenvalues --    4.20079   4.21042   4.21618   4.21693   4.22954
 Alpha virt. eigenvalues --    4.23479   4.24069   4.24713   4.25584   4.25965
 Alpha virt. eigenvalues --    4.27092   4.27690   4.28614   4.28986   4.29255
 Alpha virt. eigenvalues --    4.29438   4.30295   4.30543   4.31359   4.31699
 Alpha virt. eigenvalues --    4.32786   4.33155   4.33626   4.34130   4.34414
 Alpha virt. eigenvalues --    4.35771   4.35958   4.37152   4.37573   4.38368
 Alpha virt. eigenvalues --    4.39479   4.40172   4.40362   4.40970   4.41388
 Alpha virt. eigenvalues --    4.42249   4.43351   4.43963   4.44223   4.44956
 Alpha virt. eigenvalues --    4.45245   4.45485   4.46134   4.46251   4.47224
 Alpha virt. eigenvalues --    4.47824   4.48229   4.48622   4.49757   4.51201
 Alpha virt. eigenvalues --    4.51505   4.52741   4.53491   4.53830   4.54228
 Alpha virt. eigenvalues --    4.55159   4.55872   4.56332   4.57235   4.58592
 Alpha virt. eigenvalues --    4.58753   4.61230   4.63394   4.64825   4.65477
 Alpha virt. eigenvalues --    4.66921   4.67428   4.68207   4.68975   4.69225
 Alpha virt. eigenvalues --    4.69511   4.71919   4.72801   4.73206   4.74447
 Alpha virt. eigenvalues --    4.75381   4.75771   4.77683   4.79317   4.81512
 Alpha virt. eigenvalues --    4.82360   4.82865   4.83531   4.83721   4.83927
 Alpha virt. eigenvalues --    4.84765   4.85093   4.85981   4.87133   4.87474
 Alpha virt. eigenvalues --    4.89376   4.89461   4.91265   4.92795   4.93256
 Alpha virt. eigenvalues --    4.94683   4.95048   4.96170   4.96699   4.98924
 Alpha virt. eigenvalues --    5.00623   5.01154   5.02407   5.03157   5.04397
 Alpha virt. eigenvalues --    5.05147   5.05479   5.05943   5.06555   5.08031
 Alpha virt. eigenvalues --    5.09098   5.09349   5.12976   5.13843   5.16190
 Alpha virt. eigenvalues --    5.17336   5.18073   5.19667   5.21014   5.21391
 Alpha virt. eigenvalues --    5.22134   5.23473   5.24657   5.25413   5.26244
 Alpha virt. eigenvalues --    5.27257   5.27811   5.29246   5.35215   5.36292
 Alpha virt. eigenvalues --    5.36828   5.38297   5.38710   5.39128   5.39560
 Alpha virt. eigenvalues --    5.40156   5.40438   5.41623   5.48019   5.48227
 Alpha virt. eigenvalues --    5.49927   5.50708   5.51650   5.52032   5.53259
 Alpha virt. eigenvalues --    5.55495   5.60389   5.60963   5.61145   5.61983
 Alpha virt. eigenvalues --    5.62675   5.64459   5.66759   5.67266   5.68182
 Alpha virt. eigenvalues --    5.70445   5.75993   5.77081   5.77865   5.79281
 Alpha virt. eigenvalues --    5.87499   5.88316   5.89694   5.91706   6.00856
 Alpha virt. eigenvalues --    6.01788   6.02392   6.10228   6.11933   6.12245
 Alpha virt. eigenvalues --    6.13202   6.17883   6.24168   6.25908   6.34051
 Alpha virt. eigenvalues --    6.34451   6.41264   6.46023   6.52300   6.52915
 Alpha virt. eigenvalues --    6.63978   6.96708   7.28692   9.07036   9.24248
 Alpha virt. eigenvalues --    9.40221  19.58534  22.33214  22.36036  22.36444
 Alpha virt. eigenvalues --   22.45856  22.46608  22.52310  22.52976  22.62196
 Alpha virt. eigenvalues --   22.62438  22.84906  22.86747  22.90796  22.93673
 Alpha virt. eigenvalues --   22.95093  22.95784  22.97127  23.03180  23.03901
 Alpha virt. eigenvalues --   23.14334  23.27231  23.30775  23.31576  23.40192
 Alpha virt. eigenvalues --   23.42086  23.50436  23.51026  23.55174  23.74309
 Alpha virt. eigenvalues --   23.79403  23.79720  23.88827  32.87415  32.90371
 Alpha virt. eigenvalues --   32.92407  33.04925  43.92186
          Condensed to atoms (all electrons):
 Mulliken charges:
               1
     1  Fe  -0.222620
     2  N   -0.115767
     3  N    0.013802
     4  N   -0.030290
     5  N    0.020066
     6  C    0.222920
     7  C   -0.048741
     8  C   -0.008144
     9  C    0.132290
    10  C    0.148277
    11  C   -0.015259
    12  C    0.029484
    13  C    0.216885
    14  C    0.227236
    15  C   -0.060316
    16  C    0.042154
    17  C    0.240211
    18  C    0.211700
    19  C   -0.038600
    20  C   -0.058526
    21  C    0.225549
    22  C   -0.424607
    23  H    0.140699
    24  C   -0.384342
    25  H    0.131726
    26  C   -0.432626
    27  H    0.117869
    28  C   -0.416151
    29  H    0.119209
    30  C   -0.411679
    31  H    0.121573
    32  H    0.137055
    33  H    0.135504
    34  C   -0.412353
    35  H    0.135440
    36  H    0.137697
    37  H    0.120846
    38  C   -0.449134
    39  H    0.142145
    40  H    0.130556
    41  H    0.157928
    42  C   -0.207937
    43  H    0.112445
    44  C   -0.288535
    45  H    0.138401
    46  H    0.123752
    47  C   -0.444725
    48  H    0.142673
    49  H    0.126672
    50  H    0.156694
    51  C   -0.205928
    52  H    0.111723
    53  C   -0.283124
    54  H    0.139971
    55  H    0.123116
    56  C   -0.414025
    57  H    0.140197
    58  H    0.135020
    59  H    0.120154
    60  C   -0.414291
    61  H    0.121250
    62  H    0.135949
    63  H    0.134621
    64  O   -0.563482
    65  H    0.358842
    66  H    0.322064
    67  C   -0.339208
    68  H    0.161890
    69  H    0.154974
    70  H    0.145847
    71  S   -0.043468
    72  H    0.168800
 Sum of Mulliken charges =  -0.00000
 Mulliken charges with hydrogens summed into heavy atoms:
               1
     1  Fe  -0.222620
     2  N   -0.115767
     3  N    0.013802
     4  N   -0.030290
     5  N    0.020066
     6  C    0.222920
     7  C   -0.048741
     8  C   -0.008144
     9  C    0.132290
    10  C    0.148277
    11  C   -0.015259
    12  C    0.029484
    13  C    0.216885
    14  C    0.227236
    15  C   -0.060316
    16  C    0.042154
    17  C    0.240211
    18  C    0.211700
    19  C   -0.038600
    20  C   -0.058526
    21  C    0.225549
    22  C   -0.283908
    24  C   -0.252616
    26  C   -0.314757
    28  C   -0.296942
    30  C   -0.017547
    34  C   -0.018369
    38  C   -0.018505
    42  C   -0.095492
    44  C   -0.026382
    47  C   -0.018687
    51  C   -0.094204
    53  C   -0.020036
    56  C   -0.018654
    60  C   -0.022471
    64  O    0.117424
    67  C    0.123503
    71  S    0.125332
 Electronic spatial extent (au):  <R**2>=          18303.0011
 Charge=             -0.0000 electrons
 Dipole moment (field-independent basis, Debye):
    X=             -1.5328    Y=             -1.1992    Z=             -0.1455  Tot=              1.9516
 Quadrupole moment (field-independent basis, Debye-Ang):
   XX=           -223.1826   YY=           -223.5700   ZZ=           -230.6698
   XY=              2.2100   XZ=             -4.7534   YZ=              3.3315
 Traceless Quadrupole moment (field-independent basis, Debye-Ang):
   XX=              2.6248   YY=              2.2375   ZZ=             -4.8623
   XY=              2.2100   XZ=             -4.7534   YZ=              3.3315
 Octapole moment (field-independent basis, Debye-Ang**2):
  XXX=            -13.9387  YYY=            -40.6302  ZZZ=            -22.2508  XYY=              6.9609
  XXY=            -28.7240  XXZ=             -3.5108  XZZ=            -15.5800  YZZ=             -8.0640
  YYZ=              8.6153  XYZ=              0.4373
 Hexadecapole moment (field-independent basis, Debye-Ang**3):
 XXXX=         -11697.9916 YYYY=         -11444.4250 ZZZZ=          -1241.2146 XXXY=            -16.5533
 XXXZ=            -39.2574 YYYX=             27.9111 YYYZ=             12.3309 ZZZX=            -56.2550
 ZZZY=             30.8481 XXYY=          -3901.4466 XXZZ=          -2315.4055 YYZZ=          -2286.0111
 XXYZ=             80.0279 YYXZ=              9.4388 ZZXY=             20.2242
 N-N= 5.414956112497D+03 E-N=-1.826545918146D+04  KE= 3.147458210396D+03
  Exact polarizability:     697.985       0.934     686.436       1.513       6.693     262.021
 Approx polarizability:    1286.413       6.955    1270.761       6.192       0.194     448.220

 ----------------------------------------------------------------------

 Electric dipole moment (input orientation):
 (Debye = 10**-18 statcoulomb cm , SI units = C m)
                  (au)            (Debye)         (10**-30 SI)
   Tot        0.767802D+00      0.195156D+01      0.650970D+01
   x          0.610849D+00      0.155262D+01      0.517899D+01
   y         -0.442205D+00     -0.112397D+01     -0.374917D+01
   z         -0.144356D+00     -0.366916D+00     -0.122390D+01

 Dipole polarizability, Alpha (input orientation).
 (esu units = cm**3 , SI units = C**2 m**2 J**-1)
 Alpha(0;0):
               (au)            (10**-24 esu)      (10**-40 SI)
   iso        0.548814D+03      0.813258D+02      0.904872D+02
   aniso      0.430473D+03      0.637895D+02      0.709754D+02
   xx         0.652990D+03      0.967631D+02      0.107664D+03
   yx        -0.409809D+01     -0.607274D+00     -0.675683D+00
   yy         0.686164D+03      0.101679D+03      0.113133D+03
   zx        -0.132702D+03     -0.196645D+02     -0.218797D+02
   zy        -0.107803D+02     -0.159747D+01     -0.177743D+01
   zz         0.307288D+03      0.455354D+02      0.506650D+02

 First dipole hyperpolarizability, Beta (input orientation).
 ||, _|_  parallel and perpendicular components, (z) with respect to z axis,
 vector components x,y,z.  Values do not include the 1/n! factor of 1/2.
 (esu units = statvolt**-1 cm**4 , SI units = C**3 m**3 J**-2)
 Beta(0;0,0):
               (au)            (10**-30 esu)      (10**-50 SI)
   || (z)    -0.615984D+01     -0.532162D-01     -0.197507D-01
   _|_(z)    -0.205328D+01     -0.177387D-01     -0.658355D-02
   x         -0.112624D+04     -0.972984D+01     -0.361113D+01
   y          0.500495D+04      0.432389D+02      0.160477D+02
   z         -0.307992D+02     -0.266081D+00     -0.987533D-01
   ||         0.102604D+04      0.886418D+01      0.328985D+01
   xxx       -0.744797D+03     -0.643446D+01     -0.238809D+01
   xxy        0.853059D+03      0.736977D+01      0.273522D+01
   yxy        0.417113D+03      0.360353D+01      0.133742D+01
   yyy        0.696292D+03      0.601542D+01      0.223256D+01
   xxz        0.216876D+03      0.187364D+01      0.695384D+00
   yxz       -0.269115D+03     -0.232495D+01     -0.862880D+00
   yyz       -0.167097D+03     -0.144359D+01     -0.535772D+00
   zxz       -0.477300D+02     -0.412350D+00     -0.153040D+00
   zyz        0.118967D+03      0.102778D+01      0.381450D+00
   zzz       -0.600461D+02     -0.518752D+00     -0.192530D+00

 ----------------------------------------------------------------------

 Dipole orientation:
    26          6.70121088          4.89672753         57.31253870
     7          6.57326574          4.96749956         61.15414767
     7          8.68028040          1.64712555         57.55939575
     7          7.33230729          5.01742374         53.62774359
     7          5.29296726          8.38271345         57.28035786
     6          5.35219064          6.70923971         62.59740636
     6          5.50623880          6.04896983         65.24348325
     6          6.87350815          3.87511445         65.36874154
     6          7.46973702          3.19654838         62.79157247
     6          9.28854400          0.30330800         59.66640099
     6         10.32658171         -2.12432766         59.00962615
     6         10.38060516         -2.21454031         56.42320323
     6          9.37456377          0.18374674         55.56271364
     6          8.11385916          3.06715243         52.14572126
     6          7.93297721          3.72262250         49.51061983
     6          7.03167290          6.14898128         49.42902831
     6          6.62815850          6.89521669         52.03394243
     6          4.97666096          9.85273648         55.20033447
     6          3.75761469         12.21157037         55.86310193
     6          3.22049169         12.06232640         58.36983242
     6          4.20917341          9.65813704         59.22198092
     6          4.17982614          8.86840692         61.70854977
     1          3.25123903         10.06517910         63.07286638
     6          8.83285029          1.07380011         62.12675145
     1          9.43934127         -0.16136809         63.63106376
     6          9.05961522          0.80113194         53.04416963
     1          9.61629370         -0.59386028         51.66476261
     6          5.66809152          9.21380163         52.76555352
     1          5.26437994         10.56994781         51.29721717
     6          7.63213958          2.36853803         67.62309909
     1          6.99118093          3.27122577         69.35350518
     1          9.68178962          2.18014791         67.71225024
     1          6.82027589          0.47649229         67.53942689
     6          4.38478805          7.57365770         67.32758291
     1          2.35256023          7.77868637         67.06101193
     1          5.21534279          9.45869822         67.37458464
     1          4.71167940          6.67721342         69.14700600
     6         11.26806767         -4.03387965         60.84803008
     1          9.71415885         -5.16150898         61.60188417
     1         12.21512257         -3.11881644         62.42936984
     1         12.59985351         -5.30083265         59.92660662
     6         11.27652408         -4.21018400         54.78507071
     1         12.15818567         -3.59484749         53.04204120
     6         11.08576314         -6.67011908         55.25260567
     1         10.15086870         -7.38841113         56.90961004
     1         11.81941786         -8.05952624         53.95831717
     6          8.74977165          2.08631284         47.37358276
     1          7.27044811          0.73902211         46.87429040
     1         10.43758757          1.02078529         47.87285960
     1          9.16365597          3.23784434         45.72128618
     6          6.54773045          7.74178055         47.26152895
     1          6.87679198          9.74316774         47.54643583
     6          5.73992584          6.94812087         45.02019464
     1          5.29219939          4.99819340         44.65822091
     1          5.44352951          8.24275610         43.47719590
     6          3.19854324         14.27927277         54.03688870
     1          1.89873468         13.62316887         52.57911345
     1          4.92635237         14.91573702         53.11397128
     1          2.34429599         15.88558483         54.99116932
     6          1.93826924         13.92974500         60.04138926
     1          1.30818700         15.56179958         58.96486788
     1          3.21776920         14.58138965         61.51938429
     1          0.29680524         13.07696447         60.94717730
     8         10.45315825          6.80860826         57.93340455
     1         10.54095154          6.92180660         59.73718391
     1         11.62263696          7.33221839         56.84724638
     6          2.40270158          0.77219562         59.46701283
     1          4.16718234         -0.18689848         59.87842801
     1          0.90416054         -0.56462540         59.04645275
     1          1.87060737          1.95657666         61.05422172
    16          2.83230977          2.88490088         56.76721387
     1          3.54146342          1.05545882         55.16702280

 Electric dipole moment (dipole orientation):
 (Debye = 10**-18 statcoulomb cm , SI units = C m)
                  (au)            (Debye)         (10**-30 SI)
   Tot        0.767802D+00      0.195156D+01      0.650970D+01
   x          0.000000D+00      0.000000D+00      0.000000D+00
   y          0.000000D+00      0.000000D+00      0.000000D+00
   z          0.767802D+00      0.195156D+01      0.650970D+01

 Dipole polarizability, Alpha (dipole orientation).
 (esu units = cm**3 , SI units = C**2 m**2 J**-1)
 Alpha(0;0):
               (au)            (10**-24 esu)      (10**-40 SI)
   iso        0.548814D+03      0.813258D+02      0.904872D+02
   aniso      0.430473D+03      0.637895D+02      0.709754D+02
   xx         0.332366D+03      0.492516D+02      0.547998D+02
   yx        -0.156836D+03     -0.232408D+02     -0.258588D+02
   yy         0.621182D+03      0.920497D+02      0.102419D+03
   zx        -0.224296D+02     -0.332373D+01     -0.369814D+01
   zy        -0.156680D+02     -0.232175D+01     -0.258330D+01
   zz         0.692893D+03      0.102676D+03      0.114243D+03

 First dipole hyperpolarizability, Beta (dipole orientation).
 ||, _|_  parallel and perpendicular components, (z) with respect to z axis,
 vector components x,y,z.  Values do not include the 1/n! factor of 1/2.
 (esu units = statvolt**-1 cm**4 , SI units = C**3 m**3 J**-2)
 Beta(0;0,0):
               (au)            (10**-30 esu)      (10**-50 SI)
   || (z)    -0.754551D+03     -0.651873D+01     -0.241936D+01
   _|_(z)    -0.251517D+03     -0.217291D+01     -0.806455D+00
   x          0.137965D+04      0.119191D+02      0.442367D+01
   y         -0.319089D+04     -0.275668D+02     -0.102312D+02
   z         -0.377276D+04     -0.325937D+02     -0.120968D+02
   ||         0.102604D+04      0.886418D+01      0.328985D+01
   xxx        0.103147D+03      0.891108D+00      0.330726D+00
   xxy       -0.263217D+03     -0.227399D+01     -0.843968D+00
   yxy        0.475824D+03      0.411075D+01      0.152566D+01
   yyy       -0.117443D+04     -0.101462D+02     -0.376565D+01
   xxz        0.289881D+02      0.250434D+00      0.929463D-01
   yxz       -0.313484D+02     -0.270826D+00     -0.100514D+00
   yyz        0.203518D+02      0.175824D+00      0.652552D-01
   zxz       -0.119087D+03     -0.102881D+01     -0.381835D+00
   zyz        0.374018D+03      0.323123D+01      0.119924D+01
   zzz       -0.130693D+04     -0.112908D+02     -0.419047D+01

 ----------------------------------------------------------------------
 Unable to Open any file for archive entry.
 1\1\GINC-BGN1030\SP\RAPFD\def2TZVP\C31H34Fe1N4O1S1\BEBZHART\15-Jul-202
 4\0\\# polar def2tzvp apfd int=(grid=ultrafine)\\3rwl_II_S\\0,1\Fe,0,2
 4.7861857486,-17.9672998603,-1.3884997472\N,0,26.3574386422,-19.191222
 6371,-1.8030037397\N,0,26.0426598736,-16.399125059,-1.5702526944\N,0,2
 3.3662738355,-16.7615084962,-0.7194148191\N,0,23.7129776506,-19.574560
 6984,-0.9157423807\C,0,26.3076688042,-20.5446532005,-1.9298390495\C,0,
 27.5945233444,-21.0678178621,-2.32947858\C,0,28.4289835122,-19.9977691
 026,-2.4288459613\C,0,27.6298931713,-18.8318074612,-2.1282327309\C,0,2
 7.3543752303,-16.4045677719,-1.9333590541\C,0,27.8299929312,-15.066574
 0804,-2.1708734754\C,0,26.7728689789,-14.2328690326,-1.9182962503\C,0,
 25.6723785076,-15.090718185,-1.5253007702\C,0,23.3336162745,-15.406430
 3063,-0.8373181302\C,0,22.0457276374,-14.8902566062,-0.4515305296\C,0,
 21.2933219741,-15.9748228066,-0.0833787471\C,0,22.1379289914,-17.13571
 86219,-0.2849951941\C,0,22.4590475358,-19.5658915496,-0.393941548\C,0,
 21.9552421525,-20.9164122734,-0.2541974298\C,0,22.9082454806,-21.73309
 37779,-0.7752122017\C,0,24.0021369327,-20.87399427,-1.176485153\C,0,25
 .2029175771,-21.3365963666,-1.6769209431\H,0,25.3034550569,-22.3984059
 021,-1.8388547259\C,0,28.1202687854,-17.5413064808,-2.1351675263\H,0,2
 9.1556349365,-17.4048688025,-2.4059439734\C,0,24.4081871148,-14.622904
 0691,-1.2191593707\H,0,24.2498014394,-13.5567947697,-1.2727109767\C,0,
 21.7353522881,-18.4390117611,-0.0553360163\H,0,20.7405763391,-18.59117
 12774,0.3341026629\C,0,29.8731307071,-19.9553502842,-2.7929116182\H,0,
 30.2589290112,-20.9578575314,-2.959804379\H,0,30.45587315,-19.49233439
 69,-1.9962876644\H,0,30.0233405441,-19.3738719689,-3.703027042\C,0,27.
 8834810501,-22.5134361234,-2.5442814812\H,0,27.2269558488,-22.92516995
 58,-3.3108478648\H,0,27.723883779,-23.0772515192,-1.6247836513\H,0,28.
 9132482878,-22.6592995711,-2.8608876431\C,0,29.2264780484,-14.70635823
 37,-2.5393885289\H,0,29.3898087822,-14.8231535015,-3.6122616347\H,0,29
 .9396166406,-15.344044075,-2.0191195165\H,0,29.4264115285,-13.67046922
 3,-2.2731599983\C,0,26.7120252335,-12.7895644703,-1.9863472103\H,0,26.
 0705984782,-12.3130982674,-1.2542103732\C,0,27.3637629605,-12.03270454
 52,-2.8628935209\H,0,27.9768244683,-12.4545474,-3.6402607627\H,0,27.28
 38285301,-10.9585467776,-2.848703928\C,0,21.6819410735,-13.4481087062,
 -0.3937413702\H,0,21.3809658698,-13.0839724619,-1.3774828714\H,0,22.52
 69093387,-12.8493734855,-0.057581896\H,0,20.8536226775,-13.2992869994,
 0.2958496949\C,0,19.9360590958,-16.0205378007,0.413968576\H,0,19.72888
 44414,-16.8035915856,1.1341256657\C,0,18.9547107888,-15.1995899234,0.0
 549887664\H,0,19.0895982587,-14.4368957211,-0.6917756719\H,0,17.967588
 8106,-15.2836296647,0.4782889991\C,0,20.6261600737,-21.2626162657,0.32
 23024139\H,0,19.8249739766,-20.8333598238,-0.2798471949\H,0,20.5348943
 829,-20.8714589247,1.3355151506\H,0,20.4888646061,-22.3404952055,0.357
 2774358\C,0,22.9138210415,-23.216520436,-0.912201235\H,0,21.9717198684
 ,-23.6395349178,-0.5729585382\H,0,23.7194087215,-23.6543833731,-0.3219
 72374\H,0,23.0633730758,-23.5023254956,-1.9532853018\O,0,25.585,-18.12
 ,0.712\H,0,26.343,-18.695,0.604\H,0,25.31,-17.75,1.472\C,0,25.47226407
 14,-17.9280333,-4.669581351\H,0,26.2774741764,-17.3274697343,-4.259966
 2682\H,0,25.1975472156,-17.595808141,-5.6660558143\H,0,25.7671986492,-
 18.9721244272,-4.6905426312\S,0,24.01065743,-17.8233704719,-3.57621385
 06\H,0,23.8856895297,-16.4931416133,-3.6760148782\\Version=ES64L-G16Re
 vC.02\State=1-A\HF=-3157.1924157\RMSD=1.724e-09\Dipole=0.6108489,-0.44
 22046,-0.144356\Polar=652.9900149,-4.0980867,686.1635136,-132.7023168,
 -10.7802733,307.2881043\HyperPolar=-744.7965071,853.0593009,417.113137
 7,696.2917177,216.8764108,-269.1151639,-167.0966623,-47.7299793,118.96
 6672,-60.0461416\Quadrupole=-0.584031,1.4478672,-0.8638362,-2.4498312,
 -4.4168203,-2.0111087\PG=C01 [X(C31H34Fe1N4O1S1)]\\@
 The archive entry for this job was punched.


 TO SEE A WORLD IN A GRAIN OF SAND
 AND A HEAVEN IN A WILD FLOWER
 HOLD INFINITY IN THE PALM OF YOUR HAND
 AND ETERNITY IN AN HOUR

                       -- WILLIAM BLAKE
 Job cpu time:       1 days 17 hours  8 minutes 36.6 seconds.
 Elapsed time:       0 days  0 hours 35 minutes 43.6 seconds.
 File lengths (MBytes):  RWF=   1013 Int=      0 D2E=      0 Chk=    130 Scr=      1
 Normal termination of Gaussian 16 at Mon Jul 15 04:34:21 2024.
 Initial command:
 /sw/chem/gaussian/g16_C02/a100/g16/l1.exe "/local/bebzhart_7933221/Gau-1093877.inp" -scrdir="/local/bebzhart_7933221/"
 Entering Link 1 = /sw/chem/gaussian/g16_C02/a100/g16/l1.exe PID=   1095485.
  
 Copyright (c) 1988-2021, Gaussian, Inc.  All Rights Reserved.
  
 This is part of the Gaussian(R) 16 program.  It is based on
 the Gaussian(R) 09 system (copyright 2009, Gaussian, Inc.),
 the Gaussian(R) 03 system (copyright 2003, Gaussian, Inc.),
 the Gaussian(R) 98 system (copyright 1998, Gaussian, Inc.),
 the Gaussian(R) 94 system (copyright 1995, Gaussian, Inc.),
 the Gaussian 92(TM) system (copyright 1992, Gaussian, Inc.),
 the Gaussian 90(TM) system (copyright 1990, Gaussian, Inc.),
 the Gaussian 88(TM) system (copyright 1988, Gaussian, Inc.),
 the Gaussian 86(TM) system (copyright 1986, Carnegie Mellon
 University), and the Gaussian 82(TM) system (copyright 1983,
 Carnegie Mellon University). Gaussian is a federally registered
 trademark of Gaussian, Inc.
  
 This software contains proprietary and confidential information,
 including trade secrets, belonging to Gaussian, Inc.
  
 This software is provided under written license and may be
 used, copied, transmitted, or stored only in accord with that
 written license.
  
 The following legend is applicable only to US Government
 contracts under FAR:
  
                    RESTRICTED RIGHTS LEGEND
  
 Use, reproduction and disclosure by the US Government is
 subject to restrictions as set forth in subparagraphs (a)
 and (c) of the Commercial Computer Software - Restricted
 Rights clause in FAR 52.227-19.
  
 Gaussian, Inc.
 340 Quinnipiac St., Bldg. 40, Wallingford CT 06492
  
  
 ---------------------------------------------------------------
 Warning -- This program may not be used in any manner that
 competes with the business of Gaussian, Inc. or will provide
 assistance to any competitor of Gaussian, Inc.  The licensee
 of this program is prohibited from giving any competitor of
 Gaussian, Inc. access to this program.  By using this program,
 the user acknowledges that Gaussian, Inc. is engaged in the
 business of creating and licensing software in the field of
 computational chemistry and represents and warrants to the
 licensee that it is not a competitor of Gaussian, Inc. and that
 it will not use this program in any manner prohibited above.
 ---------------------------------------------------------------
  

 Cite this work as:
 Gaussian 16, Revision C.02,
 M. J. Frisch, G. W. Trucks, H. B. Schlegel, G. E. Scuseria, 
 M. A. Robb, J. R. Cheeseman, G. Scalmani, V. Barone, 
 G. A. Petersson, H. Nakatsuji, X. Li, M. Caricato, A. V. Marenich, 
 J. Bloino, B. G. Janesko, R. Gomperts, B. Mennucci, H. P. Hratchian, 
 J. V. Ortiz, A. F. Izmaylov, J. L. Sonnenberg, D. Williams-Young, 
 F. Ding, F. Lipparini, F. Egidi, J. Goings, B. Peng, A. Petrone, 
 T. Henderson, D. Ranasinghe, V. G. Zakrzewski, J. Gao, N. Rega, 
 G. Zheng, W. Liang, M. Hada, M. Ehara, K. Toyota, R. Fukuda, 
 J. Hasegawa, M. Ishida, T. Nakajima, Y. Honda, O. Kitao, H. Nakai, 
 T. Vreven, K. Throssell, J. A. Montgomery, Jr., J. E. Peralta, 
 F. Ogliaro, M. J. Bearpark, J. J. Heyd, E. N. Brothers, K. N. Kudin, 
 V. N. Staroverov, T. A. Keith, R. Kobayashi, J. Normand, 
 K. Raghavachari, A. P. Rendell, J. C. Burant, S. S. Iyengar, 
 J. Tomasi, M. Cossi, J. M. Millam, M. Klene, C. Adamo, R. Cammi, 
 J. W. Ochterski, R. L. Martin, K. Morokuma, O. Farkas, 
 J. B. Foresman, and D. J. Fox, Gaussian, Inc., Wallingford CT, 2019.
 
 ******************************************
 Gaussian 16:  ES64L-G16RevC.02  7-Dec-2021
                15-Jul-2024 
 ******************************************
 %mem=16GB
 %CPU=0-71
 SetSPE:  set environment variable "OMP_PROC_BIND" = "true"
 SetSPE:  set environment variable "OMP_PLACES" = "{0},{1},{2},{3},{4},{5},{6},{7},{8},{9},{10},{11},{12},{13},{14},{15},{16},{17},{18},{19},{20},{21},{22},{23},{24},{25},{26},{27},{28},{29},{30},{31},{32},{33},{34},{35},{36},{37},{38},{39},{40},{41},{42},{43},{44},{45},{46},{47},{48},{49},{50},{51},{52},{53},{54},{55},{56},{57},{58},{59},{60},{61},{62},{63},{64},{65},{66},{67},{68},{69},{70},{71}"
 Will use up to   72 processors via shared memory.
 %gpucpu=0,1,2,3=0,1,2,3
 Will use    4 GPUs:
 Thread  CPU   GPU
      0    0     0
      1    1     1
      2    2     2
      3    3     3
      4    4    -1
      5    5    -1
      6    6    -1
      7    7    -1
      8    8    -1
      9    9    -1
     10   10    -1
     11   11    -1
     12   12    -1
     13   13    -1
     14   14    -1
     15   15    -1
     16   16    -1
     17   17    -1
     18   18    -1
     19   19    -1
     20   20    -1
     21   21    -1
     22   22    -1
     23   23    -1
     24   24    -1
     25   25    -1
     26   26    -1
     27   27    -1
     28   28    -1
     29   29    -1
     30   30    -1
     31   31    -1
     32   32    -1
     33   33    -1
     34   34    -1
     35   35    -1
     36   36    -1
     37   37    -1
     38   38    -1
     39   39    -1
     40   40    -1
     41   41    -1
     42   42    -1
     43   43    -1
     44   44    -1
     45   45    -1
     46   46    -1
     47   47    -1
     48   48    -1
     49   49    -1
     50   50    -1
     51   51    -1
     52   52    -1
     53   53    -1
     54   54    -1
     55   55    -1
     56   56    -1
     57   57    -1
     58   58    -1
     59   59    -1
     60   60    -1
     61   61    -1
     62   62    -1
     63   63    -1
     64   64    -1
     65   65    -1
     66   66    -1
     67   67    -1
     68   68    -1
     69   69    -1
     70   70    -1
     71   71    -1
 SetGPE:  set environment variable "OMP_PROC_BIND" = "true"
 SetGPE:  set environment variable "OMP_PLACES" = "{0},{1},{2},{3},{4},{5},{6},{7},{8},{9},{10},{11},{12},{13},{14},{15},{16},{17},{18},{19},{20},{21},{22},{23},{24},{25},{26},{27},{28},{29},{30},{31},{32},{33},{34},{35},{36},{37},{38},{39},{40},{41},{42},{43},{44},{45},{46},{47},{48},{49},{50},{51},{52},{53},{54},{55},{56},{57},{58},{59},{60},{61},{62},{63},{64},{65},{66},{67},{68},{69},{70},{71}"
 %oldchk=3rwl_II_O.chk
 %chk=3rwl_II_Sn.chk
 Properties for Device   0
 Minimum vector length:                              32
 Maximum vector length:                            1024
 Number of SMPs:                                    108
 Maximum number of threads per SMP:                2048
 Number of ASync Engines:                             5
 Memory:                                           9207742464
 Properties for Device   1
 Minimum vector length:                              32
 Maximum vector length:                            1024
 Number of SMPs:                                    108
 Maximum number of threads per SMP:                2048
 Number of ASync Engines:                             5
 Memory:                                           9207742464
 Properties for Device   2
 Minimum vector length:                              32
 Maximum vector length:                            1024
 Number of SMPs:                                    108
 Maximum number of threads per SMP:                2048
 Number of ASync Engines:                             5
[...]
  1145. RY*(  22) C  56                  0.00000     3.63210   
  1146. RY*(  23) C  56                  0.00000     3.31321   
  1147. RY*(  24) C  56                  0.00000     3.44817   
  1148. RY*(  25) C  56                  0.00000     3.71531   
  1149. RY*(  26) C  56                  0.00000     3.86917   
  1150. RY*(   1) H  57                  0.00091     0.92712   
  1151. RY*(   2) H  57                  0.00018     1.82117   
  1152. RY*(   3) H  57                  0.00007     2.13635   
  1153. RY*(   4) H  57                  0.00005     1.99336   
  1154. RY*(   5) H  57                  0.00001     2.97295   
  1155. RY*(   1) H  58                  0.00087     0.89977   
  1156. RY*(   2) H  58                  0.00018     1.84438   
  1157. RY*(   3) H  58                  0.00006     2.13353   
  1158. RY*(   4) H  58                  0.00006     2.01569   
  1159. RY*(   5) H  58                  0.00001     2.97052   
  1160. RY*(   1) H  59                  0.00073     0.86588   
  1161. RY*(   2) H  59                  0.00013     1.69849   
  1162. RY*(   3) H  59                  0.00011     2.15891   
  1163. RY*(   4) H  59                  0.00007     2.08537   
  1164. RY*(   5) H  59                  0.00001     2.99583   
  1165. RY*(   1) C  60                  0.00144     1.38273   
  1166. RY*(   2) C  60                  0.00141     1.16485   
  1167. RY*(   3) C  60                  0.00074     1.38102   
  1168. RY*(   4) C  60                  0.00014     1.09067   
  1169. RY*(   5) C  60                  0.00004     1.93156   
  1170. RY*(   6) C  60                  0.00005     1.48976   
  1171. RY*(   7) C  60                  0.00001     1.32120   
  1172. RY*(   8) C  60                  0.00001     2.11305   
  1173. RY*(   9) C  60                  0.00002     2.57663   
  1174. RY*(  10) C  60                  0.00002     2.61808   
  1175. RY*(  11) C  60                  0.00001     1.76511   
  1176. RY*(  12) C  60                  0.00000     2.91436   
  1177. RY*(  13) C  60                  0.00000     2.41126   
  1178. RY*(  14) C  60                  0.00001     2.27706   
  1179. RY*(  15) C  60                  0.00000     2.57862   
  1180. RY*(  16) C  60                  0.00000    21.17019   
  1181. RY*(  17) C  60                  0.00000     2.95330   
  1182. RY*(  18) C  60                  0.00000     3.62129   
  1183. RY*(  19) C  60                  0.00000     2.87153   
  1184. RY*(  20) C  60                  0.00000     3.25815   
  1185. RY*(  21) C  60                  0.00000     3.64578   
  1186. RY*(  22) C  60                  0.00000     3.79251   
  1187. RY*(  23) C  60                  0.00000     3.30457   
  1188. RY*(  24) C  60                  0.00000     3.44604   
  1189. RY*(  25) C  60                  0.00000     3.89253   
  1190. RY*(  26) C  60                  0.00000     3.67427   
  1191. RY*(   1) H  61                  0.00073     0.86127   
  1192. RY*(   2) H  61                  0.00013     1.69648   
  1193. RY*(   3) H  61                  0.00011     2.16565   
  1194. RY*(   4) H  61                  0.00007     2.08527   
  1195. RY*(   5) H  61                  0.00001     2.99562   
  1196. RY*(   1) H  62                  0.00094     0.90296   
  1197. RY*(   2) H  62                  0.00018     1.82752   
  1198. RY*(   3) H  62                  0.00006     2.08100   
  1199. RY*(   4) H  62                  0.00006     2.05777   
  1200. RY*(   5) H  62                  0.00001     2.97245   
  1201. RY*(   1) H  63                  0.00087     0.90149   
  1202. RY*(   2) H  63                  0.00018     1.84551   
  1203. RY*(   3) H  63                  0.00006     2.06345   
  1204. RY*(   4) H  63                  0.00006     2.07843   
  1205. RY*(   5) H  63                  0.00001     2.96823   
  1317. BD*(   1) N   2 - C   6          0.02625     0.50449   
  1318. BD*(   1) N   2 - C   9          0.02678     0.50221   
  1319. BD*(   1) N   3 - C  10          0.02662     0.50463   
  1320. BD*(   2) N   3 - C  10          0.62598     0.00838  1337(v),1341(v),1346(v)
                                                    392(g),208(g),733(v),145(r)
                                                    142(r),394(g),141(r),1316(r)
                                                    143(r),1398(r)
  1321. BD*(   1) N   3 - C  13          0.02572     0.50579   
  1322. BD*(   1) N   4 - C  14          0.02699     0.50903   
  1323. BD*(   1) N   4 - C  17          0.02628     0.51684   
  1324. BD*(   2) N   4 - C  17          0.60724     0.01196  1357(v),1350(v),151(v)
                                                    574(g),234(g),142(r),795(v)
                                                    141(r),145(r),576(g),144(r)
                                                    1316(r),1401(r)
  1325. BD*(   1) N   5 - C  18          0.02637     0.51710   
  1326. BD*(   1) N   5 - C  21          0.02611     0.51876   
  1327. BD*(   2) N   5 - C  21          0.60723     0.01638  1330(v),1357(v),1359(v)
                                                    678(g),260(g),702(v),145(r)
                                                    142(r),141(r),1316(r),143(r)
  1328. BD*(   1) C   6 - C   7          0.03555     0.48986   
  1329. BD*(   1) C   6 - C  22          0.02119     0.57704   
  1330. BD*(   2) C   6 - C  22          0.42117     0.04559  1327(v),1332(v),147(v)
                                                    1337(r),702(g),288(g)
                                                    1357(r),290(g)
  1331. BD*(   1) C   7 - C   8          0.02274     0.60424   
  1332. BD*(   2) C   7 - C   8          0.25342     0.06658  1330(v),1337(v),1370(v)
                                                    1372(v),1369(v),1371(v)
  1333. BD*(   1) C   7 - C  34          0.01724     0.41301   
  1334. BD*(   1) C   8 - C   9          0.03568     0.49124   
  1335. BD*(   1) C   8 - C  30          0.01728     0.41241   
  1336. BD*(   1) C   9 - C  24          0.02123     0.57711   
  1337. BD*(   2) C   9 - C  24          0.41251     0.04434  1320(v),1332(v),147(v)
                                                    1330(r),733(g),1346(r)
                                                    368(g)
  1338. BD*(   1) C  10 - C  11          0.03469     0.49882   
  1339. BD*(   1) C  10 - C  24          0.02166     0.57011   
  1340. BD*(   1) C  11 - C  12          0.02484     0.59126   
  1341. BD*(   2) C  11 - C  12          0.28936     0.06445  1379(v),1346(v),1320(v)
                                                    1374(v),1375(v)
  1342. BD*(   1) C  11 - C  38          0.01655     0.41635   
  1343. BD*(   1) C  12 - C  13          0.03462     0.48811   
  1344. BD*(   1) C  12 - C  42          0.02674     0.49675   
  1345. BD*(   1) C  13 - C  26          0.02091     0.57625   
  1346. BD*(   2) C  13 - C  26          0.41235     0.04665  1341(v),1320(v),151(v)
                                                    764(g),1337(r),1379(r)
                                                    470(g),472(g)
  1347. BD*(   1) C  14 - C  15          0.03428     0.49859   
  1348. BD*(   1) C  14 - C  26          0.02142     0.57458   
  1349. BD*(   1) C  15 - C  16          0.02463     0.59083   
  1350. BD*(   2) C  15 - C  16          0.28826     0.06535  1387(v),1324(v),151(v)
                                                    1382(v),1383(v)
  1351. BD*(   1) C  15 - C  47          0.01636     0.41763   
  1352. BD*(   1) C  16 - C  17          0.03420     0.48824   
  1353. BD*(   1) C  16 - C  51          0.02662     0.49769   
  1354. BD*(   1) C  17 - C  28          0.02088     0.57726   
  1355. BD*(   1) C  18 - C  19          0.03509     0.49134   
  1356. BD*(   1) C  18 - C  28          0.02095     0.58061   
  1357. BD*(   2) C  18 - C  28          0.40089     0.05094  1324(v),1359(v),1327(v)
                                                    795(g),1387(r),602(g)
                                                    1330(r)
  1358. BD*(   1) C  19 - C  20          0.02241     0.61125   
  1359. BD*(   2) C  19 - C  20          0.24096     0.07227  1357(v),1327(v),1390(v)
                                                    1394(v),1395(v),1391(v)
  1360. BD*(   1) C  19 - C  56          0.01714     0.41766   
  1361. BD*(   1) C  20 - C  21          0.03521     0.49138   
  1362. BD*(   1) C  20 - C  60          0.01722     0.41675   
  1363. BD*(   1) C  21 - C  22          0.02098     0.58066   
  1364. BD*(   1) C  22 - H  23          0.01250     0.43368   
  1365. BD*(   1) C  24 - H  25          0.01296     0.43391   
  1366. BD*(   1) C  26 - H  27          0.01329     0.43497   
  1367. BD*(   1) C  28 - H  29          0.01288     0.43492   
  1368. BD*(   1) C  30 - H  31          0.00669     0.38832   
  1369. BD*(   1) C  30 - H  32          0.01073     0.37709   
  1370. BD*(   1) C  30 - H  33          0.01094     0.37661   
  1371. BD*(   1) C  34 - H  35          0.01051     0.37756   
  1372. BD*(   1) C  34 - H  36          0.01108     0.37729   
  1373. BD*(   1) C  34 - H  37          0.00673     0.38849   
  1374. BD*(   1) C  38 - H  39          0.01259     0.37623   
  1375. BD*(   1) C  38 - H  40          0.00997     0.38500   
  1376. BD*(   1) C  38 - H  41          0.00832     0.39302   
  1377. BD*(   1) C  42 - H  43          0.02126     0.42309   
  1378. BD*(   1) C  42 - C  44          0.00787     0.63047   
  1379. BD*(   2) C  42 - C  44          0.07758     0.05924   
  1380. BD*(   1) C  44 - H  45          0.01103     0.43442   
  1381. BD*(   1) C  44 - H  46          0.00856     0.43550   
  1382. BD*(   1) C  47 - H  48          0.01245     0.37859   
  1383. BD*(   1) C  47 - H  49          0.01003     0.38669   
  1384. BD*(   1) C  47 - H  50          0.00833     0.39389   
  1385. BD*(   1) C  51 - H  52          0.02128     0.42381   
  1386. BD*(   1) C  51 - C  53          0.00782     0.63222   
  1387. BD*(   2) C  51 - C  53          0.07649     0.06015   
  1388. BD*(   1) C  53 - H  54          0.01098     0.43629   
  1389. BD*(   1) C  53 - H  55          0.00855     0.43625   
  1390. BD*(   1) C  56 - H  57          0.01114     0.38202   
  1391. BD*(   1) C  56 - H  58          0.01044     0.38187   
  1392. BD*(   1) C  56 - H  59          0.00671     0.39228   
  1393. BD*(   1) C  60 - H  61          0.00668     0.39201   
  1394. BD*(   1) C  60 - H  62          0.01128     0.38015   
  1395. BD*(   1) C  60 - H  63          0.01054     0.38115   
       -------------------------------
              Total Lewis  230.22354  ( 97.2719%)
        Valence non-Lewis    5.94706  (  2.5127%)
        Rydberg non-Lewis    0.50989  (  0.2154%)
       -------------------------------
            Total unit  2  236.68049  (100.0000%)
           Charge unit  2   -0.68049
 
 Molecular unit  3  (H2O)
    81. BD (   1) O  64 - H  65          1.99106    -0.81095  145(r),156(r),1238(v)
                                                    1239(v),144(r),147(r),159(r)
                                                    1316(r),160(r),142(r),186(r)
                                                    261(r),237(r),236(r),1287(r)
                                                    238(r),242(r),163(r)
    82. BD (   1) O  64 - H  66          1.99513    -0.87316  145(r),156(r),1234(v)
                                                    1316(r),159(r),186(r),185(r)
                                                    142(r),161(r),144(r),163(r)
                                                    191(r),261(r),209(r)
   131. CR (   1) O  64                  1.99980   -18.96695  145(r),1234(v),1238(v)
                                                    1239(v),142(r),1316(r)
                                                    159(r)
   152. LP (   1) O  64                  1.99224    -0.33338  143(r),1237(v),1233(v)
                                                    264(r),212(r),1327(r)
                                                    1320(r),268(r),218(r),164(r)
   153. LP (   2) O  64                  1.83907    -0.50018  145(r),1238(v),1396(g)
                                                    1234(v),160(r),1397(g)
                                                    1316(r),163(r),144(r),260(r)
                                                    208(r),142(r),234(r),164(r)
                                                    185(r),165(r),263(r),182(r)
                                                    262(r),210(r),158(r),211(r)
                                                    184(r),166(r),159(r),236(r)
                                                    1290(r),168(r),1326(r)
                                                    1289(r),237(r),1319(r)
                                                    1322(r)
  1206. RY*(   1) O  64                  0.00301     0.87219   
  1207. RY*(   2) O  64                  0.00267     0.85157   
  1208. RY*(   3) O  64                  0.00040     1.42891   
  1209. RY*(   4) O  64                  0.00031     1.00751   
  1210. RY*(   5) O  64                  0.00008     2.99777   
  1211. RY*(   6) O  64                  0.00004     2.05315   
  1212. RY*(   7) O  64                  0.00004     3.94945   
  1213. RY*(   8) O  64                  0.00000     3.19897   
  1214. RY*(   9) O  64                  0.00001     3.34006   
  1215. RY*(  10) O  64                  0.00001     3.84331   
  1216. RY*(  11) O  64                  0.00001     2.73465   
  1217. RY*(  12) O  64                  0.00000    41.76301   
  1218. RY*(  13) O  64                  0.00000     6.46374   
  1219. RY*(  14) O  64                  0.00000     3.04058   
  1220. RY*(  15) O  64                  0.00000     6.39144   
  1221. RY*(  16) O  64                  0.00001     2.09115   
  1222. RY*(  17) O  64                  0.00000     6.15588   
  1223. RY*(  18) O  64                  0.00000     6.51120   
  1224. RY*(  19) O  64                  0.00000     6.46353   
  1225. RY*(  20) O  64                  0.00000     5.17049   
  1226. RY*(  21) O  64                  0.00000     5.49027   
  1227. RY*(  22) O  64                  0.00000     5.36743   
  1228. RY*(  23) O  64                  0.00000     5.26529   
  1229. RY*(  24) O  64                  0.00000     5.65430   
  1230. RY*(  25) O  64                  0.00000     5.43372   
  1231. RY*(  26) O  64                  0.00000     5.55952   
  1232. RY*(   1) H  65                  0.00126     0.71526   
  1233. RY*(   2) H  65                  0.00080     1.99803   
  1234. RY*(   3) H  65                  0.00068     2.42285   
  1235. RY*(   4) H  65                  0.00022     2.08874   
  1236. RY*(   5) H  65                  0.00001     2.89191   
  1237. RY*(   1) H  66                  0.00098     2.00834   
  1238. RY*(   2) H  66                  0.00079     1.87584   
  1239. RY*(   3) H  66                  0.00048     1.88027   
  1240. RY*(   4) H  66                  0.00023     1.60947   
  1241. RY*(   5) H  66                  0.00001     3.00873   
  1396. BD*(   1) O  64 - H  65          0.00454     0.42943   
  1397. BD*(   1) O  64 - H  66          0.00240     0.60691   
       -------------------------------
              Total Lewis    9.81729  ( 99.8068%)
        Valence non-Lewis    0.00694  (  0.0705%)
        Rydberg non-Lewis    0.01206  (  0.1227%)
       -------------------------------
            Total unit  3    9.83629  (100.0000%)
           Charge unit  3    0.16371
 Unable to Open any file for archive entry.
 1\1\GINC-BGN1030\SP\RAPFD\def2TZVP\C31H34Fe1N4O1S1\BEBZHART\15-Jul-202
 4\0\\# apfd/def2TZVP int=(grid=ultrafine) geom=check guess=read pop=nb
 o scf=qc\\3rwl_II_S_nbo\\0,1\Fe,0,24.7861857486,-17.9672998603,-1.3884
 997472\N,0,26.3574386422,-19.1912226371,-1.8030037397\N,0,26.042659873
 6,-16.399125059,-1.5702526944\N,0,23.3662738355,-16.7615084962,-0.7194
 148191\N,0,23.7129776506,-19.5745606984,-0.9157423807\C,0,26.307668804
 2,-20.5446532005,-1.9298390495\C,0,27.5945233444,-21.0678178621,-2.329
 47858\C,0,28.4289835122,-19.9977691026,-2.4288459613\C,0,27.6298931713
 ,-18.8318074612,-2.1282327309\C,0,27.3543752303,-16.4045677719,-1.9333
 590541\C,0,27.8299929312,-15.0665740804,-2.1708734754\C,0,26.772868978
 9,-14.2328690326,-1.9182962503\C,0,25.6723785076,-15.090718185,-1.5253
 007702\C,0,23.3336162745,-15.4064303063,-0.8373181302\C,0,22.045727637
 4,-14.8902566062,-0.4515305296\C,0,21.2933219741,-15.9748228066,-0.083
 3787471\C,0,22.1379289914,-17.1357186219,-0.2849951941\C,0,22.45904753
 58,-19.5658915496,-0.393941548\C,0,21.9552421525,-20.9164122734,-0.254
 1974298\C,0,22.9082454806,-21.7330937779,-0.7752122017\C,0,24.00213693
 27,-20.87399427,-1.176485153\C,0,25.2029175771,-21.3365963666,-1.67692
 09431\H,0,25.3034550569,-22.3984059021,-1.8388547259\C,0,28.1202687854
 ,-17.5413064808,-2.1351675263\H,0,29.1556349365,-17.4048688025,-2.4059
 439734\C,0,24.4081871148,-14.6229040691,-1.2191593707\H,0,24.249801439
 4,-13.5567947697,-1.2727109767\C,0,21.7353522881,-18.4390117611,-0.055
 3360163\H,0,20.7405763391,-18.5911712774,0.3341026629\C,0,29.873130707
 1,-19.9553502842,-2.7929116182\H,0,30.2589290112,-20.9578575314,-2.959
 804379\H,0,30.45587315,-19.4923343969,-1.9962876644\H,0,30.0233405441,
 -19.3738719689,-3.703027042\C,0,27.8834810501,-22.5134361234,-2.544281
 4812\H,0,27.2269558488,-22.9251699558,-3.3108478648\H,0,27.723883779,-
 23.0772515192,-1.6247836513\H,0,28.9132482878,-22.6592995711,-2.860887
 6431\C,0,29.2264780484,-14.7063582337,-2.5393885289\H,0,29.3898087822,
 -14.8231535015,-3.6122616347\H,0,29.9396166406,-15.344044075,-2.019119
 5165\H,0,29.4264115285,-13.670469223,-2.2731599983\C,0,26.7120252335,-
 12.7895644703,-1.9863472103\H,0,26.0705984782,-12.3130982674,-1.254210
 3732\C,0,27.3637629605,-12.0327045452,-2.8628935209\H,0,27.9768244683,
 -12.4545474,-3.6402607627\H,0,27.2838285301,-10.9585467776,-2.84870392
 8\C,0,21.6819410735,-13.4481087062,-0.3937413702\H,0,21.3809658698,-13
 .0839724619,-1.3774828714\H,0,22.5269093387,-12.8493734855,-0.05758189
 6\H,0,20.8536226775,-13.2992869994,0.2958496949\C,0,19.9360590958,-16.
 0205378007,0.413968576\H,0,19.7288844414,-16.8035915856,1.1341256657\C
 ,0,18.9547107888,-15.1995899234,0.0549887664\H,0,19.0895982587,-14.436
 8957211,-0.6917756719\H,0,17.9675888106,-15.2836296647,0.4782889991\C,
 0,20.6261600737,-21.2626162657,0.3223024139\H,0,19.8249739766,-20.8333
 598238,-0.2798471949\H,0,20.5348943829,-20.8714589247,1.3355151506\H,0
 ,20.4888646061,-22.3404952055,0.3572774358\C,0,22.9138210415,-23.21652
 0436,-0.912201235\H,0,21.9717198684,-23.6395349178,-0.5729585382\H,0,2
 3.7194087215,-23.6543833731,-0.321972374\H,0,23.0633730758,-23.5023254
 956,-1.9532853018\O,0,25.585,-18.12,0.712\H,0,26.343,-18.695,0.604\H,0
 ,25.31,-17.75,1.472\C,0,25.4722640714,-17.9280333,-4.669581351\H,0,26.
 2774741764,-17.3274697343,-4.2599662682\H,0,25.1975472156,-17.59580814
 1,-5.6660558143\H,0,25.7671986492,-18.9721244272,-4.6905426312\S,0,24.
 01065743,-17.8233704719,-3.5762138506\H,0,23.8856895297,-16.4931416133
 ,-3.6760148782\\Version=ES64L-G16RevC.02\State=1-A\HF=-3157.1924157\RM
 SD=8.917e-10\Dipole=0.6108489,-0.4422046,-0.144356\Quadrupole=-0.58403
 1,1.4478672,-0.8638362,-2.4498312,-4.4168203,-2.0111087\PG=C01 [X(C31H
 34Fe1N4O1S1)]\\@
 The archive entry for this job was punched.


 SUCCESS IS COUNTED SWEETEST
 BY THOSE WHO NE'ER SUCCEED.
 TO COMPREHEND NECTAR
 REQUIRES SOREST NEED.
           EMILY DICKINSON
 Job cpu time:       0 days  0 hours 36 minutes 19.4 seconds.
 Elapsed time:       0 days  0 hours  0 minutes 45.3 seconds.
 File lengths (MBytes):  RWF=    664 Int=      0 D2E=      0 Chk=    156 Scr=      1
 Normal termination of Gaussian 16 at Mon Jul 15 04:35:08 2024.
