 Entering Gaussian System, Link 0=g16
 Input=3tm901.com
 Output=3tm901.log
 Initial command:
 /sw/chem/gaussian/g16_C02/a100/g16/l1.exe "/local/bebzhart_7933226/Gau-1106384.inp" -scrdir="/local/bebzhart_7933226/"
 Entering Link 1 = /sw/chem/gaussian/g16_C02/a100/g16/l1.exe PID=   1106385.
  
 Copyright (c) 1988-2021, Gaussian, Inc.  All Rights Reserved.
  
 This is part of the Gaussian(R) 16 program.  It is based on
 the Gaussian(R) 09 system (copyright 2009, Gaussian, Inc.),
 the Gaussian(R) 03 system (copyright 2003, Gaussian, Inc.),
 the Gaussian(R) 98 system (copyright 1998, Gaussian, Inc.),
 the Gaussian(R) 94 system (copyright 1995, Gaussian, Inc.),
 the Gaussian 92(TM) system (copyright 1992, Gaussian, Inc.),
 the Gaussian 90(TM) system (copyright 1990, Gaussian, Inc.),
 the Gaussian 88(TM) system (copyright 1988, Gaussian, Inc.),
 the Gaussian 86(TM) system (copyright 1986, Carnegie Mellon
 University), and the Gaussian 82(TM) system (copyright 1983,
 Carnegie Mellon University). Gaussian is a federally registered
 trademark of Gaussian, Inc.
  
 This software contains proprietary and confidential information,
 including trade secrets, belonging to Gaussian, Inc.
  
 This software is provided under written license and may be
 used, copied, transmitted, or stored only in accord with that
 written license.
  
 The following legend is applicable only to US Government
 contracts under FAR:
  
                    RESTRICTED RIGHTS LEGEND
  
 Use, reproduction and disclosure by the US Government is
 subject to restrictions as set forth in subparagraphs (a)
 and (c) of the Commercial Computer Software - Restricted
 Rights clause in FAR 52.227-19.
  
 Gaussian, Inc.
 340 Quinnipiac St., Bldg. 40, Wallingford CT 06492
  
  
 ---------------------------------------------------------------
 Warning -- This program may not be used in any manner that
 competes with the business of Gaussian, Inc. or will provide
 assistance to any competitor of Gaussian, Inc.  The licensee
 of this program is prohibited from giving any competitor of
 Gaussian, Inc. access to this program.  By using this program,
 the user acknowledges that Gaussian, Inc. is engaged in the
 business of creating and licensing software in the field of
 computational chemistry and represents and warrants to the
 licensee that it is not a competitor of Gaussian, Inc. and that
 it will not use this program in any manner prohibited above.
 ---------------------------------------------------------------
  

 Cite this work as:
 Gaussian 16, Revision C.02,
 M. J. Frisch, G. W. Trucks, H. B. Schlegel, G. E. Scuseria, 
 M. A. Robb, J. R. Cheeseman, G. Scalmani, V. Barone, 
 G. A. Petersson, H. Nakatsuji, X. Li, M. Caricato, A. V. Marenich, 
 J. Bloino, B. G. Janesko, R. Gomperts, B. Mennucci, H. P. Hratchian, 
 J. V. Ortiz, A. F. Izmaylov, J. L. Sonnenberg, D. Williams-Young, 
 F. Ding, F. Lipparini, F. Egidi, J. Goings, B. Peng, A. Petrone, 
 T. Henderson, D. Ranasinghe, V. G. Zakrzewski, J. Gao, N. Rega, 
 G. Zheng, W. Liang, M. Hada, M. Ehara, K. Toyota, R. Fukuda, 
 J. Hasegawa, M. Ishida, T. Nakajima, Y. Honda, O. Kitao, H. Nakai, 
 T. Vreven, K. Throssell, J. A. Montgomery, Jr., J. E. Peralta, 
 F. Ogliaro, M. J. Bearpark, J. J. Heyd, E. N. Brothers, K. N. Kudin, 
 V. N. Staroverov, T. A. Keith, R. Kobayashi, J. Normand, 
 K. Raghavachari, A. P. Rendell, J. C. Burant, S. S. Iyengar, 
 J. Tomasi, M. Cossi, J. M. Millam, M. Klene, C. Adamo, R. Cammi, 
 J. W. Ochterski, R. L. Martin, K. Morokuma, O. Farkas, 
 J. B. Foresman, and D. J. Fox, Gaussian, Inc., Wallingford CT, 2019.
 
 ******************************************
 Gaussian 16:  ES64L-G16RevC.02  7-Dec-2021
                15-Jul-2024 
 ******************************************
 %mem=16GB
 %CPU=0-71
 SetSPE:  set environment variable "OMP_PROC_BIND" = "true"
 SetSPE:  set environment variable "OMP_PLACES" = "{0},{1},{2},{3},{4},{5},{6},{7},{8},{9},{10},{11},{12},{13},{14},{15},{16},{17},{18},{19},{20},{21},{22},{23},{24},{25},{26},{27},{28},{29},{30},{31},{32},{33},{34},{35},{36},{37},{38},{39},{40},{41},{42},{43},{44},{45},{46},{47},{48},{49},{50},{51},{52},{53},{54},{55},{56},{57},{58},{59},{60},{61},{62},{63},{64},{65},{66},{67},{68},{69},{70},{71}"
 Will use up to   72 processors via shared memory.
 %gpucpu=0,1,2,3=0,1,2,3
 Will use    4 GPUs:
 Thread  CPU   GPU
      0    0     0
      1    1     1
      2    2     2
      3    3     3
      4    4    -1
      5    5    -1
      6    6    -1
      7    7    -1
      8    8    -1
      9    9    -1
     10   10    -1
     11   11    -1
     12   12    -1
     13   13    -1
     14   14    -1
     15   15    -1
     16   16    -1
     17   17    -1
     18   18    -1
     19   19    -1
     20   20    -1
     21   21    -1
     22   22    -1
     23   23    -1
     24   24    -1
     25   25    -1
     26   26    -1
     27   27    -1
     28   28    -1
     29   29    -1
     30   30    -1
     31   31    -1
     32   32    -1
     33   33    -1
     34   34    -1
     35   35    -1
     36   36    -1
     37   37    -1
     38   38    -1
     39   39    -1
     40   40    -1
     41   41    -1
     42   42    -1
     43   43    -1
     44   44    -1
     45   45    -1
     46   46    -1
     47   47    -1
     48   48    -1
     49   49    -1
     50   50    -1
     51   51    -1
     52   52    -1
     53   53    -1
     54   54    -1
     55   55    -1
     56   56    -1
     57   57    -1
     58   58    -1
     59   59    -1
     60   60    -1
     61   61    -1
     62   62    -1
     63   63    -1
     64   64    -1
     65   65    -1
     66   66    -1
     67   67    -1
     68   68    -1
     69   69    -1
     70   70    -1
     71   71    -1
 SetGPE:  set environment variable "OMP_PROC_BIND" = "true"
 SetGPE:  set environment variable "OMP_PLACES" = "{0},{1},{2},{3},{4},{5},{6},{7},{8},{9},{10},{11},{12},{13},{14},{15},{16},{17},{18},{19},{20},{21},{22},{23},{24},{25},{26},{27},{28},{29},{30},{31},{32},{33},{34},{35},{36},{37},{38},{39},{40},{41},{42},{43},{44},{45},{46},{47},{48},{49},{50},{51},{52},{53},{54},{55},{56},{57},{58},{59},{60},{61},{62},{63},{64},{65},{66},{67},{68},{69},{70},{71}"
 %chk=3tm9_II_O.chk
 Properties for Device   0
 Minimum vector length:                              32
 Maximum vector length:                            1024
 Number of SMPs:                                    108
 Maximum number of threads per SMP:                2048
 Number of ASync Engines:                             5
 Memory:                                           9207742464
 Properties for Device   1
 Minimum vector length:                              32
 Maximum vector length:                            1024
 Number of SMPs:                                    108
 Maximum number of threads per SMP:                2048
 Number of ASync Engines:                             5
 Memory:                                           9207742464
 Properties for Device   2
 Minimum vector length:                              32
 Maximum vector length:                            1024
 Number of SMPs:                                    108
 Maximum number of threads per SMP:                2048
 Number of ASync Engines:                             5
 Memory:                                           9207742464
 Properties for Device   3
 Minimum vector length:                              32
 Maximum vector length:                            1024
 Number of SMPs:                                    108
 Maximum number of threads per SMP:                2048
 Number of ASync Engines:                             5
 Memory:                                           9207742464
   8286968217 words of memory will be used on each GPU.
 ------------------------------------------
 # polar def2tzvp apfd int=(grid=ultrafine)
 ------------------------------------------
 1/38=1,172=1/1;
 2/12=2,17=6,18=5,40=1/2;
 3/5=44,7=101,11=2,25=1,30=1,74=-44,75=-5/1,2,3;
 4//1;
 5/5=2,38=5,98=1/2;
 8/6=4,10=90,11=11/1;
 10/6=1,13=10/2;
 6/7=2,8=2,9=2,10=2,28=1/1;
 99/5=1,9=1/99;
 ---------
 3tm9_II_S
 ---------
 Symbolic Z-matrix:
 Charge =  0 Multiplicity = 1
 Fe                   -18.89426  -14.90643   0.16947 
 N                    -19.6366  -16.58259  -0.60735 
 N                    -17.39043  -15.98815   0.98831 
 N                    -18.2718  -13.32341   1.21581 
 N                    -20.56184  -13.93368  -0.32001 
 C                    -20.76481  -16.68563  -1.36475 
 C                    -20.98756  -18.05498  -1.7723 
 C                    -19.97686  -18.78462  -1.22984 
 C                    -19.13792  -17.84795  -0.51579 
 C                    -17.15091  -17.3197   0.8124 
 C                    -15.89912  -17.7011   1.40916 
 C                    -15.37964  -16.56911   1.97641 
 C                    -16.32639  -15.51101   1.69257 
 C                    -17.09072  -13.19443   1.88652 
 C                    -16.92726  -11.85453   2.38449 
 C                    -18.07349  -11.17958   2.06339 
 C                    -18.88571  -12.11132   1.30683 
 C                    -20.82714  -12.61608  -0.09851 
 C                    -21.96064  -12.18091  -0.8835 
 C                    -22.37101  -13.26553  -1.59592 
 C                    -21.48638  -14.34832  -1.23143 
 C                    -21.59943  -15.63932  -1.71003 
 H                    -22.41731  -15.85379  -2.38089 
 C                    -17.9757  -18.20131   0.13619 
 H                    -17.67909  -19.23862   0.10763 
 C                    -16.1616  -14.19791   2.08377 
 H                    -15.24746  -13.9411   2.59551 
 C                    -20.09211  -11.7801   0.71991 
 H                    -20.42829  -10.76021   0.82237 
 C                    -19.71836  -20.24991  -1.31052 
 H                    -20.4764  -20.74371  -1.91325 
 H                    -19.72784  -20.69476  -0.31535 
 H                    -18.74357  -20.44429  -1.75843 
 C                    -22.13815  -18.50717  -2.60416 
 H                    -22.14083  -17.99401  -3.56607 
 H                    -23.08122  -18.29011  -2.10235 
 H                    -22.08628  -19.57759  -2.78703 
 C                    -15.34286  -19.08294   1.4279 
 H                    -15.2385  -19.4717   0.41435 
 H                    -16.00309  -19.75321   1.97891 
 H                    -14.36817  -19.0948   1.90928 
 C                    -14.14618  -16.46229   2.73251 
 H                    -13.30413  -17.01289   2.32562 
 C                    -13.99505  -15.7984   3.87185 
 H                    -14.81429  -15.28429   4.34499 
 H                    -13.04927  -15.76945   4.38723 
 C                    -15.75661  -11.37211   3.16885 
 H                    -14.83023  -11.53754   2.61814 
 H                    -15.68375  -11.90597   4.11689 
 H                    -15.85166  -10.31075   3.38374 
 C                    -18.39996  -9.81043   2.40941 
 H                    -17.57234  -9.11086   2.3554 
 C                    -19.58663  -9.37605   2.81706 
 H                    -20.42564  -10.03916   2.94199 
 H                    -19.7528  -8.34111   3.06656 
 C                    -22.51671  -10.79887  -0.85985 
 H                    -21.75971  -10.07446  -1.16133 
 H                    -22.84902  -10.53913   0.14524 
 H                    -23.36522  -10.71112  -1.53397 
 C                    -23.49364  -13.38932  -2.56789 
 H                    -23.984   -12.4306  -2.71747 
 H                    -24.23587  -14.10029  -2.20412 
 H                    -23.12987  -13.74496  -3.53201 
 C                    -17.192   -12.62189  -4.69229 
 H                    -16.36017  -11.91886  -4.65354 
 H                    -18.11209  -12.06438  -4.83579 
 H                    -17.04343  -13.27853  -5.54926 
 N                    -16.26527  -14.22571  -3.00781 
 H                    -15.38787  -14.37289  -3.47933 
 C                    -17.27696  -13.40765  -3.43558 
 C                    -16.65813  -14.78998  -1.84438 
 H                    -16.05869  -15.47744  -1.28349 
 N                    -17.85895  -14.38089  -1.50418 
 C                    -18.25466  -13.51847  -2.48893 
 H                    -19.20945  -13.03565  -2.45402 
 
 Stoichiometry    C34H34FeN6
 Framework group  C1[X(C34H34FeN6)]
 Deg. of freedom   219
 Full point group                 C1      NOp   1
 Largest Abelian subgroup         C1      NOp   1
 Largest concise Abelian subgroup C1      NOp   1
                         Standard orientation:                         
 ---------------------------------------------------------------------
 Center     Atomic      Atomic             Coordinates (Angstroms)
 Number     Number       Type             X           Y           Z
 ---------------------------------------------------------------------
      1         26           0        0.007713   -0.173043   -0.376106
      2          7           0       -0.001746   -2.154313   -0.572366
      3          7           0       -2.017365   -0.191148   -0.405037
      4          7           0       -0.048335    1.820420   -0.481929
      5          7           0        1.968299   -0.141604   -0.725105
      6          6           0        1.095534   -2.959059   -0.646523
      7          6           0        0.708395   -4.347141   -0.765600
      8          6           0       -0.650870   -4.365182   -0.779450
      9          6           0       -1.076456   -2.989547   -0.646984
     10          6           0       -2.825151   -1.290267   -0.432814
     11          6           0       -4.205374   -0.919296   -0.271809
     12          6           0       -4.229601    0.444699   -0.162421
     13          6           0       -2.849306    0.875002   -0.240574
     14          6           0       -1.137430    2.622545   -0.303326
     15          6           0       -0.756952    4.010064   -0.296109
     16          6           0        0.587883    4.044107   -0.546636
     17          6           0        1.012794    2.661041   -0.629208
     18          6           0        2.770086    0.959283   -0.751173
     19          6           0        4.164096    0.581651   -0.683967
     20          6           0        4.188571   -0.776880   -0.605760
     21          6           0        2.810126   -1.209356   -0.632317
     22          6           0        2.409562   -2.531386   -0.614726
     23          1           0        3.180227   -3.286996   -0.604490
     24          6           0       -2.396434   -2.598294   -0.574397
     25          1           0       -3.151738   -3.367968   -0.618337
     26          6           0       -2.441438    2.190548   -0.154675
     27          1           0       -3.199257    2.936773    0.025158
     28          6           0        2.328629    2.268111   -0.783372
     29          1           0        3.075274    3.045644   -0.824247
     30          6           0       -1.580815   -5.523046   -0.901771
     31          1           0       -1.028568   -6.456572   -0.974529
     32          1           0       -2.201991   -5.421630   -1.791829
     33          1           0       -2.239289   -5.580621   -0.034754
     34          6           0        1.669324   -5.480845   -0.873569
     35          1           0        2.322210   -5.514402   -0.001084
     36          1           0        2.294353   -5.369022   -1.759652
     37          1           0        1.142455   -6.429201   -0.943910
     38          6           0       -5.355538   -1.866005   -0.282665
     39          1           0       -5.235028   -2.629923    0.486240
     40          1           0       -5.427804   -2.368460   -1.247592
     41          1           0       -6.287605   -1.335206   -0.105464
     42          6           0       -5.403707    1.285774   -0.026038
     43          1           0       -6.164942    0.912454    0.651399
     44          6           0       -5.622700    2.417058   -0.684759
     45          1           0       -4.924085    2.799019   -1.409588
     46          1           0       -6.525124    2.988107   -0.541598
     47          6           0       -1.698304    5.152616   -0.132365
     48          1           0       -2.264284    5.054727    0.794407
     49          1           0       -2.409397    5.185194   -0.958419
     50          1           0       -1.156348    6.094769   -0.114041
     51          6           0        1.413295    5.226416   -0.694021
     52          1           0        1.177272    6.041293   -0.017610
     53          6           0        2.373101    5.393894   -1.596110
     54          1           0        2.608617    4.638752   -2.326560
     55          1           0        2.941064    6.307826   -1.651826
     56          6           0        5.297383    1.548592   -0.706319
     57          1           0        5.225922    2.244371    0.130037
     58          1           0        5.284481    2.129327   -1.628651
     59          1           0        6.250663    1.029699   -0.642189
     60          6           0        5.356036   -1.698133   -0.512571
     61          1           0        6.286985   -1.139334   -0.457422
     62          1           0        5.398649   -2.348729   -1.386428
     63          1           0        5.278742   -2.328139    0.373679
     64          6           0        1.852582   -0.044788    4.946814
     65          1           0        1.578339    0.818058    5.553433
     66          1           0        2.894930    0.049356    4.659378
     67          1           0        1.737306   -0.940517    5.556766
     68          7           0       -0.354851   -0.268504    3.786764
     69          1           0       -0.905833   -0.329773    4.627297
     70          6           0        1.005893   -0.124061    3.729940
     71          6           0       -0.816462   -0.308964    2.517278
     72          1           0       -1.851028   -0.415890    2.262777
     73          7           0        0.167575   -0.198629    1.654399
     74          6           0        1.308605   -0.082602    2.399155
     75          1           0        2.267109    0.023273    1.934392
 ---------------------------------------------------------------------
 Rotational constants (GHZ):           0.0958984           0.0937299           0.0606132
 Standard basis: def2TZVP (5D, 7F)
 There are  1696 symmetry adapted cartesian basis functions of A   symmetry.
 There are  1489 symmetry adapted basis functions of A   symmetry.
  1489 basis functions,  2414 primitive gaussians,  1696 cartesian basis functions
   153 alpha electrons      153 beta electrons
       nuclear repulsion energy      5584.2635514121 Hartrees.
 NAtoms=   75 NActive=   75 NUniq=   75 SFac= 1.00D+00 NAtFMM=   60 NAOKFM=T Big=T
 Integral buffers will be    131072 words long.
 Raffenetti 2 integral format.
 Two-electron integral symmetry is turned on.
 R6APFD:  NTU= -4 IXU= 1 FactS= 1.050
 Nuclear repulsion after empirical dispersion term =     5584.1300972826 Hartrees.
 One-electron integrals computed using PRISM.
   1 Symmetry operations used in ECPInt.
 ECPInt:  NShTT=  174936 NPrTT=  542361 LenC2=  138038 LenP2D=  283463.
 LDataN:  DoStor=T MaxTD1= 6 Len=  172
 Number of processors reduced to  23 by ecpmxn.
 NBasis=  1489 RedAO= T EigKep=  3.19D-06  NBF=  1489
 NBsUse=  1489 1.00D-06 EigRej= -1.00D+00 NBFU=  1489
 ExpMin= 4.20D-02 ExpMax= 3.01D+05 ExpMxC= 2.91D+03 IAcc=3 IRadAn=         5 AccDes= 0.00D+00
 Harris functional with IExCor= 3731 and IRadAn=       5 diagonalized for initial guess.
 HarFok:  IExCor= 3731 AccDes= 0.00D+00 IRadAn=         5 IDoV= 1 UseB2=F ITyADJ=14
 ICtDFT=  3500011 ScaDFX=  1.000000  1.000000  1.000000  1.000000
 FoFCou: FMM=F IPFlag=           0 FMFlag=      100000 FMFlg1=        2001
         NFxFlg=           0 DoJE=T BraDBF=F KetDBF=T FulRan=T
         wScrn=  0.000000 ICntrl=       500 IOpCl=  0 I1Cent=   200000004 NGrid=           0
         NMat0=    1 NMatS0=      1 NMatT0=    0 NMatD0=    1 NMtDS0=    0 NMtDT0=    0
 Petite list used in FoFCou.
 Requested convergence on RMS density matrix=1.00D-08 within 128 cycles.
 Requested convergence on MAX density matrix=1.00D-06.
 Requested convergence on             energy=1.00D-06.
 No special actions if energy rises.
 EnCoef did     4 forward-backward iterations
 EnCoef did   100 forward-backward iterations
 EnCoef did   100 forward-backward iterations
 EnCoef did   100 forward-backward iterations
 EnCoef did     3 forward-backward iterations
 EnCoef did     3 forward-backward iterations
 Restarting incremental Fock formation.
 SCF Done:  E(RAPFD) =  -2907.60006297     A.U. after   27 cycles
            NFock= 27  Conv=0.25D-08     -V/T= 2.0035
 DoSCS=F DFT=T ScalE2(SS,OS)=  1.000000  1.000000
 Range of M.O.s used for correlation:     1  1489
 NBasis=  1489 NAE=   153 NBE=   153 NFC=     0 NFV=     0
 NROrb=   1489 NOA=   153 NOB=   153 NVA=  1336 NVB=  1336

 **** Warning!!: The largest alpha MO coefficient is  0.49474918D+02

          Differentiating once with respect to electric field.
                with respect to dipole field.
          Electric field/nuclear overlap derivatives assumed to be zero.
          There are     3 degrees of freedom in the 1st order CPHF.  IDoFFX=0 NUNeed=     3.
      3 vectors produced by pass  0 Test12= 6.81D-12 3.33D-08 XBig12= 1.81D+03 2.85D+01.
 AX will form     3 AO Fock derivatives at one time.
      3 vectors produced by pass  1 Test12= 6.81D-12 3.33D-08 XBig12= 1.11D+03 8.34D+00.
      3 vectors produced by pass  2 Test12= 6.81D-12 3.33D-08 XBig12= 3.53D+02 5.35D+00.
      3 vectors produced by pass  3 Test12= 6.81D-12 3.33D-08 XBig12= 3.16D+02 3.47D+00.
      3 vectors produced by pass  4 Test12= 6.81D-12 3.33D-08 XBig12= 1.82D+02 2.69D+00.
      3 vectors produced by pass  5 Test12= 6.81D-12 3.33D-08 XBig12= 7.95D+01 1.90D+00.
      3 vectors produced by pass  6 Test12= 6.81D-12 3.33D-08 XBig12= 4.77D+01 1.38D+00.
      3 vectors produced by pass  7 Test12= 6.81D-12 3.33D-08 XBig12= 1.75D+01 1.29D+00.
      3 vectors produced by pass  8 Test12= 6.81D-12 3.33D-08 XBig12= 7.79D+00 6.77D-01.
      3 vectors produced by pass  9 Test12= 6.81D-12 3.33D-08 XBig12= 5.08D+00 5.67D-01.
      3 vectors produced by pass 10 Test12= 6.81D-12 3.33D-08 XBig12= 1.70D+00 3.10D-01.
      3 vectors produced by pass 11 Test12= 6.81D-12 3.33D-08 XBig12= 6.45D-01 1.81D-01.
      3 vectors produced by pass 12 Test12= 6.81D-12 3.33D-08 XBig12= 2.48D-01 1.12D-01.
      3 vectors produced by pass 13 Test12= 6.81D-12 3.33D-08 XBig12= 7.99D-02 5.24D-02.
      3 vectors produced by pass 14 Test12= 6.81D-12 3.33D-08 XBig12= 3.57D-02 3.81D-02.
      3 vectors produced by pass 15 Test12= 6.81D-12 3.33D-08 XBig12= 1.52D-02 2.94D-02.
      3 vectors produced by pass 16 Test12= 6.81D-12 3.33D-08 XBig12= 5.33D-03 2.60D-02.
      3 vectors produced by pass 17 Test12= 6.81D-12 3.33D-08 XBig12= 1.53D-03 9.80D-03.
      3 vectors produced by pass 18 Test12= 6.81D-12 3.33D-08 XBig12= 5.56D-04 5.40D-03.
      3 vectors produced by pass 19 Test12= 6.81D-12 3.33D-08 XBig12= 1.11D-04 1.50D-03.
      3 vectors produced by pass 20 Test12= 6.81D-12 3.33D-08 XBig12= 1.84D-05 9.62D-04.
      3 vectors produced by pass 21 Test12= 6.81D-12 3.33D-08 XBig12= 4.34D-06 5.81D-04.
      3 vectors produced by pass 22 Test12= 6.81D-12 3.33D-08 XBig12= 1.13D-06 2.04D-04.
      3 vectors produced by pass 23 Test12= 6.81D-12 3.33D-08 XBig12= 3.59D-07 1.10D-04.
      3 vectors produced by pass 24 Test12= 6.81D-12 3.33D-08 XBig12= 6.00D-08 3.80D-05.
      3 vectors produced by pass 25 Test12= 6.81D-12 3.33D-08 XBig12= 7.79D-09 1.96D-05.
      3 vectors produced by pass 26 Test12= 6.81D-12 3.33D-08 XBig12= 1.96D-09 1.14D-05.
      3 vectors produced by pass 27 Test12= 6.81D-12 3.33D-08 XBig12= 2.87D-10 3.63D-06.
      3 vectors produced by pass 28 Test12= 6.81D-12 3.33D-08 XBig12= 4.34D-11 9.93D-07.
      3 vectors produced by pass 29 Test12= 6.81D-12 3.33D-08 XBig12= 9.19D-12 6.05D-07.
      3 vectors produced by pass 30 Test12= 6.81D-12 3.33D-08 XBig12= 1.91D-12 2.13D-07.
      2 vectors produced by pass 31 Test12= 6.81D-12 3.33D-08 XBig12= 1.69D-13 5.99D-08.
 InvSVY:  IOpt=1 It=  1 EMax= 2.13D-14
 Solved reduced A of dimension    95 with     3 vectors.
 Isotropic polarizability for W=    0.000000      558.50 Bohr**3.
 End of Minotr F.D. properties file   721 does not exist.
 End of Minotr F.D. properties file   722 does not exist.
 End of Minotr F.D. properties file   788 does not exist.

 **********************************************************************

            Population analysis using the SCF Density.

 **********************************************************************

 Orbital symmetries:
       Occupied  (A) (A) (A) (A) (A) (A) (A) (A) (A) (A) (A) (A)
                 (A) (A) (A) (A) (A) (A) (A) (A) (A) (A) (A) (A)
                 (A) (A) (A) (A) (A) (A) (A) (A) (A) (A) (A) (A)
                 (A) (A) (A) (A) (A) (A) (A) (A) (A) (A) (A) (A)
                 (A) (A) (A) (A) (A) (A) (A) (A) (A) (A) (A) (A)
                 (A) (A) (A) (A) (A) (A) (A) (A) (A) (A) (A) (A)
                 (A) (A) (A) (A) (A) (A) (A) (A) (A) (A) (A) (A)
                 (A) (A) (A) (A) (A) (A) (A) (A) (A) (A) (A) (A)
                 (A) (A) (A) (A) (A) (A) (A) (A) (A) (A) (A) (A)
                 (A) (A) (A) (A) (A) (A) (A) (A) (A) (A) (A) (A)
                 (A) (A) (A) (A) (A) (A) (A) (A) (A) (A) (A) (A)
                 (A) (A) (A) (A) (A) (A) (A) (A) (A) (A) (A) (A)
                 (A) (A) (A) (A) (A) (A) (A) (A) (A)
       Virtual   (A) (A) (A) (A) (A) (A) (A) (A) (A) (A) (A) (A)
                 (A) (A) (A) (A) (A) (A) (A) (A) (A) (A) (A) (A)
                 (A) (A) (A) (A) (A) (A) (A) (A) (A) (A) (A) (A)
                 (A) (A) (A) (A) (A) (A) (A) (A) (A) (A) (A) (A)
                 (A) (A) (A) (A) (A) (A) (A) (A) (A) (A) (A) (A)
                 (A) (A) (A) (A) (A) (A) (A) (A) (A) (A) (A) (A)
                 (A) (A) (A) (A) (A) (A) (A) (A) (A) (A) (A) (A)
                 (A) (A) (A) (A) (A) (A) (A) (A) (A) (A) (A) (A)
                 (A) (A) (A) (A) (A) (A) (A) (A) (A) (A) (A) (A)
                 (A) (A) (A) (A) (A) (A) (A) (A) (A) (A) (A) (A)
                 (A) (A) (A) (A) (A) (A) (A) (A) (A) (A) (A) (A)
                 (A) (A) (A) (A) (A) (A) (A) (A) (A) (A) (A) (A)
                 (A) (A) (A) (A) (A) (A) (A) (A) (A) (A) (A) (A)
                 (A) (A) (A) (A) (A) (A) (A) (A) (A) (A) (A) (A)
                 (A) (A) (A) (A) (A) (A) (A) (A) (A) (A) (A) (A)
                 (A) (A) (A) (A) (A) (A) (A) (A) (A) (A) (A) (A)
                 (A) (A) (A) (A) (A) (A) (A) (A) (A) (A) (A) (A)
                 (A) (A) (A) (A) (A) (A) (A) (A) (A) (A) (A) (A)
                 (A) (A) (A) (A) (A) (A) (A) (A) (A) (A) (A) (A)
                 (A) (A) (A) (A) (A) (A) (A) (A) (A) (A) (A) (A)
                 (A) (A) (A) (A) (A) (A) (A) (A) (A) (A) (A) (A)
                 (A) (A) (A) (A) (A) (A) (A) (A) (A) (A) (A) (A)
                 (A) (A) (A) (A) (A) (A) (A) (A) (A) (A) (A) (A)
                 (A) (A) (A) (A) (A) (A) (A) (A) (A) (A) (A) (A)
                 (A) (A) (A) (A) (A) (A) (A) (A) (A) (A) (A) (A)
                 (A) (A) (A) (A) (A) (A) (A) (A) (A) (A) (A) (A)
                 (A) (A) (A) (A) (A) (A) (A) (A) (A) (A) (A) (A)
                 (A) (A) (A) (A) (A) (A) (A) (A) (A) (A) (A) (A)
                 (A) (A) (A) (A) (A) (A) (A) (A) (A) (A) (A) (A)
                 (A) (A) (A) (A) (A) (A) (A) (A) (A) (A) (A) (A)
                 (A) (A) (A) (A) (A) (A) (A) (A) (A) (A) (A) (A)
                 (A) (A) (A) (A) (A) (A) (A) (A) (A) (A) (A) (A)
                 (A) (A) (A) (A) (A) (A) (A) (A) (A) (A) (A) (A)
                 (A) (A) (A) (A) (A) (A) (A) (A) (A) (A) (A) (A)
                 (A) (A) (A) (A) (A) (A) (A) (A) (A) (A) (A) (A)
                 (A) (A) (A) (A) (A) (A) (A) (A) (A) (A) (A) (A)
                 (A) (A) (A) (A) (A) (A) (A) (A) (A) (A) (A) (A)
                 (A) (A) (A) (A) (A) (A) (A) (A) (A) (A) (A) (A)
                 (A) (A) (A) (A) (A) (A) (A) (A) (A) (A) (A) (A)
                 (A) (A) (A) (A) (A) (A) (A) (A) (A) (A) (A) (A)
                 (A) (A) (A) (A) (A) (A) (A) (A) (A) (A) (A) (A)
                 (A) (A) (A) (A) (A) (A) (A) (A) (A) (A) (A) (A)
                 (A) (A) (A) (A) (A) (A) (A) (A) (A) (A) (A) (A)
                 (A) (A) (A) (A) (A) (A) (A) (A) (A) (A) (A) (A)
                 (A) (A) (A) (A) (A) (A) (A) (A) (A) (A) (A) (A)
                 (A) (A) (A) (A) (A) (A) (A) (A) (A) (A) (A) (A)
                 (A) (A) (A) (A) (A) (A) (A) (A) (A) (A) (A) (A)
                 (A) (A) (A) (A) (A) (A) (A) (A) (A) (A) (A) (A)
                 (A) (A) (A) (A) (A) (A) (A) (A) (A) (A) (A) (A)
                 (A) (A) (A) (A) (A) (A) (A) (A) (A) (A) (A) (A)
                 (A) (A) (A) (A) (A) (A) (A) (A) (A) (A) (A) (A)
                 (A) (A) (A) (A) (A) (A) (A) (A) (A) (A) (A) (A)
                 (A) (A) (A) (A) (A) (A) (A) (A) (A) (A) (A) (A)
                 (A) (A) (A) (A) (A) (A) (A) (A) (A) (A) (A) (A)
                 (A) (A) (A) (A) (A) (A) (A) (A) (A) (A) (A) (A)
                 (A) (A) (A) (A) (A) (A) (A) (A) (A) (A) (A) (A)
                 (A) (A) (A) (A) (A) (A) (A) (A) (A) (A) (A) (A)
                 (A) (A) (A) (A) (A) (A) (A) (A) (A) (A) (A) (A)
                 (A) (A) (A) (A) (A) (A) (A) (A) (A) (A) (A) (A)
                 (A) (A) (A) (A) (A) (A) (A) (A) (A) (A) (A) (A)
                 (A) (A) (A) (A) (A) (A) (A) (A) (A) (A) (A) (A)
                 (A) (A) (A) (A) (A) (A) (A) (A) (A) (A) (A) (A)
                 (A) (A) (A) (A) (A) (A) (A) (A) (A) (A) (A) (A)
                 (A) (A) (A) (A) (A) (A) (A) (A) (A) (A) (A) (A)
                 (A) (A) (A) (A) (A) (A) (A) (A) (A) (A) (A) (A)
                 (A) (A) (A) (A) (A) (A) (A) (A) (A) (A) (A) (A)
                 (A) (A) (A) (A) (A) (A) (A) (A) (A) (A) (A) (A)
                 (A) (A) (A) (A) (A) (A) (A) (A) (A) (A) (A) (A)
                 (A) (A) (A) (A) (A) (A) (A) (A) (A) (A) (A) (A)
                 (A) (A) (A) (A) (A) (A) (A) (A) (A) (A) (A) (A)
                 (A) (A) (A) (A) (A) (A) (A) (A) (A) (A) (A) (A)
                 (A) (A) (A) (A) (A) (A) (A) (A) (A) (A) (A) (A)
                 (A) (A) (A) (A) (A) (A) (A) (A) (A) (A) (A) (A)
                 (A) (A) (A) (A) (A) (A) (A) (A) (A) (A) (A) (A)
                 (A) (A) (A) (A) (A) (A) (A) (A) (A) (A) (A) (A)
                 (A) (A) (A) (A) (A) (A) (A) (A) (A) (A) (A) (A)
                 (A) (A) (A) (A) (A) (A) (A) (A) (A) (A) (A) (A)
                 (A) (A) (A) (A) (A) (A) (A) (A) (A) (A) (A) (A)
                 (A) (A) (A) (A) (A) (A) (A) (A) (A) (A) (A) (A)
                 (A) (A) (A) (A) (A) (A) (A) (A) (A) (A) (A) (A)
                 (A) (A) (A) (A) (A) (A) (A) (A) (A) (A) (A) (A)
                 (A) (A) (A) (A) (A) (A) (A) (A) (A) (A) (A) (A)
                 (A) (A) (A) (A) (A) (A) (A) (A) (A) (A) (A) (A)
                 (A) (A) (A) (A) (A) (A) (A) (A) (A) (A) (A) (A)
                 (A) (A) (A) (A) (A) (A) (A) (A) (A) (A) (A) (A)
                 (A) (A) (A) (A) (A) (A) (A) (A) (A) (A) (A) (A)
                 (A) (A) (A) (A) (A) (A) (A) (A) (A) (A) (A) (A)
                 (A) (A) (A) (A) (A) (A) (A) (A) (A) (A) (A) (A)
                 (A) (A) (A) (A) (A) (A) (A) (A) (A) (A) (A) (A)
                 (A) (A) (A) (A) (A) (A) (A) (A) (A) (A) (A) (A)
                 (A) (A) (A) (A) (A) (A) (A) (A) (A) (A) (A) (A)
                 (A) (A) (A) (A) (A) (A) (A) (A) (A) (A) (A) (A)
                 (A) (A) (A) (A) (A) (A) (A) (A) (A) (A) (A) (A)
                 (A) (A) (A) (A) (A) (A) (A) (A) (A) (A) (A) (A)
                 (A) (A) (A) (A) (A) (A) (A) (A) (A) (A) (A) (A)
                 (A) (A) (A) (A) (A) (A) (A) (A) (A) (A) (A) (A)
                 (A) (A) (A) (A) (A) (A) (A) (A) (A) (A) (A) (A)
                 (A) (A) (A) (A) (A) (A) (A) (A) (A) (A) (A) (A)
                 (A) (A) (A) (A) (A) (A) (A) (A) (A) (A) (A) (A)
                 (A) (A) (A) (A) (A) (A) (A) (A) (A) (A) (A) (A)
                 (A) (A) (A) (A) (A) (A) (A) (A) (A) (A) (A) (A)
                 (A) (A) (A) (A) (A) (A) (A) (A) (A) (A) (A) (A)
                 (A) (A) (A) (A) (A) (A) (A) (A) (A) (A) (A) (A)
                 (A) (A) (A) (A) (A) (A) (A) (A) (A) (A) (A) (A)
                 (A) (A) (A) (A) (A) (A) (A) (A) (A) (A) (A) (A)
                 (A) (A) (A) (A) (A) (A) (A) (A) (A) (A) (A) (A)
                 (A) (A) (A) (A) (A) (A) (A) (A) (A) (A) (A) (A)
                 (A) (A) (A) (A) (A) (A) (A) (A) (A) (A) (A) (A)
                 (A) (A) (A) (A) (A) (A) (A) (A) (A) (A) (A) (A)
                 (A) (A) (A) (A) (A) (A) (A) (A) (A) (A) (A) (A)
                 (A) (A) (A) (A) (A) (A) (A) (A) (A) (A) (A) (A)
                 (A) (A) (A) (A)
 The electronic state is 1-A.
 Alpha  occ. eigenvalues -- -256.18086 -30.02968 -25.87163 -25.86765 -25.86674
 Alpha  occ. eigenvalues --  -14.42354 -14.37346 -14.33742 -14.33599 -14.33488
 Alpha  occ. eigenvalues --  -14.33430 -10.26173 -10.24322 -10.21577 -10.21493
 Alpha  occ. eigenvalues --  -10.21193 -10.21070 -10.20956 -10.20824 -10.20818
 Alpha  occ. eigenvalues --  -10.20790 -10.20743 -10.20741 -10.19909 -10.19599
 Alpha  occ. eigenvalues --  -10.19123 -10.18859 -10.18852 -10.18847 -10.18775
 Alpha  occ. eigenvalues --  -10.18722 -10.18689 -10.18632 -10.18610 -10.18595
 Alpha  occ. eigenvalues --  -10.18587 -10.18534 -10.18533 -10.18530 -10.18471
 Alpha  occ. eigenvalues --  -10.18381 -10.18331 -10.18317 -10.18160 -10.18086
 Alpha  occ. eigenvalues --   -3.40789  -2.17577  -2.16631  -2.16503  -1.05921
 Alpha  occ. eigenvalues --   -0.96932  -0.96048  -0.95858  -0.94973  -0.91479
 Alpha  occ. eigenvalues --   -0.82340  -0.81932  -0.81487  -0.80836  -0.80732
 Alpha  occ. eigenvalues --   -0.80418  -0.79716  -0.79591  -0.77082  -0.75984
 Alpha  occ. eigenvalues --   -0.74270  -0.73936  -0.73150  -0.72352  -0.70787
 Alpha  occ. eigenvalues --   -0.70007  -0.68248  -0.67927  -0.67886  -0.65094
 Alpha  occ. eigenvalues --   -0.64259  -0.64197  -0.61923  -0.60870  -0.60361
 Alpha  occ. eigenvalues --   -0.57506  -0.56595  -0.56460  -0.54604  -0.53955
 Alpha  occ. eigenvalues --   -0.53916  -0.51682  -0.51180  -0.50457  -0.50384
 Alpha  occ. eigenvalues --   -0.48384  -0.48308  -0.48085  -0.47932  -0.47401
 Alpha  occ. eigenvalues --   -0.46290  -0.45882  -0.44755  -0.44548  -0.44224
 Alpha  occ. eigenvalues --   -0.43930  -0.43683  -0.43380  -0.43307  -0.43095
 Alpha  occ. eigenvalues --   -0.43005  -0.42916  -0.42474  -0.42135  -0.41693
 Alpha  occ. eigenvalues --   -0.41473  -0.41433  -0.41337  -0.40392  -0.40134
 Alpha  occ. eigenvalues --   -0.40076  -0.39918  -0.39507  -0.39239  -0.39106
 Alpha  occ. eigenvalues --   -0.38742  -0.38457  -0.38012  -0.37584  -0.37257
 Alpha  occ. eigenvalues --   -0.37098  -0.36682  -0.36056  -0.35935  -0.35547
 Alpha  occ. eigenvalues --   -0.34614  -0.34285  -0.34070  -0.33798  -0.32208
 Alpha  occ. eigenvalues --   -0.31803  -0.31165  -0.30711  -0.30109  -0.29116
 Alpha  occ. eigenvalues --   -0.28714  -0.26772  -0.26667  -0.24843  -0.24247
 Alpha  occ. eigenvalues --   -0.23763  -0.23145  -0.22209  -0.19732  -0.18737
 Alpha  occ. eigenvalues --   -0.18496  -0.18142  -0.17887
 Alpha virt. eigenvalues --   -0.06505  -0.06455  -0.01790  -0.01748   0.00388
 Alpha virt. eigenvalues --    0.00899   0.01853   0.02368   0.04058   0.04245
 Alpha virt. eigenvalues --    0.04593   0.04666   0.05656   0.05903   0.06051
 Alpha virt. eigenvalues --    0.06360   0.07137   0.07369   0.07759   0.07965
 Alpha virt. eigenvalues --    0.08316   0.08755   0.09024   0.09170   0.09598
 Alpha virt. eigenvalues --    0.10134   0.10633   0.10835   0.11086   0.11232
 Alpha virt. eigenvalues --    0.11333   0.11874   0.11932   0.12229   0.12484
 Alpha virt. eigenvalues --    0.12642   0.12977   0.13238   0.13361   0.13767
 Alpha virt. eigenvalues --    0.13915   0.14247   0.14400   0.14580   0.14650
 Alpha virt. eigenvalues --    0.14976   0.15309   0.15398   0.15505   0.15833
 Alpha virt. eigenvalues --    0.15961   0.16447   0.16474   0.16704   0.16958
 Alpha virt. eigenvalues --    0.17235   0.17296   0.17587   0.17626   0.18169
 Alpha virt. eigenvalues --    0.18301   0.18960   0.19352   0.19568   0.19595
 Alpha virt. eigenvalues --    0.19690   0.20118   0.20298   0.20452   0.21020
 Alpha virt. eigenvalues --    0.21269   0.21429   0.22006   0.22192   0.22397
 Alpha virt. eigenvalues --    0.22756   0.23035   0.23094   0.23428   0.23847
 Alpha virt. eigenvalues --    0.23972   0.24445   0.24671   0.25156   0.25327
 Alpha virt. eigenvalues --    0.25741   0.26146   0.26295   0.26572   0.26873
 Alpha virt. eigenvalues --    0.27161   0.27526   0.27624   0.28205   0.28305
 Alpha virt. eigenvalues --    0.28618   0.28982   0.29096   0.29143   0.29392
 Alpha virt. eigenvalues --    0.29618   0.29854   0.29960   0.30222   0.30654
 Alpha virt. eigenvalues --    0.31007   0.31326   0.31402   0.31618   0.32264
 Alpha virt. eigenvalues --    0.32517   0.32631   0.32989   0.33132   0.33931
 Alpha virt. eigenvalues --    0.34101   0.34362   0.34455   0.34880   0.35187
 Alpha virt. eigenvalues --    0.35366   0.35721   0.36062   0.36201   0.36477
 Alpha virt. eigenvalues --    0.36831   0.37007   0.37439   0.37687   0.37952
 Alpha virt. eigenvalues --    0.38172   0.38276   0.38709   0.39171   0.39259
 Alpha virt. eigenvalues --    0.39388   0.39827   0.40060   0.40160   0.40435
 Alpha virt. eigenvalues --    0.40769   0.40796   0.41200   0.41363   0.41470
 Alpha virt. eigenvalues --    0.41607   0.42018   0.42046   0.42237   0.42612
 Alpha virt. eigenvalues --    0.42872   0.43070   0.43467   0.43600   0.43786
 Alpha virt. eigenvalues --    0.44067   0.44452   0.44555   0.44793   0.45058
 Alpha virt. eigenvalues --    0.45374   0.45582   0.45784   0.45995   0.46137
 Alpha virt. eigenvalues --    0.46329   0.46708   0.46780   0.46955   0.47176
 Alpha virt. eigenvalues --    0.47313   0.47510   0.47763   0.47961   0.48157
 Alpha virt. eigenvalues --    0.48222   0.48390   0.48682   0.48785   0.49106
 Alpha virt. eigenvalues --    0.49318   0.49418   0.49825   0.50156   0.50387
 Alpha virt. eigenvalues --    0.50505   0.50698   0.51084   0.51104   0.51488
 Alpha virt. eigenvalues --    0.51559   0.51723   0.51939   0.52023   0.52409
 Alpha virt. eigenvalues --    0.52847   0.52950   0.53308   0.53388   0.53553
 Alpha virt. eigenvalues --    0.53728   0.54255   0.54543   0.54797   0.55049
 Alpha virt. eigenvalues --    0.55564   0.55914   0.56508   0.56683   0.56765
 Alpha virt. eigenvalues --    0.56912   0.57420   0.57517   0.57854   0.58009
 Alpha virt. eigenvalues --    0.58266   0.58534   0.58861   0.59170   0.59408
 Alpha virt. eigenvalues --    0.59755   0.60512   0.60795   0.60895   0.60961
 Alpha virt. eigenvalues --    0.61640   0.61913   0.62085   0.62700   0.63369
 Alpha virt. eigenvalues --    0.63772   0.64003   0.64287   0.64710   0.64890
 Alpha virt. eigenvalues --    0.65368   0.65489   0.65770   0.65778   0.66071
 Alpha virt. eigenvalues --    0.66589   0.66708   0.66826   0.66930   0.67369
 Alpha virt. eigenvalues --    0.67630   0.68020   0.68106   0.68317   0.68963
 Alpha virt. eigenvalues --    0.69235   0.69513   0.69912   0.70187   0.70559
 Alpha virt. eigenvalues --    0.70859   0.71110   0.71465   0.71985   0.72346
 Alpha virt. eigenvalues --    0.72458   0.72657   0.72889   0.73706   0.74046
 Alpha virt. eigenvalues --    0.74362   0.74673   0.74958   0.75125   0.75392
 Alpha virt. eigenvalues --    0.75799   0.76094   0.76430   0.76683   0.77012
 Alpha virt. eigenvalues --    0.77296   0.77470   0.78217   0.78673   0.79151
 Alpha virt. eigenvalues --    0.79328   0.79838   0.80228   0.80450   0.80647
 Alpha virt. eigenvalues --    0.81103   0.81436   0.81555   0.82316   0.82580
 Alpha virt. eigenvalues --    0.82980   0.83224   0.83290   0.83742   0.84188
 Alpha virt. eigenvalues --    0.84587   0.84760   0.85289   0.85930   0.86194
 Alpha virt. eigenvalues --    0.86755   0.86821   0.87196   0.87556   0.87602
 Alpha virt. eigenvalues --    0.88606   0.88973   0.89328   0.89678   0.90113
 Alpha virt. eigenvalues --    0.90639   0.91176   0.91646   0.91845   0.92527
 Alpha virt. eigenvalues --    0.92898   0.93188   0.93771   0.94133   0.94289
 Alpha virt. eigenvalues --    0.94855   0.95118   0.95554   0.95741   0.95884
 Alpha virt. eigenvalues --    0.96317   0.96545   0.96960   0.97256   0.97605
 Alpha virt. eigenvalues --    0.97700   0.97820   0.98685   0.98747   0.99007
 Alpha virt. eigenvalues --    0.99562   1.00152   1.00593   1.01160   1.01296
 Alpha virt. eigenvalues --    1.01912   1.02407   1.02448   1.02596   1.02983
 Alpha virt. eigenvalues --    1.03245   1.03531   1.03822   1.03960   1.04277
 Alpha virt. eigenvalues --    1.04474   1.05218   1.05794   1.06057   1.06274
 Alpha virt. eigenvalues --    1.06364   1.06967   1.08007   1.08068   1.08544
 Alpha virt. eigenvalues --    1.08825   1.09000   1.09520   1.09936   1.10342
 Alpha virt. eigenvalues --    1.10486   1.10738   1.11548   1.11959   1.12384
 Alpha virt. eigenvalues --    1.12747   1.12894   1.13306   1.14065   1.14658
 Alpha virt. eigenvalues --    1.14997   1.15422   1.15813   1.16321   1.17130
 Alpha virt. eigenvalues --    1.17539   1.17881   1.18410   1.18570   1.19352
 Alpha virt. eigenvalues --    1.19879   1.20130   1.20408   1.20875   1.21127
 Alpha virt. eigenvalues --    1.21595   1.21904   1.22002   1.23048   1.23587
 Alpha virt. eigenvalues --    1.24187   1.24396   1.25117   1.25255   1.25595
 Alpha virt. eigenvalues --    1.25783   1.26600   1.26753   1.27502   1.27567
 Alpha virt. eigenvalues --    1.27921   1.28353   1.28633   1.28832   1.29030
 Alpha virt. eigenvalues --    1.29240   1.29985   1.30238   1.30547   1.31090
 Alpha virt. eigenvalues --    1.31574   1.31843   1.32153   1.32853   1.33236
 Alpha virt. eigenvalues --    1.33812   1.34196   1.35234   1.35531   1.35736
 Alpha virt. eigenvalues --    1.36373   1.37154   1.37326   1.38059   1.38427
 Alpha virt. eigenvalues --    1.38755   1.38965   1.40200   1.40787   1.41103
 Alpha virt. eigenvalues --    1.41189   1.41864   1.42180   1.42679   1.43365
 Alpha virt. eigenvalues --    1.43641   1.44722   1.45307   1.45963   1.46024
 Alpha virt. eigenvalues --    1.46791   1.47262   1.47551   1.48224   1.48672
 Alpha virt. eigenvalues --    1.49129   1.49228   1.49721   1.50493   1.50845
 Alpha virt. eigenvalues --    1.51185   1.51421   1.51568   1.51678   1.51919
 Alpha virt. eigenvalues --    1.52251   1.52421   1.52774   1.52990   1.53223
 Alpha virt. eigenvalues --    1.53616   1.53744   1.53916   1.54380   1.54521
 Alpha virt. eigenvalues --    1.54598   1.54935   1.55204   1.55292   1.55617
 Alpha virt. eigenvalues --    1.55835   1.56096   1.56366   1.56593   1.56618
 Alpha virt. eigenvalues --    1.56890   1.57048   1.57386   1.57862   1.57945
 Alpha virt. eigenvalues --    1.58444   1.58802   1.58871   1.59227   1.59353
 Alpha virt. eigenvalues --    1.60370   1.60691   1.60866   1.61312   1.61590
 Alpha virt. eigenvalues --    1.61913   1.62008   1.62289   1.62606   1.63071
 Alpha virt. eigenvalues --    1.63624   1.63823   1.64267   1.64382   1.64937
 Alpha virt. eigenvalues --    1.65210   1.65440   1.65700   1.66153   1.66342
 Alpha virt. eigenvalues --    1.67202   1.67586   1.67782   1.68089   1.68387
 Alpha virt. eigenvalues --    1.68627   1.69484   1.69737   1.69866   1.70347
 Alpha virt. eigenvalues --    1.70498   1.70816   1.71174   1.71464   1.72094
 Alpha virt. eigenvalues --    1.72590   1.72797   1.73262   1.73509   1.73743
 Alpha virt. eigenvalues --    1.73982   1.74341   1.74818   1.75168   1.75749
 Alpha virt. eigenvalues --    1.77114   1.77674   1.77992   1.78511   1.78683
 Alpha virt. eigenvalues --    1.79737   1.80409   1.80638   1.81598   1.81922
 Alpha virt. eigenvalues --    1.82261   1.82601   1.83184   1.83722   1.84707
 Alpha virt. eigenvalues --    1.84851   1.85153   1.86020   1.86196   1.86550
 Alpha virt. eigenvalues --    1.87624   1.87823   1.87926   1.88471   1.89189
 Alpha virt. eigenvalues --    1.89736   1.90107   1.90475   1.91208   1.91399
 Alpha virt. eigenvalues --    1.92058   1.92636   1.93033   1.93510   1.94176
 Alpha virt. eigenvalues --    1.94308   1.94606   1.95022   1.95910   1.97042
 Alpha virt. eigenvalues --    1.97602   1.97787   1.98297   1.98691   1.99258
 Alpha virt. eigenvalues --    1.99500   1.99826   2.00261   2.00737   2.01425
 Alpha virt. eigenvalues --    2.01629   2.01718   2.02104   2.02829   2.03258
 Alpha virt. eigenvalues --    2.03769   2.04338   2.04660   2.05472   2.05989
 Alpha virt. eigenvalues --    2.06345   2.06801   2.07134   2.08230   2.08551
 Alpha virt. eigenvalues --    2.08764   2.09420   2.09726   2.10114   2.10618
 Alpha virt. eigenvalues --    2.10993   2.11356   2.12070   2.12322   2.13085
 Alpha virt. eigenvalues --    2.13382   2.13848   2.14703   2.15093   2.15698
 Alpha virt. eigenvalues --    2.15872   2.16079   2.16408   2.16809   2.17190
 Alpha virt. eigenvalues --    2.17412   2.17946   2.18408   2.18740   2.19238
 Alpha virt. eigenvalues --    2.20318   2.20765   2.21043   2.21306   2.21760
 Alpha virt. eigenvalues --    2.22157   2.23112   2.23520   2.24076   2.24904
 Alpha virt. eigenvalues --    2.25493   2.25810   2.26250   2.26899   2.27197
 Alpha virt. eigenvalues --    2.28173   2.28521   2.28759   2.29323   2.29817
 Alpha virt. eigenvalues --    2.30484   2.30719   2.31208   2.31333   2.31679
 Alpha virt. eigenvalues --    2.32000   2.32512   2.32755   2.33777   2.34324
 Alpha virt. eigenvalues --    2.34966   2.35212   2.35281   2.35733   2.35886
 Alpha virt. eigenvalues --    2.36420   2.36847   2.37132   2.37407   2.37624
 Alpha virt. eigenvalues --    2.38002   2.38683   2.38882   2.39101   2.39905
 Alpha virt. eigenvalues --    2.40397   2.40568   2.40851   2.41576   2.41723
 Alpha virt. eigenvalues --    2.42001   2.42677   2.43682   2.44042   2.44327
 Alpha virt. eigenvalues --    2.44526   2.45275   2.45637   2.45680   2.46540
 Alpha virt. eigenvalues --    2.46837   2.47658   2.47938   2.48110   2.48908
 Alpha virt. eigenvalues --    2.49373   2.49724   2.50218   2.50932   2.51468
 Alpha virt. eigenvalues --    2.51728   2.52292   2.52405   2.52990   2.53246
 Alpha virt. eigenvalues --    2.53580   2.54401   2.55057   2.55571   2.55823
 Alpha virt. eigenvalues --    2.56167   2.56227   2.56534   2.56998   2.57611
 Alpha virt. eigenvalues --    2.57939   2.58054   2.58652   2.58829   2.59419
 Alpha virt. eigenvalues --    2.59433   2.59837   2.60054   2.60336   2.61003
 Alpha virt. eigenvalues --    2.61273   2.61457   2.61599   2.62137   2.62283
 Alpha virt. eigenvalues --    2.62993   2.63806   2.64058   2.64564   2.64913
 Alpha virt. eigenvalues --    2.65627   2.66363   2.66526   2.66718   2.67699
 Alpha virt. eigenvalues --    2.68220   2.68583   2.68915   2.69439   2.69972
 Alpha virt. eigenvalues --    2.70102   2.70537   2.70645   2.71011   2.71376
 Alpha virt. eigenvalues --    2.72061   2.73036   2.73287   2.74728   2.74837
 Alpha virt. eigenvalues --    2.75203   2.75725   2.76100   2.76369   2.76983
 Alpha virt. eigenvalues --    2.77522   2.78258   2.78533   2.79053   2.79445
 Alpha virt. eigenvalues --    2.79852   2.80194   2.80371   2.80464   2.80928
 Alpha virt. eigenvalues --    2.81499   2.82032   2.82550   2.83014   2.83276
 Alpha virt. eigenvalues --    2.84154   2.84461   2.84745   2.85462   2.85985
 Alpha virt. eigenvalues --    2.86088   2.86295   2.86784   2.87137   2.87444
 Alpha virt. eigenvalues --    2.87868   2.88459   2.89050   2.89432   2.89596
 Alpha virt. eigenvalues --    2.89951   2.90318   2.90487   2.90797   2.91182
 Alpha virt. eigenvalues --    2.92074   2.92226   2.92441   2.92544   2.92796
 Alpha virt. eigenvalues --    2.93174   2.93557   2.93776   2.94311   2.94642
 Alpha virt. eigenvalues --    2.94904   2.95208   2.95550   2.96284   2.96527
 Alpha virt. eigenvalues --    2.96724   2.97607   2.97950   2.98166   2.98720
 Alpha virt. eigenvalues --    2.99264   2.99490   2.99681   2.99891   3.01214
 Alpha virt. eigenvalues --    3.01274   3.02200   3.02275   3.02833   3.03354
 Alpha virt. eigenvalues --    3.03788   3.03903   3.04507   3.04712   3.05229
 Alpha virt. eigenvalues --    3.05433   3.05658   3.06455   3.06650   3.07123
 Alpha virt. eigenvalues --    3.07231   3.07631   3.07709   3.08363   3.08581
 Alpha virt. eigenvalues --    3.08719   3.09082   3.09260   3.09749   3.09981
 Alpha virt. eigenvalues --    3.10239   3.10626   3.10754   3.11479   3.11844
 Alpha virt. eigenvalues --    3.12083   3.12480   3.12773   3.13163   3.13664
 Alpha virt. eigenvalues --    3.13831   3.14242   3.14564   3.14703   3.15056
 Alpha virt. eigenvalues --    3.15425   3.15780   3.16070   3.16287   3.16589
 Alpha virt. eigenvalues --    3.17101   3.17604   3.17687   3.17901   3.18185
 Alpha virt. eigenvalues --    3.18213   3.19393   3.19637   3.19970   3.20124
 Alpha virt. eigenvalues --    3.20872   3.21158   3.21352   3.21543   3.22037
 Alpha virt. eigenvalues --    3.22117   3.22805   3.23241   3.23484   3.23800
 Alpha virt. eigenvalues --    3.24159   3.24332   3.24646   3.24988   3.25441
 Alpha virt. eigenvalues --    3.25657   3.25816   3.25955   3.26172   3.26487
 Alpha virt. eigenvalues --    3.26798   3.27128   3.27159   3.27533   3.27781
 Alpha virt. eigenvalues --    3.28110   3.28423   3.28850   3.29340   3.29604
 Alpha virt. eigenvalues --    3.29961   3.30232   3.30652   3.30730   3.30818
 Alpha virt. eigenvalues --    3.31024   3.31365   3.31547   3.31693   3.32345
 Alpha virt. eigenvalues --    3.32537   3.32642   3.32773   3.33000   3.33067
 Alpha virt. eigenvalues --    3.33524   3.33978   3.34273   3.34676   3.34994
 Alpha virt. eigenvalues --    3.35246   3.35348   3.35654   3.36045   3.36220
 Alpha virt. eigenvalues --    3.36594   3.36927   3.37135   3.37589   3.37646
 Alpha virt. eigenvalues --    3.37925   3.38209   3.38353   3.38648   3.38758
 Alpha virt. eigenvalues --    3.39121   3.39208   3.39766   3.39864   3.40306
 Alpha virt. eigenvalues --    3.40777   3.41260   3.41503   3.41585   3.42231
 Alpha virt. eigenvalues --    3.42691   3.43131   3.43881   3.44301   3.44888
 Alpha virt. eigenvalues --    3.45348   3.45779   3.46611   3.47203   3.47345
 Alpha virt. eigenvalues --    3.47561   3.47793   3.47977   3.48784   3.49478
 Alpha virt. eigenvalues --    3.49559   3.50143   3.50879   3.51060   3.51187
 Alpha virt. eigenvalues --    3.51516   3.52617   3.52753   3.54001   3.54343
 Alpha virt. eigenvalues --    3.54866   3.55437   3.55809   3.56266   3.56541
 Alpha virt. eigenvalues --    3.56789   3.57738   3.58250   3.58832   3.59143
 Alpha virt. eigenvalues --    3.59501   3.60193   3.60668   3.61369   3.61746
 Alpha virt. eigenvalues --    3.62036   3.62373   3.62421   3.62886   3.64025
 Alpha virt. eigenvalues --    3.64249   3.64988   3.65334   3.66003   3.66150
 Alpha virt. eigenvalues --    3.66566   3.67198   3.67566   3.67803   3.68419
 Alpha virt. eigenvalues --    3.69018   3.69589   3.69954   3.70472   3.70837
 Alpha virt. eigenvalues --    3.70865   3.71344   3.71798   3.72262   3.72391
 Alpha virt. eigenvalues --    3.72683   3.72926   3.73558   3.74115   3.74590
 Alpha virt. eigenvalues --    3.74913   3.75046   3.75765   3.76438   3.76778
 Alpha virt. eigenvalues --    3.77235   3.77867   3.78352   3.79124   3.79834
 Alpha virt. eigenvalues --    3.80185   3.80254   3.81424   3.82123   3.82919
 Alpha virt. eigenvalues --    3.83129   3.84011   3.84592   3.84916   3.85348
 Alpha virt. eigenvalues --    3.85836   3.85888   3.86815   3.87580   3.88379
 Alpha virt. eigenvalues --    3.88918   3.89616   3.90017   3.90359   3.90565
 Alpha virt. eigenvalues --    3.90997   3.91461   3.92097   3.93067   3.93794
 Alpha virt. eigenvalues --    3.94311   3.94655   3.95145   3.95711   3.96889
 Alpha virt. eigenvalues --    3.97612   3.98659   3.99487   3.99654   3.99807
 Alpha virt. eigenvalues --    4.00939   4.01316   4.01823   4.02318   4.02419
 Alpha virt. eigenvalues --    4.03306   4.03575   4.03749   4.04129   4.04420
 Alpha virt. eigenvalues --    4.04980   4.06210   4.06848   4.07908   4.08636
 Alpha virt. eigenvalues --    4.09475   4.10238   4.10977   4.11892   4.12370
 Alpha virt. eigenvalues --    4.12768   4.13802   4.14838   4.15527   4.16298
 Alpha virt. eigenvalues --    4.16830   4.17222   4.18185   4.18647   4.18897
 Alpha virt. eigenvalues --    4.19000   4.19848   4.20247   4.20537   4.20802
 Alpha virt. eigenvalues --    4.21746   4.22271   4.23138   4.23387   4.23994
 Alpha virt. eigenvalues --    4.24557   4.25171   4.25616   4.25857   4.26774
 Alpha virt. eigenvalues --    4.27131   4.27608   4.27836   4.29640   4.29679
 Alpha virt. eigenvalues --    4.30692   4.31228   4.31368   4.32388   4.33202
 Alpha virt. eigenvalues --    4.34175   4.34350   4.35030   4.36258   4.36853
 Alpha virt. eigenvalues --    4.37369   4.37748   4.37914   4.38954   4.39697
 Alpha virt. eigenvalues --    4.39944   4.40578   4.40806   4.41187   4.41431
 Alpha virt. eigenvalues --    4.41624   4.42034   4.42791   4.43248   4.43498
 Alpha virt. eigenvalues --    4.44165   4.44336   4.44737   4.45206   4.45743
 Alpha virt. eigenvalues --    4.45988   4.46207   4.46525   4.47345   4.47623
 Alpha virt. eigenvalues --    4.49376   4.50456   4.50941   4.53375   4.53628
 Alpha virt. eigenvalues --    4.55312   4.55770   4.56729   4.56946   4.58534
 Alpha virt. eigenvalues --    4.59624   4.60565   4.61415   4.61673   4.63012
 Alpha virt. eigenvalues --    4.63323   4.65739   4.66129   4.66290   4.67457
 Alpha virt. eigenvalues --    4.68049   4.68477   4.69206   4.69910   4.70580
 Alpha virt. eigenvalues --    4.71606   4.72154   4.72637   4.73007   4.74392
 Alpha virt. eigenvalues --    4.74745   4.75565   4.76555   4.77890   4.79083
 Alpha virt. eigenvalues --    4.79232   4.79928   4.80479   4.82159   4.82542
 Alpha virt. eigenvalues --    4.83446   4.84318   4.84697   4.84998   4.85484
 Alpha virt. eigenvalues --    4.85848   4.87258   4.87976   4.88174   4.89686
 Alpha virt. eigenvalues --    4.90701   4.91704   4.92644   4.93733   4.94208
 Alpha virt. eigenvalues --    4.94413   4.95294   4.95720   4.96120   4.96728
 Alpha virt. eigenvalues --    4.98144   4.98982   5.00807   5.01126   5.02214
 Alpha virt. eigenvalues --    5.02704   5.04049   5.04351   5.04832   5.05203
 Alpha virt. eigenvalues --    5.06597   5.07138   5.07789   5.08484   5.09156
 Alpha virt. eigenvalues --    5.10202   5.10560   5.11836   5.12154   5.15784
 Alpha virt. eigenvalues --    5.18243   5.19498   5.20123   5.20769   5.21631
 Alpha virt. eigenvalues --    5.21870   5.22050   5.23210   5.25030   5.27036
 Alpha virt. eigenvalues --    5.27512   5.27809   5.28721   5.29697   5.34743
 Alpha virt. eigenvalues --    5.36019   5.36103   5.36273   5.38451   5.38947
 Alpha virt. eigenvalues --    5.39160   5.39896   5.40657   5.41559   5.41823
 Alpha virt. eigenvalues --    5.42795   5.47796   5.48327   5.49119   5.49669
 Alpha virt. eigenvalues --    5.50524   5.51797   5.51964   5.52268   5.54644
 Alpha virt. eigenvalues --    5.56806   5.60281   5.61484   5.62619   5.63095
 Alpha virt. eigenvalues --    5.64498   5.65353   5.66043   5.68014   5.68830
 Alpha virt. eigenvalues --    5.69487   5.71844   5.74026   5.75345   5.76752
 Alpha virt. eigenvalues --    5.78030   5.78627   5.85132   5.87108   5.89836
 Alpha virt. eigenvalues --    5.91941   6.00503   6.01162   6.02570   6.03393
 Alpha virt. eigenvalues --    6.07853   6.09793   6.10594   6.13398   6.13998
 Alpha virt. eigenvalues --    6.17054   6.18036   6.27285   6.34174   6.34713
 Alpha virt. eigenvalues --    6.41356  22.33621  22.34755  22.43692  22.46337
 Alpha virt. eigenvalues --   22.46778  22.54711  22.55233  22.62546  22.63160
 Alpha virt. eigenvalues --   22.76157  22.85257  22.87045  22.88675  22.93386
 Alpha virt. eigenvalues --   22.95519  22.96501  22.97371  23.03499  23.04902
 Alpha virt. eigenvalues --   23.06569  23.15876  23.25579  23.29113  23.30229
 Alpha virt. eigenvalues --   23.30534  23.36503  23.43552  23.51703  23.52911
 Alpha virt. eigenvalues --   23.57592  23.75196  23.79327  23.79586  23.88894
 Alpha virt. eigenvalues --   32.39927  32.61920  32.86182  32.87982  32.95393
 Alpha virt. eigenvalues --   33.07577
          Condensed to atoms (all electrons):
 Mulliken charges:
               1
     1  Fe  -0.179257
     2  N   -0.040497
     3  N   -0.126396
     4  N   -0.055767
     5  N   -0.124524
     6  C    0.253060
     7  C   -0.039768
     8  C   -0.059916
     9  C    0.258359
    10  C    0.244904
    11  C   -0.106243
    12  C    0.124298
    13  C    0.196491
    14  C    0.286069
    15  C   -0.127874
    16  C    0.128592
    17  C    0.228728
    18  C    0.230065
    19  C   -0.037762
    20  C   -0.041550
    21  C    0.251335
    22  C   -0.458884
    23  H    0.139022
    24  C   -0.447865
    25  H    0.138908
    26  C   -0.481688
    27  H    0.178631
    28  C   -0.473699
    29  H    0.182282
    30  C   -0.412590
    31  H    0.119626
    32  H    0.138366
    33  H    0.130664
    34  C   -0.415951
    35  H    0.131337
    36  H    0.139642
    37  H    0.119131
    38  C   -0.394358
    39  H    0.132382
    40  H    0.139831
    41  H    0.125272
    42  C   -0.256233
    43  H    0.115002
    44  C   -0.304995
    45  H    0.149349
    46  H    0.122622
    47  C   -0.388023
    48  H    0.133838
    49  H    0.138721
    50  H    0.122456
    51  C   -0.253399
    52  H    0.113880
    53  C   -0.300658
    54  H    0.145711
    55  H    0.121605
    56  C   -0.407894
    57  H    0.137665
    58  H    0.136753
    59  H    0.119187
    60  C   -0.414462
    61  H    0.120216
    62  H    0.137818
    63  H    0.133091
    64  C   -0.394125
    65  H    0.137676
    66  H    0.146723
    67  H    0.135953
    68  N   -0.227702
    69  H    0.237118
    70  C    0.159153
    71  C    0.016565
    72  H    0.178812
    73  N    0.024197
    74  C   -0.192250
    75  H    0.163227
 Sum of Mulliken charges =  -0.00000
 Mulliken charges with hydrogens summed into heavy atoms:
               1
     1  Fe  -0.179257
     2  N   -0.040497
     3  N   -0.126396
     4  N   -0.055767
     5  N   -0.124524
     6  C    0.253060
     7  C   -0.039768
     8  C   -0.059916
     9  C    0.258359
    10  C    0.244904
    11  C   -0.106243
    12  C    0.124298
    13  C    0.196491
    14  C    0.286069
    15  C   -0.127874
    16  C    0.128592
    17  C    0.228728
    18  C    0.230065
    19  C   -0.037762
    20  C   -0.041550
    21  C    0.251335
    22  C   -0.319862
    24  C   -0.308957
    26  C   -0.303057
    28  C   -0.291416
    30  C   -0.023934
    34  C   -0.025841
    38  C    0.003126
    42  C   -0.141232
    44  C   -0.033024
    47  C    0.006992
    51  C   -0.139519
    53  C   -0.033342
    56  C   -0.014289
    60  C   -0.023337
    64  C    0.026227
    68  N    0.009416
    70  C    0.159153
    71  C    0.195377
    73  N    0.024197
    74  C   -0.029023
 Electronic spatial extent (au):  <R**2>=          19485.8513
 Charge=              0.0000 electrons
 Dipole moment (field-independent basis, Debye):
    X=              0.1362    Y=             -1.2383    Z=              6.2809  Tot=              6.4033
 Quadrupole moment (field-independent basis, Debye-Ang):
   XX=           -228.6834   YY=           -234.8721   ZZ=           -223.5827
   XY=              0.8613   XZ=             -3.9866   YZ=              0.2764
 Traceless Quadrupole moment (field-independent basis, Debye-Ang):
   XX=              0.3626   YY=             -5.8260   ZZ=              5.4634
   XY=              0.8613   XZ=             -3.9866   YZ=              0.2764
 Octapole moment (field-independent basis, Debye-Ang**2):
  XXX=             23.6476  YYY=            -29.4404  ZZZ=            159.9556  XYY=             -5.3950
  XXY=            -13.3097  XXZ=             19.6538  XZZ=             -0.5201  YZZ=            -15.2432
  YYZ=             -8.4018  XYZ=             -1.0801
 Hexadecapole moment (field-independent basis, Debye-Ang**3):
 XXXX=         -11621.0700 YYYY=         -11255.8064 ZZZZ=          -2708.6504 XXXY=             -8.7475
 XXXZ=           -106.6794 YYYX=              5.2149 YYYZ=            111.8106 ZZZX=            -30.7334
 ZZZY=            -29.2598 XXYY=          -3801.6798 XXZZ=          -2554.5343 YYZZ=          -2582.1428
 XXYZ=            -26.8411 YYXZ=            -10.5860 ZZXY=             26.3813
 N-N= 5.584130097283D+03 E-N=-1.800066227995D+04  KE= 2.897576242510D+03
  Exact polarizability:     691.765       1.300     678.412     -17.621      -2.723     305.330
 Approx polarizability:    1300.792       5.894    1260.004     -65.220       2.010     494.686

 ----------------------------------------------------------------------

 Electric dipole moment (input orientation):
 (Debye = 10**-18 statcoulomb cm , SI units = C m)
                  (au)            (Debye)         (10**-30 SI)
   Tot        0.251925D+01      0.640330D+01      0.213591D+02
   x          0.121960D+01      0.309991D+01      0.103402D+02
   y          0.191388D+00      0.486460D+00      0.162265D+01
   z         -0.219604D+01     -0.558177D+01     -0.186188D+02

 Dipole polarizability, Alpha (input orientation).
 (esu units = cm**3 , SI units = C**2 m**2 J**-1)
 Alpha(0;0):
               (au)            (10**-24 esu)      (10**-40 SI)
   iso        0.558502D+03      0.827615D+02      0.920846D+02
   aniso      0.381194D+03      0.564871D+02      0.628504D+02
   xx         0.576984D+03      0.855001D+02      0.951317D+02
   yx        -0.583490D+02     -0.864644D+01     -0.962046D+01
   yy         0.658580D+03      0.975914D+02      0.108585D+03
   zx         0.165208D+03      0.244814D+02      0.272392D+02
   zy         0.743733D+02      0.110210D+02      0.122625D+02
   zz         0.439944D+03      0.651930D+02      0.725370D+02

 First dipole hyperpolarizability, Beta (input orientation).
 ||, _|_  parallel and perpendicular components, (z) with respect to z axis,
 vector components x,y,z.  Values do not include the 1/n! factor of 1/2.
 (esu units = statvolt**-1 cm**4 , SI units = C**3 m**3 J**-2)
 Beta(0;0,0):
               (au)            (10**-30 esu)      (10**-50 SI)
   || (z)     0.503862D+03      0.435297D+01      0.161556D+01
   _|_(z)     0.167954D+03      0.145099D+01      0.538521D+00
   x          0.243638D+04      0.210484D+02      0.781191D+01
   y          0.110179D+04      0.951859D+01      0.353273D+01
   z          0.251931D+04      0.217649D+02      0.807781D+01
   ||         0.734759D+03      0.634775D+01      0.235590D+01
   xxx        0.550561D+03      0.475642D+01      0.176530D+01
   xxy       -0.346124D+03     -0.299024D+01     -0.110980D+01
   yxy        0.547916D+01      0.473357D-01      0.175682D-01
   yyy        0.592421D+03      0.511806D+01      0.189952D+01
   xxz        0.263812D+03      0.227913D+01      0.845877D+00
   yxz       -0.245121D+03     -0.211766D+01     -0.785947D+00
   yyz        0.430725D+03      0.372113D+01      0.138106D+01
   zxz        0.256086D+03      0.221238D+01      0.821104D+00
   zyz        0.120965D+03      0.104504D+01      0.387858D+00
   zzz        0.145232D+03      0.125469D+01      0.465666D+00

 ----------------------------------------------------------------------

 Dipole orientation:
    26        -30.52565694         27.35629130        -19.70434808
     7        -32.40124519         30.59797440        -19.34447427
     7        -27.25040307         29.33242833        -19.83273695
     7        -28.59821358         24.24694355        -20.63125475
     7        -33.76626902         25.53207431        -20.28396066
     6        -34.95537209         30.85893526        -19.14374762
     6        -35.64559061         33.48888837        -18.87276149
     6        -33.45146029         34.82309427        -18.94646531
     6        -31.44613598         32.98714835        -19.22074365
     6        -26.96592907         31.87509270        -19.51501873
     6        -24.33649239         32.55441867        -19.40761304
     6        -23.00082625         30.35971892        -19.70428629
     6        -24.86485283         28.37194455        -19.95093684
     6        -26.03696820         23.95151708        -20.63709263
     6        -25.36094460         21.36186088        -21.11548592
     6        -27.57459820         20.09385886        -21.53826577
     6        -29.57481722         21.92763149        -21.16881349
     6        -34.05112593         23.00821345        -20.70237222
     6        -36.65920842         22.25900487        -20.38377605
     6        -37.94906322         24.38934256        -19.74135783
     6        -36.11302860         26.40973477        -19.68793384
     6        -36.68981519         28.90636070        -19.18829450
     1        -38.64761829         29.37634565        -18.86221794
     6        -28.91529120         33.60240022        -19.28222165
     1        -28.41256246         35.57170638        -19.11274705
     6        -24.28332547         25.84817046        -20.25608099
     1        -22.31353774         25.32482641        -20.22589708
     6        -32.11835972         21.34311058        -21.25810236
     1        -32.61824395         19.39453437        -21.58801049
     6        -33.04352652         37.60473516        -18.78743701
     1        -34.82970489         38.59339012        -18.55895693
     1        -32.13225267         38.29958047        -20.49928861
     1        -31.83464535         38.07143742        -17.18573839
     6        -38.29186710         34.41746454        -18.61997278
     1        -39.19534861         33.58871647        -16.96421930
     1        -39.39985402         33.90148130        -20.27818186
     1        -38.33366428         36.46219704        -18.42495970
     6        -23.34848234         35.17562691        -19.12798652
     1        -24.08875029         36.05738842        -17.41871676
     1        -23.91093746         36.33472093        -20.73587700
     1        -21.29638431         35.16505640        -19.03095613
     6        -20.27403666         30.09572434        -19.80603377
     1        -19.23383446         31.22268945        -18.44448632
     6        -19.00655465         28.68706739        -21.44927315
     1        -19.94709039         27.62018993        -22.90434007
     1        -16.97266088         28.59366977        -21.42885772
     6        -22.72607798         20.38390273        -21.26733546
     1        -21.69235520         20.80902237        -19.53642439
     1        -21.71852362         21.25623773        -22.83900520
     1        -22.72604254         18.35002149        -21.55589585
     6        -27.84858454         17.45272146        -22.21035921
     1        -26.55582424         16.17329538        -21.26382867
     6        -29.45346022         16.53180443        -23.90512037
     1        -30.70152523         17.73194914        -24.97366956
     1        -29.53833768         14.54009846        -24.31956490
     6        -37.60813858         19.63133469        -20.73303020
     1        -36.65944400         18.33800458        -19.43988412
     1        -37.24763453         18.98537126        -22.65542510
     1        -39.63078228         19.53129256        -20.38622114
     6        -40.68949611         24.72040991        -19.18503957
     1        -41.67254825         22.91754978        -19.24961377
     1        -41.55727994         25.98002613        -20.56536720
     1        -40.95695281         25.54231716        -17.31514477
     6        -32.24420124         23.81362595         -9.81041918
     1        -30.85974203         22.51452211         -9.01232159
     1        -33.91718986         22.74978123        -10.33573197
     1        -32.75820181         25.17922587         -8.35709417
     7        -29.11164394         26.62764596        -11.96766035
     1        -28.08709710         27.00518323        -10.40938350
     6        -31.20577721         25.11034242        -12.07109397
     6        -28.67577243         27.50906582        -14.32456625
     1        -27.14617359         28.74589749        -14.79881439
     7        -30.36481988         26.64494345        -15.92479327
     6        -31.95187804         25.14691358        -14.54084772
     1        -33.51623024         24.19687284        -15.40251316

 Electric dipole moment (dipole orientation):
 (Debye = 10**-18 statcoulomb cm , SI units = C m)
                  (au)            (Debye)         (10**-30 SI)
   Tot        0.251925D+01      0.640330D+01      0.213591D+02
   x          0.000000D+00      0.000000D+00      0.000000D+00
   y          0.000000D+00      0.000000D+00      0.000000D+00
   z          0.251925D+01      0.640330D+01      0.213591D+02

 Dipole polarizability, Alpha (dipole orientation).
 (esu units = cm**3 , SI units = C**2 m**2 J**-1)
 Alpha(0;0):
               (au)            (10**-24 esu)      (10**-40 SI)
   iso        0.558502D+03      0.827615D+02      0.920846D+02
   aniso      0.381194D+03      0.564871D+02      0.628504D+02
   xx         0.685418D+03      0.101569D+03      0.113010D+03
   yx         0.123558D+02      0.183094D+01      0.203719D+01
   yy         0.670344D+03      0.993348D+02      0.110525D+03
   zx        -0.288658D+02     -0.427747D+01     -0.475933D+01
   zy         0.681146D+02      0.100935D+02      0.112306D+02
   zz         0.319744D+03      0.473812D+02      0.527187D+02

 First dipole hyperpolarizability, Beta (dipole orientation).
 ||, _|_  parallel and perpendicular components, (z) with respect to z axis,
 vector components x,y,z.  Values do not include the 1/n! factor of 1/2.
 (esu units = statvolt**-1 cm**4 , SI units = C**3 m**3 J**-2)
 Beta(0;0,0):
               (au)            (10**-30 esu)      (10**-50 SI)
   || (z)    -0.186581D+03     -0.161192D+01     -0.598246D+00
   _|_(z)    -0.621937D+02     -0.537305D+00     -0.199415D+00
   x          0.332928D+04      0.287624D+02      0.106749D+02
   y         -0.124191D+04     -0.107291D+02     -0.398201D+01
   z         -0.932905D+03     -0.805958D+01     -0.299123D+01
   ||         0.734759D+03      0.634775D+01      0.235590D+01
   xxx        0.862171D+03      0.744848D+01      0.276443D+01
   xxy        0.430191D+03      0.371651D+01      0.137935D+01
   yxy        0.192903D+03      0.166653D+01      0.618516D+00
   yyy       -0.688072D+03     -0.594440D+01     -0.220621D+01
   xxz       -0.853594D+02     -0.737439D+00     -0.273693D+00
   yxz        0.515023D+02      0.444940D+00      0.165135D+00
   yyz       -0.356217D+03     -0.307744D+01     -0.114216D+01
   zxz        0.546881D+02      0.472462D+00      0.175350D+00
   zyz       -0.156089D+03     -0.134849D+01     -0.500477D+00
   zzz        0.130608D+03      0.112835D+01      0.418776D+00

 ----------------------------------------------------------------------
 Unable to Open any file for archive entry.
 1\1\GINC-BGN1030\SP\RAPFD\def2TZVP\C34H34Fe1N6\BEBZHART\15-Jul-2024\0\
 \# polar def2tzvp apfd int=(grid=ultrafine)\\3tm9_II_S\\0,1\Fe,0,-18.8
 942564566,-14.9064279181,0.1694691655\N,0,-19.6365976868,-16.582593120
 2,-0.6073457281\N,0,-17.3904293786,-15.9881478278,0.988305493\N,0,-18.
 2717974152,-13.3234105097,1.2158119727\N,0,-20.5618438326,-13.93367580
 16,-0.3200096091\C,0,-20.7648099839,-16.6856342957,-1.364746777\C,0,-2
 0.9875558531,-18.0549831035,-1.7722977915\C,0,-19.9768645488,-18.78461
 51227,-1.2298430274\C,0,-19.1379214732,-17.8479481263,-0.5157891998\C,
 0,-17.1509095584,-17.3197040707,0.8124041431\C,0,-15.8991204029,-17.70
 11025847,1.4091601438\C,0,-15.3796407784,-16.5691137906,1.9764134813\C
 ,0,-16.326385968,-15.5110059168,1.6925741213\C,0,-17.0907215023,-13.19
 44263122,1.8865229472\C,0,-16.927261385,-11.8545264778,2.3844913059\C,
 0,-18.0734914351,-11.1795764977,2.063394013\C,0,-18.8857120723,-12.111
 3239153,1.3068331165\C,0,-20.8271410685,-12.616083329,-0.0985139609\C,
 0,-21.9606382444,-12.1809146034,-0.8834982982\C,0,-22.3710071143,-13.2
 655263004,-1.5959151616\C,0,-21.4863816039,-14.3483185419,-1.231425572
 5\C,0,-21.599427765,-15.6393184276,-1.7100318438\H,0,-22.4173061358,-1
 5.8537906504,-2.3808914492\C,0,-17.9757031283,-18.2013088868,0.1361888
 702\H,0,-17.6790884971,-19.2386216727,0.1076326794\C,0,-16.1616016196,
 -14.197914402,2.0837685729\H,0,-15.2474631722,-13.9410951652,2.5955059
 321\C,0,-20.0921124052,-11.780104189,0.7199132016\H,0,-20.4282946782,-
 10.7602066687,0.8223702932\C,0,-19.7183615215,-20.2499056909,-1.310522
 3604\H,0,-20.4764010967,-20.7437080448,-1.9132466649\H,0,-19.727835750
 3,-20.6947630231,-0.3153541889\H,0,-18.7435732749,-20.4442913808,-1.75
 84322006\C,0,-22.1381465399,-18.5071705528,-2.6041604944\H,0,-22.14082
 86877,-17.9940096949,-3.5660720794\H,0,-23.0812184583,-18.2901078273,-
 2.1023548993\H,0,-22.0862753109,-19.5775854523,-2.787026446\C,0,-15.34
 28636222,-19.0829410584,1.4279046198\H,0,-15.2384956515,-19.4716974427
 ,0.4143535346\H,0,-16.0030915247,-19.7532073407,1.9789127151\H,0,-14.3
 681657291,-19.0948017059,1.9092786348\C,0,-14.146175035,-16.4622884151
 ,2.7325117201\H,0,-13.3041277167,-17.0128933307,2.325624043\C,0,-13.99
 50497911,-15.7983982044,3.8718480879\H,0,-14.8142929146,-15.2842882389
 ,4.3449918838\H,0,-13.0492674636,-15.7694545517,4.3872296485\C,0,-15.7
 566073383,-11.3721112226,3.1688545357\H,0,-14.8302334936,-11.537544321
 8,2.6181404437\H,0,-15.6837542857,-11.9059680164,4.1168887335\H,0,-15.
 8516629488,-10.3107473716,3.3837376742\C,0,-18.3999643351,-9.810426792
 8,2.4094088476\H,0,-17.5723447614,-9.1108614316,2.3554037423\C,0,-19.5
 866288375,-9.3760458514,2.8170611259\H,0,-20.4256414042,-10.039156781,
 2.9419889125\H,0,-19.7528025884,-8.3411091981,3.0665641673\C,0,-22.516
 708727,-10.7988726693,-0.8598532994\H,0,-21.7597113243,-10.0744601501,
 -1.1613309516\H,0,-22.8490224428,-10.5391296751,0.1452415772\H,0,-23.3
 652188206,-10.7111219923,-1.5339713462\C,0,-23.4936389231,-13.38931922
 81,-2.5678916592\H,0,-23.9839991287,-12.4306026767,-2.7174654046\H,0,-
 24.2358661703,-14.100292297,-2.2041153476\H,0,-23.1298720648,-13.74495
 86955,-3.5320053473\C,0,-17.1920035015,-12.6218885613,-4.6922882591\H,
 0,-16.3601652233,-11.9188630427,-4.6535409122\H,0,-18.1120948045,-12.0
 643847092,-4.8357882359\H,0,-17.0434296739,-13.2785338667,-5.549261683
 \N,0,-16.2652733103,-14.2257093874,-3.0078132409\H,0,-15.3878674677,-1
 4.3728853975,-3.4793315635\C,0,-17.2769573497,-13.4076460339,-3.435579
 0222\C,0,-16.6581296231,-14.7899822851,-1.8443806833\H,0,-16.058685246
 1,-15.477437686,-1.2834863042\N,0,-17.8589502806,-14.3808874494,-1.504
 1819987\C,0,-18.2546626529,-13.5184692725,-2.4889254868\H,0,-19.209448
 0193,-13.035653753,-2.4540156017\\Version=ES64L-G16RevC.02\State=1-A\H
 F=-2907.600063\RMSD=2.508e-09\Dipole=1.2195974,0.191388,-2.1960366\Pol
 ar=576.9835182,-58.3490377,658.5795666,165.2083385,74.3732629,439.9440
 911\HyperPolar=550.5607563,-346.123561,5.4791604,592.4210291,263.81209
 52,-245.1212725,430.7250772,256.0860423,120.9651859,145.2320291\Quadru
 pole=3.3668684,-2.7142016,-0.6526668,-1.2758065,-3.7979995,-1.134494\P
 G=C01 [X(C34H34Fe1N6)]\\@
 The archive entry for this job was punched.


 One man practicing sportsmanship is far better than 50 preaching it.
 -- Knute K. Rockne
 Job cpu time:       1 days 23 hours 34 minutes  3.8 seconds.
 Elapsed time:       0 days  0 hours 41 minutes 16.5 seconds.
 File lengths (MBytes):  RWF=   1142 Int=      0 D2E=      0 Chk=    146 Scr=      1
 Normal termination of Gaussian 16 at Mon Jul 15 08:48:24 2024.
 Initial command:
 /sw/chem/gaussian/g16_C02/a100/g16/l1.exe "/local/bebzhart_7933226/Gau-1106384.inp" -scrdir="/local/bebzhart_7933226/"
 Entering Link 1 = /sw/chem/gaussian/g16_C02/a100/g16/l1.exe PID=   1108038.
  
 Copyright (c) 1988-2021, Gaussian, Inc.  All Rights Reserved.
  
 This is part of the Gaussian(R) 16 program.  It is based on
 the Gaussian(R) 09 system (copyright 2009, Gaussian, Inc.),
 the Gaussian(R) 03 system (copyright 2003, Gaussian, Inc.),
 the Gaussian(R) 98 system (copyright 1998, Gaussian, Inc.),
 the Gaussian(R) 94 system (copyright 1995, Gaussian, Inc.),
 the Gaussian 92(TM) system (copyright 1992, Gaussian, Inc.),
 the Gaussian 90(TM) system (copyright 1990, Gaussian, Inc.),
 the Gaussian 88(TM) system (copyright 1988, Gaussian, Inc.),
 the Gaussian 86(TM) system (copyright 1986, Carnegie Mellon
 University), and the Gaussian 82(TM) system (copyright 1983,
 Carnegie Mellon University). Gaussian is a federally registered
 trademark of Gaussian, Inc.
  
 This software contains proprietary and confidential information,
 including trade secrets, belonging to Gaussian, Inc.
  
 This software is provided under written license and may be
 used, copied, transmitted, or stored only in accord with that
 written license.
  
 The following legend is applicable only to US Government
 contracts under FAR:
  
                    RESTRICTED RIGHTS LEGEND
  
 Use, reproduction and disclosure by the US Government is
 subject to restrictions as set forth in subparagraphs (a)
 and (c) of the Commercial Computer Software - Restricted
 Rights clause in FAR 52.227-19.
  
 Gaussian, Inc.
 340 Quinnipiac St., Bldg. 40, Wallingford CT 06492
  
  
 ---------------------------------------------------------------
 Warning -- This program may not be used in any manner that
 competes with the business of Gaussian, Inc. or will provide
 assistance to any competitor of Gaussian, Inc.  The licensee
 of this program is prohibited from giving any competitor of
 Gaussian, Inc. access to this program.  By using this program,
 the user acknowledges that Gaussian, Inc. is engaged in the
 business of creating and licensing software in the field of
 computational chemistry and represents and warrants to the
 licensee that it is not a competitor of Gaussian, Inc. and that
 it will not use this program in any manner prohibited above.
 ---------------------------------------------------------------
  

 Cite this work as:
 Gaussian 16, Revision C.02,
 M. J. Frisch, G. W. Trucks, H. B. Schlegel, G. E. Scuseria, 
 M. A. Robb, J. R. Cheeseman, G. Scalmani, V. Barone, 
 G. A. Petersson, H. Nakatsuji, X. Li, M. Caricato, A. V. Marenich, 
 J. Bloino, B. G. Janesko, R. Gomperts, B. Mennucci, H. P. Hratchian, 
 J. V. Ortiz, A. F. Izmaylov, J. L. Sonnenberg, D. Williams-Young, 
 F. Ding, F. Lipparini, F. Egidi, J. Goings, B. Peng, A. Petrone, 
 T. Henderson, D. Ranasinghe, V. G. Zakrzewski, J. Gao, N. Rega, 
 G. Zheng, W. Liang, M. Hada, M. Ehara, K. Toyota, R. Fukuda, 
 J. Hasegawa, M. Ishida, T. Nakajima, Y. Honda, O. Kitao, H. Nakai, 
 T. Vreven, K. Throssell, J. A. Montgomery, Jr., J. E. Peralta, 
 F. Ogliaro, M. J. Bearpark, J. J. Heyd, E. N. Brothers, K. N. Kudin, 
 V. N. Staroverov, T. A. Keith, R. Kobayashi, J. Normand, 
 K. Raghavachari, A. P. Rendell, J. C. Burant, S. S. Iyengar, 
 J. Tomasi, M. Cossi, J. M. Millam, M. Klene, C. Adamo, R. Cammi, 
 J. W. Ochterski, R. L. Martin, K. Morokuma, O. Farkas, 
 J. B. Foresman, and D. J. Fox, Gaussian, Inc., Wallingford CT, 2019.
 
 ******************************************
 Gaussian 16:  ES64L-G16RevC.02  7-Dec-2021
                15-Jul-2024 
 ******************************************
 %mem=16GB
 %CPU=0-71
 SetSPE:  set environment variable "OMP_PROC_BIND" = "true"
 SetSPE:  set environment variable "OMP_PLACES" = "{0},{1},{2},{3},{4},{5},{6},{7},{8},{9},{10},{11},{12},{13},{14},{15},{16},{17},{18},{19},{20},{21},{22},{23},{24},{25},{26},{27},{28},{29},{30},{31},{32},{33},{34},{35},{36},{37},{38},{39},{40},{41},{42},{43},{44},{45},{46},{47},{48},{49},{50},{51},{52},{53},{54},{55},{56},{57},{58},{59},{60},{61},{62},{63},{64},{65},{66},{67},{68},{69},{70},{71}"
 Will use up to   72 processors via shared memory.
 %gpucpu=0,1,2,3=0,1,2,3
 Will use    4 GPUs:
 Thread  CPU   GPU
      0    0     0
      1    1     1
[...]
   141. CR (   1) C  70                  1.99915   -10.09550  1368(v),1483(g),1489(v)
                                                    1213(v),1256(v)
   142. CR (   1) C  71                  1.99939   -10.12979  1340(v),1480(v),1336(v)
                                                    149(r),148(r)
   143. CR (   1) N  73                  1.99933   -14.16753  149(r),148(r),152(r),1309(v)
                                                    1366(v),1485(v),166(r)
                                                    165(r),171(r),164(r)
   144. CR (   1) C  74                  1.99900   -10.06710  1479(v),1283(v),1483(g)
                                                    1342(v),1394(v),1286(v)
                                                    149(r),148(r)
   158. LP (   1) N  68                  1.57609    -0.29070  1487(v),1484(v),1312(v)
                                                    1284(v),1278(v)
   159. LP (   1) N  73                  1.63817    -0.38614  148(r),149(r),152(r),1482(v)
                                                    1483(v),1309(v),1485(v)
                                                    1366(v),1489(v),1486(g)
                                                    1343(g),1488(g),165(r)
                                                    182(r),190(r),216(r),215(r)
                                                    242(r),268(r),1406(r),241(r)
                                                    179(r),189(r),1399(r)
                                                    1404(r),267(r),1402(r)
                                                    1405(r),1397(r),1400(r)
                                                    1401(r),1407(r),1403(r)
                                                    273(r),176(r)
  1211. RY*(   1) C  64                  0.00122     1.13695   
  1212. RY*(   2) C  64                  0.00077     1.99615   
  1213. RY*(   3) C  64                  0.00053     1.30218   
  1214. RY*(   4) C  64                  0.00012     1.24964   
  1215. RY*(   5) C  64                  0.00007     1.07197   
  1216. RY*(   6) C  64                  0.00008     2.38937   
  1217. RY*(   7) C  64                  0.00001     1.61935   
  1218. RY*(   8) C  64                  0.00001     1.87672   
  1219. RY*(   9) C  64                  0.00001     1.41373   
  1220. RY*(  10) C  64                  0.00001     2.37619   
  1221. RY*(  11) C  64                  0.00001     1.41898   
  1222. RY*(  12) C  64                  0.00001     3.30691   
  1223. RY*(  13) C  64                  0.00000     2.50464   
  1224. RY*(  14) C  64                  0.00000     2.76826   
  1225. RY*(  15) C  64                  0.00000     2.28618   
  1226. RY*(  16) C  64                  0.00000     3.16501   
  1227. RY*(  17) C  64                  0.00000     2.47913   
  1228. RY*(  18) C  64                  0.00000    21.58915   
  1229. RY*(  19) C  64                  0.00000     2.69940   
  1230. RY*(  20) C  64                  0.00000     3.64237   
  1231. RY*(  21) C  64                  0.00001     3.47321   
  1232. RY*(  22) C  64                  0.00000     3.32328   
  1233. RY*(  23) C  64                  0.00000     3.81420   
  1234. RY*(  24) C  64                  0.00000     3.33862   
  1235. RY*(  25) C  64                  0.00000     3.32959   
  1236. RY*(  26) C  64                  0.00000     3.25383   
  1237. RY*(   1) H  65                  0.00074     0.99719   
  1238. RY*(   2) H  65                  0.00014     1.69878   
  1239. RY*(   3) H  65                  0.00008     1.95304   
  1240. RY*(   4) H  65                  0.00006     2.00568   
  1241. RY*(   5) H  65                  0.00000     2.86892   
  1242. RY*(   1) H  66                  0.00024     1.28407   
  1243. RY*(   2) H  66                  0.00013     1.64652   
  1244. RY*(   3) H  66                  0.00008     2.05239   
  1245. RY*(   4) H  66                  0.00003     1.72575   
  1246. RY*(   5) H  66                  0.00001     2.89380   
  1247. RY*(   1) H  67                  0.00073     0.99194   
  1248. RY*(   2) H  67                  0.00014     1.69355   
  1249. RY*(   3) H  67                  0.00008     1.96337   
  1250. RY*(   4) H  67                  0.00006     2.00485   
  1251. RY*(   5) H  67                  0.00000     2.86843   
  1252. RY*(   1) N  68                  0.00280     0.66112   
  1253. RY*(   2) N  68                  0.00235     1.73914   
  1254. RY*(   3) N  68                  0.00102     2.05430   
  1255. RY*(   4) N  68                  0.00072     2.24328   
  1256. RY*(   5) N  68                  0.00051     1.10059   
  1257. RY*(   6) N  68                  0.00025     2.06597   
  1258. RY*(   7) N  68                  0.00021     1.66820   
  1259. RY*(   8) N  68                  0.00006     2.50332   
  1260. RY*(   9) N  68                  0.00007     2.45110   
  1261. RY*(  10) N  68                  0.00006     2.77780   
  1262. RY*(  11) N  68                  0.00005     3.82448   
  1263. RY*(  12) N  68                  0.00000     2.09748   
  1264. RY*(  13) N  68                  0.00001     4.33665   
  1265. RY*(  14) N  68                  0.00000    30.62281   
  1266. RY*(  15) N  68                  0.00000     3.34422   
  1267. RY*(  16) N  68                  0.00001     2.82709   
  1268. RY*(  17) N  68                  0.00000     4.63462   
  1269. RY*(  18) N  68                  0.00001     3.58678   
  1270. RY*(  19) N  68                  0.00000     3.62988   
  1271. RY*(  20) N  68                  0.00000     4.64662   
  1272. RY*(  21) N  68                  0.00000     4.73035   
  1273. RY*(  22) N  68                  0.00000     4.32418   
  1274. RY*(  23) N  68                  0.00000     4.44902   
  1275. RY*(  24) N  68                  0.00000     4.27979   
  1276. RY*(  25) N  68                  0.00000     4.51221   
  1277. RY*(  26) N  68                  0.00000     4.39326   
  1278. RY*(   1) H  69                  0.00057     2.14262   
  1279. RY*(   2) H  69                  0.00039     2.15802   
  1280. RY*(   3) H  69                  0.00029     1.13558   
  1281. RY*(   4) H  69                  0.00021     2.38792   
  1282. RY*(   5) H  69                  0.00001     3.04685   
  1283. RY*(   1) C  70                  0.00417     1.66963   
  1284. RY*(   2) C  70                  0.00257     0.97388   
  1285. RY*(   3) C  70                  0.00189     1.45093   
  1286. RY*(   4) C  70                  0.00164     2.00044   
  1287. RY*(   5) C  70                  0.00118     1.74998   
  1288. RY*(   6) C  70                  0.00108     1.68190   
  1289. RY*(   7) C  70                  0.00037     2.85287   
  1290. RY*(   8) C  70                  0.00018     2.81956   
  1291. RY*(   9) C  70                  0.00016     2.24738   
  1292. RY*(  10) C  70                  0.00007     3.54272   
  1293. RY*(  11) C  70                  0.00003     2.76005   
  1294. RY*(  12) C  70                  0.00002     2.44876   
  1295. RY*(  13) C  70                  0.00001     2.36455   
  1296. RY*(  14) C  70                  0.00001     1.46880   
  1297. RY*(  15) C  70                  0.00001     2.79357   
  1298. RY*(  16) C  70                  0.00000     1.05379   
  1299. RY*(  17) C  70                  0.00001     3.36380   
  1300. RY*(  18) C  70                  0.00000    20.79336   
  1301. RY*(  19) C  70                  0.00000     1.32522   
  1302. RY*(  20) C  70                  0.00000     4.01264   
  1303. RY*(  21) C  70                  0.00000     3.80592   
  1304. RY*(  22) C  70                  0.00000     3.53405   
  1305. RY*(  23) C  70                  0.00000     3.72846   
  1306. RY*(  24) C  70                  0.00000     3.38304   
  1307. RY*(  25) C  70                  0.00000     3.50556   
  1308. RY*(  26) C  70                  0.00000     3.50318   
  1309. RY*(   1) C  71                  0.00406     1.57216   
  1310. RY*(   2) C  71                  0.00321     0.66778   
  1311. RY*(   3) C  71                  0.00212     1.33408   
  1312. RY*(   4) C  71                  0.00132     2.45868   
  1313. RY*(   5) C  71                  0.00075     1.69948   
  1314. RY*(   6) C  71                  0.00040     1.51345   
  1315. RY*(   7) C  71                  0.00029     1.76864   
  1316. RY*(   8) C  71                  0.00012     2.82849   
  1317. RY*(   9) C  71                  0.00004     3.54471   
  1318. RY*(  10) C  71                  0.00005     2.38067   
  1319. RY*(  11) C  71                  0.00004     1.74958   
  1320. RY*(  12) C  71                  0.00003     1.49526   
  1321. RY*(  13) C  71                  0.00003     2.67190   
  1322. RY*(  14) C  71                  0.00000     2.30476   
  1323. RY*(  15) C  71                  0.00001     2.61747   
  1324. RY*(  16) C  71                  0.00000     3.57117   
  1325. RY*(  17) C  71                  0.00001     2.79956   
  1326. RY*(  18) C  71                  0.00000    21.52266   
  1327. RY*(  19) C  71                  0.00000     3.14357   
  1328. RY*(  20) C  71                  0.00001     3.91756   
  1329. RY*(  21) C  71                  0.00001     4.13271   
  1330. RY*(  22) C  71                  0.00000     3.55578   
  1331. RY*(  23) C  71                  0.00000     3.89124   
  1332. RY*(  24) C  71                  0.00000     3.58295   
  1333. RY*(  25) C  71                  0.00000     3.60794   
  1334. RY*(  26) C  71                  0.00000     3.33198   
  1335. RY*(   1) H  72                  0.00062     0.72175   
  1336. RY*(   2) H  72                  0.00028     2.46241   
  1337. RY*(   3) H  72                  0.00020     2.08209   
  1338. RY*(   4) H  72                  0.00012     2.37629   
  1339. RY*(   5) H  72                  0.00002     3.19748   
  1340. RY*(   1) N  73                  0.00610     1.50139   
  1341. RY*(   2) N  73                  0.00551     0.89856   
  1342. RY*(   3) N  73                  0.00517     1.33488   
  1343. RY*(   4) N  73                  0.00120     1.37407   
  1344. RY*(   5) N  73                  0.00061     1.96799   
  1345. RY*(   6) N  73                  0.00043     2.10547   
  1346. RY*(   7) N  73                  0.00033     3.30412   
  1347. RY*(   8) N  73                  0.00034     2.94843   
  1348. RY*(   9) N  73                  0.00012     2.58336   
  1349. RY*(  10) N  73                  0.00009     3.16422   
  1350. RY*(  11) N  73                  0.00009     3.34592   
  1351. RY*(  12) N  73                  0.00006     3.10834   
  1352. RY*(  13) N  73                  0.00003     3.86140   
  1353. RY*(  14) N  73                  0.00001     2.21942   
  1354. RY*(  15) N  73                  0.00001     4.14190   
  1355. RY*(  16) N  73                  0.00001     4.56991   
  1356. RY*(  17) N  73                  0.00001     4.61454   
  1357. RY*(  18) N  73                  0.00002     4.11153   
  1358. RY*(  19) N  73                  0.00001     4.49404   
  1359. RY*(  20) N  73                  0.00000     4.41957   
  1360. RY*(  21) N  73                  0.00000    31.71965   
  1361. RY*(  22) N  73                  0.00000     4.08223   
  1362. RY*(  23) N  73                  0.00001     4.83550   
  1363. RY*(  24) N  73                  0.00000     4.66413   
  1364. RY*(  25) N  73                  0.00000     4.76435   
  1365. RY*(  26) N  73                  0.00000     4.51432   
  1366. RY*(   1) C  74                  0.00364     1.63788   
  1367. RY*(   2) C  74                  0.00261     0.70061   
  1368. RY*(   3) C  74                  0.00178     1.78462   
  1369. RY*(   4) C  74                  0.00069     1.94590   
  1370. RY*(   5) C  74                  0.00059     1.75886   
  1371. RY*(   6) C  74                  0.00044     2.11090   
  1372. RY*(   7) C  74                  0.00044     1.76805   
  1373. RY*(   8) C  74                  0.00020     1.50419   
  1374. RY*(   9) C  74                  0.00014     1.57395   
  1375. RY*(  10) C  74                  0.00015     1.84107   
  1376. RY*(  11) C  74                  0.00009     1.63470   
  1377. RY*(  12) C  74                  0.00005     1.57412   
  1378. RY*(  13) C  74                  0.00004     3.01698   
  1379. RY*(  14) C  74                  0.00004     3.06667   
  1380. RY*(  15) C  74                  0.00002     6.00298   
  1381. RY*(  16) C  74                  0.00002     1.99722   
  1382. RY*(  17) C  74                  0.00000     3.66337   
  1383. RY*(  18) C  74                  0.00000     3.19881   
  1384. RY*(  19) C  74                  0.00001     4.13229   
  1385. RY*(  20) C  74                  0.00000     3.11473   
  1386. RY*(  21) C  74                  0.00000    17.96756   
  1387. RY*(  22) C  74                  0.00000     3.43836   
  1388. RY*(  23) C  74                  0.00000     3.78749   
  1389. RY*(  24) C  74                  0.00000     3.40710   
  1390. RY*(  25) C  74                  0.00000     3.72305   
  1391. RY*(  26) C  74                  0.00000     3.39211   
  1392. RY*(   1) H  75                  0.00072     0.82501   
  1393. RY*(   2) H  75                  0.00025     2.26479   
  1394. RY*(   3) H  75                  0.00023     2.38537   
  1395. RY*(   4) H  75                  0.00007     2.66782   
  1396. RY*(   5) H  75                  0.00002     3.13890   
  1476. BD*(   1) C  64 - H  65          0.01184     0.35463   
  1477. BD*(   1) C  64 - H  66          0.00344     0.36766   
  1478. BD*(   1) C  64 - H  67          0.01157     0.35426   
  1479. BD*(   1) C  64 - C  70          0.01353     0.38346   
  1480. BD*(   1) N  68 - H  69          0.01411     0.36026   
  1481. BD*(   1) N  68 - C  70          0.02738     0.42395   
  1482. BD*(   1) N  68 - C  71          0.02308     0.44051   
  1483. BD*(   1) C  70 - C  74          0.02130     0.55808   
  1484. BD*(   2) C  70 - C  74          0.29761     0.02773  1487(v),1476(v),1478(v)
                                                    1371(g),1287(g),1406(r)
  1485. BD*(   1) C  71 - H  72          0.01731     0.38384   
  1486. BD*(   1) C  71 - N  73          0.01452     0.52914   
  1487. BD*(   2) C  71 - N  73          0.41853    -0.01395  1484(v),1310(g),1341(g)
                                                    1367(v),1403(r),150(r)
                                                    1398(r)
  1488. BD*(   1) N  73 - C  74          0.01500     0.47264   
  1489. BD*(   1) C  74 - H  75          0.01390     0.42498   
       -------------------------------
              Total Lewis   42.72138  ( 97.7626%)
        Valence non-Lewis    0.90312  (  2.0667%)
        Rydberg non-Lewis    0.07458  (  0.1707%)
       -------------------------------
            Total unit  3   43.69909  (100.0000%)
           Charge unit  3    0.30091
 Unable to Open any file for archive entry.
 1\1\GINC-BGN1030\SP\RAPFD\def2TZVP\C34H34Fe1N6\BEBZHART\15-Jul-2024\0\
 \# apfd/def2TZVP int=(grid=ultrafine) geom=check guess=read pop=nbo sc
 f=qc\\3tm9_II_S_nbo\\0,1\Fe,0,-18.8942564566,-14.9064279181,0.16946916
 55\N,0,-19.6365976868,-16.5825931202,-0.6073457281\N,0,-17.3904293786,
 -15.9881478278,0.988305493\N,0,-18.2717974152,-13.3234105097,1.2158119
 727\N,0,-20.5618438326,-13.9336758016,-0.3200096091\C,0,-20.7648099839
 ,-16.6856342957,-1.364746777\C,0,-20.9875558531,-18.0549831035,-1.7722
 977915\C,0,-19.9768645488,-18.7846151227,-1.2298430274\C,0,-19.1379214
 732,-17.8479481263,-0.5157891998\C,0,-17.1509095584,-17.3197040707,0.8
 124041431\C,0,-15.8991204029,-17.7011025847,1.4091601438\C,0,-15.37964
 07784,-16.5691137906,1.9764134813\C,0,-16.326385968,-15.5110059168,1.6
 925741213\C,0,-17.0907215023,-13.1944263122,1.8865229472\C,0,-16.92726
 1385,-11.8545264778,2.3844913059\C,0,-18.0734914351,-11.1795764977,2.0
 63394013\C,0,-18.8857120723,-12.1113239153,1.3068331165\C,0,-20.827141
 0685,-12.616083329,-0.0985139609\C,0,-21.9606382444,-12.1809146034,-0.
 8834982982\C,0,-22.3710071143,-13.2655263004,-1.5959151616\C,0,-21.486
 3816039,-14.3483185419,-1.2314255725\C,0,-21.599427765,-15.6393184276,
 -1.7100318438\H,0,-22.4173061358,-15.8537906504,-2.3808914492\C,0,-17.
 9757031283,-18.2013088868,0.1361888702\H,0,-17.6790884971,-19.23862167
 27,0.1076326794\C,0,-16.1616016196,-14.197914402,2.0837685729\H,0,-15.
 2474631722,-13.9410951652,2.5955059321\C,0,-20.0921124052,-11.78010418
 9,0.7199132016\H,0,-20.4282946782,-10.7602066687,0.8223702932\C,0,-19.
 7183615215,-20.2499056909,-1.3105223604\H,0,-20.4764010967,-20.7437080
 448,-1.9132466649\H,0,-19.7278357503,-20.6947630231,-0.3153541889\H,0,
 -18.7435732749,-20.4442913808,-1.7584322006\C,0,-22.1381465399,-18.507
 1705528,-2.6041604944\H,0,-22.1408286877,-17.9940096949,-3.5660720794\
 H,0,-23.0812184583,-18.2901078273,-2.1023548993\H,0,-22.0862753109,-19
 .5775854523,-2.787026446\C,0,-15.3428636222,-19.0829410584,1.427904619
 8\H,0,-15.2384956515,-19.4716974427,0.4143535346\H,0,-16.0030915247,-1
 9.7532073407,1.9789127151\H,0,-14.3681657291,-19.0948017059,1.90927863
 48\C,0,-14.146175035,-16.4622884151,2.7325117201\H,0,-13.3041277167,-1
 7.0128933307,2.325624043\C,0,-13.9950497911,-15.7983982044,3.871848087
 9\H,0,-14.8142929146,-15.2842882389,4.3449918838\H,0,-13.0492674636,-1
 5.7694545517,4.3872296485\C,0,-15.7566073383,-11.3721112226,3.16885453
 57\H,0,-14.8302334936,-11.5375443218,2.6181404437\H,0,-15.6837542857,-
 11.9059680164,4.1168887335\H,0,-15.8516629488,-10.3107473716,3.3837376
 742\C,0,-18.3999643351,-9.8104267928,2.4094088476\H,0,-17.5723447614,-
 9.1108614316,2.3554037423\C,0,-19.5866288375,-9.3760458514,2.817061125
 9\H,0,-20.4256414042,-10.039156781,2.9419889125\H,0,-19.7528025884,-8.
 3411091981,3.0665641673\C,0,-22.516708727,-10.7988726693,-0.8598532994
 \H,0,-21.7597113243,-10.0744601501,-1.1613309516\H,0,-22.8490224428,-1
 0.5391296751,0.1452415772\H,0,-23.3652188206,-10.7111219923,-1.5339713
 462\C,0,-23.4936389231,-13.3893192281,-2.5678916592\H,0,-23.9839991287
 ,-12.4306026767,-2.7174654046\H,0,-24.2358661703,-14.100292297,-2.2041
 153476\H,0,-23.1298720648,-13.7449586955,-3.5320053473\C,0,-17.1920035
 015,-12.6218885613,-4.6922882591\H,0,-16.3601652233,-11.9188630427,-4.
 6535409122\H,0,-18.1120948045,-12.0643847092,-4.8357882359\H,0,-17.043
 4296739,-13.2785338667,-5.549261683\N,0,-16.2652733103,-14.2257093874,
 -3.0078132409\H,0,-15.3878674677,-14.3728853975,-3.4793315635\C,0,-17.
 2769573497,-13.4076460339,-3.4355790222\C,0,-16.6581296231,-14.7899822
 851,-1.8443806833\H,0,-16.0586852461,-15.477437686,-1.2834863042\N,0,-
 17.8589502806,-14.3808874494,-1.5041819987\C,0,-18.2546626529,-13.5184
 692725,-2.4889254868\H,0,-19.2094480193,-13.035653753,-2.4540156017\\V
 ersion=ES64L-G16RevC.02\State=1-A\HF=-2907.600063\RMSD=1.485e-09\Dipol
 e=1.2195974,0.191388,-2.1960366\Quadrupole=3.3668684,-2.7142016,-0.652
 6668,-1.2758065,-3.7979995,-1.134494\PG=C01 [X(C34H34Fe1N6)]\\@
 The archive entry for this job was punched.


 IF YOU WISH TO UNDERSTAND THE FRAGRANCE OF THE ROSE, 
 OR THE TENACITY OF THE OAK; 
 IF YOU ARE NOT SATISFIED UNTIL YOU KNOW THE SECRET PATHS 
 BY WHICH THE SUNSHINE AND THE AIR ACHIEVE THESE WONDERS; 
 IF YOU WISH TO SEE THE PATTERN WHICH UNDERLIES ONE LARGE FIELD OF 
 HUMAN EXPERIENCE AND HUMAN MEASUREMENT, THEN TAKE UP CHEMISTRY.

                                         -- C. A. COULSON, 1973.
 Job cpu time:       0 days  0 hours 40 minutes 48.1 seconds.
 Elapsed time:       0 days  0 hours  0 minutes 49.5 seconds.
 File lengths (MBytes):  RWF=    749 Int=      0 D2E=      0 Chk=    150 Scr=      1
 Normal termination of Gaussian 16 at Mon Jul 15 08:49:16 2024.
