 Entering Gaussian System, Link 0=g16
 Input=3wxo01.com
 Output=3wxo01.log
 Initial command:
 /sw/chem/gaussian/g16_C02/a100/g16/l1.exe "/local/bebzhart_7933244/Gau-1180352.inp" -scrdir="/local/bebzhart_7933244/"
 Entering Link 1 = /sw/chem/gaussian/g16_C02/a100/g16/l1.exe PID=   1180353.
  
 Copyright (c) 1988-2021, Gaussian, Inc.  All Rights Reserved.
  
 This is part of the Gaussian(R) 16 program.  It is based on
 the Gaussian(R) 09 system (copyright 2009, Gaussian, Inc.),
 the Gaussian(R) 03 system (copyright 2003, Gaussian, Inc.),
 the Gaussian(R) 98 system (copyright 1998, Gaussian, Inc.),
 the Gaussian(R) 94 system (copyright 1995, Gaussian, Inc.),
 the Gaussian 92(TM) system (copyright 1992, Gaussian, Inc.),
 the Gaussian 90(TM) system (copyright 1990, Gaussian, Inc.),
 the Gaussian 88(TM) system (copyright 1988, Gaussian, Inc.),
 the Gaussian 86(TM) system (copyright 1986, Carnegie Mellon
 University), and the Gaussian 82(TM) system (copyright 1983,
 Carnegie Mellon University). Gaussian is a federally registered
 trademark of Gaussian, Inc.
  
 This software contains proprietary and confidential information,
 including trade secrets, belonging to Gaussian, Inc.
  
 This software is provided under written license and may be
 used, copied, transmitted, or stored only in accord with that
 written license.
  
 The following legend is applicable only to US Government
 contracts under FAR:
  
                    RESTRICTED RIGHTS LEGEND
  
 Use, reproduction and disclosure by the US Government is
 subject to restrictions as set forth in subparagraphs (a)
 and (c) of the Commercial Computer Software - Restricted
 Rights clause in FAR 52.227-19.
  
 Gaussian, Inc.
 340 Quinnipiac St., Bldg. 40, Wallingford CT 06492
  
  
 ---------------------------------------------------------------
 Warning -- This program may not be used in any manner that
 competes with the business of Gaussian, Inc. or will provide
 assistance to any competitor of Gaussian, Inc.  The licensee
 of this program is prohibited from giving any competitor of
 Gaussian, Inc. access to this program.  By using this program,
 the user acknowledges that Gaussian, Inc. is engaged in the
 business of creating and licensing software in the field of
 computational chemistry and represents and warrants to the
 licensee that it is not a competitor of Gaussian, Inc. and that
 it will not use this program in any manner prohibited above.
 ---------------------------------------------------------------
  

 Cite this work as:
 Gaussian 16, Revision C.02,
 M. J. Frisch, G. W. Trucks, H. B. Schlegel, G. E. Scuseria, 
 M. A. Robb, J. R. Cheeseman, G. Scalmani, V. Barone, 
 G. A. Petersson, H. Nakatsuji, X. Li, M. Caricato, A. V. Marenich, 
 J. Bloino, B. G. Janesko, R. Gomperts, B. Mennucci, H. P. Hratchian, 
 J. V. Ortiz, A. F. Izmaylov, J. L. Sonnenberg, D. Williams-Young, 
 F. Ding, F. Lipparini, F. Egidi, J. Goings, B. Peng, A. Petrone, 
 T. Henderson, D. Ranasinghe, V. G. Zakrzewski, J. Gao, N. Rega, 
 G. Zheng, W. Liang, M. Hada, M. Ehara, K. Toyota, R. Fukuda, 
 J. Hasegawa, M. Ishida, T. Nakajima, Y. Honda, O. Kitao, H. Nakai, 
 T. Vreven, K. Throssell, J. A. Montgomery, Jr., J. E. Peralta, 
 F. Ogliaro, M. J. Bearpark, J. J. Heyd, E. N. Brothers, K. N. Kudin, 
 V. N. Staroverov, T. A. Keith, R. Kobayashi, J. Normand, 
 K. Raghavachari, A. P. Rendell, J. C. Burant, S. S. Iyengar, 
 J. Tomasi, M. Cossi, J. M. Millam, M. Klene, C. Adamo, R. Cammi, 
 J. W. Ochterski, R. L. Martin, K. Morokuma, O. Farkas, 
 J. B. Foresman, and D. J. Fox, Gaussian, Inc., Wallingford CT, 2019.
 
 ******************************************
 Gaussian 16:  ES64L-G16RevC.02  7-Dec-2021
                15-Jul-2024 
 ******************************************
 %mem=16GB
 %CPU=0-71
 SetSPE:  set environment variable "OMP_PROC_BIND" = "true"
 SetSPE:  set environment variable "OMP_PLACES" = "{0},{1},{2},{3},{4},{5},{6},{7},{8},{9},{10},{11},{12},{13},{14},{15},{16},{17},{18},{19},{20},{21},{22},{23},{24},{25},{26},{27},{28},{29},{30},{31},{32},{33},{34},{35},{36},{37},{38},{39},{40},{41},{42},{43},{44},{45},{46},{47},{48},{49},{50},{51},{52},{53},{54},{55},{56},{57},{58},{59},{60},{61},{62},{63},{64},{65},{66},{67},{68},{69},{70},{71}"
 Will use up to   72 processors via shared memory.
 %gpucpu=0,1,2,3=0,1,2,3
 Will use    4 GPUs:
 Thread  CPU   GPU
      0    0     0
      1    1     1
      2    2     2
      3    3     3
      4    4    -1
      5    5    -1
      6    6    -1
      7    7    -1
      8    8    -1
      9    9    -1
     10   10    -1
     11   11    -1
     12   12    -1
     13   13    -1
     14   14    -1
     15   15    -1
     16   16    -1
     17   17    -1
     18   18    -1
     19   19    -1
     20   20    -1
     21   21    -1
     22   22    -1
     23   23    -1
     24   24    -1
     25   25    -1
     26   26    -1
     27   27    -1
     28   28    -1
     29   29    -1
     30   30    -1
     31   31    -1
     32   32    -1
     33   33    -1
     34   34    -1
     35   35    -1
     36   36    -1
     37   37    -1
     38   38    -1
     39   39    -1
     40   40    -1
     41   41    -1
     42   42    -1
     43   43    -1
     44   44    -1
     45   45    -1
     46   46    -1
     47   47    -1
     48   48    -1
     49   49    -1
     50   50    -1
     51   51    -1
     52   52    -1
     53   53    -1
     54   54    -1
     55   55    -1
     56   56    -1
     57   57    -1
     58   58    -1
     59   59    -1
     60   60    -1
     61   61    -1
     62   62    -1
     63   63    -1
     64   64    -1
     65   65    -1
     66   66    -1
     67   67    -1
     68   68    -1
     69   69    -1
     70   70    -1
     71   71    -1
 SetGPE:  set environment variable "OMP_PROC_BIND" = "true"
 SetGPE:  set environment variable "OMP_PLACES" = "{0},{1},{2},{3},{4},{5},{6},{7},{8},{9},{10},{11},{12},{13},{14},{15},{16},{17},{18},{19},{20},{21},{22},{23},{24},{25},{26},{27},{28},{29},{30},{31},{32},{33},{34},{35},{36},{37},{38},{39},{40},{41},{42},{43},{44},{45},{46},{47},{48},{49},{50},{51},{52},{53},{54},{55},{56},{57},{58},{59},{60},{61},{62},{63},{64},{65},{66},{67},{68},{69},{70},{71}"
 %chk=3wxo_II_O.chk
 Properties for Device   0
 Minimum vector length:                              32
 Maximum vector length:                            1024
 Number of SMPs:                                    108
 Maximum number of threads per SMP:                2048
 Number of ASync Engines:                             5
 Memory:                                           9207742464
 Properties for Device   1
 Minimum vector length:                              32
 Maximum vector length:                            1024
 Number of SMPs:                                    108
 Maximum number of threads per SMP:                2048
 Number of ASync Engines:                             5
 Memory:                                           9207742464
 Properties for Device   2
 Minimum vector length:                              32
 Maximum vector length:                            1024
 Number of SMPs:                                    108
 Maximum number of threads per SMP:                2048
 Number of ASync Engines:                             5
 Memory:                                           9207742464
 Properties for Device   3
 Minimum vector length:                              32
 Maximum vector length:                            1024
 Number of SMPs:                                    108
 Maximum number of threads per SMP:                2048
 Number of ASync Engines:                             5
 Memory:                                           9207742464
   8286968217 words of memory will be used on each GPU.
 ------------------------------------------
 # polar def2tzvp apfd int=(grid=ultrafine)
 ------------------------------------------
 1/38=1,172=1/1;
 2/12=2,17=6,18=5,40=1/2;
 3/5=44,7=101,11=2,25=1,30=1,74=-44,75=-5/1,2,3;
 4//1;
 5/5=2,38=5,98=1/2;
 8/6=4,10=90,11=11/1;
 10/6=1,13=10/2;
 6/7=2,8=2,9=2,10=2,28=1/1;
 99/5=1,9=1/99;
 ---------
 3wxo_II_S
 ---------
 Symbolic Z-matrix:
 Charge =  0 Multiplicity = 1
 Fe                    44.73346   8.11605  -81.73475 
 N                     46.16955   8.85162  -82.92678 
 N                     44.53654   9.90428  -80.84327 
 N                     43.24643   7.41519  -80.59284 
 N                     44.90571   6.34675  -82.63965 
 C                     46.74664   8.22968  -83.9917 
 C                     47.62917   9.13096  -84.69502 
 C                     47.48682   10.34605  -84.09897 
 C                     46.53483   10.16246  -83.02695 
 C                     45.21809   11.04098  -81.15175 
 C                     44.84029   12.11828  -80.27493 
 C                     43.83636   11.63497  -79.48083 
 C                     43.64705   10.2523  -79.87619 
 C                     42.42554   8.1301   -79.77449 
 C                     41.34951   7.31459  -79.27618 
 C                     41.4736   6.10012  -79.89725 
 C                     42.65911   6.19697  -80.72728 
 C                     44.19626   5.22145  -82.36699 
 C                     44.7022   4.09984  -83.12955 
 C                     45.66184   4.60268  -83.95031 
 C                     45.74588   6.0181   -83.65665 
 C                     46.62068   6.88233  -84.28557 
 H                     47.20595   6.4934   -85.1049 
 C                     46.17159   11.16462  -82.14832 
 H                     46.60349   12.14217  -82.30153 
 C                     42.6593   9.43292  -79.36839 
 H                     41.96735   9.87182  -78.66669 
 C                     43.15629   5.13538  -81.46334 
 H                     42.64837   4.1866   -81.37854 
 C                     48.13554   11.64507  -84.43655 
 H                     48.79011   11.53789  -85.29805 
 H                     48.73025   12.00866  -83.59792 
 H                     47.38398   12.40004  -84.66882 
 C                     48.46779   8.74436  -85.86497 
 H                     47.8442   8.37341  -86.67897 
 H                     49.16726   7.9547   -85.58994 
 H                     49.03819   9.59463  -86.23091 
 C                     45.44253   13.48133  -80.28202 
 H                     45.29172   13.96476  -81.2482 
 H                     46.5159   13.42841  -80.09727 
 H                     44.99369   14.10098  -79.50985 
 C                     43.13673   12.35253  -78.43399 
 H                     42.92046   13.39321  -78.65247 
 C                     42.78909   11.85757  -77.25166 
 H                     43.02758   10.84829  -76.96203 
 H                     42.27341   12.45715  -76.51956 
 C                     40.26801   7.78585  -78.36759 
 H                     40.00461   8.82006  -78.58367 
 H                     40.58699   7.73062  -77.3254 
 H                     39.38124   7.16653  -78.48781 
 C                     40.62785   4.93136  -79.79964 
 H                     40.54231   4.34018  -80.70428 
 C                     39.97104   4.54114  -78.71179 
 H                     40.05569   5.06181  -77.77402 
 H                     39.34313   3.66546  -78.71647 
 C                     44.19186   2.70468  -83.01194 
 H                     43.14775   2.65108  -83.32243 
 H                     44.25478   2.35901  -81.98015 
 H                     44.76859   2.02744  -83.63724 
 C                     46.49509   3.90453  -84.96979 
 H                     46.27105   2.84079  -84.98991 
 H                     47.55547   4.02935  -84.74965 
 H                     46.30628   4.31243  -85.96333 
 O                     43.313    8.754    -83.391 
 H                     43.939    8.964    -84.084 
 H                     42.438    8.912    -83.407 
 C                     47.77377   5.39338  -77.9385 
 H                     48.77417   5.07438  -78.23102 
 H                     47.12063   4.52652  -77.93071 
 H                     47.82736   5.79978  -76.92861 
 N                     47.86019   7.61145  -79.09774 
 H                     48.70292   7.92806  -78.647 
 C                     47.24428   6.40544  -78.88739 
 C                     47.13112   8.28967  -80.01265 
 H                     47.37573   9.26796  -80.37151 
 N                     46.09267   7.58657  -80.39369 
 C                     46.14854   6.41243  -79.70236 
 H                     45.40184   5.65762  -79.8376 
 
 Stoichiometry    C34H36FeN6O
 Framework group  C1[X(C34H36FeN6O)]
 Deg. of freedom   228
 Full point group                 C1      NOp   1
 Largest Abelian subgroup         C1      NOp   1
 Largest concise Abelian subgroup C1      NOp   1
                         Standard orientation:                         
 ---------------------------------------------------------------------
 Center     Atomic      Atomic             Coordinates (Angstroms)
 Number     Number       Type             X           Y           Z
 ---------------------------------------------------------------------
      1         26           0        0.205302   -0.019624   -0.335254
      2          7           0        2.195199    0.234395   -0.348516
      3          7           0       -0.063417    1.969511   -0.286405
      4          7           0       -1.781071   -0.257480   -0.399695
      5          7           0        0.469330   -1.995204   -0.414777
      6          6           0        3.141148   -0.726714   -0.536497
      7          6           0        4.456875   -0.138940   -0.632464
      8          6           0        4.274248    1.209469   -0.611797
      9          6           0        2.850677    1.423610   -0.482165
     10          6           0        0.912233    2.917945   -0.304935
     11          6           0        0.344609    4.238012   -0.219261
     12          6           0       -1.013756    4.075903   -0.244396
     13          6           0       -1.242479    2.645248   -0.313872
     14          6           0       -2.724110    0.710043   -0.570637
     15          6           0       -4.028604    0.135388   -0.768831
     16          6           0       -3.843153   -1.220749   -0.819365
     17          6           0       -2.425511   -1.436866   -0.601755
     18          6           0       -0.500949   -2.944812   -0.442733
     19          6           0        0.076071   -4.269268   -0.351398
     20          6           0        1.424037   -4.097255   -0.379630
     21          6           0        1.649142   -2.669127   -0.460076
     22          6           0        2.902540   -2.090311   -0.501258
     23          1           0        3.755480   -2.748172   -0.570661
     24          6           0        2.273843    2.673540   -0.367222
     25          1           0        2.928981    3.530537   -0.411680
     26          6           0       -2.489685    2.068701   -0.444153
     27          1           0       -3.332836    2.734722   -0.540733
     28          6           0       -1.856896   -2.695705   -0.512610
     29          1           0       -2.516595   -3.547980   -0.574196
     30          6           0        5.284859    2.300753   -0.711821
     31          1           0        6.285160    1.891551   -0.830468
     32          1           0        5.272891    2.920959    0.185044
     33          1           0        5.073096    2.942180   -1.567680
     34          6           0        5.718828   -0.919990   -0.770130
     35          1           0        5.692205   -1.538092   -1.668070
     36          1           0        5.856733   -1.578308    0.087807
     37          1           0        6.579097   -0.258246   -0.835503
     38          6           0        1.126240    5.504213   -0.139145
     39          1           0        1.753299    5.627155   -1.023244
     40          1           0        1.777060    5.499618    0.735763
     41          1           0        0.460071    6.359944   -0.064176
     42          6           0       -2.013697    5.122637   -0.175748
     43          1           0       -1.773388    6.027631   -0.724165
     44          6           0       -3.144742    5.072128    0.518462
     45          1           0       -3.406495    4.220765    1.123496
     46          1           0       -3.839008    5.896362    0.524912
     47          6           0       -5.279597    0.909940   -0.997642
     48          1           0       -5.076765    1.810500   -1.575137
     49          1           0       -5.726381    1.212129   -0.048954
     50          1           0       -6.002581    0.302694   -1.538874
     51          6           0       -4.811737   -2.269162   -1.050657
     52          1           0       -4.443204   -3.134576   -1.589565
     53          6           0       -6.081678   -2.248601   -0.658339
     54          1           0       -6.489524   -1.437906   -0.080315
     55          1           0       -6.753506   -3.061058   -0.881220
     56          6           0       -0.717153   -5.529071   -0.284834
     57          1           0       -1.292821   -5.668332   -1.200616
     58          1           0       -1.415932   -5.498572    0.551115
     59          1           0       -0.065889   -6.390394   -0.157351
     60          6           0        2.508667   -5.118664   -0.342615
     61          1           0        2.094227   -6.119961   -0.254349
     62          1           0        3.171556   -4.944025    0.505041
     63          1           0        3.106764   -5.075381   -1.253420
     64          8           0        0.386428    0.032323   -2.600723
     65          1           0        1.337073   -0.020597   -2.699205
     66          1           0       -0.201551    0.190300   -3.248927
     67          6           0       -0.679733   -1.317800    5.012582
     68          1           0        0.156619   -1.735485    5.573102
     69          1           0       -1.375707   -2.117238    4.778890
     70          1           0       -1.184620   -0.588919    5.646409
     71          7           0        0.674054    0.362253    3.741426
     72          1           0        1.078763    0.800224    4.552590
     73          6           0       -0.208336   -0.686211    3.754055
     74          6           0        0.895488    0.695747    2.449789
     75          1           0        1.545682    1.485734    2.135413
     76          7           0        0.207743   -0.077469    1.645377
     77          6           0       -0.484464   -0.941765    2.441298
     78          1           0       -1.129452   -1.683776    2.018211
 ---------------------------------------------------------------------
 Rotational constants (GHZ):           0.0945452           0.0912123           0.0600920
 Standard basis: def2TZVP (5D, 7F)
 There are  1744 symmetry adapted cartesian basis functions of A   symmetry.
 There are  1532 symmetry adapted basis functions of A   symmetry.
  1532 basis functions,  2481 primitive gaussians,  1744 cartesian basis functions
   158 alpha electrons      158 beta electrons
       nuclear repulsion energy      5977.3686829061 Hartrees.
 NAtoms=   78 NActive=   78 NUniq=   78 SFac= 1.00D+00 NAtFMM=   60 NAOKFM=T Big=T
 Integral buffers will be    131072 words long.
 Raffenetti 2 integral format.
 Two-electron integral symmetry is turned on.
 R6APFD:  NTU= -4 IXU= 1 FactS= 1.050
 Nuclear repulsion after empirical dispersion term =     5977.2154312958 Hartrees.
 One-electron integrals computed using PRISM.
   1 Symmetry operations used in ECPInt.
 ECPInt:  NShTT=  186355 NPrTT=  576197 LenC2=  147604 LenP2D=  302020.
 LDataN:  DoStor=T MaxTD1= 6 Len=  172
 Number of processors reduced to  23 by ecpmxn.
 NBasis=  1532 RedAO= T EigKep=  3.28D-06  NBF=  1532
 NBsUse=  1532 1.00D-06 EigRej= -1.00D+00 NBFU=  1532
 ExpMin= 4.20D-02 ExpMax= 3.01D+05 ExpMxC= 2.91D+03 IAcc=3 IRadAn=         5 AccDes= 0.00D+00
 Harris functional with IExCor= 3731 and IRadAn=       5 diagonalized for initial guess.
 HarFok:  IExCor= 3731 AccDes= 0.00D+00 IRadAn=         5 IDoV= 1 UseB2=F ITyADJ=14
 ICtDFT=  3500011 ScaDFX=  1.000000  1.000000  1.000000  1.000000
 FoFCou: FMM=F IPFlag=           0 FMFlag=      100000 FMFlg1=        2001
         NFxFlg=           0 DoJE=T BraDBF=F KetDBF=T FulRan=T
         wScrn=  0.000000 ICntrl=       500 IOpCl=  0 I1Cent=   200000004 NGrid=           0
         NMat0=    1 NMatS0=      1 NMatT0=    0 NMatD0=    1 NMtDS0=    0 NMtDT0=    0
 Petite list used in FoFCou.
 Requested convergence on RMS density matrix=1.00D-08 within 128 cycles.
 Requested convergence on MAX density matrix=1.00D-06.
 Requested convergence on             energy=1.00D-06.
 No special actions if energy rises.
 EnCoef did     3 forward-backward iterations
 EnCoef did   100 forward-backward iterations
 EnCoef did   100 forward-backward iterations
 EnCoef did   100 forward-backward iterations
 EnCoef did     5 forward-backward iterations
 EnCoef did     5 forward-backward iterations
 Restarting incremental Fock formation.
 SCF Done:  E(RAPFD) =  -2984.02025705     A.U. after   26 cycles
            NFock= 26  Conv=0.58D-08     -V/T= 2.0034
 DoSCS=F DFT=T ScalE2(SS,OS)=  1.000000  1.000000
 Range of M.O.s used for correlation:     1  1532
 NBasis=  1532 NAE=   158 NBE=   158 NFC=     0 NFV=     0
 NROrb=   1532 NOA=   158 NOB=   158 NVA=  1374 NVB=  1374

 **** Warning!!: The largest alpha MO coefficient is  0.57210995D+02

          Differentiating once with respect to electric field.
                with respect to dipole field.
          Electric field/nuclear overlap derivatives assumed to be zero.
          There are     3 degrees of freedom in the 1st order CPHF.  IDoFFX=0 NUNeed=     3.
      3 vectors produced by pass  0 Test12= 7.24D-12 3.33D-08 XBig12= 1.88D+03 2.68D+01.
 AX will form     3 AO Fock derivatives at one time.
      3 vectors produced by pass  1 Test12= 7.24D-12 3.33D-08 XBig12= 1.19D+03 9.70D+00.
      3 vectors produced by pass  2 Test12= 7.24D-12 3.33D-08 XBig12= 3.37D+02 4.58D+00.
      3 vectors produced by pass  3 Test12= 7.24D-12 3.33D-08 XBig12= 2.37D+02 3.60D+00.
      3 vectors produced by pass  4 Test12= 7.24D-12 3.33D-08 XBig12= 1.29D+02 1.86D+00.
      3 vectors produced by pass  5 Test12= 7.24D-12 3.33D-08 XBig12= 4.90D+01 1.89D+00.
      3 vectors produced by pass  6 Test12= 7.24D-12 3.33D-08 XBig12= 3.55D+01 1.51D+00.
      3 vectors produced by pass  7 Test12= 7.24D-12 3.33D-08 XBig12= 2.13D+01 9.64D-01.
      3 vectors produced by pass  8 Test12= 7.24D-12 3.33D-08 XBig12= 1.09D+01 6.21D-01.
      3 vectors produced by pass  9 Test12= 7.24D-12 3.33D-08 XBig12= 3.88D+00 5.07D-01.
      3 vectors produced by pass 10 Test12= 7.24D-12 3.33D-08 XBig12= 1.97D+00 2.82D-01.
      3 vectors produced by pass 11 Test12= 7.24D-12 3.33D-08 XBig12= 7.19D-01 1.43D-01.
      3 vectors produced by pass 12 Test12= 7.24D-12 3.33D-08 XBig12= 2.82D-01 8.40D-02.
      3 vectors produced by pass 13 Test12= 7.24D-12 3.33D-08 XBig12= 1.16D-01 7.64D-02.
      3 vectors produced by pass 14 Test12= 7.24D-12 3.33D-08 XBig12= 5.95D-02 5.20D-02.
      3 vectors produced by pass 15 Test12= 7.24D-12 3.33D-08 XBig12= 3.14D-02 4.12D-02.
      3 vectors produced by pass 16 Test12= 7.24D-12 3.33D-08 XBig12= 1.16D-02 2.14D-02.
      3 vectors produced by pass 17 Test12= 7.24D-12 3.33D-08 XBig12= 2.87D-03 6.85D-03.
      3 vectors produced by pass 18 Test12= 7.24D-12 3.33D-08 XBig12= 7.83D-04 4.32D-03.
      3 vectors produced by pass 19 Test12= 7.24D-12 3.33D-08 XBig12= 1.14D-04 2.17D-03.
      3 vectors produced by pass 20 Test12= 7.24D-12 3.33D-08 XBig12= 3.20D-05 1.02D-03.
      3 vectors produced by pass 21 Test12= 7.24D-12 3.33D-08 XBig12= 6.11D-06 3.82D-04.
      3 vectors produced by pass 22 Test12= 7.24D-12 3.33D-08 XBig12= 1.07D-06 1.72D-04.
      3 vectors produced by pass 23 Test12= 7.24D-12 3.33D-08 XBig12= 2.39D-07 8.79D-05.
      3 vectors produced by pass 24 Test12= 7.24D-12 3.33D-08 XBig12= 5.25D-08 4.39D-05.
      3 vectors produced by pass 25 Test12= 7.24D-12 3.33D-08 XBig12= 1.32D-08 2.18D-05.
      3 vectors produced by pass 26 Test12= 7.24D-12 3.33D-08 XBig12= 2.72D-09 7.85D-06.
      3 vectors produced by pass 27 Test12= 7.24D-12 3.33D-08 XBig12= 4.67D-10 2.91D-06.
      3 vectors produced by pass 28 Test12= 7.24D-12 3.33D-08 XBig12= 5.93D-11 8.12D-07.
      3 vectors produced by pass 29 Test12= 7.24D-12 3.33D-08 XBig12= 8.34D-12 3.17D-07.
      3 vectors produced by pass 30 Test12= 7.24D-12 3.33D-08 XBig12= 1.24D-12 1.77D-07.
      2 vectors produced by pass 31 Test12= 7.24D-12 3.33D-08 XBig12= 2.66D-13 9.50D-08.
      1 vectors produced by pass 32 Test12= 7.24D-12 3.33D-08 XBig12= 5.23D-14 5.72D-08.
 InvSVY:  IOpt=1 It=  1 EMax= 3.55D-14
 Solved reduced A of dimension    96 with     3 vectors.
 Isotropic polarizability for W=    0.000000      569.52 Bohr**3.
 End of Minotr F.D. properties file   721 does not exist.
 End of Minotr F.D. properties file   722 does not exist.
 End of Minotr F.D. properties file   788 does not exist.

 **********************************************************************

            Population analysis using the SCF Density.

 **********************************************************************

 Orbital symmetries:
       Occupied  (A) (A) (A) (A) (A) (A) (A) (A) (A) (A) (A) (A)
                 (A) (A) (A) (A) (A) (A) (A) (A) (A) (A) (A) (A)
                 (A) (A) (A) (A) (A) (A) (A) (A) (A) (A) (A) (A)
                 (A) (A) (A) (A) (A) (A) (A) (A) (A) (A) (A) (A)
                 (A) (A) (A) (A) (A) (A) (A) (A) (A) (A) (A) (A)
                 (A) (A) (A) (A) (A) (A) (A) (A) (A) (A) (A) (A)
                 (A) (A) (A) (A) (A) (A) (A) (A) (A) (A) (A) (A)
                 (A) (A) (A) (A) (A) (A) (A) (A) (A) (A) (A) (A)
                 (A) (A) (A) (A) (A) (A) (A) (A) (A) (A) (A) (A)
                 (A) (A) (A) (A) (A) (A) (A) (A) (A) (A) (A) (A)
                 (A) (A) (A) (A) (A) (A) (A) (A) (A) (A) (A) (A)
                 (A) (A) (A) (A) (A) (A) (A) (A) (A) (A) (A) (A)
                 (A) (A) (A) (A) (A) (A) (A) (A) (A) (A) (A) (A)
                 (A) (A)
       Virtual   (A) (A) (A) (A) (A) (A) (A) (A) (A) (A) (A) (A)
                 (A) (A) (A) (A) (A) (A) (A) (A) (A) (A) (A) (A)
                 (A) (A) (A) (A) (A) (A) (A) (A) (A) (A) (A) (A)
                 (A) (A) (A) (A) (A) (A) (A) (A) (A) (A) (A) (A)
                 (A) (A) (A) (A) (A) (A) (A) (A) (A) (A) (A) (A)
                 (A) (A) (A) (A) (A) (A) (A) (A) (A) (A) (A) (A)
                 (A) (A) (A) (A) (A) (A) (A) (A) (A) (A) (A) (A)
                 (A) (A) (A) (A) (A) (A) (A) (A) (A) (A) (A) (A)
                 (A) (A) (A) (A) (A) (A) (A) (A) (A) (A) (A) (A)
                 (A) (A) (A) (A) (A) (A) (A) (A) (A) (A) (A) (A)
                 (A) (A) (A) (A) (A) (A) (A) (A) (A) (A) (A) (A)
                 (A) (A) (A) (A) (A) (A) (A) (A) (A) (A) (A) (A)
                 (A) (A) (A) (A) (A) (A) (A) (A) (A) (A) (A) (A)
                 (A) (A) (A) (A) (A) (A) (A) (A) (A) (A) (A) (A)
                 (A) (A) (A) (A) (A) (A) (A) (A) (A) (A) (A) (A)
                 (A) (A) (A) (A) (A) (A) (A) (A) (A) (A) (A) (A)
                 (A) (A) (A) (A) (A) (A) (A) (A) (A) (A) (A) (A)
                 (A) (A) (A) (A) (A) (A) (A) (A) (A) (A) (A) (A)
                 (A) (A) (A) (A) (A) (A) (A) (A) (A) (A) (A) (A)
                 (A) (A) (A) (A) (A) (A) (A) (A) (A) (A) (A) (A)
                 (A) (A) (A) (A) (A) (A) (A) (A) (A) (A) (A) (A)
                 (A) (A) (A) (A) (A) (A) (A) (A) (A) (A) (A) (A)
                 (A) (A) (A) (A) (A) (A) (A) (A) (A) (A) (A) (A)
                 (A) (A) (A) (A) (A) (A) (A) (A) (A) (A) (A) (A)
                 (A) (A) (A) (A) (A) (A) (A) (A) (A) (A) (A) (A)
                 (A) (A) (A) (A) (A) (A) (A) (A) (A) (A) (A) (A)
                 (A) (A) (A) (A) (A) (A) (A) (A) (A) (A) (A) (A)
                 (A) (A) (A) (A) (A) (A) (A) (A) (A) (A) (A) (A)
                 (A) (A) (A) (A) (A) (A) (A) (A) (A) (A) (A) (A)
                 (A) (A) (A) (A) (A) (A) (A) (A) (A) (A) (A) (A)
                 (A) (A) (A) (A) (A) (A) (A) (A) (A) (A) (A) (A)
                 (A) (A) (A) (A) (A) (A) (A) (A) (A) (A) (A) (A)
                 (A) (A) (A) (A) (A) (A) (A) (A) (A) (A) (A) (A)
                 (A) (A) (A) (A) (A) (A) (A) (A) (A) (A) (A) (A)
                 (A) (A) (A) (A) (A) (A) (A) (A) (A) (A) (A) (A)
                 (A) (A) (A) (A) (A) (A) (A) (A) (A) (A) (A) (A)
                 (A) (A) (A) (A) (A) (A) (A) (A) (A) (A) (A) (A)
                 (A) (A) (A) (A) (A) (A) (A) (A) (A) (A) (A) (A)
                 (A) (A) (A) (A) (A) (A) (A) (A) (A) (A) (A) (A)
                 (A) (A) (A) (A) (A) (A) (A) (A) (A) (A) (A) (A)
                 (A) (A) (A) (A) (A) (A) (A) (A) (A) (A) (A) (A)
                 (A) (A) (A) (A) (A) (A) (A) (A) (A) (A) (A) (A)
                 (A) (A) (A) (A) (A) (A) (A) (A) (A) (A) (A) (A)
                 (A) (A) (A) (A) (A) (A) (A) (A) (A) (A) (A) (A)
                 (A) (A) (A) (A) (A) (A) (A) (A) (A) (A) (A) (A)
                 (A) (A) (A) (A) (A) (A) (A) (A) (A) (A) (A) (A)
                 (A) (A) (A) (A) (A) (A) (A) (A) (A) (A) (A) (A)
                 (A) (A) (A) (A) (A) (A) (A) (A) (A) (A) (A) (A)
                 (A) (A) (A) (A) (A) (A) (A) (A) (A) (A) (A) (A)
                 (A) (A) (A) (A) (A) (A) (A) (A) (A) (A) (A) (A)
                 (A) (A) (A) (A) (A) (A) (A) (A) (A) (A) (A) (A)
                 (A) (A) (A) (A) (A) (A) (A) (A) (A) (A) (A) (A)
                 (A) (A) (A) (A) (A) (A) (A) (A) (A) (A) (A) (A)
                 (A) (A) (A) (A) (A) (A) (A) (A) (A) (A) (A) (A)
                 (A) (A) (A) (A) (A) (A) (A) (A) (A) (A) (A) (A)
                 (A) (A) (A) (A) (A) (A) (A) (A) (A) (A) (A) (A)
                 (A) (A) (A) (A) (A) (A) (A) (A) (A) (A) (A) (A)
                 (A) (A) (A) (A) (A) (A) (A) (A) (A) (A) (A) (A)
                 (A) (A) (A) (A) (A) (A) (A) (A) (A) (A) (A) (A)
                 (A) (A) (A) (A) (A) (A) (A) (A) (A) (A) (A) (A)
                 (A) (A) (A) (A) (A) (A) (A) (A) (A) (A) (A) (A)
                 (A) (A) (A) (A) (A) (A) (A) (A) (A) (A) (A) (A)
                 (A) (A) (A) (A) (A) (A) (A) (A) (A) (A) (A) (A)
                 (A) (A) (A) (A) (A) (A) (A) (A) (A) (A) (A) (A)
                 (A) (A) (A) (A) (A) (A) (A) (A) (A) (A) (A) (A)
                 (A) (A) (A) (A) (A) (A) (A) (A) (A) (A) (A) (A)
                 (A) (A) (A) (A) (A) (A) (A) (A) (A) (A) (A) (A)
                 (A) (A) (A) (A) (A) (A) (A) (A) (A) (A) (A) (A)
                 (A) (A) (A) (A) (A) (A) (A) (A) (A) (A) (A) (A)
                 (A) (A) (A) (A) (A) (A) (A) (A) (A) (A) (A) (A)
                 (A) (A) (A) (A) (A) (A) (A) (A) (A) (A) (A) (A)
                 (A) (A) (A) (A) (A) (A) (A) (A) (A) (A) (A) (A)
                 (A) (A) (A) (A) (A) (A) (A) (A) (A) (A) (A) (A)
                 (A) (A) (A) (A) (A) (A) (A) (A) (A) (A) (A) (A)
                 (A) (A) (A) (A) (A) (A) (A) (A) (A) (A) (A) (A)
                 (A) (A) (A) (A) (A) (A) (A) (A) (A) (A) (A) (A)
                 (A) (A) (A) (A) (A) (A) (A) (A) (A) (A) (A) (A)
                 (A) (A) (A) (A) (A) (A) (A) (A) (A) (A) (A) (A)
                 (A) (A) (A) (A) (A) (A) (A) (A) (A) (A) (A) (A)
                 (A) (A) (A) (A) (A) (A) (A) (A) (A) (A) (A) (A)
                 (A) (A) (A) (A) (A) (A) (A) (A) (A) (A) (A) (A)
                 (A) (A) (A) (A) (A) (A) (A) (A) (A) (A) (A) (A)
                 (A) (A) (A) (A) (A) (A) (A) (A) (A) (A) (A) (A)
                 (A) (A) (A) (A) (A) (A) (A) (A) (A) (A) (A) (A)
                 (A) (A) (A) (A) (A) (A) (A) (A) (A) (A) (A) (A)
                 (A) (A) (A) (A) (A) (A) (A) (A) (A) (A) (A) (A)
                 (A) (A) (A) (A) (A) (A) (A) (A) (A) (A) (A) (A)
                 (A) (A) (A) (A) (A) (A) (A) (A) (A) (A) (A) (A)
                 (A) (A) (A) (A) (A) (A) (A) (A) (A) (A) (A) (A)
                 (A) (A) (A) (A) (A) (A) (A) (A) (A) (A) (A) (A)
                 (A) (A) (A) (A) (A) (A) (A) (A) (A) (A) (A) (A)
                 (A) (A) (A) (A) (A) (A) (A) (A) (A) (A) (A) (A)
                 (A) (A) (A) (A) (A) (A) (A) (A) (A) (A) (A) (A)
                 (A) (A) (A) (A) (A) (A) (A) (A) (A) (A) (A) (A)
                 (A) (A) (A) (A) (A) (A) (A) (A) (A) (A) (A) (A)
                 (A) (A) (A) (A) (A) (A) (A) (A) (A) (A) (A) (A)
                 (A) (A) (A) (A) (A) (A) (A) (A) (A) (A) (A) (A)
                 (A) (A) (A) (A) (A) (A) (A) (A) (A) (A) (A) (A)
                 (A) (A) (A) (A) (A) (A) (A) (A) (A) (A) (A) (A)
                 (A) (A) (A) (A) (A) (A) (A) (A) (A) (A) (A) (A)
                 (A) (A) (A) (A) (A) (A) (A) (A) (A) (A) (A) (A)
                 (A) (A) (A) (A) (A) (A) (A) (A) (A) (A) (A) (A)
                 (A) (A) (A) (A) (A) (A) (A) (A) (A) (A) (A) (A)
                 (A) (A) (A) (A) (A) (A) (A) (A) (A) (A) (A) (A)
                 (A) (A) (A) (A) (A) (A) (A) (A) (A) (A) (A) (A)
                 (A) (A) (A) (A) (A) (A) (A) (A) (A) (A) (A) (A)
                 (A) (A) (A) (A) (A) (A) (A) (A) (A) (A) (A) (A)
                 (A) (A) (A) (A) (A) (A) (A) (A) (A) (A) (A) (A)
                 (A) (A) (A) (A) (A) (A) (A) (A) (A) (A) (A) (A)
                 (A) (A) (A) (A) (A) (A) (A) (A) (A) (A) (A) (A)
                 (A) (A) (A) (A) (A) (A) (A) (A) (A) (A) (A) (A)
                 (A) (A) (A) (A) (A) (A) (A) (A) (A) (A) (A) (A)
                 (A) (A) (A) (A) (A) (A) (A) (A) (A) (A) (A) (A)
                 (A) (A) (A) (A) (A) (A) (A) (A) (A) (A) (A) (A)
                 (A) (A) (A) (A) (A) (A)
 The electronic state is 1-A.
 Alpha  occ. eigenvalues -- -256.17439 -30.02405 -25.86577 -25.86188 -25.86130
 Alpha  occ. eigenvalues --  -19.17056 -14.41527 -14.36182 -14.33178 -14.32996
 Alpha  occ. eigenvalues --  -14.32990 -14.32709 -10.25218 -10.23494 -10.20936
 Alpha  occ. eigenvalues --  -10.20716 -10.20695 -10.20681 -10.20627 -10.20595
 Alpha  occ. eigenvalues --  -10.20573 -10.20455 -10.20367 -10.20359 -10.19533
 Alpha  occ. eigenvalues --  -10.19285 -10.18756 -10.18693 -10.18691 -10.18640
 Alpha  occ. eigenvalues --  -10.18628 -10.18625 -10.18566 -10.18414 -10.18386
 Alpha  occ. eigenvalues --  -10.18374 -10.18306 -10.18277 -10.18231 -10.18114
 Alpha  occ. eigenvalues --  -10.18057 -10.18056 -10.17987 -10.17982 -10.17889
 Alpha  occ. eigenvalues --  -10.17868  -3.40002  -2.16651  -2.15872  -2.15785
 Alpha  occ. eigenvalues --   -1.05124  -1.04868  -0.96642  -0.95736  -0.95620
 Alpha  occ. eigenvalues --   -0.94703  -0.90716  -0.82013  -0.81564  -0.81242
 Alpha  occ. eigenvalues --   -0.80598  -0.80193  -0.80041  -0.79373  -0.79280
 Alpha  occ. eigenvalues --   -0.76693  -0.75509  -0.74114  -0.73665  -0.72995
 Alpha  occ. eigenvalues --   -0.71641  -0.70556  -0.69814  -0.68166  -0.67701
 Alpha  occ. eigenvalues --   -0.67596  -0.64366  -0.64081  -0.63678  -0.61090
 Alpha  occ. eigenvalues --   -0.60511  -0.60408  -0.59977  -0.57362  -0.56328
 Alpha  occ. eigenvalues --   -0.55713  -0.54206  -0.53865  -0.53151  -0.51824
 Alpha  occ. eigenvalues --   -0.51012  -0.50451  -0.50085  -0.48219  -0.47812
 Alpha  occ. eigenvalues --   -0.47581  -0.47308  -0.47045  -0.45935  -0.44628
 Alpha  occ. eigenvalues --   -0.44474  -0.44252  -0.43909  -0.43446  -0.43310
 Alpha  occ. eigenvalues --   -0.43072  -0.42980  -0.42767  -0.42586  -0.42396
 Alpha  occ. eigenvalues --   -0.42286  -0.41860  -0.41580  -0.41464  -0.41378
 Alpha  occ. eigenvalues --   -0.41128  -0.40938  -0.40071  -0.39816  -0.39755
 Alpha  occ. eigenvalues --   -0.39416  -0.39226  -0.39000  -0.38806  -0.38410
 Alpha  occ. eigenvalues --   -0.38069  -0.37521  -0.37453  -0.36999  -0.36650
 Alpha  occ. eigenvalues --   -0.36578  -0.35705  -0.35589  -0.35107  -0.34221
 Alpha  occ. eigenvalues --   -0.34027  -0.33731  -0.33438  -0.33218  -0.31915
 Alpha  occ. eigenvalues --   -0.31461  -0.30952  -0.29693  -0.29440  -0.28707
 Alpha  occ. eigenvalues --   -0.28316  -0.26494  -0.26341  -0.24271  -0.23607
 Alpha  occ. eigenvalues --   -0.23195  -0.22441  -0.21836  -0.19017  -0.18229
 Alpha  occ. eigenvalues --   -0.17758  -0.17606  -0.17535
 Alpha virt. eigenvalues --   -0.06346  -0.06122  -0.01766   0.00616   0.01225
 Alpha virt. eigenvalues --    0.01698   0.02427   0.03127   0.03658   0.04704
 Alpha virt. eigenvalues --    0.04932   0.05374   0.05506   0.05861   0.06106
 Alpha virt. eigenvalues --    0.06503   0.06635   0.07197   0.08080   0.08158
 Alpha virt. eigenvalues --    0.08425   0.09227   0.09350   0.09478   0.09614
 Alpha virt. eigenvalues --    0.09996   0.10283   0.10765   0.10837   0.11500
 Alpha virt. eigenvalues --    0.11655   0.11905   0.12057   0.12210   0.12472
 Alpha virt. eigenvalues --    0.12609   0.12947   0.13248   0.13426   0.13628
 Alpha virt. eigenvalues --    0.13862   0.14024   0.14506   0.14671   0.14942
 Alpha virt. eigenvalues --    0.15049   0.15340   0.15507   0.15668   0.15814
 Alpha virt. eigenvalues --    0.16034   0.16124   0.16181   0.16514   0.16613
 Alpha virt. eigenvalues --    0.17124   0.17305   0.17478   0.17888   0.18145
 Alpha virt. eigenvalues --    0.18548   0.18959   0.19291   0.19484   0.19798
 Alpha virt. eigenvalues --    0.20026   0.20262   0.20356   0.20679   0.20934
 Alpha virt. eigenvalues --    0.21161   0.21495   0.21643   0.21926   0.22426
 Alpha virt. eigenvalues --    0.22540   0.23092   0.23297   0.23456   0.23846
 Alpha virt. eigenvalues --    0.24308   0.24619   0.25091   0.25174   0.25554
 Alpha virt. eigenvalues --    0.25603   0.25804   0.26160   0.26639   0.26918
 Alpha virt. eigenvalues --    0.27084   0.27716   0.27793   0.27827   0.28070
 Alpha virt. eigenvalues --    0.28553   0.29059   0.29154   0.29272   0.29461
 Alpha virt. eigenvalues --    0.29793   0.29884   0.30372   0.30636   0.30786
 Alpha virt. eigenvalues --    0.31032   0.31215   0.31395   0.31744   0.32142
 Alpha virt. eigenvalues --    0.32598   0.32974   0.33222   0.33352   0.33695
 Alpha virt. eigenvalues --    0.33899   0.34264   0.34414   0.34760   0.35041
 Alpha virt. eigenvalues --    0.35474   0.35584   0.35934   0.36262   0.36529
 Alpha virt. eigenvalues --    0.36732   0.37085   0.37138   0.37261   0.37654
 Alpha virt. eigenvalues --    0.37806   0.38132   0.38201   0.38950   0.39291
 Alpha virt. eigenvalues --    0.39472   0.39492   0.39694   0.39744   0.40209
 Alpha virt. eigenvalues --    0.40475   0.40728   0.40820   0.41057   0.41221
 Alpha virt. eigenvalues --    0.41596   0.41624   0.41937   0.42255   0.42552
 Alpha virt. eigenvalues --    0.42679   0.42904   0.43113   0.43362   0.43417
 Alpha virt. eigenvalues --    0.43597   0.43840   0.44208   0.44356   0.44552
 Alpha virt. eigenvalues --    0.44716   0.44961   0.45190   0.45513   0.45766
 Alpha virt. eigenvalues --    0.46024   0.46442   0.46629   0.46916   0.46959
 Alpha virt. eigenvalues --    0.47024   0.47201   0.47523   0.47587   0.47665
 Alpha virt. eigenvalues --    0.47962   0.48145   0.48219   0.48510   0.48825
 Alpha virt. eigenvalues --    0.49295   0.49326   0.49593   0.49820   0.49952
 Alpha virt. eigenvalues --    0.50057   0.50371   0.50774   0.50860   0.51164
 Alpha virt. eigenvalues --    0.51322   0.51493   0.51565   0.51735   0.52030
 Alpha virt. eigenvalues --    0.52161   0.52804   0.52863   0.53157   0.53202
 Alpha virt. eigenvalues --    0.53360   0.53611   0.54308   0.54356   0.54580
 Alpha virt. eigenvalues --    0.54648   0.54855   0.55261   0.55687   0.55968
 Alpha virt. eigenvalues --    0.56277   0.56430   0.56629   0.56971   0.57544
 Alpha virt. eigenvalues --    0.57707   0.58038   0.58179   0.58280   0.58455
 Alpha virt. eigenvalues --    0.59078   0.59219   0.59656   0.59759   0.60156
 Alpha virt. eigenvalues --    0.60496   0.60671   0.61095   0.61299   0.61824
 Alpha virt. eigenvalues --    0.62008   0.62451   0.62636   0.63180   0.63395
 Alpha virt. eigenvalues --    0.63561   0.64172   0.64415   0.64615   0.64701
 Alpha virt. eigenvalues --    0.65020   0.65364   0.65601   0.65783   0.66031
 Alpha virt. eigenvalues --    0.66522   0.66857   0.67200   0.67623   0.68111
 Alpha virt. eigenvalues --    0.68515   0.68630   0.68932   0.69635   0.69996
 Alpha virt. eigenvalues --    0.70137   0.70625   0.70945   0.71163   0.71436
 Alpha virt. eigenvalues --    0.71577   0.71818   0.71953   0.72479   0.72669
 Alpha virt. eigenvalues --    0.73596   0.73757   0.74014   0.74382   0.74620
 Alpha virt. eigenvalues --    0.75035   0.75263   0.75582   0.75881   0.76280
 Alpha virt. eigenvalues --    0.76463   0.76888   0.77258   0.77651   0.77831
 Alpha virt. eigenvalues --    0.78193   0.78353   0.78406   0.79036   0.79260
 Alpha virt. eigenvalues --    0.79515   0.79759   0.80377   0.80631   0.81062
 Alpha virt. eigenvalues --    0.81179   0.81954   0.82413   0.82669   0.82939
 Alpha virt. eigenvalues --    0.83312   0.83420   0.84017   0.84333   0.85259
 Alpha virt. eigenvalues --    0.85314   0.86038   0.86173   0.86834   0.87132
 Alpha virt. eigenvalues --    0.87369   0.87658   0.87856   0.88139   0.88852
 Alpha virt. eigenvalues --    0.89432   0.89696   0.89800   0.90606   0.90644
 Alpha virt. eigenvalues --    0.91626   0.91776   0.92008   0.92469   0.92594
 Alpha virt. eigenvalues --    0.93126   0.93618   0.93955   0.94262   0.94602
 Alpha virt. eigenvalues --    0.94750   0.95568   0.95734   0.95961   0.96372
 Alpha virt. eigenvalues --    0.96570   0.96888   0.97350   0.98003   0.98220
 Alpha virt. eigenvalues --    0.98719   0.98910   0.99253   0.99491   0.99631
 Alpha virt. eigenvalues --    1.00021   1.00609   1.00904   1.01284   1.01803
 Alpha virt. eigenvalues --    1.02252   1.02662   1.02752   1.02871   1.02993
 Alpha virt. eigenvalues --    1.03285   1.03537   1.03868   1.03994   1.04515
 Alpha virt. eigenvalues --    1.04770   1.05027   1.05536   1.05728   1.06405
 Alpha virt. eigenvalues --    1.06520   1.06633   1.07060   1.07636   1.08274
 Alpha virt. eigenvalues --    1.08560   1.08752   1.09225   1.09500   1.09728
 Alpha virt. eigenvalues --    1.10414   1.10872   1.11209   1.11747   1.12012
 Alpha virt. eigenvalues --    1.12224   1.12483   1.13337   1.13659   1.14613
 Alpha virt. eigenvalues --    1.14776   1.14829   1.15999   1.16506   1.16606
 Alpha virt. eigenvalues --    1.16948   1.17436   1.17634   1.17939   1.18880
 Alpha virt. eigenvalues --    1.19047   1.19381   1.19753   1.19989   1.20390
 Alpha virt. eigenvalues --    1.21040   1.21314   1.21839   1.22296   1.22721
 Alpha virt. eigenvalues --    1.22868   1.23486   1.23780   1.24314   1.24866
 Alpha virt. eigenvalues --    1.25297   1.25727   1.26083   1.26598   1.26991
 Alpha virt. eigenvalues --    1.27601   1.27800   1.28166   1.28326   1.28400
 Alpha virt. eigenvalues --    1.29026   1.29453   1.30175   1.30349   1.30582
 Alpha virt. eigenvalues --    1.30927   1.31020   1.31681   1.32284   1.32669
 Alpha virt. eigenvalues --    1.32824   1.33215   1.33541   1.34280   1.34676
 Alpha virt. eigenvalues --    1.35025   1.36129   1.36734   1.37410   1.38047
 Alpha virt. eigenvalues --    1.38300   1.38552   1.39574   1.40140   1.40353
 Alpha virt. eigenvalues --    1.41018   1.41385   1.41912   1.42360   1.42938
 Alpha virt. eigenvalues --    1.43828   1.44149   1.45034   1.45121   1.45458
 Alpha virt. eigenvalues --    1.46231   1.46503   1.46796   1.46986   1.47106
 Alpha virt. eigenvalues --    1.48173   1.48500   1.49143   1.49712   1.49962
 Alpha virt. eigenvalues --    1.50127   1.50580   1.50709   1.50812   1.51237
 Alpha virt. eigenvalues --    1.51399   1.51665   1.52064   1.52226   1.52504
 Alpha virt. eigenvalues --    1.52823   1.52939   1.53133   1.53327   1.53609
 Alpha virt. eigenvalues --    1.53734   1.54149   1.54273   1.54617   1.55021
 Alpha virt. eigenvalues --    1.55268   1.55470   1.55561   1.55756   1.56123
 Alpha virt. eigenvalues --    1.56303   1.56603   1.56852   1.56924   1.57314
 Alpha virt. eigenvalues --    1.57687   1.57991   1.58396   1.58455   1.58712
 Alpha virt. eigenvalues --    1.58987   1.59507   1.59755   1.59850   1.60377
 Alpha virt. eigenvalues --    1.60639   1.61210   1.61406   1.61789   1.62218
 Alpha virt. eigenvalues --    1.62522   1.63046   1.63347   1.63453   1.63676
 Alpha virt. eigenvalues --    1.63926   1.64135   1.64325   1.64631   1.64959
 Alpha virt. eigenvalues --    1.65182   1.65713   1.65761   1.66337   1.66837
 Alpha virt. eigenvalues --    1.67030   1.67358   1.67738   1.68256   1.68695
 Alpha virt. eigenvalues --    1.69133   1.69388   1.69792   1.70214   1.70545
 Alpha virt. eigenvalues --    1.70688   1.70975   1.71248   1.71400   1.72055
 Alpha virt. eigenvalues --    1.72557   1.73213   1.73277   1.73701   1.74192
 Alpha virt. eigenvalues --    1.74410   1.74911   1.75091   1.76201   1.76716
 Alpha virt. eigenvalues --    1.76941   1.77860   1.78607   1.79169   1.79659
 Alpha virt. eigenvalues --    1.79713   1.80035   1.80873   1.81297   1.81969
 Alpha virt. eigenvalues --    1.82331   1.83374   1.83636   1.84315   1.84783
 Alpha virt. eigenvalues --    1.85064   1.85208   1.85884   1.86050   1.86262
 Alpha virt. eigenvalues --    1.86895   1.87333   1.87501   1.88119   1.88523
 Alpha virt. eigenvalues --    1.89094   1.89266   1.89768   1.90441   1.91012
 Alpha virt. eigenvalues --    1.91443   1.91650   1.92777   1.92979   1.93811
 Alpha virt. eigenvalues --    1.94090   1.94788   1.94860   1.95209   1.95352
 Alpha virt. eigenvalues --    1.96019   1.96517   1.96727   1.97407   1.97895
 Alpha virt. eigenvalues --    1.98743   1.99079   1.99590   1.99940   2.00272
 Alpha virt. eigenvalues --    2.00544   2.00757   2.00896   2.01392   2.01750
 Alpha virt. eigenvalues --    2.02498   2.02990   2.03442   2.03634   2.04721
 Alpha virt. eigenvalues --    2.04988   2.05478   2.05585   2.06637   2.06982
 Alpha virt. eigenvalues --    2.07384   2.08224   2.08856   2.08966   2.09493
 Alpha virt. eigenvalues --    2.09645   2.10226   2.10321   2.10681   2.11168
 Alpha virt. eigenvalues --    2.11691   2.12293   2.12895   2.13461   2.13754
 Alpha virt. eigenvalues --    2.14473   2.15085   2.15219   2.15473   2.16010
 Alpha virt. eigenvalues --    2.16646   2.16874   2.17635   2.17902   2.18612
 Alpha virt. eigenvalues --    2.18760   2.18855   2.19673   2.20243   2.20670
 Alpha virt. eigenvalues --    2.20790   2.21077   2.22042   2.22311   2.22769
 Alpha virt. eigenvalues --    2.23545   2.24479   2.25430   2.25585   2.25627
 Alpha virt. eigenvalues --    2.25782   2.26169   2.27295   2.27662   2.28131
 Alpha virt. eigenvalues --    2.28520   2.29040   2.29145   2.29667   2.29904
 Alpha virt. eigenvalues --    2.30474   2.30692   2.30818   2.31824   2.32117
 Alpha virt. eigenvalues --    2.32441   2.33045   2.33496   2.33880   2.34119
 Alpha virt. eigenvalues --    2.34592   2.35182   2.35501   2.35903   2.36039
 Alpha virt. eigenvalues --    2.36259   2.36815   2.37139   2.37363   2.37836
 Alpha virt. eigenvalues --    2.38734   2.39214   2.39389   2.39981   2.40138
 Alpha virt. eigenvalues --    2.41009   2.41278   2.41668   2.42358   2.42805
 Alpha virt. eigenvalues --    2.43092   2.43548   2.44365   2.44792   2.45302
 Alpha virt. eigenvalues --    2.45615   2.46238   2.46563   2.46847   2.46978
 Alpha virt. eigenvalues --    2.47690   2.48021   2.48310   2.48669   2.49130
 Alpha virt. eigenvalues --    2.49753   2.50375   2.50728   2.51093   2.51750
 Alpha virt. eigenvalues --    2.51961   2.52523   2.52743   2.52955   2.53240
 Alpha virt. eigenvalues --    2.53582   2.53902   2.54150   2.55158   2.55960
 Alpha virt. eigenvalues --    2.56051   2.56502   2.56599   2.57160   2.57482
 Alpha virt. eigenvalues --    2.57739   2.58041   2.58734   2.58994   2.59172
 Alpha virt. eigenvalues --    2.59681   2.59973   2.60254   2.60627   2.60860
 Alpha virt. eigenvalues --    2.61145   2.61384   2.62003   2.62522   2.62831
 Alpha virt. eigenvalues --    2.63246   2.63418   2.64331   2.64751   2.65327
 Alpha virt. eigenvalues --    2.65354   2.66201   2.66471   2.66915   2.67367
 Alpha virt. eigenvalues --    2.67422   2.68240   2.68664   2.68720   2.68971
 Alpha virt. eigenvalues --    2.69561   2.69976   2.70352   2.71325   2.71680
 Alpha virt. eigenvalues --    2.72125   2.72231   2.72510   2.73094   2.73475
 Alpha virt. eigenvalues --    2.73804   2.74641   2.74836   2.75027   2.75477
 Alpha virt. eigenvalues --    2.76212   2.76893   2.77028   2.77226   2.77917
 Alpha virt. eigenvalues --    2.78406   2.78818   2.79425   2.79616   2.79996
 Alpha virt. eigenvalues --    2.80740   2.80898   2.81221   2.81583   2.82197
 Alpha virt. eigenvalues --    2.82413   2.82948   2.83273   2.83811   2.84241
 Alpha virt. eigenvalues --    2.84576   2.84922   2.84971   2.85450   2.86515
 Alpha virt. eigenvalues --    2.86933   2.87207   2.87606   2.87925   2.88361
 Alpha virt. eigenvalues --    2.88873   2.89052   2.89291   2.89751   2.89945
 Alpha virt. eigenvalues --    2.90097   2.90349   2.90551   2.91063   2.91611
 Alpha virt. eigenvalues --    2.92396   2.92665   2.92873   2.93382   2.94033
 Alpha virt. eigenvalues --    2.94616   2.94710   2.94774   2.95177   2.95872
 Alpha virt. eigenvalues --    2.96135   2.96288   2.96853   2.97084   2.97320
 Alpha virt. eigenvalues --    2.97564   2.98381   2.98523   2.99026   2.99152
 Alpha virt. eigenvalues --    2.99499   2.99799   3.00746   3.01097   3.01334
 Alpha virt. eigenvalues --    3.01837   3.02028   3.02191   3.02734   3.02991
 Alpha virt. eigenvalues --    3.03593   3.03921   3.04458   3.05208   3.05476
 Alpha virt. eigenvalues --    3.05959   3.06393   3.06600   3.06920   3.07055
 Alpha virt. eigenvalues --    3.07639   3.08004   3.08249   3.08355   3.08926
 Alpha virt. eigenvalues --    3.09429   3.09570   3.09710   3.10057   3.10611
 Alpha virt. eigenvalues --    3.11166   3.11239   3.11629   3.11958   3.12059
 Alpha virt. eigenvalues --    3.12289   3.12390   3.12968   3.13421   3.14063
 Alpha virt. eigenvalues --    3.14573   3.14860   3.15019   3.15461   3.15548
 Alpha virt. eigenvalues --    3.15967   3.16203   3.16540   3.16809   3.17161
 Alpha virt. eigenvalues --    3.17352   3.17842   3.18278   3.18746   3.19047
 Alpha virt. eigenvalues --    3.19220   3.19514   3.19950   3.20367   3.20509
 Alpha virt. eigenvalues --    3.20875   3.21383   3.21654   3.21948   3.22307
 Alpha virt. eigenvalues --    3.22619   3.22956   3.23130   3.23952   3.24175
 Alpha virt. eigenvalues --    3.24332   3.24986   3.25204   3.25206   3.25391
 Alpha virt. eigenvalues --    3.25844   3.25983   3.26341   3.26599   3.26837
 Alpha virt. eigenvalues --    3.26963   3.27168   3.27514   3.27632   3.28031
 Alpha virt. eigenvalues --    3.28446   3.28713   3.29099   3.29423   3.29521
 Alpha virt. eigenvalues --    3.29581   3.30130   3.30352   3.30599   3.31092
 Alpha virt. eigenvalues --    3.31145   3.31355   3.31849   3.32077   3.32502
 Alpha virt. eigenvalues --    3.32632   3.32974   3.33069   3.33504   3.33811
 Alpha virt. eigenvalues --    3.34182   3.34311   3.34675   3.35156   3.35250
 Alpha virt. eigenvalues --    3.35598   3.36161   3.36472   3.36537   3.36870
 Alpha virt. eigenvalues --    3.37040   3.37295   3.37777   3.38482   3.38562
 Alpha virt. eigenvalues --    3.38830   3.38941   3.38998   3.39123   3.39722
 Alpha virt. eigenvalues --    3.39856   3.40305   3.40412   3.40598   3.41217
 Alpha virt. eigenvalues --    3.41494   3.41869   3.42417   3.42579   3.43061
 Alpha virt. eigenvalues --    3.43579   3.43933   3.44396   3.44647   3.44947
 Alpha virt. eigenvalues --    3.45616   3.45691   3.46588   3.46834   3.47085
 Alpha virt. eigenvalues --    3.47772   3.48130   3.48681   3.48766   3.49537
 Alpha virt. eigenvalues --    3.49950   3.50152   3.50515   3.50674   3.51160
 Alpha virt. eigenvalues --    3.52322   3.52834   3.53709   3.53963   3.54524
 Alpha virt. eigenvalues --    3.54628   3.54733   3.54869   3.55809   3.56409
 Alpha virt. eigenvalues --    3.56509   3.57334   3.57616   3.58109   3.58279
 Alpha virt. eigenvalues --    3.59219   3.59626   3.60385   3.60561   3.60677
 Alpha virt. eigenvalues --    3.61545   3.61632   3.62285   3.62771   3.63358
 Alpha virt. eigenvalues --    3.63482   3.64489   3.64664   3.65637   3.65932
 Alpha virt. eigenvalues --    3.66182   3.66423   3.66951   3.67183   3.67448
 Alpha virt. eigenvalues --    3.68378   3.68838   3.69202   3.69526   3.70077
 Alpha virt. eigenvalues --    3.70523   3.70818   3.71219   3.71555   3.71905
 Alpha virt. eigenvalues --    3.72069   3.72738   3.73070   3.73501   3.73901
 Alpha virt. eigenvalues --    3.74557   3.74636   3.75301   3.75756   3.75937
 Alpha virt. eigenvalues --    3.76496   3.76929   3.77365   3.77890   3.78266
 Alpha virt. eigenvalues --    3.79446   3.79666   3.80258   3.81298   3.81781
 Alpha virt. eigenvalues --    3.82485   3.82584   3.82869   3.83788   3.83904
 Alpha virt. eigenvalues --    3.84700   3.84895   3.86008   3.86668   3.87319
 Alpha virt. eigenvalues --    3.87951   3.88583   3.89450   3.90209   3.90776
 Alpha virt. eigenvalues --    3.91185   3.91347   3.92062   3.92118   3.92161
 Alpha virt. eigenvalues --    3.92569   3.93548   3.94638   3.94742   3.95463
 Alpha virt. eigenvalues --    3.97008   3.97337   3.97884   3.98340   3.99217
 Alpha virt. eigenvalues --    3.99786   4.00248   4.00649   4.01239   4.01522
 Alpha virt. eigenvalues --    4.01965   4.03374   4.03603   4.04079   4.04374
 Alpha virt. eigenvalues --    4.05252   4.05885   4.06324   4.06400   4.07126
 Alpha virt. eigenvalues --    4.07744   4.08862   4.09570   4.10606   4.11431
 Alpha virt. eigenvalues --    4.12068   4.12489   4.13497   4.14182   4.14489
 Alpha virt. eigenvalues --    4.15202   4.16320   4.16420   4.16939   4.17692
 Alpha virt. eigenvalues --    4.18049   4.18421   4.18948   4.19400   4.19626
 Alpha virt. eigenvalues --    4.20359   4.20527   4.21097   4.21636   4.22207
 Alpha virt. eigenvalues --    4.22267   4.22788   4.22903   4.23428   4.25130
 Alpha virt. eigenvalues --    4.25716   4.26618   4.27103   4.27719   4.27885
 Alpha virt. eigenvalues --    4.29021   4.29907   4.30378   4.30657   4.31028
 Alpha virt. eigenvalues --    4.31814   4.31964   4.33214   4.33762   4.34395
 Alpha virt. eigenvalues --    4.34638   4.34847   4.35525   4.36142   4.36801
 Alpha virt. eigenvalues --    4.38052   4.38610   4.39073   4.40294   4.40364
 Alpha virt. eigenvalues --    4.40901   4.41712   4.41816   4.42042   4.42430
 Alpha virt. eigenvalues --    4.42917   4.43477   4.43663   4.44028   4.44240
 Alpha virt. eigenvalues --    4.44877   4.45828   4.46007   4.46468   4.46844
 Alpha virt. eigenvalues --    4.47267   4.47748   4.48662   4.48935   4.49455
 Alpha virt. eigenvalues --    4.50605   4.51254   4.53212   4.53693   4.54395
 Alpha virt. eigenvalues --    4.54923   4.55958   4.56932   4.57146   4.57862
 Alpha virt. eigenvalues --    4.59286   4.59702   4.61383   4.63498   4.63869
 Alpha virt. eigenvalues --    4.64825   4.65973   4.66779   4.67353   4.68531
 Alpha virt. eigenvalues --    4.69270   4.69521   4.70067   4.70655   4.71479
 Alpha virt. eigenvalues --    4.72388   4.72496   4.73034   4.73572   4.75262
 Alpha virt. eigenvalues --    4.75717   4.76095   4.76117   4.78622   4.80692
 Alpha virt. eigenvalues --    4.81111   4.81469   4.83106   4.83395   4.83781
 Alpha virt. eigenvalues --    4.84438   4.85102   4.85573   4.86144   4.86605
 Alpha virt. eigenvalues --    4.86812   4.87620   4.88014   4.89530   4.90421
 Alpha virt. eigenvalues --    4.91377   4.92930   4.93445   4.94342   4.95163
 Alpha virt. eigenvalues --    4.95967   4.96197   4.97011   4.97980   4.98363
 Alpha virt. eigenvalues --    5.00071   5.00433   5.02323   5.03057   5.03489
 Alpha virt. eigenvalues --    5.04147   5.04813   5.05259   5.06102   5.06936
 Alpha virt. eigenvalues --    5.07302   5.08145   5.09547   5.10321   5.10889
 Alpha virt. eigenvalues --    5.11015   5.11738   5.13017   5.14786   5.16739
 Alpha virt. eigenvalues --    5.17562   5.19530   5.20699   5.21552   5.21909
 Alpha virt. eigenvalues --    5.22133   5.22506   5.23693   5.24999   5.25950
 Alpha virt. eigenvalues --    5.27549   5.27954   5.30014   5.30891   5.31706
 Alpha virt. eigenvalues --    5.33824   5.35508   5.36667   5.37773   5.38265
 Alpha virt. eigenvalues --    5.39099   5.39872   5.40825   5.41208   5.41431
 Alpha virt. eigenvalues --    5.43100   5.43538   5.44242   5.45696   5.47703
 Alpha virt. eigenvalues --    5.49602   5.50412   5.50962   5.52009   5.52385
 Alpha virt. eigenvalues --    5.52704   5.53611   5.57363   5.57763   5.61053
 Alpha virt. eigenvalues --    5.62079   5.62775   5.63087   5.63654   5.64916
 Alpha virt. eigenvalues --    5.66321   5.66610   5.68274   5.69127   5.69660
 Alpha virt. eigenvalues --    5.71621   5.75078   5.77043   5.77796   5.78656
 Alpha virt. eigenvalues --    5.81373   5.82123   5.89980   5.92256   5.92863
 Alpha virt. eigenvalues --    5.93903   5.97748   6.02251   6.02919   6.03976
 Alpha virt. eigenvalues --    6.09210   6.11152   6.12306   6.14236   6.14603
 Alpha virt. eigenvalues --    6.17803   6.19416   6.24640   6.26588   6.33887
 Alpha virt. eigenvalues --    6.35186   6.41003   6.46937   6.52943   6.55603
 Alpha virt. eigenvalues --    6.65491   6.97878   7.29152  22.35987  22.36639
 Alpha virt. eigenvalues --   22.44221  22.46223  22.46970  22.53427  22.55358
 Alpha virt. eigenvalues --   22.62593  22.63316  22.79222  22.85524  22.87872
 Alpha virt. eigenvalues --   22.91485  22.94167  22.94661  22.96505  22.97623
 Alpha virt. eigenvalues --   23.04832  23.05071  23.09006  23.16132  23.26840
 Alpha virt. eigenvalues --   23.28984  23.30257  23.31043  23.41456  23.43340
 Alpha virt. eigenvalues --   23.51803  23.53573  23.57882  23.75457  23.79849
 Alpha virt. eigenvalues --   23.81127  23.90463  32.41036  32.77935  32.91731
 Alpha virt. eigenvalues --   32.96662  33.04155  33.13256  44.07301
          Condensed to atoms (all electrons):
 Mulliken charges:
               1
     1  Fe  -0.228482
     2  N   -0.091438
     3  N    0.000838
     4  N   -0.043073
     5  N    0.004369
     6  C    0.202727
     7  C   -0.047733
     8  C   -0.027967
     9  C    0.273635
    10  C    0.250010
    11  C   -0.103813
    12  C    0.110252
    13  C    0.206196
    14  C    0.242032
    15  C   -0.055829
    16  C    0.054560
    17  C    0.279622
    18  C    0.228833
    19  C   -0.048567
    20  C   -0.035042
    21  C    0.213749
    22  C   -0.437361
    23  H    0.136939
    24  C   -0.579912
    25  H    0.133101
    26  C   -0.457991
    27  H    0.172104
    28  C   -0.532621
    29  H    0.117316
    30  C   -0.415370
    31  H    0.120080
    32  H    0.131340
    33  H    0.136111
    34  C   -0.413081
    35  H    0.134463
    36  H    0.134815
    37  H    0.119165
    38  C   -0.401599
    39  H    0.134756
    40  H    0.132915
    41  H    0.126577
    42  C   -0.248267
    43  H    0.115989
    44  C   -0.308521
    45  H    0.146679
    46  H    0.121521
    47  C   -0.447089
    48  H    0.131144
    49  H    0.140154
    50  H    0.155043
    51  C   -0.213630
    52  H    0.112508
    53  C   -0.290857
    54  H    0.138508
    55  H    0.121005
    56  C   -0.416173
    57  H    0.134654
    58  H    0.135481
    59  H    0.119328
    60  C   -0.415595
    61  H    0.119208
    62  H    0.134796
    63  H    0.132806
    64  O   -0.585491
    65  H    0.360648
    66  H    0.324063
    67  C   -0.392574
    68  H    0.134333
    69  H    0.146766
    70  H    0.134569
    71  N   -0.233049
    72  H    0.234640
    73  C    0.177544
    74  C    0.005168
    75  H    0.178377
    76  N    0.081147
    77  C   -0.226079
    78  H    0.164621
 Sum of Mulliken charges =  -0.00000
 Mulliken charges with hydrogens summed into heavy atoms:
               1
     1  Fe  -0.228482
     2  N   -0.091438
     3  N    0.000838
     4  N   -0.043073
     5  N    0.004369
     6  C    0.202727
     7  C   -0.047733
     8  C   -0.027967
     9  C    0.273635
    10  C    0.250010
    11  C   -0.103813
    12  C    0.110252
    13  C    0.206196
    14  C    0.242032
    15  C   -0.055829
    16  C    0.054560
    17  C    0.279622
    18  C    0.228833
    19  C   -0.048567
    20  C   -0.035042
    21  C    0.213749
    22  C   -0.300422
    24  C   -0.446810
    26  C   -0.285887
    28  C   -0.415305
    30  C   -0.027838
    34  C   -0.024638
    38  C   -0.007351
    42  C   -0.132278
    44  C   -0.040321
    47  C   -0.020749
    51  C   -0.101122
    53  C   -0.031344
    56  C   -0.026710
    60  C   -0.028784
    64  O    0.099220
    67  C    0.023094
    71  N    0.001592
    73  C    0.177544
    74  C    0.183545
    76  N    0.081147
    77  C   -0.061457
 Electronic spatial extent (au):  <R**2>=          19811.8505
 Charge=              0.0000 electrons
 Dipole moment (field-independent basis, Debye):
    X=              2.3571    Y=              0.2463    Z=              3.0974  Tot=              3.9001
 Quadrupole moment (field-independent basis, Debye-Ang):
   XX=           -243.0725   YY=           -241.9713   ZZ=           -222.6241
   XY=              2.8583   XZ=              0.7307   YZ=              0.6259
 Traceless Quadrupole moment (field-independent basis, Debye-Ang):
   XX=             -7.1832   YY=             -6.0820   ZZ=             13.2652
   XY=              2.8583   XZ=              0.7307   YZ=              0.6259
 Octapole moment (field-independent basis, Debye-Ang**2):
  XXX=             50.3137  YYY=            -18.2631  ZZZ=             94.9222  XYY=             15.3983
  XXY=              9.7882  XXZ=             -0.1835  XZZ=             32.6606  YZZ=              6.8903
  YYZ=            -10.3077  XYZ=              6.8516
 Hexadecapole moment (field-independent basis, Debye-Ang**3):
 XXXX=         -11999.7039 YYYY=         -11327.5898 ZZZZ=          -2774.8830 XXXY=            -40.6627
 XXXZ=           -105.3087 YYYX=             20.1471 YYYZ=            -55.2368 ZZZX=             59.1157
 ZZZY=             11.1495 XXYY=          -3872.2679 XXZZ=          -2668.6319 YYZZ=          -2581.7384
 XXYZ=             42.7037 YYXZ=             23.2172 ZZXY=             48.4586
 N-N= 5.977215431296D+03 E-N=-1.896889059878D+04  KE= 2.973886525869D+03
  Exact polarizability:     719.600       4.997     676.665      -7.006       8.058     312.307
 Approx polarizability:    1338.922      21.022    1268.780     -11.876      23.789     497.157

 ----------------------------------------------------------------------

 Electric dipole moment (input orientation):
 (Debye = 10**-18 statcoulomb cm , SI units = C m)
                  (au)            (Debye)         (10**-30 SI)
   Tot        0.153441D+01      0.390009D+01      0.130093D+02
   x          0.150845D+01      0.383409D+01      0.127891D+02
   y          0.284243D-01      0.722473D-01      0.240991D+00
   z          0.279649D+00      0.710796D+00      0.237096D+01

 Dipole polarizability, Alpha (input orientation).
 (esu units = cm**3 , SI units = C**2 m**2 J**-1)
 Alpha(0;0):
               (au)            (10**-24 esu)      (10**-40 SI)
   iso        0.569524D+03      0.843947D+02      0.939018D+02
   aniso      0.388151D+03      0.575181D+02      0.639975D+02
   xx         0.521251D+03      0.772415D+02      0.859427D+02
   yx         0.763515D+02      0.113141D+02      0.125887D+02
   yy         0.657815D+03      0.974781D+02      0.108459D+03
   zx        -0.188963D+03     -0.280014D+02     -0.311558D+02
   zy         0.531073D+02      0.786970D+01      0.875622D+01
   zz         0.529506D+03      0.784647D+02      0.873037D+02

 First dipole hyperpolarizability, Beta (input orientation).
 ||, _|_  parallel and perpendicular components, (z) with respect to z axis,
 vector components x,y,z.  Values do not include the 1/n! factor of 1/2.
 (esu units = statvolt**-1 cm**4 , SI units = C**3 m**3 J**-2)
 Beta(0;0,0):
               (au)            (10**-30 esu)      (10**-50 SI)
   || (z)     0.717960D+03      0.620262D+01      0.230204D+01
   _|_(z)     0.239320D+03      0.206754D+01      0.767346D+00
   x         -0.276020D+04     -0.238459D+02     -0.885019D+01
   y          0.301894D+03      0.260813D+01      0.967982D+00
   z          0.358980D+04      0.310131D+02      0.115102D+02
   ||         0.907667D+03      0.784154D+01      0.291031D+01
   xxx       -0.632365D+03     -0.546314D+01     -0.202759D+01
   xxy       -0.538050D+03     -0.464833D+01     -0.172518D+01
   yxy       -0.297781D+03     -0.257259D+01     -0.954793D+00
   yyy        0.373367D+03      0.322560D+01      0.119715D+01
   xxz        0.391999D+03      0.338657D+01      0.125689D+01
   yxz        0.116509D+03      0.100655D+01      0.373571D+00
   yyz        0.527890D+03      0.456056D+01      0.169261D+01
   zxz        0.100802D+02      0.870854D-01      0.323209D-01
   zyz        0.265314D+03      0.229211D+01      0.850692D+00
   zzz        0.276711D+03      0.239057D+01      0.887235D+00

 ----------------------------------------------------------------------

 Dipole orientation:
    26        167.03720844         16.89175961         55.23770792
     7        169.72569062         18.28130704         57.52081600
     7        165.26109575         20.24456164         55.24152168
     7        164.42327716         15.57102042         52.84393702
     7        168.82921480         13.57589867         55.18411860
     6        171.92120598         17.12683140         58.20436748
     6        173.50600181         18.82843698         59.63320683
     6        172.31420957         21.10723604         59.61657914
     6        169.99962277         20.75057819         58.21080546
     6        166.03617931         22.38295947         56.44121520
     6        164.24558986         24.39846957         56.07905604
     6        162.43811376         23.48683102         54.47057512
     6        163.14753789         20.89407686         53.93432382
     6        162.59901093         16.91685479         51.62580472
     6        161.32583604         15.39008513         49.76988386
     6        162.55778217         13.11387202         49.74399076
     6        164.50589630         13.29138752         51.66389736
     6        168.11070965         11.46110155         53.92065182
     6        169.73452752          9.35415388         54.55867319
     6        171.57567724         10.30491695         56.07636746
     6        171.01792222         12.96615682         56.38318217
     6        172.46291788         14.59540734         57.82198657
     1        174.19822961         13.87227720         58.61346569
     6        168.21286626         22.62365397         57.87368223
     1        168.61802388         24.46322525         58.65748933
     6        161.88729745         19.35709901         52.24553227
     1        160.33224316         20.18183749         51.21709916
     6        166.07571566         11.29714734         52.29686324
     1        165.77058483          9.51654469         51.34926130
     6        173.12730715         23.55424381         60.75094602
     1        174.95667429         23.36287422         61.66650197
     1        171.76391982         24.19447649         62.15731431
     1        173.27757775         25.01052118         59.30117496
     6        175.98000367         18.11461696         60.77467494
     1        177.28788975         17.46048258         59.32286885
     1        175.73333627         16.59282974         62.14119345
     1        176.83184698         19.71714259         61.73807139
     6        164.42683668         26.95622052         57.24313263
     1        166.15565440         27.90771983         56.64712779
     1        164.45540894         26.81853190         59.29895523
     1        162.81947377         28.11289666         56.69693726
     6        160.23112662         24.82614496         53.55648441
     1        160.53211165         26.80612164         53.11589552
     6        157.92914287         23.85981191         53.30053722
     1        157.50273796         21.93602749         53.80800653
     1        156.37373693         24.98191451         52.61565972
     6        159.25112108         16.28006650         48.09015203
     1        159.53158718         18.24908952         47.56259104
     1        157.42664795         16.12994792         49.03972729
     1        159.18659912         15.14007192         46.37966281
     6        162.11873530         10.92707802         48.16550096
     1        163.78702083          9.84438980         47.67432673
     6        159.88257438         10.17091652         47.30632474
     1        158.15448022         11.11927341         47.80477163
     1        159.70015633          8.53504434         46.10755015
     6        169.38060016          6.72919427         53.60225717
     1        169.59880869          6.66919235         51.55375251
     1        167.49556934          6.03820313         54.06239971
     1        170.76091915          5.45487077         54.43460104
     6        173.77737316          8.99741765         57.24878403
     1        173.76843726          6.99504549         56.78840756
     1        173.73055475          9.19465356         59.29888463
     1        175.54611457          9.80829336         56.57011421
     8        169.60554924         18.19628267         52.05076708
     1        171.10279611         18.59904723         52.98239543
     1        169.32883964         18.52080303         50.42525882
     6        161.11277274         11.52674653         62.09796631
     1        162.01056891         10.90522898         63.84455224
     1        160.89822829          9.90783294         60.85694249
     1        159.24330548         12.25759810         62.55956644
     7        163.23158957         15.75514666         61.93692145
     1        162.67571322         16.31297506         63.66881193
     6        162.66344492         13.48735126         60.82294580
     6        164.66001543         17.08968295         60.29114466
     1        165.38259682         18.94328494         60.65621374
     7        165.03014228         15.80495922         58.20611603
     6        163.79927308         13.56098460         58.50689369
     1        163.81491637         12.16147954         57.04671380

 Electric dipole moment (dipole orientation):
 (Debye = 10**-18 statcoulomb cm , SI units = C m)
                  (au)            (Debye)         (10**-30 SI)
   Tot        0.153441D+01      0.390009D+01      0.130093D+02
   x          0.000000D+00      0.000000D+00      0.000000D+00
   y          0.000000D+00      0.000000D+00      0.000000D+00
   z          0.153441D+01      0.390009D+01      0.130093D+02

 Dipole polarizability, Alpha (dipole orientation).
 (esu units = cm**3 , SI units = C**2 m**2 J**-1)
 Alpha(0;0):
               (au)            (10**-24 esu)      (10**-40 SI)
   iso        0.569524D+03      0.843947D+02      0.939018D+02
   aniso      0.388151D+03      0.575181D+02      0.639975D+02
   xx         0.598260D+03      0.886530D+02      0.986397D+02
   yx        -0.424021D+02     -0.628334D+01     -0.699116D+01
   yy         0.653312D+03      0.968108D+02      0.107717D+03
   zx         0.172803D+03      0.256068D+02      0.284914D+02
   zy         0.911466D+02      0.135065D+02      0.150280D+02
   zz         0.457000D+03      0.677204D+02      0.753491D+02

 First dipole hyperpolarizability, Beta (dipole orientation).
 ||, _|_  parallel and perpendicular components, (z) with respect to z axis,
 vector components x,y,z.  Values do not include the 1/n! factor of 1/2.
 (esu units = statvolt**-1 cm**4 , SI units = C**3 m**3 J**-2)
 Beta(0;0,0):
               (au)            (10**-30 esu)      (10**-50 SI)
   || (z)    -0.410730D+03     -0.354838D+01     -0.131695D+01
   _|_(z)    -0.136910D+03     -0.118279D+01     -0.438983D+00
   x         -0.403755D+04     -0.348813D+02     -0.129459D+02
   y          0.277824D+03      0.240019D+01      0.890806D+00
   z         -0.205365D+04     -0.177419D+02     -0.658474D+01
   ||         0.907667D+03      0.784154D+01      0.291031D+01
   xxx       -0.309431D+03     -0.267324D+01     -0.992148D+00
   xxy        0.211329D+03      0.182571D+01      0.677596D+00
   yxy       -0.563321D+03     -0.486665D+01     -0.180621D+01
   yyy        0.357560D+03      0.308904D+01      0.114647D+01
   xxz       -0.872737D+02     -0.753977D+00     -0.279831D+00
   yxz       -0.253167D+03     -0.218716D+01     -0.811744D+00
   yyz       -0.179983D+03     -0.155492D+01     -0.577092D+00
   zxz       -0.473099D+03     -0.408721D+01     -0.151693D+01
   zyz       -0.476280D+03     -0.411469D+01     -0.152713D+01
   zzz       -0.417292D+03     -0.360508D+01     -0.133799D+01

 ----------------------------------------------------------------------
 Unable to Open any file for archive entry.
 1\1\GINC-BGN1019\SP\RAPFD\def2TZVP\C34H36Fe1N6O1\BEBZHART\15-Jul-2024\
 0\\# polar def2tzvp apfd int=(grid=ultrafine)\\3wxo_II_S\\0,1\Fe,0,44.
 7334573102,8.1160526324,-81.7347453008\N,0,46.1695530553,8.8516221973,
 -82.9267844657\N,0,44.5365447737,9.9042790791,-80.8432709856\N,0,43.24
 64328107,7.4151917629,-80.5928363549\N,0,44.9057096546,6.3467514031,-8
 2.6396504954\C,0,46.7466420105,8.2296817273,-83.9916993079\C,0,47.6291
 719222,9.130959703,-84.6950238198\C,0,47.4868233083,10.3460498611,-84.
 098969208\C,0,46.5348341079,10.1624558442,-83.0269509221\C,0,45.218091
 8788,11.0409844033,-81.1517465399\C,0,44.8402943591,12.1182822968,-80.
 2749275415\C,0,43.8363614552,11.6349696848,-79.4808288946\C,0,43.64705
 40516,10.2523020402,-79.8761887175\C,0,42.4255447235,8.1300989904,-79.
 7744861018\C,0,41.3495139932,7.3145866503,-79.2761767188\C,0,41.473600
 0011,6.1001203903,-79.8972464666\C,0,42.6591126979,6.1969710266,-80.72
 72768016\C,0,44.1962592082,5.2214450703,-82.3669901403\C,0,44.70220209
 52,4.0998381625,-83.1295494691\C,0,45.661839618,4.6026841233,-83.95030
 51734\C,0,45.7458815263,6.0180969103,-83.6566459398\C,0,46.6206810105,
 6.8823345834,-84.2855729571\H,0,47.2059460785,6.4933953134,-85.1048991
 482\C,0,46.1715921096,11.1646168009,-82.1483151084\H,0,46.6034880159,1
 2.1421743609,-82.301527086\C,0,42.6593003308,9.4329222291,-79.36838956
 44\H,0,41.9673505963,9.871822575,-78.6666859474\C,0,43.1562908149,5.13
 53796359,-81.4633373281\H,0,42.6483667996,4.186596881,-81.3785364621\C
 ,0,48.1355425051,11.645066888,-84.4365460421\H,0,48.7901060111,11.5378
 91127,-85.298048297\H,0,48.7302488746,12.0086647618,-83.5979230407\H,0
 ,47.38398455,12.4000353387,-84.6688162996\C,0,48.4677882653,8.74435528
 51,-85.8649701992\H,0,47.8441962169,8.3734100702,-86.6789661161\H,0,49
 .167258763,7.954700227,-85.589939153\H,0,49.0381911911,9.5946295065,-8
 6.230914106\C,0,45.442531721,13.4813267183,-80.2820218831\H,0,45.29171
 91489,13.9647577231,-81.2481991814\H,0,46.5158985906,13.4284060323,-80
 .0972658899\H,0,44.9936941933,14.100983572,-79.5098515003\C,0,43.13672
 60664,12.3525275665,-78.4339920548\H,0,42.9204567782,13.393209578,-78.
 6524722065\C,0,42.789089182,11.857569722,-77.2516606599\H,0,43.0275779
 438,10.8482926938,-76.9620349715\H,0,42.2734068276,12.4571533719,-76.5
 195554821\C,0,40.2680148214,7.7858534077,-78.3675870045\H,0,40.0046079
 401,8.8200553606,-78.5836732526\H,0,40.5869902738,7.7306174104,-77.325
 4039047\H,0,39.3812401809,7.166527766,-78.487811266\C,0,40.6278492399,
 4.9313599655,-79.7996425759\H,0,40.5423059181,4.3401787776,-80.7042788
 231\C,0,39.9710443346,4.5411379776,-78.7117913003\H,0,40.0556887095,5.
 0618135283,-77.7740230607\H,0,39.3431286614,3.665458602,-78.7164710158
 \C,0,44.1918618099,2.7046819906,-83.011936596\H,0,43.1477515728,2.6510
 798637,-83.3224297508\H,0,44.2547826324,2.3590074708,-81.9801504712\H,
 0,44.768587393,2.0274426554,-83.6372433344\C,0,46.4950914024,3.9045323
 743,-84.9697874944\H,0,46.2710520916,2.8407900956,-84.9899102529\H,0,4
 7.5554689935,4.029353115,-84.7496466365\H,0,46.3062774398,4.3124343986
 ,-85.9633279661\O,0,43.3130000001,8.7540000003,-83.3909999999\H,0,43.9
 39,8.9639999999,-84.0839999999\H,0,42.4379999999,8.9119999996,-83.4069
 999999\C,0,47.7737660298,5.3933753492,-77.9385048914\H,0,48.774169226,
 5.0743810589,-78.2310193965\H,0,47.1206298228,4.5265151815,-77.9307126
 314\H,0,47.8273586552,5.7997766208,-76.9286126974\N,0,47.8601909846,7.
 6114490787,-79.0977421293\H,0,48.702915925,7.9280619006,-78.6470020555
 \C,0,47.2442806206,6.4054428337,-78.8873854254\C,0,47.131124597,8.2896
 736079,-80.0126471445\H,0,47.3757314528,9.2679615402,-80.3715120038\N,
 0,46.0926716734,7.586568356,-80.3936884088\C,0,46.1485361146,6.4124344
 284,-79.7023578126\H,0,45.4018370005,5.6576218913,-79.83760125\\Versio
 n=ES64L-G16RevC.02\State=1-A\HF=-2984.020257\RMSD=5.837e-09\Dipole=1.5
 084463,0.0284243,0.2796487\Polar=521.2513874,76.3515115,657.8146753,-1
 88.9629785,53.1073345,529.5057256\HyperPolar=-632.3648747,-538.0497148
 ,-297.7806827,373.3672197,391.9992764,116.5093763,527.8898526,10.08024
 32,265.3139105,276.7108916\Quadrupole=2.2671847,-3.0266208,0.7594362,-
 0.7726725,7.8545604,-2.9008024\PG=C01 [X(C34H36Fe1N6O1)]\\@
 The archive entry for this job was punched.


 A FOOL CAN ASK MORE QUESTIONS THAN
 A WISE MAN CAN ANSWER.
 Job cpu time:       2 days  6 hours 11 minutes 59.9 seconds.
 Elapsed time:       0 days  0 hours 46 minutes 55.5 seconds.
 File lengths (MBytes):  RWF=   1208 Int=      0 D2E=      0 Chk=    155 Scr=      1
 Normal termination of Gaussian 16 at Mon Jul 15 13:15:59 2024.
 Initial command:
 /sw/chem/gaussian/g16_C02/a100/g16/l1.exe "/local/bebzhart_7933244/Gau-1180352.inp" -scrdir="/local/bebzhart_7933244/"
 Entering Link 1 = /sw/chem/gaussian/g16_C02/a100/g16/l1.exe PID=   1181940.
  
 Copyright (c) 1988-2021, Gaussian, Inc.  All Rights Reserved.
  
 This is part of the Gaussian(R) 16 program.  It is based on
 the Gaussian(R) 09 system (copyright 2009, Gaussian, Inc.),
 the Gaussian(R) 03 system (copyright 2003, Gaussian, Inc.),
 the Gaussian(R) 98 system (copyright 1998, Gaussian, Inc.),
 the Gaussian(R) 94 system (copyright 1995, Gaussian, Inc.),
 the Gaussian 92(TM) system (copyright 1992, Gaussian, Inc.),
 the Gaussian 90(TM) system (copyright 1990, Gaussian, Inc.),
 the Gaussian 88(TM) system (copyright 1988, Gaussian, Inc.),
 the Gaussian 86(TM) system (copyright 1986, Carnegie Mellon
 University), and the Gaussian 82(TM) system (copyright 1983,
 Carnegie Mellon University). Gaussian is a federally registered
 trademark of Gaussian, Inc.
  
 This software contains proprietary and confidential information,
 including trade secrets, belonging to Gaussian, Inc.
  
 This software is provided under written license and may be
 used, copied, transmitted, or stored only in accord with that
 written license.
  
 The following legend is applicable only to US Government
 contracts under FAR:
  
                    RESTRICTED RIGHTS LEGEND
  
 Use, reproduction and disclosure by the US Government is
 subject to restrictions as set forth in subparagraphs (a)
 and (c) of the Commercial Computer Software - Restricted
 Rights clause in FAR 52.227-19.
  
 Gaussian, Inc.
 340 Quinnipiac St., Bldg. 40, Wallingford CT 06492
  
  
 ---------------------------------------------------------------
 Warning -- This program may not be used in any manner that
 competes with the business of Gaussian, Inc. or will provide
 assistance to any competitor of Gaussian, Inc.  The licensee
 of this program is prohibited from giving any competitor of
 Gaussian, Inc. access to this program.  By using this program,
 the user acknowledges that Gaussian, Inc. is engaged in the
 business of creating and licensing software in the field of
 computational chemistry and represents and warrants to the
 licensee that it is not a competitor of Gaussian, Inc. and that
 it will not use this program in any manner prohibited above.
 ---------------------------------------------------------------
  

 Cite this work as:
 Gaussian 16, Revision C.02,
 M. J. Frisch, G. W. Trucks, H. B. Schlegel, G. E. Scuseria, 
 M. A. Robb, J. R. Cheeseman, G. Scalmani, V. Barone, 
[...]
   142. CR (   1) C  73                  1.99915   -10.08744  1526(g),1409(v),1532(v)
                                                    1254(v)
   143. CR (   1) C  74                  1.99935   -10.11952  1382(v),1523(v),1531(v)
                                                    151(r),150(r),154(r)
   144. CR (   1) N  76                  1.99931   -14.15018  150(r),151(r),154(r),1350(v)
                                                    1407(v),1528(v),172(r)
                                                    168(r)
   145. CR (   1) C  77                  1.99898   -10.05719  1522(v),1324(v),1526(g)
                                                    1383(v),1327(v),1434(v)
                                                    150(r),151(r)
   163. LP (   1) N  71                  1.57970    -0.28266  1530(v),1527(v),1353(v)
                                                    1325(v),1319(v),1351(v)
                                                    169(r)
   164. LP (   1) N  76                  1.60878    -0.36249  150(r),151(r),154(r),1525(v)
                                                    1526(v),1350(v),1528(v)
                                                    1532(v),1529(g),1407(v)
                                                    1384(g),1531(g),170(r)
                                                    157(r),181(r),195(r),247(r)
                                                    244(r),273(r),221(r),194(r)
                                                    246(r),220(r),272(r),192(r)
                                                    1439(r),1446(r),1443(r)
                                                    1438(r),1441(r),1447(r)
                                                    1442(r),1444(r),218(r)
                                                    270(r),174(r),153(r),1448(r)
                                                    179(r)
  1252. RY*(   1) C  67                  0.00118     1.16072   
  1253. RY*(   2) C  67                  0.00078     2.01275   
  1254. RY*(   3) C  67                  0.00051     1.33637   
  1255. RY*(   4) C  67                  0.00012     1.25905   
  1256. RY*(   5) C  67                  0.00007     1.17104   
  1257. RY*(   6) C  67                  0.00008     2.33679   
  1258. RY*(   7) C  67                  0.00001     1.81012   
  1259. RY*(   8) C  67                  0.00001     1.90168   
  1260. RY*(   9) C  67                  0.00001     1.43514   
  1261. RY*(  10) C  67                  0.00000     3.08655   
  1262. RY*(  11) C  67                  0.00000     2.49644   
  1263. RY*(  12) C  67                  0.00001     1.45364   
  1264. RY*(  13) C  67                  0.00000     2.50285   
  1265. RY*(  14) C  67                  0.00000     3.06240   
  1266. RY*(  15) C  67                  0.00000     2.48240   
  1267. RY*(  16) C  67                  0.00000     2.36576   
  1268. RY*(  17) C  67                  0.00001     2.62041   
  1269. RY*(  18) C  67                  0.00000    21.59959   
  1270. RY*(  19) C  67                  0.00001     2.70704   
  1271. RY*(  20) C  67                  0.00000     3.68609   
  1272. RY*(  21) C  67                  0.00001     3.36658   
  1273. RY*(  22) C  67                  0.00001     3.43272   
  1274. RY*(  23) C  67                  0.00000     3.35575   
  1275. RY*(  24) C  67                  0.00000     3.72615   
  1276. RY*(  25) C  67                  0.00000     3.36658   
  1277. RY*(  26) C  67                  0.00000     3.28115   
  1278. RY*(   1) H  68                  0.00074     0.99931   
  1279. RY*(   2) H  68                  0.00015     1.69263   
  1280. RY*(   3) H  68                  0.00008     1.96338   
  1281. RY*(   4) H  68                  0.00006     2.01527   
  1282. RY*(   5) H  68                  0.00000     2.88227   
  1283. RY*(   1) H  69                  0.00024     1.38641   
  1284. RY*(   2) H  69                  0.00012     1.74361   
  1285. RY*(   3) H  69                  0.00008     2.05893   
  1286. RY*(   4) H  69                  0.00002     1.60457   
  1287. RY*(   5) H  69                  0.00001     2.85777   
  1288. RY*(   1) H  70                  0.00075     0.99092   
  1289. RY*(   2) H  70                  0.00015     1.69928   
  1290. RY*(   3) H  70                  0.00008     1.96713   
  1291. RY*(   4) H  70                  0.00006     2.01323   
  1292. RY*(   5) H  70                  0.00000     2.88269   
  1293. RY*(   1) N  71                  0.00282     0.67058   
  1294. RY*(   2) N  71                  0.00224     1.78035   
  1295. RY*(   3) N  71                  0.00100     2.07851   
  1296. RY*(   4) N  71                  0.00078     2.16266   
  1297. RY*(   5) N  71                  0.00052     1.16049   
  1298. RY*(   6) N  71                  0.00027     2.04859   
  1299. RY*(   7) N  71                  0.00020     1.70610   
  1300. RY*(   8) N  71                  0.00006     2.30433   
  1301. RY*(   9) N  71                  0.00007     2.33899   
  1302. RY*(  10) N  71                  0.00006     3.90714   
  1303. RY*(  11) N  71                  0.00004     2.93905   
  1304. RY*(  12) N  71                  0.00001     3.76559   
  1305. RY*(  13) N  71                  0.00000     2.63435   
  1306. RY*(  14) N  71                  0.00001     3.31295   
  1307. RY*(  15) N  71                  0.00001     4.09714   
  1308. RY*(  16) N  71                  0.00000     2.12611   
  1309. RY*(  17) N  71                  0.00000     4.06779   
  1310. RY*(  18) N  71                  0.00000     4.59646   
  1311. RY*(  19) N  71                  0.00000    30.67251   
  1312. RY*(  20) N  71                  0.00000     4.61472   
  1313. RY*(  21) N  71                  0.00000     4.57486   
  1314. RY*(  22) N  71                  0.00000     4.53118   
  1315. RY*(  23) N  71                  0.00000     4.29164   
  1316. RY*(  24) N  71                  0.00000     4.56957   
  1317. RY*(  25) N  71                  0.00000     4.51110   
  1318. RY*(  26) N  71                  0.00000     4.43909   
  1319. RY*(   1) H  72                  0.00058     2.15177   
  1320. RY*(   2) H  72                  0.00039     2.13373   
  1321. RY*(   3) H  72                  0.00030     1.05298   
  1322. RY*(   4) H  72                  0.00021     2.51151   
  1323. RY*(   5) H  72                  0.00001     3.08382   
  1324. RY*(   1) C  73                  0.00406     1.69618   
  1325. RY*(   2) C  73                  0.00262     0.97956   
  1326. RY*(   3) C  73                  0.00191     1.49960   
  1327. RY*(   4) C  73                  0.00162     2.02564   
  1328. RY*(   5) C  73                  0.00123     1.76300   
  1329. RY*(   6) C  73                  0.00110     1.71767   
  1330. RY*(   7) C  73                  0.00037     2.86089   
  1331. RY*(   8) C  73                  0.00019     2.79211   
  1332. RY*(   9) C  73                  0.00016     2.47873   
  1333. RY*(  10) C  73                  0.00007     3.63763   
  1334. RY*(  11) C  73                  0.00003     2.74610   
  1335. RY*(  12) C  73                  0.00001     1.59649   
  1336. RY*(  13) C  73                  0.00001     2.73421   
  1337. RY*(  14) C  73                  0.00001     1.92680   
  1338. RY*(  15) C  73                  0.00001     1.58701   
  1339. RY*(  16) C  73                  0.00000     1.07655   
  1340. RY*(  17) C  73                  0.00001     1.95713   
  1341. RY*(  18) C  73                  0.00000     3.48241   
  1342. RY*(  19) C  73                  0.00000    21.20817   
  1343. RY*(  20) C  73                  0.00000     4.10219   
  1344. RY*(  21) C  73                  0.00000     3.56826   
  1345. RY*(  22) C  73                  0.00000     3.55797   
  1346. RY*(  23) C  73                  0.00000     3.35402   
  1347. RY*(  24) C  73                  0.00000     3.76307   
  1348. RY*(  25) C  73                  0.00000     3.55023   
  1349. RY*(  26) C  73                  0.00000     3.53693   
  1350. RY*(   1) C  74                  0.00408     1.59669   
  1351. RY*(   2) C  74                  0.00330     0.66921   
  1352. RY*(   3) C  74                  0.00199     1.33659   
  1353. RY*(   4) C  74                  0.00126     2.59073   
  1354. RY*(   5) C  74                  0.00080     1.65570   
  1355. RY*(   6) C  74                  0.00039     1.70100   
  1356. RY*(   7) C  74                  0.00025     1.84533   
  1357. RY*(   8) C  74                  0.00009     2.73884   
  1358. RY*(   9) C  74                  0.00005     2.46527   
  1359. RY*(  10) C  74                  0.00005     1.95760   
  1360. RY*(  11) C  74                  0.00003     1.76336   
  1361. RY*(  12) C  74                  0.00004     3.36172   
  1362. RY*(  13) C  74                  0.00002     2.62654   
  1363. RY*(  14) C  74                  0.00002     3.87949   
  1364. RY*(  15) C  74                  0.00001     2.62022   
  1365. RY*(  16) C  74                  0.00000     3.14051   
  1366. RY*(  17) C  74                  0.00000     3.05740   
  1367. RY*(  18) C  74                  0.00000    21.44318   
  1368. RY*(  19) C  74                  0.00001     2.54495   
  1369. RY*(  20) C  74                  0.00000     3.68474   
  1370. RY*(  21) C  74                  0.00000     3.78276   
  1371. RY*(  22) C  74                  0.00000     3.89013   
  1372. RY*(  23) C  74                  0.00000     3.51983   
  1373. RY*(  24) C  74                  0.00000     3.78503   
  1374. RY*(  25) C  74                  0.00000     3.37679   
  1375. RY*(  26) C  74                  0.00000     3.32703   
  1376. RY*(   1) H  75                  0.00060     0.80635   
  1377. RY*(   2) H  75                  0.00030     2.37211   
  1378. RY*(   3) H  75                  0.00021     2.10790   
  1379. RY*(   4) H  75                  0.00012     2.40800   
  1380. RY*(   5) H  75                  0.00002     3.14933   
  1381. RY*(   1) N  76                  0.00780     0.87275   
  1382. RY*(   2) N  76                  0.00727     1.30714   
  1383. RY*(   3) N  76                  0.00588     1.41546   
  1384. RY*(   4) N  76                  0.00076     1.61492   
  1385. RY*(   5) N  76                  0.00076     1.67021   
  1386. RY*(   6) N  76                  0.00059     1.93241   
  1387. RY*(   7) N  76                  0.00038     3.50445   
  1388. RY*(   8) N  76                  0.00032     3.15277   
  1389. RY*(   9) N  76                  0.00011     3.21907   
  1390. RY*(  10) N  76                  0.00011     2.99672   
  1391. RY*(  11) N  76                  0.00008     3.42873   
  1392. RY*(  12) N  76                  0.00008     2.43027   
  1393. RY*(  13) N  76                  0.00006     3.13141   
  1394. RY*(  14) N  76                  0.00004     3.64937   
  1395. RY*(  15) N  76                  0.00001     4.56843   
  1396. RY*(  16) N  76                  0.00001     4.53192   
  1397. RY*(  17) N  76                  0.00001     4.76624   
  1398. RY*(  18) N  76                  0.00001     4.55104   
  1399. RY*(  19) N  76                  0.00001     4.04401   
  1400. RY*(  20) N  76                  0.00000     4.35445   
  1401. RY*(  21) N  76                  0.00001     4.50729   
  1402. RY*(  22) N  76                  0.00000    31.56016   
  1403. RY*(  23) N  76                  0.00000     4.66625   
  1404. RY*(  24) N  76                  0.00000     4.73078   
  1405. RY*(  25) N  76                  0.00000     4.65656   
  1406. RY*(  26) N  76                  0.00000     4.56474   
  1407. RY*(   1) C  77                  0.00397     1.49669   
  1408. RY*(   2) C  77                  0.00261     0.71852   
  1409. RY*(   3) C  77                  0.00170     1.85390   
  1410. RY*(   4) C  77                  0.00069     1.97628   
  1411. RY*(   5) C  77                  0.00057     1.62590   
  1412. RY*(   6) C  77                  0.00048     1.72232   
  1413. RY*(   7) C  77                  0.00044     2.16111   
  1414. RY*(   8) C  77                  0.00023     1.46054   
  1415. RY*(   9) C  77                  0.00021     1.77908   
  1416. RY*(  10) C  77                  0.00016     1.79256   
  1417. RY*(  11) C  77                  0.00010     1.30078   
  1418. RY*(  12) C  77                  0.00006     2.22568   
  1419. RY*(  13) C  77                  0.00006     2.11075   
  1420. RY*(  14) C  77                  0.00003     1.95199   
  1421. RY*(  15) C  77                  0.00004     2.75917   
  1422. RY*(  16) C  77                  0.00002     3.16898   
  1423. RY*(  17) C  77                  0.00000     3.25070   
  1424. RY*(  18) C  77                  0.00001     3.65519   
  1425. RY*(  19) C  77                  0.00000    21.45474   
  1426. RY*(  20) C  77                  0.00001     3.87818   
  1427. RY*(  21) C  77                  0.00001     3.73806   
  1428. RY*(  22) C  77                  0.00001     3.82146   
  1429. RY*(  23) C  77                  0.00001     3.36510   
  1430. RY*(  24) C  77                  0.00000     3.70923   
  1431. RY*(  25) C  77                  0.00000     3.62259   
  1432. RY*(  26) C  77                  0.00000     3.51087   
  1433. RY*(   1) H  78                  0.00050     0.82598   
  1434. RY*(   2) H  78                  0.00032     2.22505   
  1435. RY*(   3) H  78                  0.00024     2.29978   
  1436. RY*(   4) H  78                  0.00008     2.75324   
  1437. RY*(   5) H  78                  0.00001     3.11508   
  1519. BD*(   1) C  67 - H  68          0.01201     0.36014   
  1520. BD*(   1) C  67 - H  69          0.00344     0.37405   
  1521. BD*(   1) C  67 - H  70          0.01187     0.36040   
  1522. BD*(   1) C  67 - C  73          0.01374     0.39025   
  1523. BD*(   1) N  71 - H  72          0.01424     0.36782   
  1524. BD*(   1) N  71 - C  73          0.02721     0.43107   
  1525. BD*(   1) N  71 - C  74          0.02235     0.44903   
  1526. BD*(   1) C  73 - C  77          0.02102     0.56754   
  1527. BD*(   2) C  73 - C  77          0.29979     0.03643  1530(v),1519(v),1521(v)
                                                    1413(g),1328(g),1448(r)
                                                    1478(r),1445(r)
  1528. BD*(   1) C  74 - H  75          0.01801     0.39323   
  1529. BD*(   1) C  74 - N  76          0.01639     0.53922   
  1530. BD*(   2) C  74 - N  76          0.41878    -0.00392  1527(v),1351(g),1381(g)
                                                    1408(v),152(r),1448(r)
                                                    1445(r),153(r)
  1531. BD*(   1) N  76 - C  77          0.01661     0.48369   
  1532. BD*(   1) C  77 - H  78          0.01468     0.43480   
       -------------------------------
              Total Lewis   42.68685  ( 97.7355%)
        Valence non-Lewis    0.91013  (  2.0838%)
        Rydberg non-Lewis    0.07890  (  0.1806%)
       -------------------------------
            Total unit  4   43.67588  (100.0000%)
           Charge unit  4    0.32412
 Unable to Open any file for archive entry.
 1\1\GINC-BGN1019\SP\RAPFD\def2TZVP\C34H36Fe1N6O1\BEBZHART\15-Jul-2024\
 0\\# apfd/def2TZVP int=(grid=ultrafine) geom=check guess=read pop=nbo 
 scf=qc\\3wxo_II_S_nbo\\0,1\Fe,0,44.7334573102,8.1160526324,-81.7347453
 008\N,0,46.1695530553,8.8516221973,-82.9267844657\N,0,44.5365447737,9.
 9042790791,-80.8432709856\N,0,43.2464328107,7.4151917629,-80.592836354
 9\N,0,44.9057096546,6.3467514031,-82.6396504954\C,0,46.7466420105,8.22
 96817273,-83.9916993079\C,0,47.6291719222,9.130959703,-84.6950238198\C
 ,0,47.4868233083,10.3460498611,-84.098969208\C,0,46.5348341079,10.1624
 558442,-83.0269509221\C,0,45.2180918788,11.0409844033,-81.1517465399\C
 ,0,44.8402943591,12.1182822968,-80.2749275415\C,0,43.8363614552,11.634
 9696848,-79.4808288946\C,0,43.6470540516,10.2523020402,-79.8761887175\
 C,0,42.4255447235,8.1300989904,-79.7744861018\C,0,41.3495139932,7.3145
 866503,-79.2761767188\C,0,41.4736000011,6.1001203903,-79.8972464666\C,
 0,42.6591126979,6.1969710266,-80.7272768016\C,0,44.1962592082,5.221445
 0703,-82.3669901403\C,0,44.7022020952,4.0998381625,-83.1295494691\C,0,
 45.661839618,4.6026841233,-83.9503051734\C,0,45.7458815263,6.018096910
 3,-83.6566459398\C,0,46.6206810105,6.8823345834,-84.2855729571\H,0,47.
 2059460785,6.4933953134,-85.1048991482\C,0,46.1715921096,11.1646168009
 ,-82.1483151084\H,0,46.6034880159,12.1421743609,-82.301527086\C,0,42.6
 593003308,9.4329222291,-79.3683895644\H,0,41.9673505963,9.871822575,-7
 8.6666859474\C,0,43.1562908149,5.1353796359,-81.4633373281\H,0,42.6483
 667996,4.186596881,-81.3785364621\C,0,48.1355425051,11.645066888,-84.4
 365460421\H,0,48.7901060111,11.537891127,-85.298048297\H,0,48.73024887
 46,12.0086647618,-83.5979230407\H,0,47.38398455,12.4000353387,-84.6688
 162996\C,0,48.4677882653,8.7443552851,-85.8649701992\H,0,47.8441962169
 ,8.3734100702,-86.6789661161\H,0,49.167258763,7.954700227,-85.58993915
 3\H,0,49.0381911911,9.5946295065,-86.230914106\C,0,45.442531721,13.481
 3267183,-80.2820218831\H,0,45.2917191489,13.9647577231,-81.2481991814\
 H,0,46.5158985906,13.4284060323,-80.0972658899\H,0,44.9936941933,14.10
 0983572,-79.5098515003\C,0,43.1367260664,12.3525275665,-78.4339920548\
 H,0,42.9204567782,13.393209578,-78.6524722065\C,0,42.789089182,11.8575
 69722,-77.2516606599\H,0,43.0275779438,10.8482926938,-76.9620349715\H,
 0,42.2734068276,12.4571533719,-76.5195554821\C,0,40.2680148214,7.78585
 34077,-78.3675870045\H,0,40.0046079401,8.8200553606,-78.5836732526\H,0
 ,40.5869902738,7.7306174104,-77.3254039047\H,0,39.3812401809,7.1665277
 66,-78.487811266\C,0,40.6278492399,4.9313599655,-79.7996425759\H,0,40.
 5423059181,4.3401787776,-80.7042788231\C,0,39.9710443346,4.5411379776,
 -78.7117913003\H,0,40.0556887095,5.0618135283,-77.7740230607\H,0,39.34
 31286614,3.665458602,-78.7164710158\C,0,44.1918618099,2.7046819906,-83
 .011936596\H,0,43.1477515728,2.6510798637,-83.3224297508\H,0,44.254782
 6324,2.3590074708,-81.9801504712\H,0,44.768587393,2.0274426554,-83.637
 2433344\C,0,46.4950914024,3.9045323743,-84.9697874944\H,0,46.271052091
 6,2.8407900956,-84.9899102529\H,0,47.5554689935,4.029353115,-84.749646
 6365\H,0,46.3062774398,4.3124343986,-85.9633279661\O,0,43.3130000001,8
 .7540000003,-83.3909999999\H,0,43.939,8.9639999999,-84.0839999999\H,0,
 42.4379999999,8.9119999996,-83.4069999999\C,0,47.7737660298,5.39337534
 92,-77.9385048914\H,0,48.774169226,5.0743810589,-78.2310193965\H,0,47.
 1206298228,4.5265151815,-77.9307126314\H,0,47.8273586552,5.7997766208,
 -76.9286126974\N,0,47.8601909846,7.6114490787,-79.0977421293\H,0,48.70
 2915925,7.9280619006,-78.6470020555\C,0,47.2442806206,6.4054428337,-78
 .8873854254\C,0,47.131124597,8.2896736079,-80.0126471445\H,0,47.375731
 4528,9.2679615402,-80.3715120038\N,0,46.0926716734,7.586568356,-80.393
 6884088\C,0,46.1485361146,6.4124344284,-79.7023578126\H,0,45.401837000
 5,5.6576218913,-79.83760125\\Version=ES64L-G16RevC.02\State=1-A\HF=-29
 84.020257\RMSD=3.505e-09\Dipole=1.5084463,0.0284243,0.2796487\Quadrupo
 le=2.2671847,-3.0266208,0.7594362,-0.7726725,7.8545604,-2.9008024\PG=C
 01 [X(C34H36Fe1N6O1)]\\@
 The archive entry for this job was punched.


 SUCCESS-- IF YOU HAVE TRIED TO DO SOMETHING AND FAILED
           YOU ARE BETTER OFF THAN IF YOU HAD TRIED TO DO
           NOTHING AND SUCCEEDED.

                   -- FROM THE BACK OF A SUGAR PACKET
 Job cpu time:       0 days  0 hours 45 minutes 50.7 seconds.
 Elapsed time:       0 days  0 hours  0 minutes 55.0 seconds.
 File lengths (MBytes):  RWF=    792 Int=      0 D2E=      0 Chk=    155 Scr=      1
 Normal termination of Gaussian 16 at Mon Jul 15 13:16:56 2024.
