 Entering Gaussian System, Link 0=g16
 Input=4d3o01.com
 Output=4d3o01.log
 Initial command:
 /sw/chem/gaussian/g16_C02/a100/g16/l1.exe "/local/bebzhart_8000112/Gau-2000135.inp" -scrdir="/local/bebzhart_8000112/"
 Entering Link 1 = /sw/chem/gaussian/g16_C02/a100/g16/l1.exe PID=   2000136.
  
 Copyright (c) 1988-2021, Gaussian, Inc.  All Rights Reserved.
  
 This is part of the Gaussian(R) 16 program.  It is based on
 the Gaussian(R) 09 system (copyright 2009, Gaussian, Inc.),
 the Gaussian(R) 03 system (copyright 2003, Gaussian, Inc.),
 the Gaussian(R) 98 system (copyright 1998, Gaussian, Inc.),
 the Gaussian(R) 94 system (copyright 1995, Gaussian, Inc.),
 the Gaussian 92(TM) system (copyright 1992, Gaussian, Inc.),
 the Gaussian 90(TM) system (copyright 1990, Gaussian, Inc.),
 the Gaussian 88(TM) system (copyright 1988, Gaussian, Inc.),
 the Gaussian 86(TM) system (copyright 1986, Carnegie Mellon
 University), and the Gaussian 82(TM) system (copyright 1983,
 Carnegie Mellon University). Gaussian is a federally registered
 trademark of Gaussian, Inc.
  
 This software contains proprietary and confidential information,
 including trade secrets, belonging to Gaussian, Inc.
  
 This software is provided under written license and may be
 used, copied, transmitted, or stored only in accord with that
 written license.
  
 The following legend is applicable only to US Government
 contracts under FAR:
  
                    RESTRICTED RIGHTS LEGEND
  
 Use, reproduction and disclosure by the US Government is
 subject to restrictions as set forth in subparagraphs (a)
 and (c) of the Commercial Computer Software - Restricted
 Rights clause in FAR 52.227-19.
  
 Gaussian, Inc.
 340 Quinnipiac St., Bldg. 40, Wallingford CT 06492
  
  
 ---------------------------------------------------------------
 Warning -- This program may not be used in any manner that
 competes with the business of Gaussian, Inc. or will provide
 assistance to any competitor of Gaussian, Inc.  The licensee
 of this program is prohibited from giving any competitor of
 Gaussian, Inc. access to this program.  By using this program,
 the user acknowledges that Gaussian, Inc. is engaged in the
 business of creating and licensing software in the field of
 computational chemistry and represents and warrants to the
 licensee that it is not a competitor of Gaussian, Inc. and that
 it will not use this program in any manner prohibited above.
 ---------------------------------------------------------------
  

 Cite this work as:
 Gaussian 16, Revision C.02,
 M. J. Frisch, G. W. Trucks, H. B. Schlegel, G. E. Scuseria, 
 M. A. Robb, J. R. Cheeseman, G. Scalmani, V. Barone, 
 G. A. Petersson, H. Nakatsuji, X. Li, M. Caricato, A. V. Marenich, 
 J. Bloino, B. G. Janesko, R. Gomperts, B. Mennucci, H. P. Hratchian, 
 J. V. Ortiz, A. F. Izmaylov, J. L. Sonnenberg, D. Williams-Young, 
 F. Ding, F. Lipparini, F. Egidi, J. Goings, B. Peng, A. Petrone, 
 T. Henderson, D. Ranasinghe, V. G. Zakrzewski, J. Gao, N. Rega, 
 G. Zheng, W. Liang, M. Hada, M. Ehara, K. Toyota, R. Fukuda, 
 J. Hasegawa, M. Ishida, T. Nakajima, Y. Honda, O. Kitao, H. Nakai, 
 T. Vreven, K. Throssell, J. A. Montgomery, Jr., J. E. Peralta, 
 F. Ogliaro, M. J. Bearpark, J. J. Heyd, E. N. Brothers, K. N. Kudin, 
 V. N. Staroverov, T. A. Keith, R. Kobayashi, J. Normand, 
 K. Raghavachari, A. P. Rendell, J. C. Burant, S. S. Iyengar, 
 J. Tomasi, M. Cossi, J. M. Millam, M. Klene, C. Adamo, R. Cammi, 
 J. W. Ochterski, R. L. Martin, K. Morokuma, O. Farkas, 
 J. B. Foresman, and D. J. Fox, Gaussian, Inc., Wallingford CT, 2019.
 
 ******************************************
 Gaussian 16:  ES64L-G16RevC.02  7-Dec-2021
                 1-Sep-2024 
 ******************************************
 %mem=16GB
 %CPU=0-71
 SetSPE:  set environment variable "OMP_PROC_BIND" = "true"
 SetSPE:  set environment variable "OMP_PLACES" = "{0},{1},{2},{3},{4},{5},{6},{7},{8},{9},{10},{11},{12},{13},{14},{15},{16},{17},{18},{19},{20},{21},{22},{23},{24},{25},{26},{27},{28},{29},{30},{31},{32},{33},{34},{35},{36},{37},{38},{39},{40},{41},{42},{43},{44},{45},{46},{47},{48},{49},{50},{51},{52},{53},{54},{55},{56},{57},{58},{59},{60},{61},{62},{63},{64},{65},{66},{67},{68},{69},{70},{71}"
 Will use up to   72 processors via shared memory.
 %gpucpu=0,1,2,3=0,1,2,3
 Will use    4 GPUs:
 Thread  CPU   GPU
      0    0     0
      1    1     1
      2    2     2
      3    3     3
      4    4    -1
      5    5    -1
      6    6    -1
      7    7    -1
      8    8    -1
      9    9    -1
     10   10    -1
     11   11    -1
     12   12    -1
     13   13    -1
     14   14    -1
     15   15    -1
     16   16    -1
     17   17    -1
     18   18    -1
     19   19    -1
     20   20    -1
     21   21    -1
     22   22    -1
     23   23    -1
     24   24    -1
     25   25    -1
     26   26    -1
     27   27    -1
     28   28    -1
     29   29    -1
     30   30    -1
     31   31    -1
     32   32    -1
     33   33    -1
     34   34    -1
     35   35    -1
     36   36    -1
     37   37    -1
     38   38    -1
     39   39    -1
     40   40    -1
     41   41    -1
     42   42    -1
     43   43    -1
     44   44    -1
     45   45    -1
     46   46    -1
     47   47    -1
     48   48    -1
     49   49    -1
     50   50    -1
     51   51    -1
     52   52    -1
     53   53    -1
     54   54    -1
     55   55    -1
     56   56    -1
     57   57    -1
     58   58    -1
     59   59    -1
     60   60    -1
     61   61    -1
     62   62    -1
     63   63    -1
     64   64    -1
     65   65    -1
     66   66    -1
     67   67    -1
     68   68    -1
     69   69    -1
     70   70    -1
     71   71    -1
 SetGPE:  set environment variable "OMP_PROC_BIND" = "true"
 SetGPE:  set environment variable "OMP_PLACES" = "{0},{1},{2},{3},{4},{5},{6},{7},{8},{9},{10},{11},{12},{13},{14},{15},{16},{17},{18},{19},{20},{21},{22},{23},{24},{25},{26},{27},{28},{29},{30},{31},{32},{33},{34},{35},{36},{37},{38},{39},{40},{41},{42},{43},{44},{45},{46},{47},{48},{49},{50},{51},{52},{53},{54},{55},{56},{57},{58},{59},{60},{61},{62},{63},{64},{65},{66},{67},{68},{69},{70},{71}"
 %chk=4d3o_II_O.chk
 Properties for Device   0
 Minimum vector length:                              32
 Maximum vector length:                            1024
 Number of SMPs:                                    108
 Maximum number of threads per SMP:                2048
 Number of ASync Engines:                             5
 Memory:                                           9207742464
 Properties for Device   1
 Minimum vector length:                              32
 Maximum vector length:                            1024
 Number of SMPs:                                    108
 Maximum number of threads per SMP:                2048
 Number of ASync Engines:                             5
 Memory:                                           9207742464
 Properties for Device   2
 Minimum vector length:                              32
 Maximum vector length:                            1024
 Number of SMPs:                                    108
 Maximum number of threads per SMP:                2048
 Number of ASync Engines:                             5
 Memory:                                           9207742464
 Properties for Device   3
 Minimum vector length:                              32
 Maximum vector length:                            1024
 Number of SMPs:                                    108
 Maximum number of threads per SMP:                2048
 Number of ASync Engines:                             5
 Memory:                                           9207742464
   8286968217 words of memory will be used on each GPU.
 ------------------------------------------
 # polar def2tzvp apfd int=(grid=ultrafine)
 ------------------------------------------
 1/38=1,172=1/1;
 2/12=2,17=6,18=5,40=1/2;
 3/5=44,7=101,11=2,25=1,30=1,74=-44,75=-5/1,2,3;
 4//1;
 5/5=2,38=5,98=1/2;
 8/6=4,10=90,11=11/1;
 10/6=1,13=10/2;
 6/7=2,8=2,9=2,10=2,28=1/1;
 99/5=1,9=1/99;
 ---------
 4d3o_II_S
 ---------
 Symbolic Z-matrix:
 Charge =  0 Multiplicity = 1
 Fe                   -0.06836   17.02949   22.48175 
 N                     0.36243   15.226    23.26626 
 N                    -0.93977   17.5518   24.24205 
 N                    -0.24569   18.91496   21.91495 
 N                     1.05691   16.57791   20.92681 
 C                     1.26223   14.31555   22.78883 
 C                     1.49259   13.25649   23.74058 
 C                     0.72651   13.54912   24.82481 
 C                     0.04703   14.78677   24.51922 
 C                    -1.23865   16.71723   25.27788 
 C                    -1.93044   17.41928   26.32563 
 C                    -2.05675   18.71342   25.9038 
 C                    -1.43156   18.77071   24.59965 
 C                    -0.71618   19.98915   22.60842 
 C                    -0.59948   21.19723   21.83393 
 C                    -0.03611   20.83523   20.64039 
 C                     0.20251   19.40768   20.72799 
 C                     1.21553   17.3644   19.82592 
 C                     2.02716   16.69568   18.83437 
 C                     2.35729   15.48576   19.36223 
 C                     1.7341    15.42661   20.66347 
 C                     1.85333   14.36567   21.53957 
 H                     2.48161   13.53911   21.24683 
 C                    -0.81867   15.40589   25.39642 
 H                    -1.06284   14.8862   26.30949 
 C                    -1.29778   19.92661   23.85959 
 H                    -1.65484   20.84408   24.29894 
 C                     0.77545   18.66858   19.71014 
 H                     0.99463   19.18183   18.78685 
 C                     0.58614   12.80852   26.10944 
 H                     1.1767    11.89608   26.09399 
 H                    -0.45536   12.53984   26.28702 
 H                     0.92482   13.4226   26.94389 
 C                     2.42212   12.11448   23.51688 
 H                     3.4336    12.47609   23.33244 
 H                     2.10952   11.52741   22.65283 
 H                     2.44519   11.46047   24.38485 
 C                    -2.41182   16.80632   27.59436 
 H                    -1.57515   16.41318   28.17309 
 H                    -3.09596   15.98302   27.38816 
 H                    -2.93535   17.54353   28.19746 
 C                    -2.70007   19.80317   26.61289 
 H                    -2.50923   19.83619   27.68004 
 C                    -3.51041   20.70293   26.06947 
 H                    -3.77416   20.6773   25.02565 
 H                    -3.96309   21.48249   26.65941 
 C                    -0.96722   22.55618   22.31495 
 H                    -0.71974   22.67159   23.36895 
 H                    -2.0378    22.73146   22.19806 
 H                    -0.43103   23.3116   21.74409 
 C                     0.32335   21.66598   19.51165 
 H                     1.21319   21.36468   18.97167 
 C                    -0.34792   22.73781   19.10457 
 H                    -1.26182   23.05417   19.57612 
 H                    -0.01757   23.32298   18.26258 
 C                     2.40531   17.28678   17.52071 
 H                     3.05309   18.1519   17.66428 
 H                     1.51924   17.61395   16.97744 
 H                     2.93626   16.56146   16.90926 
 C                     3.19179   14.39588   18.784 
 H                     4.07673   14.22606   19.39777 
 H                     3.51754   14.65041   17.77869 
 H                     2.62795   13.46393   18.73854 
 C                    -1.6973    14.87435   20.5089 
 H                    -1.28314   15.25824   19.58234 
 H                    -2.61606   14.33106   20.31165 
 H                    -0.96486   14.24941   21.00863 
 S                    -2.07174   16.33005   21.55332 
 H                    -2.53591   15.614    22.58619 
 
 Stoichiometry    C31H32FeN4S
 Framework group  C1[X(C31H32FeN4S)]
 Deg. of freedom   201
 Full point group                 C1      NOp   1
 Largest Abelian subgroup         C1      NOp   1
 Largest concise Abelian subgroup C1      NOp   1
                         Standard orientation:                         
 ---------------------------------------------------------------------
 Center     Atomic      Atomic             Coordinates (Angstroms)
 Number     Number       Type             X           Y           Z
 ---------------------------------------------------------------------
      1         26           0        0.174207   -0.010243    0.041571
      2          7           0        1.983179    0.864340   -0.086336
      3          7           0       -0.687878    1.824812   -0.100577
      4          7           0       -1.628285   -0.795711   -0.162754
      5          7           0        1.053855   -1.765574   -0.140249
      6          6           0        3.171803    0.255949   -0.375338
      7          6           0        4.208456    1.225129   -0.633281
      8          6           0        3.622499    2.446127   -0.515427
      9          6           0        2.235390    2.201097   -0.194920
     10          6           0       -0.053131    3.028026   -0.010296
     11          6           0       -0.993212    4.115243   -0.069017
     12          6           0       -2.230874    3.547967   -0.191826
     13          6           0       -2.013993    2.117001   -0.207935
     14          6           0       -2.823726   -0.179861   -0.381375
     15          6           0       -3.881518   -1.143604   -0.540095
     16          6           0       -3.299499   -2.376183   -0.417739
     17          6           0       -1.885224   -2.131420   -0.211746
     18          6           0        0.416076   -2.967158   -0.068652
     19          6           0        1.365947   -4.053831   -0.146073
     20          6           0        2.594198   -3.481019   -0.267719
     21          6           0        2.379878   -2.053117   -0.251549
     22          6           0        3.381208   -1.111037   -0.382633
     23          1           0        4.387776   -1.464897   -0.541478
     24          6           0        1.316524    3.212631   -0.008619
     25          1           0        1.681435    4.227634   -0.013074
     26          6           0       -3.018212    1.187528   -0.379124
     27          1           0       -4.017755    1.557546   -0.541225
     28          6           0       -0.954193   -3.140482   -0.052015
     29          1           0       -1.321675   -4.154315   -0.019950
     30          6           0        4.217430    3.800054   -0.692655
     31          1           0        5.280734    3.728051   -0.906532
     32          1           0        4.088975    4.398055    0.209754
     33          1           0        3.735919    4.324311   -1.518120
     34          6           0        5.614728    0.877901   -0.979805
     35          1           0        5.645978    0.268309   -1.882747
     36          1           0        6.081444    0.312155   -0.172915
     37          1           0        6.202240    1.776039   -1.152453
     38          6           0       -0.638868    5.559178    0.012307
     39          1           0        0.006787    5.844033   -0.819250
     40          1           0       -0.108222    5.773090    0.940231
     41          1           0       -1.535653    6.172479   -0.018358
     42          6           0       -3.503255    4.239730   -0.273807
     43          1           0       -3.503832    5.134429   -0.886868
     44          6           0       -4.613452    3.887062    0.362280
     45          1           0       -4.646706    3.039500    1.025837
     46          1           0       -5.523926    4.454418    0.263150
     47          6           0       -5.298301   -0.810211   -0.848234
     48          1           0       -5.355012    0.036717   -1.530117
     49          1           0       -5.840897   -0.548501    0.061507
     50          1           0       -5.790841   -1.664456   -1.308341
     51          6           0       -3.905681   -3.685919   -0.520420
     52          1           0       -3.286759   -4.455940   -0.965588
     53          6           0       -5.131517   -3.996925   -0.113315
     54          1           0       -5.770664   -3.282920    0.375922
     55          1           0       -5.529214   -4.990992   -0.232368
     56          6           0        0.996654   -5.496283   -0.113691
     57          1           0        0.416204   -5.761113   -0.997781
     58          1           0        0.393602   -5.718685    0.766170
     59          1           0        1.885297   -6.122067   -0.089667
     60          6           0        3.930472   -4.124912   -0.403225
     61          1           0        4.383785   -3.865886   -1.360350
     62          1           0        3.845465   -5.207147   -0.347728
     63          1           0        4.599822   -3.790168    0.389508
     64          6           0        1.672389   -0.815647    2.922020
     65          1           0        1.495516   -1.882176    2.828974
     66          1           0        1.857476   -0.555886    3.959545
     67          1           0        2.499843   -0.522606    2.284688
     68         16           0        0.142840    0.016064    2.357399
     69          1           0        0.607941    1.257143    2.553330
 ---------------------------------------------------------------------
 Rotational constants (GHZ):           0.1134273           0.1082115           0.0606477
 Standard basis: def2TZVP (5D, 7F)
 There are  1546 symmetry adapted cartesian basis functions of A   symmetry.
 There are  1359 symmetry adapted basis functions of A   symmetry.
  1359 basis functions,  2212 primitive gaussians,  1546 cartesian basis functions
   144 alpha electrons      144 beta electrons
       nuclear repulsion energy      5042.8534429254 Hartrees.
 NAtoms=   69 NActive=   69 NUniq=   69 SFac= 1.00D+00 NAtFMM=   60 NAOKFM=T Big=T
 Integral buffers will be    131072 words long.
 Raffenetti 2 integral format.
 Two-electron integral symmetry is turned on.
 R6APFD:  NTU= -4 IXU= 1 FactS= 1.050
 Nuclear repulsion after empirical dispersion term =     5042.7212957885 Hartrees.
 One-electron integrals computed using PRISM.
   1 Symmetry operations used in ECPInt.
 ECPInt:  NShTT=  146611 NPrTT=  457451 LenC2=  115986 LenP2D=  241613.
 LDataN:  DoStor=T MaxTD1= 6 Len=  172
 Number of processors reduced to  26 by ecpmxn.
 NBasis=  1359 RedAO= T EigKep=  3.54D-06  NBF=  1359
 NBsUse=  1359 1.00D-06 EigRej= -1.00D+00 NBFU=  1359
 ExpMin= 4.20D-02 ExpMax= 3.01D+05 ExpMxC= 2.91D+03 IAcc=3 IRadAn=         5 AccDes= 0.00D+00
 Harris functional with IExCor= 3731 and IRadAn=       5 diagonalized for initial guess.
 HarFok:  IExCor= 3731 AccDes= 0.00D+00 IRadAn=         5 IDoV= 1 UseB2=F ITyADJ=14
 ICtDFT=  3500011 ScaDFX=  1.000000  1.000000  1.000000  1.000000
 FoFCou: FMM=F IPFlag=           0 FMFlag=      100000 FMFlg1=        2001
         NFxFlg=           0 DoJE=T BraDBF=F KetDBF=T FulRan=T
         wScrn=  0.000000 ICntrl=       500 IOpCl=  0 I1Cent=   200000004 NGrid=           0
         NMat0=    1 NMatS0=      1 NMatT0=    0 NMatD0=    1 NMtDS0=    0 NMtDT0=    0
 Petite list used in FoFCou.
 Requested convergence on RMS density matrix=1.00D-08 within 128 cycles.
 Requested convergence on MAX density matrix=1.00D-06.
 Requested convergence on             energy=1.00D-06.
 No special actions if energy rises.
 EnCoef did     4 forward-backward iterations
 EnCoef did   100 forward-backward iterations
 EnCoef did   100 forward-backward iterations
 EnCoef did   100 forward-backward iterations
 EnCoef did     5 forward-backward iterations
 EnCoef did   100 forward-backward iterations
 EnCoef did    12 forward-backward iterations
 Restarting incremental Fock formation.
 SCF Done:  E(RAPFD) =  -3080.76841217     A.U. after   29 cycles
            NFock= 29  Conv=0.26D-08     -V/T= 2.0031
 DoSCS=F DFT=T ScalE2(SS,OS)=  1.000000  1.000000
 Range of M.O.s used for correlation:     1  1359
 NBasis=  1359 NAE=   144 NBE=   144 NFC=     0 NFV=     0
 NROrb=   1359 NOA=   144 NOB=   144 NVA=  1215 NVB=  1215

 **** Warning!!: The largest alpha MO coefficient is  0.55635418D+02

          Differentiating once with respect to electric field.
                with respect to dipole field.
          Electric field/nuclear overlap derivatives assumed to be zero.
          There are     3 degrees of freedom in the 1st order CPHF.  IDoFFX=0 NUNeed=     3.
      3 vectors produced by pass  0 Test12= 5.83D-12 3.33D-08 XBig12= 1.82D+03 2.92D+01.
 AX will form     3 AO Fock derivatives at one time.
      3 vectors produced by pass  1 Test12= 5.83D-12 3.33D-08 XBig12= 1.09D+03 7.01D+00.
      3 vectors produced by pass  2 Test12= 5.83D-12 3.33D-08 XBig12= 4.81D+02 5.61D+00.
      3 vectors produced by pass  3 Test12= 5.83D-12 3.33D-08 XBig12= 2.36D+02 3.86D+00.
      3 vectors produced by pass  4 Test12= 5.83D-12 3.33D-08 XBig12= 1.57D+02 2.60D+00.
      3 vectors produced by pass  5 Test12= 5.83D-12 3.33D-08 XBig12= 8.39D+01 2.04D+00.
      3 vectors produced by pass  6 Test12= 5.83D-12 3.33D-08 XBig12= 4.74D+01 1.47D+00.
      3 vectors produced by pass  7 Test12= 5.83D-12 3.33D-08 XBig12= 1.79D+01 1.19D+00.
      3 vectors produced by pass  8 Test12= 5.83D-12 3.33D-08 XBig12= 8.22D+00 6.10D-01.
      3 vectors produced by pass  9 Test12= 5.83D-12 3.33D-08 XBig12= 4.83D+00 8.30D-01.
      3 vectors produced by pass 10 Test12= 5.83D-12 3.33D-08 XBig12= 1.99D+00 6.96D-01.
      3 vectors produced by pass 11 Test12= 5.83D-12 3.33D-08 XBig12= 9.00D-01 3.68D-01.
      3 vectors produced by pass 12 Test12= 5.83D-12 3.33D-08 XBig12= 3.98D-01 1.43D-01.
      3 vectors produced by pass 13 Test12= 5.83D-12 3.33D-08 XBig12= 1.35D-01 7.03D-02.
      3 vectors produced by pass 14 Test12= 5.83D-12 3.33D-08 XBig12= 4.77D-02 3.94D-02.
      3 vectors produced by pass 15 Test12= 5.83D-12 3.33D-08 XBig12= 1.05D-02 3.92D-02.
      3 vectors produced by pass 16 Test12= 5.83D-12 3.33D-08 XBig12= 3.27D-03 2.47D-02.
      3 vectors produced by pass 17 Test12= 5.83D-12 3.33D-08 XBig12= 9.78D-04 9.71D-03.
      3 vectors produced by pass 18 Test12= 5.83D-12 3.33D-08 XBig12= 3.28D-04 3.55D-03.
      3 vectors produced by pass 19 Test12= 5.83D-12 3.33D-08 XBig12= 5.47D-05 1.10D-03.
      3 vectors produced by pass 20 Test12= 5.83D-12 3.33D-08 XBig12= 7.87D-06 5.56D-04.
      3 vectors produced by pass 21 Test12= 5.83D-12 3.33D-08 XBig12= 1.38D-06 2.83D-04.
      3 vectors produced by pass 22 Test12= 5.83D-12 3.33D-08 XBig12= 3.06D-07 8.70D-05.
      3 vectors produced by pass 23 Test12= 5.83D-12 3.33D-08 XBig12= 6.08D-08 4.28D-05.
      3 vectors produced by pass 24 Test12= 5.83D-12 3.33D-08 XBig12= 5.68D-09 1.18D-05.
      3 vectors produced by pass 25 Test12= 5.83D-12 3.33D-08 XBig12= 8.88D-10 3.99D-06.
      3 vectors produced by pass 26 Test12= 5.83D-12 3.33D-08 XBig12= 1.92D-10 1.91D-06.
      3 vectors produced by pass 27 Test12= 5.83D-12 3.33D-08 XBig12= 2.93D-11 6.46D-07.
      3 vectors produced by pass 28 Test12= 5.83D-12 3.33D-08 XBig12= 2.73D-12 2.60D-07.
      3 vectors produced by pass 29 Test12= 5.83D-12 3.33D-08 XBig12= 4.37D-13 7.24D-08.
      1 vectors produced by pass 30 Test12= 5.83D-12 3.33D-08 XBig12= 4.85D-14 3.46D-08.
 InvSVY:  IOpt=1 It=  1 EMax= 9.23D-15
 Solved reduced A of dimension    91 with     3 vectors.
 Isotropic polarizability for W=    0.000000      538.36 Bohr**3.
 End of Minotr F.D. properties file   721 does not exist.
 End of Minotr F.D. properties file   722 does not exist.
 End of Minotr F.D. properties file   788 does not exist.

 **********************************************************************

            Population analysis using the SCF Density.

 **********************************************************************

 Orbital symmetries:
       Occupied  (A) (A) (A) (A) (A) (A) (A) (A) (A) (A) (A) (A)
                 (A) (A) (A) (A) (A) (A) (A) (A) (A) (A) (A) (A)
                 (A) (A) (A) (A) (A) (A) (A) (A) (A) (A) (A) (A)
                 (A) (A) (A) (A) (A) (A) (A) (A) (A) (A) (A) (A)
                 (A) (A) (A) (A) (A) (A) (A) (A) (A) (A) (A) (A)
                 (A) (A) (A) (A) (A) (A) (A) (A) (A) (A) (A) (A)
                 (A) (A) (A) (A) (A) (A) (A) (A) (A) (A) (A) (A)
                 (A) (A) (A) (A) (A) (A) (A) (A) (A) (A) (A) (A)
                 (A) (A) (A) (A) (A) (A) (A) (A) (A) (A) (A) (A)
                 (A) (A) (A) (A) (A) (A) (A) (A) (A) (A) (A) (A)
                 (A) (A) (A) (A) (A) (A) (A) (A) (A) (A) (A) (A)
                 (A) (A) (A) (A) (A) (A) (A) (A) (A) (A) (A) (A)
       Virtual   (A) (A) (A) (A) (A) (A) (A) (A) (A) (A) (A) (A)
                 (A) (A) (A) (A) (A) (A) (A) (A) (A) (A) (A) (A)
                 (A) (A) (A) (A) (A) (A) (A) (A) (A) (A) (A) (A)
                 (A) (A) (A) (A) (A) (A) (A) (A) (A) (A) (A) (A)
                 (A) (A) (A) (A) (A) (A) (A) (A) (A) (A) (A) (A)
                 (A) (A) (A) (A) (A) (A) (A) (A) (A) (A) (A) (A)
                 (A) (A) (A) (A) (A) (A) (A) (A) (A) (A) (A) (A)
                 (A) (A) (A) (A) (A) (A) (A) (A) (A) (A) (A) (A)
                 (A) (A) (A) (A) (A) (A) (A) (A) (A) (A) (A) (A)
                 (A) (A) (A) (A) (A) (A) (A) (A) (A) (A) (A) (A)
                 (A) (A) (A) (A) (A) (A) (A) (A) (A) (A) (A) (A)
                 (A) (A) (A) (A) (A) (A) (A) (A) (A) (A) (A) (A)
                 (A) (A) (A) (A) (A) (A) (A) (A) (A) (A) (A) (A)
                 (A) (A) (A) (A) (A) (A) (A) (A) (A) (A) (A) (A)
                 (A) (A) (A) (A) (A) (A) (A) (A) (A) (A) (A) (A)
                 (A) (A) (A) (A) (A) (A) (A) (A) (A) (A) (A) (A)
                 (A) (A) (A) (A) (A) (A) (A) (A) (A) (A) (A) (A)
                 (A) (A) (A) (A) (A) (A) (A) (A) (A) (A) (A) (A)
                 (A) (A) (A) (A) (A) (A) (A) (A) (A) (A) (A) (A)
                 (A) (A) (A) (A) (A) (A) (A) (A) (A) (A) (A) (A)
                 (A) (A) (A) (A) (A) (A) (A) (A) (A) (A) (A) (A)
                 (A) (A) (A) (A) (A) (A) (A) (A) (A) (A) (A) (A)
                 (A) (A) (A) (A) (A) (A) (A) (A) (A) (A) (A) (A)
                 (A) (A) (A) (A) (A) (A) (A) (A) (A) (A) (A) (A)
                 (A) (A) (A) (A) (A) (A) (A) (A) (A) (A) (A) (A)
                 (A) (A) (A) (A) (A) (A) (A) (A) (A) (A) (A) (A)
                 (A) (A) (A) (A) (A) (A) (A) (A) (A) (A) (A) (A)
                 (A) (A) (A) (A) (A) (A) (A) (A) (A) (A) (A) (A)
                 (A) (A) (A) (A) (A) (A) (A) (A) (A) (A) (A) (A)
                 (A) (A) (A) (A) (A) (A) (A) (A) (A) (A) (A) (A)
                 (A) (A) (A) (A) (A) (A) (A) (A) (A) (A) (A) (A)
                 (A) (A) (A) (A) (A) (A) (A) (A) (A) (A) (A) (A)
                 (A) (A) (A) (A) (A) (A) (A) (A) (A) (A) (A) (A)
                 (A) (A) (A) (A) (A) (A) (A) (A) (A) (A) (A) (A)
                 (A) (A) (A) (A) (A) (A) (A) (A) (A) (A) (A) (A)
                 (A) (A) (A) (A) (A) (A) (A) (A) (A) (A) (A) (A)
                 (A) (A) (A) (A) (A) (A) (A) (A) (A) (A) (A) (A)
                 (A) (A) (A) (A) (A) (A) (A) (A) (A) (A) (A) (A)
                 (A) (A) (A) (A) (A) (A) (A) (A) (A) (A) (A) (A)
                 (A) (A) (A) (A) (A) (A) (A) (A) (A) (A) (A) (A)
                 (A) (A) (A) (A) (A) (A) (A) (A) (A) (A) (A) (A)
                 (A) (A) (A) (A) (A) (A) (A) (A) (A) (A) (A) (A)
                 (A) (A) (A) (A) (A) (A) (A) (A) (A) (A) (A) (A)
                 (A) (A) (A) (A) (A) (A) (A) (A) (A) (A) (A) (A)
                 (A) (A) (A) (A) (A) (A) (A) (A) (A) (A) (A) (A)
                 (A) (A) (A) (A) (A) (A) (A) (A) (A) (A) (A) (A)
                 (A) (A) (A) (A) (A) (A) (A) (A) (A) (A) (A) (A)
                 (A) (A) (A) (A) (A) (A) (A) (A) (A) (A) (A) (A)
                 (A) (A) (A) (A) (A) (A) (A) (A) (A) (A) (A) (A)
                 (A) (A) (A) (A) (A) (A) (A) (A) (A) (A) (A) (A)
                 (A) (A) (A) (A) (A) (A) (A) (A) (A) (A) (A) (A)
                 (A) (A) (A) (A) (A) (A) (A) (A) (A) (A) (A) (A)
                 (A) (A) (A) (A) (A) (A) (A) (A) (A) (A) (A) (A)
                 (A) (A) (A) (A) (A) (A) (A) (A) (A) (A) (A) (A)
                 (A) (A) (A) (A) (A) (A) (A) (A) (A) (A) (A) (A)
                 (A) (A) (A) (A) (A) (A) (A) (A) (A) (A) (A) (A)
                 (A) (A) (A) (A) (A) (A) (A) (A) (A) (A) (A) (A)
                 (A) (A) (A) (A) (A) (A) (A) (A) (A) (A) (A) (A)
                 (A) (A) (A) (A) (A) (A) (A) (A) (A) (A) (A) (A)
                 (A) (A) (A) (A) (A) (A) (A) (A) (A) (A) (A) (A)
                 (A) (A) (A) (A) (A) (A) (A) (A) (A) (A) (A) (A)
                 (A) (A) (A) (A) (A) (A) (A) (A) (A) (A) (A) (A)
                 (A) (A) (A) (A) (A) (A) (A) (A) (A) (A) (A) (A)
                 (A) (A) (A) (A) (A) (A) (A) (A) (A) (A) (A) (A)
                 (A) (A) (A) (A) (A) (A) (A) (A) (A) (A) (A) (A)
                 (A) (A) (A) (A) (A) (A) (A) (A) (A) (A) (A) (A)
                 (A) (A) (A) (A) (A) (A) (A) (A) (A) (A) (A) (A)
                 (A) (A) (A) (A) (A) (A) (A) (A) (A) (A) (A) (A)
                 (A) (A) (A) (A) (A) (A) (A) (A) (A) (A) (A) (A)
                 (A) (A) (A) (A) (A) (A) (A) (A) (A) (A) (A) (A)
                 (A) (A) (A) (A) (A) (A) (A) (A) (A) (A) (A) (A)
                 (A) (A) (A) (A) (A) (A) (A) (A) (A) (A) (A) (A)
                 (A) (A) (A) (A) (A) (A) (A) (A) (A) (A) (A) (A)
                 (A) (A) (A) (A) (A) (A) (A) (A) (A) (A) (A) (A)
                 (A) (A) (A) (A) (A) (A) (A) (A) (A) (A) (A) (A)
                 (A) (A) (A) (A) (A) (A) (A) (A) (A) (A) (A) (A)
                 (A) (A) (A) (A) (A) (A) (A) (A) (A) (A) (A) (A)
                 (A) (A) (A) (A) (A) (A) (A) (A) (A) (A) (A) (A)
                 (A) (A) (A) (A) (A) (A) (A) (A) (A) (A) (A) (A)
                 (A) (A) (A) (A) (A) (A) (A) (A) (A) (A) (A) (A)
                 (A) (A) (A) (A) (A) (A) (A) (A) (A) (A) (A) (A)
                 (A) (A) (A) (A) (A) (A) (A) (A) (A) (A) (A) (A)
                 (A) (A) (A) (A) (A) (A) (A) (A) (A) (A) (A) (A)
                 (A) (A) (A) (A) (A) (A) (A) (A) (A) (A) (A) (A)
                 (A) (A) (A) (A) (A) (A) (A) (A) (A) (A) (A) (A)
                 (A) (A) (A) (A) (A) (A) (A) (A) (A) (A) (A) (A)
                 (A) (A) (A) (A) (A) (A) (A) (A) (A) (A) (A) (A)
                 (A) (A) (A) (A) (A) (A) (A) (A) (A) (A) (A) (A)
                 (A) (A) (A) (A) (A) (A) (A) (A) (A) (A) (A) (A)
                 (A) (A) (A) (A) (A) (A) (A) (A) (A) (A) (A) (A)
                 (A) (A) (A) (A) (A) (A) (A) (A) (A) (A) (A) (A)
                 (A) (A) (A) (A) (A) (A) (A) (A) (A) (A) (A) (A)
                 (A) (A) (A) (A) (A) (A) (A) (A) (A) (A) (A) (A)
                 (A) (A) (A) (A) (A) (A) (A) (A) (A) (A) (A) (A)
                 (A) (A) (A) (A) (A) (A) (A) (A) (A) (A) (A) (A)
                 (A) (A) (A) (A) (A) (A) (A) (A) (A) (A) (A) (A)
                 (A) (A) (A) (A) (A) (A) (A) (A) (A) (A) (A) (A)
                 (A) (A) (A) (A) (A) (A) (A) (A) (A) (A) (A) (A)
                 (A) (A) (A) (A) (A) (A) (A) (A) (A) (A) (A) (A)
                 (A) (A) (A) (A) (A) (A) (A) (A) (A) (A) (A) (A)
                 (A) (A) (A) (A) (A) (A) (A) (A) (A) (A) (A) (A)
                 (A) (A) (A)
 The electronic state is 1-A.
 Alpha  occ. eigenvalues -- -256.19640 -88.97497 -30.04528 -25.88735 -25.88386
 Alpha  occ. eigenvalues --  -25.88162 -14.34653 -14.34631 -14.34608 -14.34596
 Alpha  occ. eigenvalues --  -10.22647 -10.21887 -10.21803 -10.21769 -10.21764
 Alpha  occ. eigenvalues --  -10.21763 -10.21744 -10.21658 -10.21562 -10.20240
 Alpha  occ. eigenvalues --  -10.19938 -10.19638 -10.19565 -10.19514 -10.19450
 Alpha  occ. eigenvalues --  -10.19432 -10.19376 -10.19364 -10.19298 -10.19290
 Alpha  occ. eigenvalues --  -10.19282 -10.19264 -10.19235 -10.19231 -10.19209
 Alpha  occ. eigenvalues --  -10.19181 -10.19092 -10.18961 -10.18782 -10.18636
 Alpha  occ. eigenvalues --  -10.18528  -8.00213  -5.94774  -5.94496  -5.94020
 Alpha  occ. eigenvalues --   -3.42311  -2.19194  -2.18225  -2.17885  -0.97879
 Alpha  occ. eigenvalues --   -0.96955  -0.96829  -0.95898  -0.83159  -0.82525
 Alpha  occ. eigenvalues --   -0.82178  -0.81659  -0.81246  -0.81025  -0.80518
 Alpha  occ. eigenvalues --   -0.80365  -0.77572  -0.76365  -0.74998  -0.74828
 Alpha  occ. eigenvalues --   -0.73881  -0.71463  -0.70679  -0.69047  -0.68715
 Alpha  occ. eigenvalues --   -0.68557  -0.67173  -0.65101  -0.64769  -0.61280
 Alpha  occ. eigenvalues --   -0.60838  -0.58428  -0.57461  -0.55225  -0.54910
 Alpha  occ. eigenvalues --   -0.54158  -0.52863  -0.51958  -0.51544  -0.51093
 Alpha  occ. eigenvalues --   -0.49120  -0.48731  -0.48159  -0.47318  -0.46853
 Alpha  occ. eigenvalues --   -0.46013  -0.45483  -0.45090  -0.44692  -0.44472
 Alpha  occ. eigenvalues --   -0.44429  -0.44027  -0.43891  -0.43487  -0.43333
 Alpha  occ. eigenvalues --   -0.42832  -0.42252  -0.42072  -0.41988  -0.41404
 Alpha  occ. eigenvalues --   -0.40946  -0.40745  -0.40629  -0.40453  -0.40189
 Alpha  occ. eigenvalues --   -0.39928  -0.39812  -0.39437  -0.39090  -0.38588
 Alpha  occ. eigenvalues --   -0.38425  -0.37920  -0.37670  -0.37457  -0.37242
 Alpha  occ. eigenvalues --   -0.36803  -0.36176  -0.35766  -0.35187  -0.34776
 Alpha  occ. eigenvalues --   -0.34323  -0.32558  -0.32286  -0.31336  -0.31101
 Alpha  occ. eigenvalues --   -0.29903  -0.29737  -0.29333  -0.27589  -0.27390
 Alpha  occ. eigenvalues --   -0.25372  -0.25022  -0.23810  -0.22947  -0.21136
 Alpha  occ. eigenvalues --   -0.19814  -0.19595  -0.19569  -0.18620
 Alpha virt. eigenvalues --   -0.07377  -0.07222  -0.04106  -0.02539  -0.00064
 Alpha virt. eigenvalues --    0.00716   0.01500   0.03395   0.03570   0.03880
 Alpha virt. eigenvalues --    0.04533   0.04810   0.05563   0.05807   0.06532
 Alpha virt. eigenvalues --    0.07117   0.07234   0.07409   0.07882   0.08401
 Alpha virt. eigenvalues --    0.08784   0.09030   0.09542   0.09694   0.10021
 Alpha virt. eigenvalues --    0.10078   0.10606   0.11032   0.11423   0.11586
 Alpha virt. eigenvalues --    0.11676   0.11903   0.12195   0.12354   0.12615
 Alpha virt. eigenvalues --    0.12922   0.13151   0.13553   0.13628   0.14177
 Alpha virt. eigenvalues --    0.14369   0.14531   0.14745   0.15018   0.15289
 Alpha virt. eigenvalues --    0.15508   0.15557   0.15775   0.15986   0.16209
 Alpha virt. eigenvalues --    0.16506   0.16869   0.17274   0.17391   0.17708
 Alpha virt. eigenvalues --    0.17968   0.18078   0.18791   0.19016   0.19057
 Alpha virt. eigenvalues --    0.19342   0.19731   0.19969   0.20041   0.20386
 Alpha virt. eigenvalues --    0.20655   0.20899   0.21588   0.21885   0.22062
 Alpha virt. eigenvalues --    0.22240   0.22597   0.22919   0.23184   0.23429
 Alpha virt. eigenvalues --    0.23835   0.24186   0.24605   0.25104   0.25148
 Alpha virt. eigenvalues --    0.25507   0.25804   0.25888   0.26512   0.26759
 Alpha virt. eigenvalues --    0.26990   0.27275   0.27405   0.28049   0.28337
 Alpha virt. eigenvalues --    0.28444   0.28603   0.28783   0.29038   0.29351
 Alpha virt. eigenvalues --    0.29495   0.29738   0.29843   0.30663   0.30875
 Alpha virt. eigenvalues --    0.31031   0.31508   0.31604   0.32054   0.32441
 Alpha virt. eigenvalues --    0.32710   0.33153   0.33270   0.33567   0.33923
 Alpha virt. eigenvalues --    0.34107   0.34459   0.35097   0.35394   0.35621
 Alpha virt. eigenvalues --    0.36054   0.36254   0.36466   0.36638   0.36964
 Alpha virt. eigenvalues --    0.37517   0.37723   0.38158   0.38367   0.38658
 Alpha virt. eigenvalues --    0.38990   0.39165   0.39337   0.39568   0.39850
 Alpha virt. eigenvalues --    0.40240   0.40617   0.40735   0.40824   0.41144
 Alpha virt. eigenvalues --    0.41416   0.41675   0.41920   0.42081   0.42407
 Alpha virt. eigenvalues --    0.42521   0.42687   0.42839   0.43029   0.43333
 Alpha virt. eigenvalues --    0.43699   0.43954   0.44446   0.44646   0.44797
 Alpha virt. eigenvalues --    0.44811   0.45364   0.45698   0.45933   0.46080
 Alpha virt. eigenvalues --    0.46210   0.46447   0.46582   0.47022   0.47113
 Alpha virt. eigenvalues --    0.47300   0.47457   0.47657   0.48124   0.48223
 Alpha virt. eigenvalues --    0.48271   0.48576   0.48839   0.49244   0.49564
 Alpha virt. eigenvalues --    0.49621   0.50053   0.50117   0.50318   0.50673
 Alpha virt. eigenvalues --    0.50931   0.51211   0.51328   0.51575   0.51685
 Alpha virt. eigenvalues --    0.51907   0.52154   0.52432   0.52916   0.53130
 Alpha virt. eigenvalues --    0.53470   0.53672   0.54000   0.54277   0.54700
 Alpha virt. eigenvalues --    0.54967   0.55424   0.55628   0.56117   0.56373
 Alpha virt. eigenvalues --    0.56485   0.56840   0.57214   0.57826   0.57950
 Alpha virt. eigenvalues --    0.58235   0.58421   0.58952   0.59388   0.59654
 Alpha virt. eigenvalues --    0.59947   0.60683   0.60996   0.61616   0.61875
 Alpha virt. eigenvalues --    0.62164   0.62405   0.62819   0.62820   0.63262
 Alpha virt. eigenvalues --    0.63595   0.63833   0.64128   0.64380   0.64755
 Alpha virt. eigenvalues --    0.64952   0.65015   0.66005   0.66206   0.66707
 Alpha virt. eigenvalues --    0.66875   0.67350   0.67486   0.67967   0.68181
 Alpha virt. eigenvalues --    0.68656   0.68950   0.69265   0.69506   0.69980
 Alpha virt. eigenvalues --    0.70324   0.70542   0.70772   0.71133   0.71349
 Alpha virt. eigenvalues --    0.71445   0.72159   0.72477   0.72594   0.73576
 Alpha virt. eigenvalues --    0.73843   0.74020   0.74288   0.74910   0.75107
 Alpha virt. eigenvalues --    0.75213   0.75404   0.75692   0.76166   0.76229
 Alpha virt. eigenvalues --    0.76568   0.76766   0.77525   0.77792   0.78259
 Alpha virt. eigenvalues --    0.78818   0.79119   0.79409   0.80174   0.80255
 Alpha virt. eigenvalues --    0.80690   0.80963   0.81199   0.81404   0.82387
 Alpha virt. eigenvalues --    0.82607   0.83360   0.83852   0.84305   0.84502
 Alpha virt. eigenvalues --    0.85002   0.85326   0.85597   0.85877   0.86656
 Alpha virt. eigenvalues --    0.87100   0.87458   0.87843   0.88104   0.88578
 Alpha virt. eigenvalues --    0.89033   0.89381   0.89660   0.89965   0.90309
 Alpha virt. eigenvalues --    0.91159   0.91314   0.91661   0.92213   0.92773
 Alpha virt. eigenvalues --    0.92947   0.93724   0.93895   0.94271   0.94845
 Alpha virt. eigenvalues --    0.94960   0.95481   0.95817   0.96187   0.96495
 Alpha virt. eigenvalues --    0.96781   0.97309   0.97729   0.97857   0.98077
 Alpha virt. eigenvalues --    0.98581   0.99093   0.99431   0.99809   1.00590
 Alpha virt. eigenvalues --    1.00703   1.00966   1.01530   1.01735   1.01926
 Alpha virt. eigenvalues --    1.02234   1.02526   1.02831   1.03331   1.03604
 Alpha virt. eigenvalues --    1.04097   1.04211   1.04598   1.05326   1.05515
 Alpha virt. eigenvalues --    1.05872   1.06142   1.06972   1.07502   1.07674
 Alpha virt. eigenvalues --    1.08465   1.09023   1.09181   1.09923   1.10321
 Alpha virt. eigenvalues --    1.10410   1.11267   1.11474   1.12006   1.12766
 Alpha virt. eigenvalues --    1.13475   1.13802   1.14376   1.15111   1.15673
 Alpha virt. eigenvalues --    1.16034   1.17104   1.17276   1.17664   1.17762
 Alpha virt. eigenvalues --    1.18513   1.19017   1.19263   1.19738   1.20334
 Alpha virt. eigenvalues --    1.20493   1.21253   1.21577   1.21923   1.23031
 Alpha virt. eigenvalues --    1.23322   1.23628   1.24405   1.24683   1.25058
 Alpha virt. eigenvalues --    1.25595   1.26296   1.26724   1.26866   1.27027
 Alpha virt. eigenvalues --    1.27418   1.27636   1.28286   1.28401   1.28732
 Alpha virt. eigenvalues --    1.29202   1.29559   1.30190   1.30529   1.31288
 Alpha virt. eigenvalues --    1.31498   1.32240   1.32421   1.33684   1.34200
 Alpha virt. eigenvalues --    1.35628   1.36054   1.36739   1.37017   1.37989
 Alpha virt. eigenvalues --    1.38129   1.38656   1.39505   1.40216   1.40914
 Alpha virt. eigenvalues --    1.41707   1.42060   1.42887   1.43082   1.43728
 Alpha virt. eigenvalues --    1.43827   1.44571   1.45035   1.45957   1.46426
 Alpha virt. eigenvalues --    1.46937   1.47265   1.47726   1.48021   1.48213
 Alpha virt. eigenvalues --    1.48671   1.48854   1.49634   1.50074   1.50122
 Alpha virt. eigenvalues --    1.50712   1.50959   1.51228   1.51486   1.51794
 Alpha virt. eigenvalues --    1.52090   1.52422   1.52709   1.53107   1.53243
 Alpha virt. eigenvalues --    1.53404   1.53791   1.54097   1.54157   1.54600
 Alpha virt. eigenvalues --    1.54979   1.55264   1.55564   1.55838   1.55904
 Alpha virt. eigenvalues --    1.56248   1.56495   1.56733   1.57059   1.57168
 Alpha virt. eigenvalues --    1.57596   1.58055   1.58495   1.58851   1.59288
 Alpha virt. eigenvalues --    1.59621   1.59855   1.59988   1.60385   1.60882
 Alpha virt. eigenvalues --    1.60964   1.61447   1.61829   1.61949   1.62493
 Alpha virt. eigenvalues --    1.63200   1.63420   1.63907   1.64104   1.64373
 Alpha virt. eigenvalues --    1.64731   1.64925   1.65021   1.65527   1.65834
 Alpha virt. eigenvalues --    1.66285   1.66484   1.67018   1.67306   1.67870
 Alpha virt. eigenvalues --    1.68102   1.68284   1.68680   1.69126   1.69467
 Alpha virt. eigenvalues --    1.70075   1.70451   1.70549   1.70820   1.71239
 Alpha virt. eigenvalues --    1.71883   1.72021   1.72579   1.72718   1.73540
 Alpha virt. eigenvalues --    1.74173   1.74246   1.74809   1.75515   1.75952
 Alpha virt. eigenvalues --    1.76508   1.76648   1.77069   1.78332   1.78661
 Alpha virt. eigenvalues --    1.79588   1.79667   1.80335   1.80941   1.81383
 Alpha virt. eigenvalues --    1.81681   1.82050   1.83071   1.83281   1.83632
 Alpha virt. eigenvalues --    1.84162   1.84351   1.85085   1.85198   1.86391
 Alpha virt. eigenvalues --    1.86651   1.86769   1.87152   1.88156   1.88542
 Alpha virt. eigenvalues --    1.88824   1.90189   1.90836   1.90929   1.91352
 Alpha virt. eigenvalues --    1.91661   1.93215   1.93583   1.93793   1.94722
 Alpha virt. eigenvalues --    1.95042   1.95707   1.95943   1.96061   1.96875
 Alpha virt. eigenvalues --    1.97134   1.97513   1.97966   1.98635   1.98857
 Alpha virt. eigenvalues --    1.99221   1.99630   2.00190   2.00289   2.00984
 Alpha virt. eigenvalues --    2.01585   2.01654   2.02055   2.03193   2.03884
 Alpha virt. eigenvalues --    2.04675   2.04916   2.05439   2.05924   2.06417
 Alpha virt. eigenvalues --    2.07020   2.07367   2.07712   2.08256   2.08735
 Alpha virt. eigenvalues --    2.09657   2.09760   2.10063   2.10276   2.11631
 Alpha virt. eigenvalues --    2.12205   2.12564   2.12788   2.13667   2.14285
 Alpha virt. eigenvalues --    2.14804   2.15019   2.15949   2.16349   2.17075
 Alpha virt. eigenvalues --    2.17751   2.18162   2.18478   2.19027   2.19496
 Alpha virt. eigenvalues --    2.20175   2.20823   2.21519   2.21944   2.22969
 Alpha virt. eigenvalues --    2.23405   2.23994   2.24283   2.24557   2.24925
 Alpha virt. eigenvalues --    2.25689   2.26283   2.26584   2.26695   2.27349
 Alpha virt. eigenvalues --    2.28005   2.28215   2.29301   2.29431   2.29750
 Alpha virt. eigenvalues --    2.30140   2.31002   2.31154   2.31478   2.32110
 Alpha virt. eigenvalues --    2.32605   2.32999   2.33565   2.34240   2.34824
 Alpha virt. eigenvalues --    2.35119   2.35437   2.36064   2.36167   2.36555
 Alpha virt. eigenvalues --    2.36700   2.37557   2.37949   2.38231   2.38703
 Alpha virt. eigenvalues --    2.38795   2.39463   2.40014   2.40460   2.40673
 Alpha virt. eigenvalues --    2.41288   2.41748   2.42266   2.42918   2.43154
 Alpha virt. eigenvalues --    2.43704   2.44627   2.44901   2.45766   2.46389
 Alpha virt. eigenvalues --    2.46539   2.47049   2.47386   2.47557   2.47931
 Alpha virt. eigenvalues --    2.49123   2.49300   2.49376   2.50421   2.51031
 Alpha virt. eigenvalues --    2.51777   2.51986   2.52555   2.52698   2.52917
 Alpha virt. eigenvalues --    2.53925   2.54334   2.54967   2.55265   2.55426
 Alpha virt. eigenvalues --    2.55743   2.56106   2.56231   2.56626   2.57740
 Alpha virt. eigenvalues --    2.57959   2.58049   2.58391   2.58760   2.58974
 Alpha virt. eigenvalues --    2.59827   2.59872   2.60460   2.60767   2.61025
 Alpha virt. eigenvalues --    2.61440   2.61740   2.61870   2.63169   2.63798
 Alpha virt. eigenvalues --    2.64139   2.64953   2.65210   2.65335   2.66032
 Alpha virt. eigenvalues --    2.66199   2.66955   2.67800   2.68327   2.68416
 Alpha virt. eigenvalues --    2.68811   2.69082   2.69669   2.70498   2.70720
 Alpha virt. eigenvalues --    2.71162   2.71438   2.71757   2.72838   2.73440
 Alpha virt. eigenvalues --    2.73716   2.74149   2.74552   2.75367   2.75551
 Alpha virt. eigenvalues --    2.75941   2.76756   2.77534   2.78048   2.78915
 Alpha virt. eigenvalues --    2.79015   2.79402   2.79777   2.80109   2.80561
 Alpha virt. eigenvalues --    2.81368   2.81545   2.82230   2.82808   2.83370
 Alpha virt. eigenvalues --    2.83554   2.83658   2.84233   2.84684   2.85394
 Alpha virt. eigenvalues --    2.85798   2.86107   2.86779   2.87033   2.87433
 Alpha virt. eigenvalues --    2.87546   2.88128   2.88558   2.88803   2.89277
 Alpha virt. eigenvalues --    2.89817   2.90108   2.90676   2.90849   2.91607
 Alpha virt. eigenvalues --    2.92018   2.92143   2.92688   2.93269   2.93589
 Alpha virt. eigenvalues --    2.94176   2.94743   2.95257   2.96094   2.96569
 Alpha virt. eigenvalues --    2.96687   2.97402   2.97951   2.98078   2.98351
 Alpha virt. eigenvalues --    2.98735   2.99470   3.00404   3.00960   3.01021
 Alpha virt. eigenvalues --    3.01771   3.01972   3.02597   3.03031   3.03509
 Alpha virt. eigenvalues --    3.04106   3.04129   3.04768   3.05172   3.05333
 Alpha virt. eigenvalues --    3.05682   3.06542   3.06621   3.07475   3.07636
 Alpha virt. eigenvalues --    3.07801   3.08239   3.08668   3.08951   3.09154
 Alpha virt. eigenvalues --    3.09466   3.09948   3.10544   3.10814   3.11058
 Alpha virt. eigenvalues --    3.11549   3.12115   3.12173   3.13000   3.13410
 Alpha virt. eigenvalues --    3.13656   3.14163   3.14328   3.14553   3.14837
 Alpha virt. eigenvalues --    3.14999   3.15813   3.16179   3.16535   3.16950
 Alpha virt. eigenvalues --    3.17420   3.17925   3.18188   3.18456   3.18699
 Alpha virt. eigenvalues --    3.19039   3.19623   3.19943   3.20187   3.20287
 Alpha virt. eigenvalues --    3.20729   3.20988   3.21107   3.21757   3.21994
 Alpha virt. eigenvalues --    3.22510   3.22813   3.23292   3.23541   3.24076
 Alpha virt. eigenvalues --    3.24345   3.24542   3.24658   3.25048   3.25396
 Alpha virt. eigenvalues --    3.25519   3.26125   3.26666   3.26863   3.26965
 Alpha virt. eigenvalues --    3.27441   3.27831   3.28486   3.28763   3.29050
 Alpha virt. eigenvalues --    3.29584   3.29901   3.29927   3.30150   3.30751
 Alpha virt. eigenvalues --    3.30927   3.31096   3.31431   3.31805   3.31999
 Alpha virt. eigenvalues --    3.32453   3.33004   3.33378   3.33634   3.33691
 Alpha virt. eigenvalues --    3.33831   3.34305   3.34478   3.34697   3.34934
 Alpha virt. eigenvalues --    3.35157   3.35702   3.35948   3.36236   3.36342
 Alpha virt. eigenvalues --    3.36890   3.37042   3.37350   3.37568   3.37704
 Alpha virt. eigenvalues --    3.38159   3.38629   3.38695   3.39552   3.39675
 Alpha virt. eigenvalues --    3.40181   3.40268   3.40915   3.41282   3.41399
 Alpha virt. eigenvalues --    3.42005   3.42472   3.42990   3.43032   3.43401
 Alpha virt. eigenvalues --    3.44589   3.44658   3.44962   3.45183   3.45957
 Alpha virt. eigenvalues --    3.45980   3.46560   3.46856   3.47323   3.48329
 Alpha virt. eigenvalues --    3.48499   3.48921   3.49473   3.50006   3.50412
 Alpha virt. eigenvalues --    3.50888   3.51839   3.52960   3.53207   3.53776
 Alpha virt. eigenvalues --    3.54448   3.54778   3.55427   3.56781   3.56861
 Alpha virt. eigenvalues --    3.57520   3.57547   3.58362   3.58802   3.59085
 Alpha virt. eigenvalues --    3.59362   3.59660   3.60631   3.60998   3.61691
 Alpha virt. eigenvalues --    3.62063   3.62775   3.62962   3.63379   3.64029
 Alpha virt. eigenvalues --    3.65228   3.65510   3.66171   3.66640   3.66960
 Alpha virt. eigenvalues --    3.67535   3.68507   3.68587   3.69136   3.69782
 Alpha virt. eigenvalues --    3.70568   3.70852   3.70978   3.71534   3.71654
 Alpha virt. eigenvalues --    3.71969   3.72937   3.73112   3.73676   3.73827
 Alpha virt. eigenvalues --    3.74167   3.74195   3.75082   3.75458   3.76176
 Alpha virt. eigenvalues --    3.76687   3.77281   3.78134   3.78559   3.79148
 Alpha virt. eigenvalues --    3.79902   3.81160   3.81302   3.82122   3.83064
 Alpha virt. eigenvalues --    3.83490   3.84255   3.84555   3.85081   3.85368
 Alpha virt. eigenvalues --    3.85540   3.86799   3.87637   3.88680   3.88871
 Alpha virt. eigenvalues --    3.89409   3.90284   3.90787   3.91009   3.92207
 Alpha virt. eigenvalues --    3.92861   3.93155   3.94374   3.95065   3.95907
 Alpha virt. eigenvalues --    3.96759   3.97349   3.98292   3.98517   3.98899
 Alpha virt. eigenvalues --    3.99546   4.00283   4.01140   4.01958   4.02397
 Alpha virt. eigenvalues --    4.02966   4.03584   4.04309   4.04409   4.05010
 Alpha virt. eigenvalues --    4.05543   4.06482   4.07646   4.07920   4.09032
 Alpha virt. eigenvalues --    4.09406   4.10756   4.11316   4.11780   4.11952
 Alpha virt. eigenvalues --    4.13559   4.14009   4.15245   4.16119   4.16349
 Alpha virt. eigenvalues --    4.16841   4.17522   4.17787   4.18484   4.18962
 Alpha virt. eigenvalues --    4.19224   4.19868   4.20780   4.21247   4.21757
 Alpha virt. eigenvalues --    4.22111   4.22886   4.23831   4.24346   4.25510
 Alpha virt. eigenvalues --    4.26364   4.26506   4.26953   4.27407   4.28464
 Alpha virt. eigenvalues --    4.29138   4.29811   4.30114   4.31181   4.31509
 Alpha virt. eigenvalues --    4.31769   4.32467   4.33117   4.33374   4.34290
 Alpha virt. eigenvalues --    4.34417   4.35624   4.36083   4.37108   4.37527
 Alpha virt. eigenvalues --    4.38739   4.39070   4.39852   4.39992   4.40375
 Alpha virt. eigenvalues --    4.40934   4.41221   4.42033   4.42565   4.43492
 Alpha virt. eigenvalues --    4.43964   4.44650   4.45013   4.45473   4.46267
 Alpha virt. eigenvalues --    4.46513   4.46920   4.47495   4.47929   4.49909
 Alpha virt. eigenvalues --    4.51472   4.52147   4.52987   4.53312   4.53939
 Alpha virt. eigenvalues --    4.55045   4.55906   4.56386   4.57075   4.58467
 Alpha virt. eigenvalues --    4.60653   4.62192   4.62499   4.63738   4.65111
 Alpha virt. eigenvalues --    4.65890   4.66775   4.67651   4.67990   4.68494
 Alpha virt. eigenvalues --    4.68966   4.70660   4.72159   4.72646   4.74143
 Alpha virt. eigenvalues --    4.74737   4.75157   4.77153   4.77865   4.79624
 Alpha virt. eigenvalues --    4.81147   4.81761   4.82256   4.82987   4.83310
 Alpha virt. eigenvalues --    4.84081   4.84256   4.84917   4.86552   4.86880
 Alpha virt. eigenvalues --    4.87747   4.89113   4.90775   4.92551   4.93175
 Alpha virt. eigenvalues --    4.94015   4.94978   4.95788   4.97467   4.98296
 Alpha virt. eigenvalues --    4.99638   5.01053   5.01491   5.01851   5.02356
 Alpha virt. eigenvalues --    5.03458   5.04427   5.04681   5.05563   5.07394
 Alpha virt. eigenvalues --    5.07962   5.09686   5.10088   5.11653   5.13748
 Alpha virt. eigenvalues --    5.16371   5.17835   5.18389   5.19280   5.20586
 Alpha virt. eigenvalues --    5.21440   5.22865   5.23435   5.24358   5.25563
 Alpha virt. eigenvalues --    5.27854   5.34668   5.35434   5.35622   5.36604
 Alpha virt. eigenvalues --    5.37829   5.38255   5.38660   5.39478   5.41834
 Alpha virt. eigenvalues --    5.46608   5.48392   5.48945   5.49841   5.50302
 Alpha virt. eigenvalues --    5.51170   5.52775   5.57888   5.59262   5.60548
 Alpha virt. eigenvalues --    5.61073   5.61796   5.65453   5.66705   5.67143
 Alpha virt. eigenvalues --    5.71412   5.73564   5.75092   5.75331   5.76437
 Alpha virt. eigenvalues --    5.77089   5.83669   5.87675   5.90815   5.99302
 Alpha virt. eigenvalues --    6.00681   6.01241   6.06015   6.09887   6.10950
 Alpha virt. eigenvalues --    6.12136   6.17273   6.25499   6.31790   6.32944
 Alpha virt. eigenvalues --    6.39683   9.04317   9.18802   9.38144  19.50717
 Alpha virt. eigenvalues --   22.31017  22.34013  22.35401  22.45457  22.45967
 Alpha virt. eigenvalues --   22.53095  22.54371  22.61276  22.61782  22.79767
 Alpha virt. eigenvalues --   22.86320  22.87711  22.90772  22.93346  22.95316
 Alpha virt. eigenvalues --   22.95797  23.02107  23.04184  23.14182  23.25161
 Alpha virt. eigenvalues --   23.29390  23.29901  23.35807  23.42419  23.50709
 Alpha virt. eigenvalues --   23.51405  23.55961  23.74461  23.78124  23.79539
 Alpha virt. eigenvalues --   23.88045  32.85372  32.86928  32.88443  33.01592
          Condensed to atoms (all electrons):
 Mulliken charges:
               1
     1  Fe  -0.231768
     2  N   -0.084541
     3  N   -0.093394
     4  N   -0.047054
     5  N   -0.056325
     6  C    0.292668
     7  C   -0.067361
     8  C   -0.021142
     9  C    0.245750
    10  C    0.211035
    11  C   -0.072036
    12  C    0.077300
    13  C    0.256898
    14  C    0.278604
    15  C   -0.063408
    16  C    0.065016
    17  C    0.208728
    18  C    0.200781
    19  C   -0.001295
    20  C   -0.059977
    21  C    0.245121
    22  C   -0.491930
    23  H    0.140659
    24  C   -0.441825
    25  H    0.140112
    26  C   -0.452822
    27  H    0.175992
    28  C   -0.401279
    29  H    0.124360
    30  C   -0.421236
    31  H    0.120944
    32  H    0.134356
    33  H    0.144124
    34  C   -0.413735
    35  H    0.141175
    36  H    0.133220
    37  H    0.121033
    38  C   -0.401752
    39  H    0.139426
    40  H    0.136611
    41  H    0.129060
    42  C   -0.243003
    43  H    0.120939
    44  C   -0.308074
    45  H    0.149220
    46  H    0.125142
    47  C   -0.446189
    48  H    0.134603
    49  H    0.143172
    50  H    0.157645
    51  C   -0.207455
    52  H    0.112698
    53  C   -0.287122
    54  H    0.140610
    55  H    0.123641
    56  C   -0.419936
    57  H    0.143012
    58  H    0.136908
    59  H    0.121232
    60  C   -0.410150
    61  H    0.138341
    62  H    0.121548
    63  H    0.134449
    64  C   -0.341216
    65  H    0.148098
    66  H    0.155944
    67  H    0.164091
    68  S   -0.016675
    69  H    0.168437
 Sum of Mulliken charges =  -0.00000
 Mulliken charges with hydrogens summed into heavy atoms:
               1
     1  Fe  -0.231768
     2  N   -0.084541
     3  N   -0.093394
     4  N   -0.047054
     5  N   -0.056325
     6  C    0.292668
     7  C   -0.067361
     8  C   -0.021142
     9  C    0.245750
    10  C    0.211035
    11  C   -0.072036
    12  C    0.077300
    13  C    0.256898
    14  C    0.278604
    15  C   -0.063408
    16  C    0.065016
    17  C    0.208728
    18  C    0.200781
    19  C   -0.001295
    20  C   -0.059977
    21  C    0.245121
    22  C   -0.351271
    24  C   -0.301713
    26  C   -0.276830
    28  C   -0.276919
    30  C   -0.021813
    34  C   -0.018307
    38  C    0.003344
    42  C   -0.122065
    44  C   -0.033712
    47  C   -0.010768
    51  C   -0.094757
    53  C   -0.022871
    56  C   -0.018784
    60  C   -0.015812
    64  C    0.126916
    68  S    0.151762
 Electronic spatial extent (au):  <R**2>=          17936.7191
 Charge=              0.0000 electrons
 Dipole moment (field-independent basis, Debye):
    X=              2.3972    Y=              0.2023    Z=              1.5084  Tot=              2.8395
 Quadrupole moment (field-independent basis, Debye-Ang):
   XX=           -213.2788   YY=           -211.1466   ZZ=           -230.7693
   XY=             -1.7001   XZ=              2.3286   YZ=             -0.9273
 Traceless Quadrupole moment (field-independent basis, Debye-Ang):
   XX=              5.1195   YY=              7.2516   ZZ=            -12.3711
   XY=             -1.7001   XZ=              2.3286   YZ=             -0.9273
 Octapole moment (field-independent basis, Debye-Ang**2):
  XXX=             25.7027  YYY=             -2.1322  ZZZ=             35.7191  XYY=             21.7218
  XXY=              7.1203  XXZ=             -2.5805  XZZ=             29.8713  YZZ=              2.0925
  YYZ=            -13.9193  XYZ=              0.4798
 Hexadecapole moment (field-independent basis, Debye-Ang**3):
 XXXX=         -11579.6613 YYYY=         -10913.3528 ZZZZ=          -1277.4299 XXXY=            -37.1084
 XXXZ=           -113.4247 YYYX=            -14.1817 YYYZ=            -33.0081 ZZZX=             50.4981
 ZZZY=             -7.8858 XXYY=          -3770.1571 XXZZ=          -2300.4479 YYZZ=          -2201.2025
 XXYZ=            -32.4698 YYXZ=             37.3006 ZZXY=            -11.5556
 N-N= 5.042721295788D+03 E-N=-1.733912607586D+04  KE= 3.071206779467D+03
  Exact polarizability:     696.340       8.315     663.328      -9.361      -0.864     255.426
 Approx polarizability:    1283.150      12.852    1238.289     -18.585      -0.589     434.920

 ----------------------------------------------------------------------

 Electric dipole moment (input orientation):
 (Debye = 10**-18 statcoulomb cm , SI units = C m)
                  (au)            (Debye)         (10**-30 SI)
   Tot        0.111714D+01      0.283948D+01      0.947150D+01
   x         -0.200070D+00     -0.508528D+00     -0.169627D+01
   y         -0.107969D+01     -0.274430D+01     -0.915401D+01
   z         -0.205516D+00     -0.522369D+00     -0.174243D+01

 Dipole polarizability, Alpha (input orientation).
 (esu units = cm**3 , SI units = C**2 m**2 J**-1)
 Alpha(0;0):
               (au)            (10**-24 esu)      (10**-40 SI)
   iso        0.538365D+03      0.797775D+02      0.887644D+02
   aniso      0.425925D+03      0.631155D+02      0.702255D+02
   xx         0.371641D+03      0.550715D+02      0.612753D+02
   yx        -0.124487D+03     -0.184470D+02     -0.205251D+02
   yy         0.649401D+03      0.962312D+02      0.107072D+03
   zx        -0.139728D+03     -0.207055D+02     -0.230380D+02
   zy        -0.619388D+02     -0.917839D+01     -0.102123D+02
   zz         0.594053D+03      0.880296D+02      0.979461D+02

 First dipole hyperpolarizability, Beta (input orientation).
 ||, _|_  parallel and perpendicular components, (z) with respect to z axis,
 vector components x,y,z.  Values do not include the 1/n! factor of 1/2.
 (esu units = statvolt**-1 cm**4 , SI units = C**3 m**3 J**-2)
 Beta(0;0,0):
               (au)            (10**-30 esu)      (10**-50 SI)
   || (z)     0.660072D+02      0.570251D+00      0.211643D+00
   _|_(z)     0.220024D+02      0.190084D+00      0.705476D-01
   x         -0.964583D+03     -0.833324D+01     -0.309280D+01
   y          0.357919D+04      0.309214D+02      0.114762D+02
   z          0.330036D+03      0.285125D+01      0.105821D+01
   ||         0.744310D+03      0.643026D+01      0.238653D+01
   xxx       -0.153009D+03     -0.132188D+01     -0.490603D+00
   xxy        0.521668D+02      0.450681D+00      0.167266D+00
   yxy        0.716123D+02      0.618674D+00      0.229615D+00
   yyy        0.822248D+03      0.710358D+01      0.263642D+01
   xxz        0.281695D+03      0.243363D+01      0.903216D+00
   yxz       -0.151640D+03     -0.131005D+01     -0.486212D+00
   yyz       -0.413377D+03     -0.357126D+01     -0.132544D+01
   zxz       -0.240131D+03     -0.207454D+01     -0.769945D+00
   zyz        0.318648D+03      0.275287D+01      0.102170D+01
   zzz        0.241694D+03      0.208805D+01      0.774960D+00

 ----------------------------------------------------------------------

 Dipole orientation:
    26        -12.43896223         34.24934845        -38.89489604
     7        -11.41419628         36.52047420        -36.01954814
     7        -14.78112204         37.01527616        -40.16586687
     7        -13.09404585         32.41317160        -42.08141881
     7         -9.71910337         31.90041308        -37.91038653
     6         -9.34678295         36.26020783        -34.49527242
     6         -8.95278291         38.48449921        -32.96986242
     6        -10.80902917         40.13636943        -33.62197991
     6        -12.29677125         38.89691312        -35.54619328
     6        -15.45062219         39.15738401        -38.90057386
     6        -17.27105052         40.59985247        -40.31292013
     6        -17.71803253         39.27838089        -42.48711833
     6        -16.14305187         37.04637249        -42.34995048
     6        -14.49052781         33.12130655        -44.12514183
     6        -14.34759556         31.25720523        -46.10180970
     6        -12.80787770         29.37736097        -45.21639890
     6        -12.00442664         30.17263209        -42.72035654
     6         -9.27217683         29.61990889        -39.01779706
     6         -7.25964979         28.29989615        -37.72642512
     6         -6.49709380         29.83773089        -35.81188913
     6         -8.06688373         32.06572860        -35.94532317
     6         -7.85107266         34.12190553        -34.35256881
     1         -6.36854449         34.09047378        -32.95381321
     6        -14.35630781         40.01290853        -36.68891844
     1        -14.97067297         41.82035445        -35.97455852
     6        -15.96597544         35.27067907        -44.24905109
     1        -17.02459644         35.60854012        -45.95660420
     6        -10.40240722         28.76671524        -41.21052794
     1         -9.82875350         26.93628557        -41.90111614
     6        -11.29725611         42.73920062        -32.66845458
     1         -9.95419929         43.23804651        -31.19647790
     1        -13.19796163         42.88294948        -31.88699213
     1        -11.12663750         44.11186770        -34.19469940
     6         -6.85260765         38.78821518        -31.12093588
     1         -5.03043763         38.58657126        -32.05957355
     1         -6.97271730         37.35791923        -29.64252721
     1         -6.92325718         40.64067473        -30.23601787
     6        -18.41612046         43.02851699        -39.47155596
     1        -16.96512525         44.47343700        -39.23789481
     1        -19.37670316         42.79126477        -37.66468148
     1        -19.78642781         43.69135230        -40.85047398
     6        -19.44183479         39.96108027        -44.50620183
     1        -19.46125864         41.94966804        -45.00207690
     6        -20.99633374         38.38585985        -45.68633494
     1        -21.12091032         36.41680681        -45.18739570
     1        -22.24363802         39.02734095        -47.16200654
     6        -15.56192806         31.49213531        -48.62654837
     1        -15.49553185         33.43947153        -49.28749665
     1        -17.53909185         30.91297188        -48.54371584
     1        -14.59162969         30.29636601        -49.98923022
     6        -11.99450914         27.08381769        -46.46290918
     1        -10.09252686         26.46360686        -46.02605341
     6        -13.38699972         25.72740544        -48.05178435
     1        -15.31423271         26.20997969        -48.48421084
     1        -12.65634461         24.04748267        -48.93961531
     6         -6.28313571         25.76936757        -38.47729353
     1         -5.37975301         25.86549574        -40.32647880
     1         -7.81872079         24.40187708        -38.58608847
     1         -4.89963784         25.08860301        -37.11971316
     6         -4.46604462         29.44689852        -33.90275088
     1         -2.99985818         30.88008998        -34.10547630
     1         -3.59722401         27.59930683        -34.12837311
     1         -5.22983189         29.57979473        -31.99403271
     6        -14.17075000         31.05570695        -33.72164321
     1        -13.20177209         29.32475559        -34.24082605
     1        -15.64306557         30.65832146        -32.34986872
     1        -12.82061286         32.41999806        -33.00186994
    16        -15.61479485         32.27918270        -36.61665986
     1        -16.61992045         34.32294022        -35.51086273

 Electric dipole moment (dipole orientation):
 (Debye = 10**-18 statcoulomb cm , SI units = C m)
                  (au)            (Debye)         (10**-30 SI)
   Tot        0.111714D+01      0.283948D+01      0.947150D+01
   x          0.000000D+00      0.000000D+00      0.000000D+00
   y          0.000000D+00      0.000000D+00      0.000000D+00
   z          0.111714D+01      0.283948D+01      0.947150D+01

 Dipole polarizability, Alpha (dipole orientation).
 (esu units = cm**3 , SI units = C**2 m**2 J**-1)
 Alpha(0;0):
               (au)            (10**-24 esu)      (10**-40 SI)
   iso        0.538365D+03      0.797775D+02      0.887644D+02
   aniso      0.425925D+03      0.631155D+02      0.702255D+02
   xx         0.465572D+03      0.689907D+02      0.767625D+02
   yx        -0.123021D+03     -0.182298D+02     -0.202834D+02
   yy         0.585231D+03      0.867222D+02      0.964915D+02
   zx         0.168509D+03      0.249704D+02      0.277834D+02
   zy         0.113391D+03      0.168028D+02      0.186957D+02
   zz         0.564292D+03      0.836194D+02      0.930391D+02

 First dipole hyperpolarizability, Beta (dipole orientation).
 ||, _|_  parallel and perpendicular components, (z) with respect to z axis,
 vector components x,y,z.  Values do not include the 1/n! factor of 1/2.
 (esu units = statvolt**-1 cm**4 , SI units = C**3 m**3 J**-2)
 Beta(0;0,0):
               (au)            (10**-30 esu)      (10**-50 SI)
   || (z)    -0.669435D+03     -0.578340D+01     -0.214645D+01
   _|_(z)    -0.223145D+03     -0.192780D+01     -0.715484D+00
   x         -0.152081D+04     -0.131386D+02     -0.487628D+01
   y         -0.577453D+03     -0.498874D+01     -0.185152D+01
   z         -0.334718D+04     -0.289170D+02     -0.107323D+02
   ||         0.744310D+03      0.643026D+01      0.238653D+01
   xxx       -0.350705D+03     -0.302982D+01     -0.112449D+01
   xxy        0.337018D+03      0.291157D+01      0.108060D+01
   yxy       -0.155031D+03     -0.133934D+01     -0.497084D+00
   yyy       -0.849548D+02     -0.733943D+00     -0.272396D+00
   xxz       -0.111598D+03     -0.964122D+00     -0.357824D+00
   yxz        0.121972D+03      0.105374D+01      0.391086D+00
   yyz       -0.430596D+03     -0.372002D+01     -0.138065D+01
   zxz       -0.120203D+01     -0.103846D-01     -0.385413D-02
   zyz       -0.444547D+03     -0.384054D+01     -0.142538D+01
   zzz       -0.573531D+03     -0.495486D+01     -0.183895D+01

 ----------------------------------------------------------------------
 Unable to Open any file for archive entry.
 1\1\GINC-BGN1040\SP\RAPFD\def2TZVP\C31H32Fe1N4S1\BEBZHART\01-Sep-2024\
 0\\# polar def2tzvp apfd int=(grid=ultrafine)\\4d3o_II_S\\0,1\Fe,0,-0.
 0683612115,17.0294932981,22.4817504645\N,0,0.3624303843,15.225996687,2
 3.266257108\N,0,-0.9397721294,17.551796601,24.2420529744\N,0,-0.245685
 7576,18.9149595204,21.9149514094\N,0,1.0569127991,16.577905444,20.9268
 062179\C,0,1.2622284759,14.31555072,22.7888260056\C,0,1.4925876709,13.
 2564932505,23.7405755948\C,0,0.7265095099,13.5491242308,24.8248093027\
 C,0,0.0470307191,14.7867673791,24.5192218417\C,0,-1.2386534589,16.7172
 268484,25.2778826001\C,0,-1.930443,17.4192847323,26.325634358\C,0,-2.0
 567486325,18.7134240519,25.9038030741\C,0,-1.4315561957,18.7707111802,
 24.5996507291\C,0,-0.7161834777,19.989145414,22.6084234137\C,0,-0.5994
 760448,21.1972270572,21.8339335014\C,0,-0.0361060554,20.8352297694,20.
 6403915618\C,0,0.2025149397,19.4076788136,20.7279886614\C,0,1.21553453
 89,17.3644037541,19.8259189574\C,0,2.0271628797,16.6956790132,18.83436
 73038\C,0,2.3572860728,15.4857626915,19.3622260445\C,0,1.7341019077,15
 .4266123189,20.6634717477\C,0,1.853333928,14.3656735231,21.5395722525\
 H,0,2.4816076698,13.5391139244,21.246825889\C,0,-0.8186708223,15.40589
 10645,25.3964153888\H,0,-1.0628439715,14.8862016697,26.3094943599\C,0,
 -1.2977816157,19.9266064898,23.8595889454\H,0,-1.6548389991,20.8440787
 281,24.2989425771\C,0,0.7754476608,18.6685790184,19.7101397556\H,0,0.9
 946299067,19.1818271352,18.7868500837\C,0,0.5861445228,12.8085244282,2
 6.1094420539\H,0,1.1766969311,11.8960818793,26.0939900763\H,0,-0.45535
 73819,12.5398426341,26.2870173161\H,0,0.92482326,13.4225979965,26.9438
 886113\C,0,2.4221164446,12.114484638,23.5168771477\H,0,3.4336017979,12
 .4760937357,23.332436129\H,0,2.1095170108,11.5274051881,22.6528270248\
 H,0,2.4451891185,11.4604746179,24.384845247\C,0,-2.411822451,16.806315
 5183,27.5943603413\H,0,-1.5751514199,16.4131819358,28.1730888591\H,0,-
 3.0959647808,15.9830204424,27.3881555952\H,0,-2.9353533369,17.54352867
 19,28.1974645418\C,0,-2.7000673678,19.8031714427,26.6128882444\H,0,-2.
 5092307728,19.8361861467,27.6800440096\C,0,-3.5104083944,20.7029276768
 ,26.0694678854\H,0,-3.7741615547,20.6773043079,25.0256517589\H,0,-3.96
 30947213,21.4824935279,26.6594125744\C,0,-0.9672174367,22.5561819856,2
 2.3149547683\H,0,-0.7197442146,22.6715895317,23.3689495918\H,0,-2.0377
 994456,22.7314610349,22.1980626895\H,0,-0.4310318865,23.3115967414,21.
 7440933302\C,0,0.3233492446,21.6659765292,19.5116488577\H,0,1.21318657
 02,21.3646784222,18.9716673192\C,0,-0.3479185523,22.737808147,19.10457
 30704\H,0,-1.2618236732,23.0541665123,19.5761237545\H,0,-0.0175689026,
 23.3229783295,18.2625809698\C,0,2.4053058897,17.2867818743,17.52070850
 97\H,0,3.053091417,18.1519030793,17.6642768311\H,0,1.5192408726,17.613
 9502923,16.9774413506\H,0,2.9362629483,16.5614636276,16.9092617446\C,0
 ,3.1917875421,14.3958786858,18.7839980684\H,0,4.0767292338,14.22606486
 65,19.3977709739\H,0,3.5175408705,14.6504070338,17.7786929684\H,0,2.62
 7947444,13.4639317341,18.7385365138\C,0,-1.6973017834,14.8743514912,20
 .5089021564\H,0,-1.2831385883,15.2582426275,19.5823377375\H,0,-2.61605
 88285,14.3310570738,20.3116538949\H,0,-0.964863835,14.2494090145,21.00
 86290286\S,0,-2.0717405942,16.3300452064,21.5533210972\H,0,-2.53590888
 72,15.6139970422,22.5861852331\\Version=ES64L-G16RevC.02\State=1-A\HF=
 -3080.7684122\RMSD=2.604e-09\Dipole=-0.2000705,-1.0796919,-0.2055157\P
 olar=371.6411066,-124.4865229,649.4006539,-139.7276907,-61.9388392,594
 .0531135\HyperPolar=-153.0092267,52.1668279,71.6122691,822.2477515,281
 .695031,-151.6399293,-413.3774733,-240.1305659,318.6477267,241.6944138
 \Quadrupole=-6.6651971,3.0989817,3.5662154,-2.7307244,-5.3211248,-0.03
 4676\PG=C01 [X(C31H32Fe1N4S1)]\\@
 The archive entry for this job was punched.


 IF AT FIRST YOU DON'T SUCCEED, TRY, TRY AGAIN.
 THEN GIVE UP;
 THERE'S NO USE BEING A DAMN FOOL ABOUT IT.

                                 -- W. C. FIELDS
 Job cpu time:       1 days 12 hours 50 minutes 33.2 seconds.
 Elapsed time:       0 days  0 hours 32 minutes  5.0 seconds.
 File lengths (MBytes):  RWF=    952 Int=      0 D2E=      0 Chk=    122 Scr=      1
 Normal termination of Gaussian 16 at Sun Sep  1 22:10:47 2024.
 Initial command:
 /sw/chem/gaussian/g16_C02/a100/g16/l1.exe "/local/bebzhart_8000112/Gau-2000135.inp" -scrdir="/local/bebzhart_8000112/"
 Entering Link 1 = /sw/chem/gaussian/g16_C02/a100/g16/l1.exe PID=   2001847.
  
 Copyright (c) 1988-2021, Gaussian, Inc.  All Rights Reserved.
  
 This is part of the Gaussian(R) 16 program.  It is based on
 the Gaussian(R) 09 system (copyright 2009, Gaussian, Inc.),
 the Gaussian(R) 03 system (copyright 2003, Gaussian, Inc.),
 the Gaussian(R) 98 system (copyright 1998, Gaussian, Inc.),
 the Gaussian(R) 94 system (copyright 1995, Gaussian, Inc.),
 the Gaussian 92(TM) system (copyright 1992, Gaussian, Inc.),
 the Gaussian 90(TM) system (copyright 1990, Gaussian, Inc.),
 the Gaussian 88(TM) system (copyright 1988, Gaussian, Inc.),
 the Gaussian 86(TM) system (copyright 1986, Carnegie Mellon
 University), and the Gaussian 82(TM) system (copyright 1983,
 Carnegie Mellon University). Gaussian is a federally registered
 trademark of Gaussian, Inc.
  
 This software contains proprietary and confidential information,
 including trade secrets, belonging to Gaussian, Inc.
  
 This software is provided under written license and may be
 used, copied, transmitted, or stored only in accord with that
 written license.
  
 The following legend is applicable only to US Government
 contracts under FAR:
  
                    RESTRICTED RIGHTS LEGEND
  
 Use, reproduction and disclosure by the US Government is
 subject to restrictions as set forth in subparagraphs (a)
 and (c) of the Commercial Computer Software - Restricted
 Rights clause in FAR 52.227-19.
  
 Gaussian, Inc.
 340 Quinnipiac St., Bldg. 40, Wallingford CT 06492
  
  
 ---------------------------------------------------------------
 Warning -- This program may not be used in any manner that
 competes with the business of Gaussian, Inc. or will provide
 assistance to any competitor of Gaussian, Inc.  The licensee
 of this program is prohibited from giving any competitor of
 Gaussian, Inc. access to this program.  By using this program,
 the user acknowledges that Gaussian, Inc. is engaged in the
 business of creating and licensing software in the field of
 computational chemistry and represents and warrants to the
 licensee that it is not a competitor of Gaussian, Inc. and that
 it will not use this program in any manner prohibited above.
 ---------------------------------------------------------------
  

 Cite this work as:
 Gaussian 16, Revision C.02,
 M. J. Frisch, G. W. Trucks, H. B. Schlegel, G. E. Scuseria, 
 M. A. Robb, J. R. Cheeseman, G. Scalmani, V. Barone, 
 G. A. Petersson, H. Nakatsuji, X. Li, M. Caricato, A. V. Marenich, 
 J. Bloino, B. G. Janesko, R. Gomperts, B. Mennucci, H. P. Hratchian, 
 J. V. Ortiz, A. F. Izmaylov, J. L. Sonnenberg, D. Williams-Young, 
 F. Ding, F. Lipparini, F. Egidi, J. Goings, B. Peng, A. Petrone, 
 T. Henderson, D. Ranasinghe, V. G. Zakrzewski, J. Gao, N. Rega, 
 G. Zheng, W. Liang, M. Hada, M. Ehara, K. Toyota, R. Fukuda, 
 J. Hasegawa, M. Ishida, T. Nakajima, Y. Honda, O. Kitao, H. Nakai, 
 T. Vreven, K. Throssell, J. A. Montgomery, Jr., J. E. Peralta, 
 F. Ogliaro, M. J. Bearpark, J. J. Heyd, E. N. Brothers, K. N. Kudin, 
 V. N. Staroverov, T. A. Keith, R. Kobayashi, J. Normand, 
 K. Raghavachari, A. P. Rendell, J. C. Burant, S. S. Iyengar, 
 J. Tomasi, M. Cossi, J. M. Millam, M. Klene, C. Adamo, R. Cammi, 
 J. W. Ochterski, R. L. Martin, K. Morokuma, O. Farkas, 
 J. B. Foresman, and D. J. Fox, Gaussian, Inc., Wallingford CT, 2019.
 
 ******************************************
 Gaussian 16:  ES64L-G16RevC.02  7-Dec-2021
                 1-Sep-2024 
 ******************************************
 %mem=16GB
 %CPU=0-71
 SetSPE:  set environment variable "OMP_PROC_BIND" = "true"
 SetSPE:  set environment variable "OMP_PLACES" = "{0},{1},{2},{3},{4},{5},{6},{7},{8},{9},{10},{11},{12},{13},{14},{15},{16},{17},{18},{19},{20},{21},{22},{23},{24},{25},{26},{27},{28},{29},{30},{31},{32},{33},{34},{35},{36},{37},{38},{39},{40},{41},{42},{43},{44},{45},{46},{47},{48},{49},{50},{51},{52},{53},{54},{55},{56},{57},{58},{59},{60},{61},{62},{63},{64},{65},{66},{67},{68},{69},{70},{71}"
 Will use up to   72 processors via shared memory.
 %gpucpu=0,1,2,3=0,1,2,3
 Will use    4 GPUs:
 Thread  CPU   GPU
      0    0     0
      1    1     1
      2    2     2
      3    3     3
      4    4    -1
      5    5    -1
      6    6    -1
      7    7    -1
      8    8    -1
      9    9    -1
     10   10    -1
     11   11    -1
     12   12    -1
     13   13    -1
     14   14    -1
     15   15    -1
     16   16    -1
     17   17    -1
     18   18    -1
     19   19    -1
     20   20    -1
     21   21    -1
     22   22    -1
     23   23    -1
     24   24    -1
     25   25    -1
     26   26    -1
     27   27    -1
     28   28    -1
     29   29    -1
     30   30    -1
     31   31    -1
     32   32    -1
     33   33    -1
     34   34    -1
     35   35    -1
     36   36    -1
     37   37    -1
     38   38    -1
     39   39    -1
     40   40    -1
     41   41    -1
     42   42    -1
     43   43    -1
     44   44    -1
     45   45    -1
     46   46    -1
     47   47    -1
     48   48    -1
     49   49    -1
     50   50    -1
     51   51    -1
     52   52    -1
     53   53    -1
     54   54    -1
     55   55    -1
     56   56    -1
     57   57    -1
     58   58    -1
     59   59    -1
     60   60    -1
     61   61    -1
     62   62    -1
     63   63    -1
     64   64    -1
     65   65    -1
     66   66    -1
     67   67    -1
     68   68    -1
     69   69    -1
     70   70    -1
     71   71    -1
 SetGPE:  set environment variable "OMP_PROC_BIND" = "true"
 SetGPE:  set environment variable "OMP_PLACES" = "{0},{1},{2},{3},{4},{5},{6},{7},{8},{9},{10},{11},{12},{13},{14},{15},{16},{17},{18},{19},{20},{21},{22},{23},{24},{25},{26},{27},{28},{29},{30},{31},{32},{33},{34},{35},{36},{37},{38},{39},{40},{41},{42},{43},{44},{45},{46},{47},{48},{49},{50},{51},{52},{53},{54},{55},{56},{57},{58},{59},{60},{61},{62},{63},{64},{65},{66},{67},{68},{69},{70},{71}"
 %oldchk=4d3o_II_O.chk
 %chk=4d3o_II_Sn.chk
 Properties for Device   0
 Minimum vector length:                              32
 Maximum vector length:                            1024
 Number of SMPs:                                    108
 Maximum number of threads per SMP:                2048
 Number of ASync Engines:                             5
 Memory:                                           9207742464
 Properties for Device   1
 Minimum vector length:                              32
 Maximum vector length:                            1024
 Number of SMPs:                                    108
 Maximum number of threads per SMP:                2048
 Number of ASync Engines:                             5
 Memory:                                           9207742464
 Properties for Device   2
 Minimum vector length:                              32
 Maximum vector length:                            1024
 Number of SMPs:                                    108
 Maximum number of threads per SMP:                2048
 Number of ASync Engines:                             5
 Memory:                                           9207742464
 Properties for Device   3
 Minimum vector length:                              32
 Maximum vector length:                            1024
 Number of SMPs:                                    108
 Maximum number of threads per SMP:                2048
 Number of ASync Engines:                             5
 Memory:                                           9207742464
   8286968217 words of memory will be used on each GPU.
 Copying data from "4d3o_II_O.chk" to current chk file "4d3o_II_Sn.chk"
 IOpt=  2 FromEx=T IUOpen= 4 IOptOp= 5 NList=   0 IFRang= 0 IUIn= 4 IUOut= 2.
 ----------------------------------------------------------------------
 # apfd/def2TZVP int=(grid=ultrafine) geom=check guess=read pop=nbo scf
 =qc
 ----------------------------------------------------------------------
 1/29=2,38=1,172=1/1;
 2/12=2,40=1/2;
 3/5=44,7=101,11=2,14=-4,25=1,30=1,74=-44,75=-5,116=-2/1,2,3;
 4/5=1/1;
 5/5=2,8=3,38=6/8;
 6/7=2,8=2,9=2,10=2,28=1,40=1/1,7;
 99/5=1,9=1/99;
 -------------
 4d3o_II_S_nbo
 -------------
 Structure from the checkpoint file:  "4d3o_II_Sn.chk"
 Charge =  0 Multiplicity = 1
 Z-Matrix found in chk file.
 Fe,0,-0.0683612115,17.0294932981,22.4817504645
 N,0,0.3624303843,15.225996687,23.266257108
 N,0,-0.9397721294,17.551796601,24.2420529744
 N,0,-0.2456857576,18.9149595204,21.9149514094
 N,0,1.0569127991,16.577905444,20.9268062179
 C,0,1.2622284759,14.31555072,22.7888260056
 C,0,1.4925876709,13.2564932505,23.7405755948
 C,0,0.7265095099,13.5491242308,24.8248093027
 C,0,0.0470307191,14.7867673791,24.5192218417
 C,0,-1.2386534589,16.7172268484,25.2778826001
[...]
  1062. RY*(  11) C  51                  0.00002     2.99751   
  1063. RY*(  12) C  51                  0.00002     2.54799   
  1064. RY*(  13) C  51                  0.00002     2.13910   
  1065. RY*(  14) C  51                  0.00002     1.83251   
  1066. RY*(  15) C  51                  0.00000     2.62400   
  1067. RY*(  16) C  51                  0.00001     2.38766   
  1068. RY*(  17) C  51                  0.00000    20.73538   
  1069. RY*(  18) C  51                  0.00001     1.63992   
  1070. RY*(  19) C  51                  0.00000     3.32086   
  1071. RY*(  20) C  51                  0.00000     3.39661   
  1072. RY*(  21) C  51                  0.00000     3.42785   
  1073. RY*(  22) C  51                  0.00000     3.43151   
  1074. RY*(  23) C  51                  0.00000     3.62633   
  1075. RY*(  24) C  51                  0.00000     3.71055   
  1076. RY*(  25) C  51                  0.00000     3.78938   
  1077. RY*(  26) C  51                  0.00000     3.89443   
  1078. RY*(   1) H  52                  0.00130     0.68925   
  1079. RY*(   2) H  52                  0.00023     2.25780   
  1080. RY*(   3) H  52                  0.00013     2.32456   
  1081. RY*(   4) H  52                  0.00010     2.73243   
  1082. RY*(   5) H  52                  0.00001     3.11990   
  1083. RY*(   1) C  53                  0.00229     1.27578   
  1084. RY*(   2) C  53                  0.00140     0.94644   
  1085. RY*(   3) C  53                  0.00109     0.64294   
  1086. RY*(   4) C  53                  0.00028     1.02055   
  1087. RY*(   5) C  53                  0.00016     1.05415   
  1088. RY*(   6) C  53                  0.00005     1.48481   
  1089. RY*(   7) C  53                  0.00004     1.50396   
  1090. RY*(   8) C  53                  0.00001     1.34069   
  1091. RY*(   9) C  53                  0.00000     1.60343   
  1092. RY*(  10) C  53                  0.00001     1.70644   
  1093. RY*(  11) C  53                  0.00000     2.70492   
  1094. RY*(  12) C  53                  0.00001     1.45208   
  1095. RY*(  13) C  53                  0.00000     2.93943   
  1096. RY*(  14) C  53                  0.00001     2.27724   
  1097. RY*(  15) C  53                  0.00000     2.96034   
  1098. RY*(  16) C  53                  0.00001     2.01900   
  1099. RY*(  17) C  53                  0.00000     3.05379   
  1100. RY*(  18) C  53                  0.00000    21.11097   
  1101. RY*(  19) C  53                  0.00000     3.08653   
  1102. RY*(  20) C  53                  0.00000     3.35768   
  1103. RY*(  21) C  53                  0.00000     3.46597   
  1104. RY*(  22) C  53                  0.00000     3.23660   
  1105. RY*(  23) C  53                  0.00000     3.39674   
  1106. RY*(  24) C  53                  0.00000     3.55958   
  1107. RY*(  25) C  53                  0.00000     3.86009   
  1108. RY*(  26) C  53                  0.00000     3.72856   
  1109. RY*(   1) H  54                  0.00069     1.02868   
  1110. RY*(   2) H  54                  0.00030     1.66728   
  1111. RY*(   3) H  54                  0.00019     2.18091   
  1112. RY*(   4) H  54                  0.00006     2.38884   
  1113. RY*(   5) H  54                  0.00001     3.11476   
  1114. RY*(   1) H  55                  0.00046     0.73142   
  1115. RY*(   2) H  55                  0.00031     1.81697   
  1116. RY*(   3) H  55                  0.00015     2.12347   
  1117. RY*(   4) H  55                  0.00006     2.50133   
  1118. RY*(   5) H  55                  0.00001     3.06737   
  1119. RY*(   1) C  56                  0.00146     1.15241   
  1120. RY*(   2) C  56                  0.00145     1.32794   
  1121. RY*(   3) C  56                  0.00074     1.37512   
  1122. RY*(   4) C  56                  0.00014     1.08017   
  1123. RY*(   5) C  56                  0.00005     1.98198   
  1124. RY*(   6) C  56                  0.00005     1.53163   
  1125. RY*(   7) C  56                  0.00003     2.26345   
  1126. RY*(   8) C  56                  0.00003     2.19929   
  1127. RY*(   9) C  56                  0.00000    21.09992   
  1128. RY*(  10) C  56                  0.00001     1.76120   
  1129. RY*(  11) C  56                  0.00001     3.03116   
  1130. RY*(  12) C  56                  0.00000     3.08818   
  1131. RY*(  13) C  56                  0.00000     2.26215   
  1132. RY*(  14) C  56                  0.00000     2.00519   
  1133. RY*(  15) C  56                  0.00000     2.44190   
  1134. RY*(  16) C  56                  0.00001     3.05477   
  1135. RY*(  17) C  56                  0.00000     2.66620   
  1136. RY*(  18) C  56                  0.00000     3.29390   
  1137. RY*(  19) C  56                  0.00000     2.29113   
  1138. RY*(  20) C  56                  0.00000     3.21367   
  1139. RY*(  21) C  56                  0.00000     3.78786   
  1140. RY*(  22) C  56                  0.00000     3.64191   
  1141. RY*(  23) C  56                  0.00000     3.35459   
  1142. RY*(  24) C  56                  0.00000     3.39356   
  1143. RY*(  25) C  56                  0.00000     3.42157   
  1144. RY*(  26) C  56                  0.00000     3.73684   
  1145. RY*(   1) H  57                  0.00095     0.93812   
  1146. RY*(   2) H  57                  0.00017     1.80094   
  1147. RY*(   3) H  57                  0.00007     2.12778   
  1148. RY*(   4) H  57                  0.00005     1.98962   
  1149. RY*(   5) H  57                  0.00001     2.97429   
  1150. RY*(   1) H  58                  0.00080     0.93118   
  1151. RY*(   2) H  58                  0.00018     1.83012   
  1152. RY*(   3) H  58                  0.00006     2.10158   
  1153. RY*(   4) H  58                  0.00006     2.02133   
  1154. RY*(   5) H  58                  0.00001     2.95894   
  1155. RY*(   1) H  59                  0.00072     0.85867   
  1156. RY*(   2) H  59                  0.00013     1.69954   
  1157. RY*(   3) H  59                  0.00011     2.15246   
  1158. RY*(   4) H  59                  0.00007     2.08764   
  1159. RY*(   5) H  59                  0.00001     2.98480   
  1160. RY*(   1) C  60                  0.00145     1.32919   
  1161. RY*(   2) C  60                  0.00142     1.16751   
  1162. RY*(   3) C  60                  0.00073     1.37582   
  1163. RY*(   4) C  60                  0.00014     1.08884   
  1164. RY*(   5) C  60                  0.00004     1.97424   
  1165. RY*(   6) C  60                  0.00005     1.52734   
  1166. RY*(   7) C  60                  0.00003     2.14326   
  1167. RY*(   8) C  60                  0.00002     2.23036   
  1168. RY*(   9) C  60                  0.00001     3.19205   
  1169. RY*(  10) C  60                  0.00000    21.03512   
  1170. RY*(  11) C  60                  0.00001     2.70335   
  1171. RY*(  12) C  60                  0.00000     2.52088   
  1172. RY*(  13) C  60                  0.00000     2.32656   
  1173. RY*(  14) C  60                  0.00000     2.50981   
  1174. RY*(  15) C  60                  0.00000     2.43610   
  1175. RY*(  16) C  60                  0.00001     1.68357   
  1176. RY*(  17) C  60                  0.00000     3.09397   
  1177. RY*(  18) C  60                  0.00000     3.12796   
  1178. RY*(  19) C  60                  0.00000     2.44465   
  1179. RY*(  20) C  60                  0.00000     3.27394   
  1180. RY*(  21) C  60                  0.00000     3.80960   
  1181. RY*(  22) C  60                  0.00000     3.58258   
  1182. RY*(  23) C  60                  0.00000     3.38425   
  1183. RY*(  24) C  60                  0.00000     3.37756   
  1184. RY*(  25) C  60                  0.00000     3.72589   
  1185. RY*(  26) C  60                  0.00000     3.46223   
  1186. RY*(   1) H  61                  0.00093     0.90632   
  1187. RY*(   2) H  61                  0.00018     1.80436   
  1188. RY*(   3) H  61                  0.00007     2.13675   
  1189. RY*(   4) H  61                  0.00005     1.99968   
  1190. RY*(   5) H  61                  0.00001     2.96928   
  1191. RY*(   1) H  62                  0.00072     0.85394   
  1192. RY*(   2) H  62                  0.00013     1.70421   
  1193. RY*(   3) H  62                  0.00011     2.15904   
  1194. RY*(   4) H  62                  0.00007     2.07710   
  1195. RY*(   5) H  62                  0.00001     2.99089   
  1196. RY*(   1) H  63                  0.00086     0.91033   
  1197. RY*(   2) H  63                  0.00018     1.83503   
  1198. RY*(   3) H  63                  0.00007     2.14179   
  1199. RY*(   4) H  63                  0.00005     1.97201   
  1200. RY*(   5) H  63                  0.00001     2.96814   
  1276. BD*(   1) N   2 - C   6          0.02635     0.49351   
  1277. BD*(   1) N   2 - C   9          0.02642     0.49639   
  1278. BD*(   2) N   2 - C   9          0.63325     0.00268  1298(v),1291(v),1289(v)
                                                    361(g),142(r),177(g),728(v)
                                                    138(r),1275(r)
  1279. BD*(   1) N   3 - C  10          0.02595     0.49856   
  1280. BD*(   1) N   3 - C  13          0.02521     0.50182   
  1281. BD*(   1) N   4 - C  14          0.02691     0.50062   
  1282. BD*(   1) N   4 - C  17          0.02590     0.50146   
  1283. BD*(   2) N   4 - C  17          0.61012     0.00661  1316(v),1309(v),148(v)
                                                    569(g),142(r),229(g),790(v)
                                                    1275(r)
  1284. BD*(   1) N   5 - C  18          0.02668     0.49915   
  1285. BD*(   1) N   5 - C  21          0.02669     0.50004   
  1286. BD*(   2) N   5 - C  21          0.63541     0.00282  1289(v),1318(v),1316(v)
                                                    673(g),142(r),255(g),697(v)
                                                    138(r),139(r),1275(r),141(r)
                                                    140(r)
  1287. BD*(   1) C   6 - C   7          0.03515     0.49245   
  1288. BD*(   1) C   6 - C  22          0.02099     0.57259   
  1289. BD*(   2) C   6 - C  22          0.41651     0.04209  1286(v),1291(v),1278(v)
                                                    1298(r),697(g),1316(r)
                                                    285(g),283(g),142(r)
  1290. BD*(   1) C   7 - C   8          0.02277     0.60536   
  1291. BD*(   2) C   7 - C   8          0.25111     0.06660  1289(v),1278(v),1329(v)
                                                    1331(v),1330(v),1328(v)
  1292. BD*(   1) C   7 - C  34          0.01722     0.41221   
  1293. BD*(   1) C   8 - C   9          0.03558     0.48943   
  1294. BD*(   1) C   8 - C  30          0.01712     0.41241   
  1295. BD*(   1) C   9 - C  24          0.02101     0.57706   
  1296. BD*(   1) C  10 - C  11          0.03481     0.49548   
  1297. BD*(   1) C  10 - C  24          0.02134     0.57087   
  1298. BD*(   2) C  10 - C  24          0.42336     0.04336  1300(v),1278(v),145(v)
                                                    1289(r),1305(r),728(g)
                                                    388(g),1297(g),142(r)
  1299. BD*(   1) C  11 - C  12          0.02232     0.59070   
  1300. BD*(   2) C  11 - C  12          0.28034     0.06295  1338(v),1305(v),1298(v)
                                                    1333(v),1334(v),1336(v)
  1301. BD*(   1) C  11 - C  38          0.01661     0.41250   
  1302. BD*(   1) C  12 - C  13          0.03806     0.48734   
  1303. BD*(   1) C  12 - C  42          0.02671     0.48910   
  1304. BD*(   1) C  13 - C  26          0.02049     0.57969   
  1305. BD*(   2) C  13 - C  26          0.39803     0.04746  1300(v),148(v),145(v)
                                                    1298(r),1338(r),760(g)
                                                    465(g),467(g),142(r)
  1306. BD*(   1) C  14 - C  15          0.03389     0.49734   
  1307. BD*(   1) C  14 - C  26          0.02142     0.57807   
  1308. BD*(   1) C  15 - C  16          0.02480     0.59261   
  1309. BD*(   2) C  15 - C  16          0.28360     0.06525  1346(v),1283(v),148(v)
                                                    1342(v),1341(v)
  1310. BD*(   1) C  15 - C  47          0.01619     0.41825   
  1311. BD*(   1) C  16 - C  17          0.03455     0.48573   
  1312. BD*(   1) C  16 - C  51          0.02667     0.49557   
  1313. BD*(   1) C  17 - C  28          0.02071     0.57446   
  1314. BD*(   1) C  18 - C  19          0.03524     0.48865   
  1315. BD*(   1) C  18 - C  28          0.02112     0.57498   
  1316. BD*(   2) C  18 - C  28          0.40590     0.04550  1283(v),1318(v),1286(v)
                                                    790(g),1289(r),597(g),142(r)
  1317. BD*(   1) C  19 - C  20          0.02271     0.60356   
  1318. BD*(   2) C  19 - C  20          0.25132     0.06597  1316(v),1286(v),1349(v)
                                                    1352(v),1354(v),1350(v)
  1319. BD*(   1) C  19 - C  56          0.01705     0.41303   
  1320. BD*(   1) C  20 - C  21          0.03486     0.49078   
  1321. BD*(   1) C  20 - C  60          0.01714     0.41210   
  1322. BD*(   1) C  21 - C  22          0.02098     0.57531   
  1323. BD*(   1) C  22 - H  23          0.01269     0.43175   
  1324. BD*(   1) C  24 - H  25          0.01279     0.43081   
  1325. BD*(   1) C  26 - H  27          0.01444     0.43898   
  1326. BD*(   1) C  28 - H  29          0.01284     0.43215   
  1327. BD*(   1) C  30 - H  31          0.00669     0.38822   
  1328. BD*(   1) C  30 - H  32          0.01056     0.37627   
  1329. BD*(   1) C  30 - H  33          0.01096     0.37788   
  1330. BD*(   1) C  34 - H  35          0.01066     0.37792   
  1331. BD*(   1) C  34 - H  36          0.01082     0.37555   
  1332. BD*(   1) C  34 - H  37          0.00662     0.38796   
  1333. BD*(   1) C  38 - H  39          0.01092     0.37608   
  1334. BD*(   1) C  38 - H  40          0.01030     0.37746   
  1335. BD*(   1) C  38 - H  41          0.00592     0.38936   
  1336. BD*(   1) C  42 - H  43          0.02188     0.41976   
  1337. BD*(   1) C  42 - C  44          0.00717     0.62008   
  1338. BD*(   2) C  42 - C  44          0.06384     0.06608   
  1339. BD*(   1) C  44 - H  45          0.01132     0.43304   
  1340. BD*(   1) C  44 - H  46          0.00891     0.43380   
  1341. BD*(   1) C  47 - H  48          0.00968     0.38873   
  1342. BD*(   1) C  47 - H  49          0.01230     0.37886   
  1343. BD*(   1) C  47 - H  50          0.00813     0.39433   
  1344. BD*(   1) C  51 - H  52          0.02128     0.42349   
  1345. BD*(   1) C  51 - C  53          0.00779     0.63206   
  1346. BD*(   2) C  51 - C  53          0.07528     0.05900   
  1347. BD*(   1) C  53 - H  54          0.01097     0.43577   
  1348. BD*(   1) C  53 - H  55          0.00855     0.43578   
  1349. BD*(   1) C  56 - H  57          0.01142     0.37724   
  1350. BD*(   1) C  56 - H  58          0.00991     0.37864   
  1351. BD*(   1) C  56 - H  59          0.00669     0.38796   
  1352. BD*(   1) C  60 - H  61          0.01112     0.37657   
  1353. BD*(   1) C  60 - H  62          0.00659     0.38777   
  1354. BD*(   1) C  60 - H  63          0.01044     0.37621   
       -------------------------------
              Total Lewis  230.24133  ( 97.2784%)
        Valence non-Lewis    5.95609  (  2.5165%)
        Rydberg non-Lewis    0.48549  (  0.2051%)
       -------------------------------
            Total unit  2  236.68291  (100.0000%)
           Charge unit  2   -0.68291
 Unable to Open any file for archive entry.
 1\1\GINC-BGN1040\SP\RAPFD\def2TZVP\C31H32Fe1N4S1\BEBZHART\01-Sep-2024\
 0\\# apfd/def2TZVP int=(grid=ultrafine) geom=check guess=read pop=nbo 
 scf=qc\\4d3o_II_S_nbo\\0,1\Fe,0,-0.0683612115,17.0294932981,22.4817504
 645\N,0,0.3624303843,15.225996687,23.266257108\N,0,-0.9397721294,17.55
 1796601,24.2420529744\N,0,-0.2456857576,18.9149595204,21.9149514094\N,
 0,1.0569127991,16.577905444,20.9268062179\C,0,1.2622284759,14.31555072
 ,22.7888260056\C,0,1.4925876709,13.2564932505,23.7405755948\C,0,0.7265
 095099,13.5491242308,24.8248093027\C,0,0.0470307191,14.7867673791,24.5
 192218417\C,0,-1.2386534589,16.7172268484,25.2778826001\C,0,-1.930443,
 17.4192847323,26.325634358\C,0,-2.0567486325,18.7134240519,25.90380307
 41\C,0,-1.4315561957,18.7707111802,24.5996507291\C,0,-0.7161834777,19.
 989145414,22.6084234137\C,0,-0.5994760448,21.1972270572,21.8339335014\
 C,0,-0.0361060554,20.8352297694,20.6403915618\C,0,0.2025149397,19.4076
 788136,20.7279886614\C,0,1.2155345389,17.3644037541,19.8259189574\C,0,
 2.0271628797,16.6956790132,18.8343673038\C,0,2.3572860728,15.485762691
 5,19.3622260445\C,0,1.7341019077,15.4266123189,20.6634717477\C,0,1.853
 333928,14.3656735231,21.5395722525\H,0,2.4816076698,13.5391139244,21.2
 46825889\C,0,-0.8186708223,15.4058910645,25.3964153888\H,0,-1.06284397
 15,14.8862016697,26.3094943599\C,0,-1.2977816157,19.9266064898,23.8595
 889454\H,0,-1.6548389991,20.8440787281,24.2989425771\C,0,0.7754476608,
 18.6685790184,19.7101397556\H,0,0.9946299067,19.1818271352,18.78685008
 37\C,0,0.5861445228,12.8085244282,26.1094420539\H,0,1.1766969311,11.89
 60818793,26.0939900763\H,0,-0.4553573819,12.5398426341,26.2870173161\H
 ,0,0.92482326,13.4225979965,26.9438886113\C,0,2.4221164446,12.11448463
 8,23.5168771477\H,0,3.4336017979,12.4760937357,23.332436129\H,0,2.1095
 170108,11.5274051881,22.6528270248\H,0,2.4451891185,11.4604746179,24.3
 84845247\C,0,-2.411822451,16.8063155183,27.5943603413\H,0,-1.575151419
 9,16.4131819358,28.1730888591\H,0,-3.0959647808,15.9830204424,27.38815
 55952\H,0,-2.9353533369,17.5435286719,28.1974645418\C,0,-2.7000673678,
 19.8031714427,26.6128882444\H,0,-2.5092307728,19.8361861467,27.6800440
 096\C,0,-3.5104083944,20.7029276768,26.0694678854\H,0,-3.7741615547,20
 .6773043079,25.0256517589\H,0,-3.9630947213,21.4824935279,26.659412574
 4\C,0,-0.9672174367,22.5561819856,22.3149547683\H,0,-0.7197442146,22.6
 715895317,23.3689495918\H,0,-2.0377994456,22.7314610349,22.1980626895\
 H,0,-0.4310318865,23.3115967414,21.7440933302\C,0,0.3233492446,21.6659
 765292,19.5116488577\H,0,1.2131865702,21.3646784222,18.9716673192\C,0,
 -0.3479185523,22.737808147,19.1045730704\H,0,-1.2618236732,23.05416651
 23,19.5761237545\H,0,-0.0175689026,23.3229783295,18.2625809698\C,0,2.4
 053058897,17.2867818743,17.5207085097\H,0,3.053091417,18.1519030793,17
 .6642768311\H,0,1.5192408726,17.6139502923,16.9774413506\H,0,2.9362629
 483,16.5614636276,16.9092617446\C,0,3.1917875421,14.3958786858,18.7839
 980684\H,0,4.0767292338,14.2260648665,19.3977709739\H,0,3.5175408705,1
 4.6504070338,17.7786929684\H,0,2.627947444,13.4639317341,18.7385365138
 \C,0,-1.6973017834,14.8743514912,20.5089021564\H,0,-1.2831385883,15.25
 82426275,19.5823377375\H,0,-2.6160588285,14.3310570738,20.3116538949\H
 ,0,-0.964863835,14.2494090145,21.0086290286\S,0,-2.0717405942,16.33004
 52064,21.5533210972\H,0,-2.5359088872,15.6139970422,22.5861852331\\Ver
 sion=ES64L-G16RevC.02\State=1-A\HF=-3080.7684122\RMSD=1.246e-09\Dipole
 =-0.2000705,-1.0796919,-0.2055157\Quadrupole=-6.6651971,3.0989817,3.56
 62154,-2.7307244,-5.3211248,-0.034676\PG=C01 [X(C31H32Fe1N4S1)]\\@
 The archive entry for this job was punched.


 IT IS UNWORTHY OF EXCELLENT MEN TO LOSE HOURS LIKE SLAVES IN THE LABOR
 OF CALCULATION WHICH COULD BE SAFELY RELEGATED TO ANYONE ELSE
 IF A MACHINE WERE USED.
    -- G.W. VON LEIBNIZ
 Job cpu time:       0 days  0 hours 32 minutes 43.8 seconds.
 Elapsed time:       0 days  0 hours  0 minutes 41.3 seconds.
 File lengths (MBytes):  RWF=    624 Int=      0 D2E=      0 Chk=    150 Scr=      1
 Normal termination of Gaussian 16 at Sun Sep  1 22:11:31 2024.
