 Entering Gaussian System, Link 0=g16
 Input=4eid01.com
 Output=4eid01.log
 Initial command:
 /sw/chem/gaussian/g16_C02/a100/g16/l1.exe "/local/bebzhart_8000123/Gau-3875006.inp" -scrdir="/local/bebzhart_8000123/"
 Entering Link 1 = /sw/chem/gaussian/g16_C02/a100/g16/l1.exe PID=   3875007.
  
 Copyright (c) 1988-2021, Gaussian, Inc.  All Rights Reserved.
  
 This is part of the Gaussian(R) 16 program.  It is based on
 the Gaussian(R) 09 system (copyright 2009, Gaussian, Inc.),
 the Gaussian(R) 03 system (copyright 2003, Gaussian, Inc.),
 the Gaussian(R) 98 system (copyright 1998, Gaussian, Inc.),
 the Gaussian(R) 94 system (copyright 1995, Gaussian, Inc.),
 the Gaussian 92(TM) system (copyright 1992, Gaussian, Inc.),
 the Gaussian 90(TM) system (copyright 1990, Gaussian, Inc.),
 the Gaussian 88(TM) system (copyright 1988, Gaussian, Inc.),
 the Gaussian 86(TM) system (copyright 1986, Carnegie Mellon
 University), and the Gaussian 82(TM) system (copyright 1983,
 Carnegie Mellon University). Gaussian is a federally registered
 trademark of Gaussian, Inc.
  
 This software contains proprietary and confidential information,
 including trade secrets, belonging to Gaussian, Inc.
  
 This software is provided under written license and may be
 used, copied, transmitted, or stored only in accord with that
 written license.
  
 The following legend is applicable only to US Government
 contracts under FAR:
  
                    RESTRICTED RIGHTS LEGEND
  
 Use, reproduction and disclosure by the US Government is
 subject to restrictions as set forth in subparagraphs (a)
 and (c) of the Commercial Computer Software - Restricted
 Rights clause in FAR 52.227-19.
  
 Gaussian, Inc.
 340 Quinnipiac St., Bldg. 40, Wallingford CT 06492
  
  
 ---------------------------------------------------------------
 Warning -- This program may not be used in any manner that
 competes with the business of Gaussian, Inc. or will provide
 assistance to any competitor of Gaussian, Inc.  The licensee
 of this program is prohibited from giving any competitor of
 Gaussian, Inc. access to this program.  By using this program,
 the user acknowledges that Gaussian, Inc. is engaged in the
 business of creating and licensing software in the field of
 computational chemistry and represents and warrants to the
 licensee that it is not a competitor of Gaussian, Inc. and that
 it will not use this program in any manner prohibited above.
 ---------------------------------------------------------------
  

 Cite this work as:
 Gaussian 16, Revision C.02,
 M. J. Frisch, G. W. Trucks, H. B. Schlegel, G. E. Scuseria, 
 M. A. Robb, J. R. Cheeseman, G. Scalmani, V. Barone, 
 G. A. Petersson, H. Nakatsuji, X. Li, M. Caricato, A. V. Marenich, 
 J. Bloino, B. G. Janesko, R. Gomperts, B. Mennucci, H. P. Hratchian, 
 J. V. Ortiz, A. F. Izmaylov, J. L. Sonnenberg, D. Williams-Young, 
 F. Ding, F. Lipparini, F. Egidi, J. Goings, B. Peng, A. Petrone, 
 T. Henderson, D. Ranasinghe, V. G. Zakrzewski, J. Gao, N. Rega, 
 G. Zheng, W. Liang, M. Hada, M. Ehara, K. Toyota, R. Fukuda, 
 J. Hasegawa, M. Ishida, T. Nakajima, Y. Honda, O. Kitao, H. Nakai, 
 T. Vreven, K. Throssell, J. A. Montgomery, Jr., J. E. Peralta, 
 F. Ogliaro, M. J. Bearpark, J. J. Heyd, E. N. Brothers, K. N. Kudin, 
 V. N. Staroverov, T. A. Keith, R. Kobayashi, J. Normand, 
 K. Raghavachari, A. P. Rendell, J. C. Burant, S. S. Iyengar, 
 J. Tomasi, M. Cossi, J. M. Millam, M. Klene, C. Adamo, R. Cammi, 
 J. W. Ochterski, R. L. Martin, K. Morokuma, O. Farkas, 
 J. B. Foresman, and D. J. Fox, Gaussian, Inc., Wallingford CT, 2019.
 
 ******************************************
 Gaussian 16:  ES64L-G16RevC.02  7-Dec-2021
                 2-Sep-2024 
 ******************************************
 %mem=16GB
 %CPU=0-71
 SetSPE:  set environment variable "OMP_PROC_BIND" = "true"
 SetSPE:  set environment variable "OMP_PLACES" = "{0},{1},{2},{3},{4},{5},{6},{7},{8},{9},{10},{11},{12},{13},{14},{15},{16},{17},{18},{19},{20},{21},{22},{23},{24},{25},{26},{27},{28},{29},{30},{31},{32},{33},{34},{35},{36},{37},{38},{39},{40},{41},{42},{43},{44},{45},{46},{47},{48},{49},{50},{51},{52},{53},{54},{55},{56},{57},{58},{59},{60},{61},{62},{63},{64},{65},{66},{67},{68},{69},{70},{71}"
 Will use up to   72 processors via shared memory.
 %gpucpu=0,1,2,3=0,1,2,3
 Will use    4 GPUs:
 Thread  CPU   GPU
      0    0     0
      1    1     1
      2    2     2
      3    3     3
      4    4    -1
      5    5    -1
      6    6    -1
      7    7    -1
      8    8    -1
      9    9    -1
     10   10    -1
     11   11    -1
     12   12    -1
     13   13    -1
     14   14    -1
     15   15    -1
     16   16    -1
     17   17    -1
     18   18    -1
     19   19    -1
     20   20    -1
     21   21    -1
     22   22    -1
     23   23    -1
     24   24    -1
     25   25    -1
     26   26    -1
     27   27    -1
     28   28    -1
     29   29    -1
     30   30    -1
     31   31    -1
     32   32    -1
     33   33    -1
     34   34    -1
     35   35    -1
     36   36    -1
     37   37    -1
     38   38    -1
     39   39    -1
     40   40    -1
     41   41    -1
     42   42    -1
     43   43    -1
     44   44    -1
     45   45    -1
     46   46    -1
     47   47    -1
     48   48    -1
     49   49    -1
     50   50    -1
     51   51    -1
     52   52    -1
     53   53    -1
     54   54    -1
     55   55    -1
     56   56    -1
     57   57    -1
     58   58    -1
     59   59    -1
     60   60    -1
     61   61    -1
     62   62    -1
     63   63    -1
     64   64    -1
     65   65    -1
     66   66    -1
     67   67    -1
     68   68    -1
     69   69    -1
     70   70    -1
     71   71    -1
 SetGPE:  set environment variable "OMP_PROC_BIND" = "true"
 SetGPE:  set environment variable "OMP_PLACES" = "{0},{1},{2},{3},{4},{5},{6},{7},{8},{9},{10},{11},{12},{13},{14},{15},{16},{17},{18},{19},{20},{21},{22},{23},{24},{25},{26},{27},{28},{29},{30},{31},{32},{33},{34},{35},{36},{37},{38},{39},{40},{41},{42},{43},{44},{45},{46},{47},{48},{49},{50},{51},{52},{53},{54},{55},{56},{57},{58},{59},{60},{61},{62},{63},{64},{65},{66},{67},{68},{69},{70},{71}"
 %chk=4eid_II_O.chk
 Properties for Device   0
 Minimum vector length:                              32
 Maximum vector length:                            1024
 Number of SMPs:                                    108
 Maximum number of threads per SMP:                2048
 Number of ASync Engines:                             5
 Memory:                                           9207742464
 Properties for Device   1
 Minimum vector length:                              32
 Maximum vector length:                            1024
 Number of SMPs:                                    108
 Maximum number of threads per SMP:                2048
 Number of ASync Engines:                             5
 Memory:                                           9207742464
 Properties for Device   2
 Minimum vector length:                              32
 Maximum vector length:                            1024
 Number of SMPs:                                    108
 Maximum number of threads per SMP:                2048
 Number of ASync Engines:                             5
 Memory:                                           9207742464
 Properties for Device   3
 Minimum vector length:                              32
 Maximum vector length:                            1024
 Number of SMPs:                                    108
 Maximum number of threads per SMP:                2048
 Number of ASync Engines:                             5
 Memory:                                           9207742464
   8286968217 words of memory will be used on each GPU.
 ------------------------------------------
 # polar def2tzvp apfd int=(grid=ultrafine)
 ------------------------------------------
 1/38=1,172=1/1;
 2/12=2,17=6,18=5,40=1/2;
 3/5=44,7=101,11=2,25=1,30=1,74=-44,75=-5/1,2,3;
 4//1;
 5/5=2,38=5,98=1/2;
 8/6=4,10=90,11=11/1;
 10/6=1,13=10/2;
 6/7=2,8=2,9=2,10=2,28=1/1;
 99/5=1,9=1/99;
 ---------
 4eid_II_S
 ---------
 Symbolic Z-matrix:
 Charge =  0 Multiplicity = 1
 Fe                    3.24189   2.8745    6.30361 
 N                     4.15356   2.70931   8.0976 
 N                     4.78058   4.00765   5.69881 
 N                     2.34295   3.13858   4.56531 
 N                     1.71552   1.80102   7.01309 
 C                     3.74628   1.9253    9.1384 
 C                     4.68175   2.02452   10.24301 
 C                     5.65419   2.88462   9.84259 
 C                     5.29989   3.30059   8.49954 
 C                     5.77491   4.53946   6.45669 
 C                     6.59327   5.43321   5.66074 
 C                     6.10668   5.36862   4.39279 
 C                     4.96054   4.48719   4.44248 
 C                     2.90903   3.59702   3.42802 
 C                     1.96173   3.51839   2.32816 
 C                     0.80458   3.00696   2.86011 
 C                     1.0897    2.71764   4.24398 
 C                     0.5406    1.58414   6.3574 
 C                    -0.31673   0.71973   7.14594 
 C                     0.38197   0.42924   8.28924 
 C                     1.64154   1.12163   8.18381 
 C                     2.60966   1.14873   9.17594 
 H                     2.42148   0.57593   10.07422 
 C                     6.0369    4.21599   7.77021 
 H                     6.90074   4.67076   8.24786 
 C                     4.14177   4.21685   3.35826 
 H                     4.45432   4.60237   2.40024 
 C                     0.21446   2.08411   5.11164 
 H                    -0.77237   1.86134   4.74308 
 C                     4.55235   1.27252   11.52319 
 H                     4.51908   0.19788   11.33748 
 H                     3.63733   1.55265   12.04458 
 H                     5.39644   1.47696   12.17805 
 C                     6.8862    3.32123   10.55985 
 H                     6.86879   4.39775   10.72394 
 H                     7.77527   3.08269   9.97468 
 H                     6.97117   2.82556   11.52347 
 C                     0.01119  -0.49533   9.39502 
 H                    -0.38285   0.05834   10.24837 
 H                     0.88291  -1.05655   9.72849 
 H                    -0.74862  -1.19637   9.05622 
 C                    -1.61985   0.25683   6.72951 
 H                    -1.75765   0.13352   5.66052 
 C                    -2.63835  -0.01233   7.53946 
 H                    -2.58077   0.13611   8.60398 
 H                    -3.58136  -0.36968   7.15918 
 C                    -0.44575   2.62697   2.14693 
 H                    -1.22279   3.37739   2.29706 
 H                    -0.82405   1.67233   2.51134 
 H                    -0.25441   2.53452   1.07919 
 C                     2.26873   3.89687   0.97063 
 H                     3.2934    3.72453   0.66441 
 C                     1.40726   4.42098   0.10588 
 H                     0.39333   4.64665   0.38438 
 H                     1.69823   4.66785  -0.9006 
 C                     6.58981   6.04898   3.15889 
 H                     7.4827    6.6348    3.36413 
 H                     5.82525   6.71667   2.76137 
 H                     6.83306   5.3191    2.38558 
 C                     7.74814   6.21167   6.19342 
 H                     8.15105   6.87537   5.4323 
 H                     8.54413   5.54414   6.52586 
 H                     7.43249   6.81317   7.04448 
 C                     4.4133   -2.0576    4.07938 
 H                     5.06178  -2.08602   3.20486 
 H                     3.39026  -2.23319   3.76295 
 H                     4.7136   -2.85393   4.75871 
 N                     5.66624  -0.24186   5.26704 
 H                     6.56157  -0.70077   5.24435 
 C                     4.49893  -0.73888   4.7509 
 C                     5.39455   0.97136   5.80169 
 H                     6.11859   1.59639   6.28361 
 N                     4.12735   1.26635   5.65054 
 C                     3.55558   0.21436   5.00174 
 H                     2.51081   0.22368   4.76901 
 C                     1.9771    6.64274   5.10452 
 H                     2.52076   7.40532   5.65718 
 H                     1.3154    7.12788   4.38985 
 H                     2.69455   6.03564   4.55917 
 C                     1.17389   5.77551   6.0535 
 H                     0.619     5.00919   5.51471 
 H                     0.48915   6.37901   6.65073 
 S                     2.30213   4.92703   7.22896 
 C                     1.06179   4.44846   8.46878 
 H                     1.57369   3.83737   9.2043 
 H                     0.27145   3.87319   7.99744 
 H                     0.66225   5.34462   8.93707 
 
 Stoichiometry    C37H42FeN6S
 Framework group  C1[X(C37H42FeN6S)]
 Deg. of freedom   255
 Full point group                 C1      NOp   1
 Largest Abelian subgroup         C1      NOp   1
 Largest concise Abelian subgroup C1      NOp   1
                         Standard orientation:                         
 ---------------------------------------------------------------------
 Center     Atomic      Atomic             Coordinates (Angstroms)
 Number     Number       Type             X           Y           Z
 ---------------------------------------------------------------------
      1         26           0       -0.048855    0.221788   -0.055645
      2          7           0       -1.396436    1.723332   -0.134457
      3          7           0        1.396354    1.609123    0.008014
      4          7           0        1.307161   -1.213664   -0.069593
      5          7           0       -1.546350   -1.090665   -0.198866
      6          6           0       -2.754245    1.589761   -0.086206
      7          6           0       -3.392202    2.892597   -0.113339
      8          6           0       -2.389269    3.806533   -0.181046
      9          6           0       -1.152027    3.050653   -0.195610
     10          6           0        1.281576    2.945430   -0.208807
     11          6           0        2.591184    3.566993   -0.234202
     12          6           0        3.486588    2.581875    0.042235
     13          6           0        2.720377    1.361393    0.170220
     14          6           0        2.612796   -1.090495    0.253218
     15          6           0        3.254739   -2.394771    0.256516
     16          6           0        2.281066   -3.297579   -0.090524
     17          6           0        1.059691   -2.542448   -0.225091
     18          6           0       -1.394699   -2.435766   -0.357278
     19          6           0       -2.692128   -3.084226   -0.371416
     20          6           0       -3.619359   -2.086137   -0.217238
     21          6           0       -2.878712   -0.853689   -0.119583
     22          6           0       -3.453883    0.404850   -0.032632
     23          1           0       -4.533669    0.459771    0.005511
     24          6           0        0.094944    3.639581   -0.301852
     25          1           0        0.140155    4.719155   -0.418757
     26          6           0        3.280216    0.112210    0.382650
     27          1           0        4.341206    0.077277    0.575493
     28          6           0       -0.187339   -3.099031   -0.460386
     29          1           0       -0.230843   -4.161828   -0.627314
     30          6           0       -4.865210    3.107999   -0.042913
     31          1           0       -5.277249    2.661938    0.863566
     32          1           0       -5.363207    2.652707   -0.898645
     33          1           0       -5.100121    4.170016   -0.034601
     34          6           0       -2.464297    5.295558   -0.192203
     35          1           0       -2.045377    5.690035   -1.116867
     36          1           0       -1.898363    5.714109    0.641053
     37          1           0       -3.493862    5.633456   -0.106820
     38          6           0       -5.094914   -2.204568   -0.063071
     39          1           0       -5.602125   -1.989797   -1.004680
     40          1           0       -5.455857   -1.499831    0.684683
     41          1           0       -5.357601   -3.212885    0.249748
     42          6           0       -2.894806   -4.509793   -0.483130
     43          1           0       -2.111772   -5.132297   -0.063276
     44          6           0       -3.939083   -5.098184   -1.056790
     45          1           0       -4.724214   -4.537375   -1.533882
     46          1           0       -4.032440   -6.171353   -1.091157
     47          6           0        2.377797   -4.782517   -0.134783
     48          1           0        2.461227   -5.136573   -1.162961
     49          1           0        1.494663   -5.241076    0.309110
     50          1           0        3.252908   -5.117395    0.419537
     51          6           0        4.639386   -2.611383    0.597462
     52          1           0        5.041959   -1.935752    1.342363
     53          6           0        5.420463   -3.551572    0.077287
     54          1           0        5.070844   -4.213565   -0.694760
     55          1           0        6.444393   -3.669335    0.387614
     56          6           0        4.967265    2.662405    0.183380
     57          1           0        5.311258    3.688340    0.075273
     58          1           0        5.461172    2.053317   -0.573881
     59          1           0        5.281989    2.300340    1.163061
     60          6           0        2.827079    5.017368   -0.487660
     61          1           0        3.891471    5.231921   -0.543950
     62          1           0        2.394136    5.624509    0.308356
     63          1           0        2.364898    5.312192   -1.428518
     64          6           0       -0.501335   -1.309692    5.244805
     65          1           0        0.355125   -1.154665    5.899452
     66          1           0       -0.571744   -2.365412    5.003847
     67          1           0       -1.402470   -1.008910    5.777077
     68          7           0       -0.243557    0.834975    3.975447
     69          1           0       -0.253011    1.435850    4.782664
     70          6           0       -0.350099   -0.530446    3.992928
     71          6           0       -0.118142    1.220111    2.684125
     72          1           0       -0.020944    2.237076    2.362454
     73          7           0       -0.137782    0.178382    1.890344
     74          6           0       -0.283344   -0.917057    2.686190
     75          1           0       -0.331845   -1.896523    2.257133
     76          6           0        2.594164   -0.187973   -3.231124
     77          1           0        2.662218    0.751016   -3.775364
     78          1           0        3.278411   -0.906339   -3.678037
     79          1           0        2.896125   -0.012151   -2.202235
     80          6           0        1.175996   -0.721503   -3.275122
     81          1           0        1.091974   -1.665068   -2.738388
     82          1           0        0.837169   -0.848196   -4.304148
     83         16           0        0.033732    0.477824   -2.480509
     84          6           0       -1.524614   -0.175088   -3.151260
     85          1           0       -2.326376    0.386670   -2.684273
     86          1           0       -1.620248   -1.227715   -2.905145
     87          1           0       -1.538896   -0.026103   -4.228121
 ---------------------------------------------------------------------
 Rotational constants (GHZ):           0.0830835           0.0814972           0.0583804
 Standard basis: def2TZVP (5D, 7F)
 There are  1894 symmetry adapted cartesian basis functions of A   symmetry.
 There are  1667 symmetry adapted basis functions of A   symmetry.
  1667 basis functions,  2700 primitive gaussians,  1894 cartesian basis functions
   174 alpha electrons      174 beta electrons
       nuclear repulsion energy      7158.1364132246 Hartrees.
 NAtoms=   87 NActive=   87 NUniq=   87 SFac= 1.00D+00 NAtFMM=   60 NAOKFM=T Big=T
 Integral buffers will be    131072 words long.
 Raffenetti 2 integral format.
 Two-electron integral symmetry is turned on.
 R6APFD:  NTU= -4 IXU= 1 FactS= 1.050
 Nuclear repulsion after empirical dispersion term =     7157.9521287261 Hartrees.
 One-electron integrals computed using PRISM.
   1 Symmetry operations used in ECPInt.
 ECPInt:  NShTT=  224115 NPrTT=  692067 LenC2=  178481 LenP2D=  363412.
 LDataN:  DoStor=T MaxTD1= 6 Len=  172
 Number of processors reduced to  21 by ecpmxn.
 NBasis=  1667 RedAO= T EigKep=  3.62D-06  NBF=  1667
 NBsUse=  1667 1.00D-06 EigRej= -1.00D+00 NBFU=  1667
 ExpMin= 4.20D-02 ExpMax= 3.01D+05 ExpMxC= 2.91D+03 IAcc=3 IRadAn=         5 AccDes= 0.00D+00
 Harris functional with IExCor= 3731 and IRadAn=       5 diagonalized for initial guess.
 HarFok:  IExCor= 3731 AccDes= 0.00D+00 IRadAn=         5 IDoV= 1 UseB2=F ITyADJ=14
 ICtDFT=  3500011 ScaDFX=  1.000000  1.000000  1.000000  1.000000
 FoFCou: FMM=F IPFlag=           0 FMFlag=      100000 FMFlg1=        2001
         NFxFlg=           0 DoJE=T BraDBF=F KetDBF=T FulRan=T
         wScrn=  0.000000 ICntrl=       500 IOpCl=  0 I1Cent=   200000004 NGrid=           0
         NMat0=    1 NMatS0=      1 NMatT0=    0 NMatD0=    1 NMtDS0=    0 NMtDT0=    0
 Petite list used in FoFCou.
 Requested convergence on RMS density matrix=1.00D-08 within 128 cycles.
 Requested convergence on MAX density matrix=1.00D-06.
 Requested convergence on             energy=1.00D-06.
 No special actions if energy rises.
 EnCoef did     2 forward-backward iterations
 EnCoef did   100 forward-backward iterations
 EnCoef did   100 forward-backward iterations
 EnCoef did   100 forward-backward iterations
 EnCoef did     4 forward-backward iterations
 EnCoef did     2 forward-backward iterations
 EnCoef did     2 forward-backward iterations
 EnCoef did     2 forward-backward iterations
 EnCoef did     2 forward-backward iterations
 Restarting incremental Fock formation.
 SCF Done:  E(RAPFD) =  -3424.85165734     A.U. after   28 cycles
            NFock= 28  Conv=0.17D-08     -V/T= 2.0033
 DoSCS=F DFT=T ScalE2(SS,OS)=  1.000000  1.000000
 Range of M.O.s used for correlation:     1  1667
 NBasis=  1667 NAE=   174 NBE=   174 NFC=     0 NFV=     0
 NROrb=   1667 NOA=   174 NOB=   174 NVA=  1493 NVB=  1493

 **** Warning!!: The largest alpha MO coefficient is  0.51916731D+02

          Differentiating once with respect to electric field.
                with respect to dipole field.
          Electric field/nuclear overlap derivatives assumed to be zero.
          There are     3 degrees of freedom in the 1st order CPHF.  IDoFFX=0 NUNeed=     3.
      3 vectors produced by pass  0 Test12= 8.66D-12 3.33D-08 XBig12= 1.88D+03 2.24D+01.
 AX will form     3 AO Fock derivatives at one time.
      3 vectors produced by pass  1 Test12= 8.66D-12 3.33D-08 XBig12= 1.35D+03 9.42D+00.
      3 vectors produced by pass  2 Test12= 8.66D-12 3.33D-08 XBig12= 4.00D+02 2.83D+00.
      3 vectors produced by pass  3 Test12= 8.66D-12 3.33D-08 XBig12= 3.25D+02 6.20D+00.
      3 vectors produced by pass  4 Test12= 8.66D-12 3.33D-08 XBig12= 3.42D+02 4.17D+00.
      3 vectors produced by pass  5 Test12= 8.66D-12 3.33D-08 XBig12= 1.54D+02 2.45D+00.
      3 vectors produced by pass  6 Test12= 8.66D-12 3.33D-08 XBig12= 8.42D+01 2.61D+00.
      3 vectors produced by pass  7 Test12= 8.66D-12 3.33D-08 XBig12= 3.19D+01 1.09D+00.
      3 vectors produced by pass  8 Test12= 8.66D-12 3.33D-08 XBig12= 1.30D+01 6.92D-01.
      3 vectors produced by pass  9 Test12= 8.66D-12 3.33D-08 XBig12= 4.96D+00 5.88D-01.
      3 vectors produced by pass 10 Test12= 8.66D-12 3.33D-08 XBig12= 2.45D+00 4.43D-01.
      3 vectors produced by pass 11 Test12= 8.66D-12 3.33D-08 XBig12= 1.27D+00 2.25D-01.
      3 vectors produced by pass 12 Test12= 8.66D-12 3.33D-08 XBig12= 5.65D-01 1.15D-01.
      3 vectors produced by pass 13 Test12= 8.66D-12 3.33D-08 XBig12= 1.62D-01 5.81D-02.
      3 vectors produced by pass 14 Test12= 8.66D-12 3.33D-08 XBig12= 6.18D-02 4.35D-02.
      3 vectors produced by pass 15 Test12= 8.66D-12 3.33D-08 XBig12= 2.15D-02 2.77D-02.
      3 vectors produced by pass 16 Test12= 8.66D-12 3.33D-08 XBig12= 6.47D-03 1.77D-02.
      3 vectors produced by pass 17 Test12= 8.66D-12 3.33D-08 XBig12= 3.33D-03 1.86D-02.
      3 vectors produced by pass 18 Test12= 8.66D-12 3.33D-08 XBig12= 8.97D-04 8.10D-03.
      3 vectors produced by pass 19 Test12= 8.66D-12 3.33D-08 XBig12= 2.18D-04 3.30D-03.
      3 vectors produced by pass 20 Test12= 8.66D-12 3.33D-08 XBig12= 4.96D-05 2.54D-03.
      3 vectors produced by pass 21 Test12= 8.66D-12 3.33D-08 XBig12= 8.07D-06 1.01D-03.
      3 vectors produced by pass 22 Test12= 8.66D-12 3.33D-08 XBig12= 2.18D-06 5.03D-04.
      3 vectors produced by pass 23 Test12= 8.66D-12 3.33D-08 XBig12= 4.23D-07 2.00D-04.
      3 vectors produced by pass 24 Test12= 8.66D-12 3.33D-08 XBig12= 8.53D-08 6.40D-05.
      3 vectors produced by pass 25 Test12= 8.66D-12 3.33D-08 XBig12= 1.97D-08 2.40D-05.
      3 vectors produced by pass 26 Test12= 8.66D-12 3.33D-08 XBig12= 4.82D-09 1.34D-05.
      3 vectors produced by pass 27 Test12= 8.66D-12 3.33D-08 XBig12= 8.24D-10 3.28D-06.
      3 vectors produced by pass 28 Test12= 8.66D-12 3.33D-08 XBig12= 1.38D-10 1.23D-06.
      3 vectors produced by pass 29 Test12= 8.66D-12 3.33D-08 XBig12= 2.11D-11 6.38D-07.
      3 vectors produced by pass 30 Test12= 8.66D-12 3.33D-08 XBig12= 3.31D-12 2.83D-07.
      2 vectors produced by pass 31 Test12= 8.66D-12 3.33D-08 XBig12= 8.61D-13 1.98D-07.
      2 vectors produced by pass 32 Test12= 8.66D-12 3.33D-08 XBig12= 1.43D-13 7.85D-08.
 InvSVY:  IOpt=1 It=  1 EMax= 1.42D-14
 Solved reduced A of dimension    97 with     3 vectors.
 Isotropic polarizability for W=    0.000000      612.36 Bohr**3.
 End of Minotr F.D. properties file   721 does not exist.
 End of Minotr F.D. properties file   722 does not exist.
 End of Minotr F.D. properties file   788 does not exist.

 **********************************************************************

            Population analysis using the SCF Density.

 **********************************************************************

 Orbital symmetries:
       Occupied  (A) (A) (A) (A) (A) (A) (A) (A) (A) (A) (A) (A)
                 (A) (A) (A) (A) (A) (A) (A) (A) (A) (A) (A) (A)
                 (A) (A) (A) (A) (A) (A) (A) (A) (A) (A) (A) (A)
                 (A) (A) (A) (A) (A) (A) (A) (A) (A) (A) (A) (A)
                 (A) (A) (A) (A) (A) (A) (A) (A) (A) (A) (A) (A)
                 (A) (A) (A) (A) (A) (A) (A) (A) (A) (A) (A) (A)
                 (A) (A) (A) (A) (A) (A) (A) (A) (A) (A) (A) (A)
                 (A) (A) (A) (A) (A) (A) (A) (A) (A) (A) (A) (A)
                 (A) (A) (A) (A) (A) (A) (A) (A) (A) (A) (A) (A)
                 (A) (A) (A) (A) (A) (A) (A) (A) (A) (A) (A) (A)
                 (A) (A) (A) (A) (A) (A) (A) (A) (A) (A) (A) (A)
                 (A) (A) (A) (A) (A) (A) (A) (A) (A) (A) (A) (A)
                 (A) (A) (A) (A) (A) (A) (A) (A) (A) (A) (A) (A)
                 (A) (A) (A) (A) (A) (A) (A) (A) (A) (A) (A) (A)
                 (A) (A) (A) (A) (A) (A)
       Virtual   (A) (A) (A) (A) (A) (A) (A) (A) (A) (A) (A) (A)
                 (A) (A) (A) (A) (A) (A) (A) (A) (A) (A) (A) (A)
                 (A) (A) (A) (A) (A) (A) (A) (A) (A) (A) (A) (A)
                 (A) (A) (A) (A) (A) (A) (A) (A) (A) (A) (A) (A)
                 (A) (A) (A) (A) (A) (A) (A) (A) (A) (A) (A) (A)
                 (A) (A) (A) (A) (A) (A) (A) (A) (A) (A) (A) (A)
                 (A) (A) (A) (A) (A) (A) (A) (A) (A) (A) (A) (A)
                 (A) (A) (A) (A) (A) (A) (A) (A) (A) (A) (A) (A)
                 (A) (A) (A) (A) (A) (A) (A) (A) (A) (A) (A) (A)
                 (A) (A) (A) (A) (A) (A) (A) (A) (A) (A) (A) (A)
                 (A) (A) (A) (A) (A) (A) (A) (A) (A) (A) (A) (A)
                 (A) (A) (A) (A) (A) (A) (A) (A) (A) (A) (A) (A)
                 (A) (A) (A) (A) (A) (A) (A) (A) (A) (A) (A) (A)
                 (A) (A) (A) (A) (A) (A) (A) (A) (A) (A) (A) (A)
                 (A) (A) (A) (A) (A) (A) (A) (A) (A) (A) (A) (A)
                 (A) (A) (A) (A) (A) (A) (A) (A) (A) (A) (A) (A)
                 (A) (A) (A) (A) (A) (A) (A) (A) (A) (A) (A) (A)
                 (A) (A) (A) (A) (A) (A) (A) (A) (A) (A) (A) (A)
                 (A) (A) (A) (A) (A) (A) (A) (A) (A) (A) (A) (A)
                 (A) (A) (A) (A) (A) (A) (A) (A) (A) (A) (A) (A)
                 (A) (A) (A) (A) (A) (A) (A) (A) (A) (A) (A) (A)
                 (A) (A) (A) (A) (A) (A) (A) (A) (A) (A) (A) (A)
                 (A) (A) (A) (A) (A) (A) (A) (A) (A) (A) (A) (A)
                 (A) (A) (A) (A) (A) (A) (A) (A) (A) (A) (A) (A)
                 (A) (A) (A) (A) (A) (A) (A) (A) (A) (A) (A) (A)
                 (A) (A) (A) (A) (A) (A) (A) (A) (A) (A) (A) (A)
                 (A) (A) (A) (A) (A) (A) (A) (A) (A) (A) (A) (A)
                 (A) (A) (A) (A) (A) (A) (A) (A) (A) (A) (A) (A)
                 (A) (A) (A) (A) (A) (A) (A) (A) (A) (A) (A) (A)
                 (A) (A) (A) (A) (A) (A) (A) (A) (A) (A) (A) (A)
                 (A) (A) (A) (A) (A) (A) (A) (A) (A) (A) (A) (A)
                 (A) (A) (A) (A) (A) (A) (A) (A) (A) (A) (A) (A)
                 (A) (A) (A) (A) (A) (A) (A) (A) (A) (A) (A) (A)
                 (A) (A) (A) (A) (A) (A) (A) (A) (A) (A) (A) (A)
                 (A) (A) (A) (A) (A) (A) (A) (A) (A) (A) (A) (A)
                 (A) (A) (A) (A) (A) (A) (A) (A) (A) (A) (A) (A)
                 (A) (A) (A) (A) (A) (A) (A) (A) (A) (A) (A) (A)
                 (A) (A) (A) (A) (A) (A) (A) (A) (A) (A) (A) (A)
                 (A) (A) (A) (A) (A) (A) (A) (A) (A) (A) (A) (A)
                 (A) (A) (A) (A) (A) (A) (A) (A) (A) (A) (A) (A)
                 (A) (A) (A) (A) (A) (A) (A) (A) (A) (A) (A) (A)
                 (A) (A) (A) (A) (A) (A) (A) (A) (A) (A) (A) (A)
                 (A) (A) (A) (A) (A) (A) (A) (A) (A) (A) (A) (A)
                 (A) (A) (A) (A) (A) (A) (A) (A) (A) (A) (A) (A)
                 (A) (A) (A) (A) (A) (A) (A) (A) (A) (A) (A) (A)
                 (A) (A) (A) (A) (A) (A) (A) (A) (A) (A) (A) (A)
                 (A) (A) (A) (A) (A) (A) (A) (A) (A) (A) (A) (A)
                 (A) (A) (A) (A) (A) (A) (A) (A) (A) (A) (A) (A)
                 (A) (A) (A) (A) (A) (A) (A) (A) (A) (A) (A) (A)
                 (A) (A) (A) (A) (A) (A) (A) (A) (A) (A) (A) (A)
                 (A) (A) (A) (A) (A) (A) (A) (A) (A) (A) (A) (A)
                 (A) (A) (A) (A) (A) (A) (A) (A) (A) (A) (A) (A)
                 (A) (A) (A) (A) (A) (A) (A) (A) (A) (A) (A) (A)
                 (A) (A) (A) (A) (A) (A) (A) (A) (A) (A) (A) (A)
                 (A) (A) (A) (A) (A) (A) (A) (A) (A) (A) (A) (A)
                 (A) (A) (A) (A) (A) (A) (A) (A) (A) (A) (A) (A)
                 (A) (A) (A) (A) (A) (A) (A) (A) (A) (A) (A) (A)
                 (A) (A) (A) (A) (A) (A) (A) (A) (A) (A) (A) (A)
                 (A) (A) (A) (A) (A) (A) (A) (A) (A) (A) (A) (A)
                 (A) (A) (A) (A) (A) (A) (A) (A) (A) (A) (A) (A)
                 (A) (A) (A) (A) (A) (A) (A) (A) (A) (A) (A) (A)
                 (A) (A) (A) (A) (A) (A) (A) (A) (A) (A) (A) (A)
                 (A) (A) (A) (A) (A) (A) (A) (A) (A) (A) (A) (A)
                 (A) (A) (A) (A) (A) (A) (A) (A) (A) (A) (A) (A)
                 (A) (A) (A) (A) (A) (A) (A) (A) (A) (A) (A) (A)
                 (A) (A) (A) (A) (A) (A) (A) (A) (A) (A) (A) (A)
                 (A) (A) (A) (A) (A) (A) (A) (A) (A) (A) (A) (A)
                 (A) (A) (A) (A) (A) (A) (A) (A) (A) (A) (A) (A)
                 (A) (A) (A) (A) (A) (A) (A) (A) (A) (A) (A) (A)
                 (A) (A) (A) (A) (A) (A) (A) (A) (A) (A) (A) (A)
                 (A) (A) (A) (A) (A) (A) (A) (A) (A) (A) (A) (A)
                 (A) (A) (A) (A) (A) (A) (A) (A) (A) (A) (A) (A)
                 (A) (A) (A) (A) (A) (A) (A) (A) (A) (A) (A) (A)
                 (A) (A) (A) (A) (A) (A) (A) (A) (A) (A) (A) (A)
                 (A) (A) (A) (A) (A) (A) (A) (A) (A) (A) (A) (A)
                 (A) (A) (A) (A) (A) (A) (A) (A) (A) (A) (A) (A)
                 (A) (A) (A) (A) (A) (A) (A) (A) (A) (A) (A) (A)
                 (A) (A) (A) (A) (A) (A) (A) (A) (A) (A) (A) (A)
                 (A) (A) (A) (A) (A) (A) (A) (A) (A) (A) (A) (A)
                 (A) (A) (A) (A) (A) (A) (A) (A) (A) (A) (A) (A)
                 (A) (A) (A) (A) (A) (A) (A) (A) (A) (A) (A) (A)
                 (A) (A) (A) (A) (A) (A) (A) (A) (A) (A) (A) (A)
                 (A) (A) (A) (A) (A) (A) (A) (A) (A) (A) (A) (A)
                 (A) (A) (A) (A) (A) (A) (A) (A) (A) (A) (A) (A)
                 (A) (A) (A) (A) (A) (A) (A) (A) (A) (A) (A) (A)
                 (A) (A) (A) (A) (A) (A) (A) (A) (A) (A) (A) (A)
                 (A) (A) (A) (A) (A) (A) (A) (A) (A) (A) (A) (A)
                 (A) (A) (A) (A) (A) (A) (A) (A) (A) (A) (A) (A)
                 (A) (A) (A) (A) (A) (A) (A) (A) (A) (A) (A) (A)
                 (A) (A) (A) (A) (A) (A) (A) (A) (A) (A) (A) (A)
                 (A) (A) (A) (A) (A) (A) (A) (A) (A) (A) (A) (A)
                 (A) (A) (A) (A) (A) (A) (A) (A) (A) (A) (A) (A)
                 (A) (A) (A) (A) (A) (A) (A) (A) (A) (A) (A) (A)
                 (A) (A) (A) (A) (A) (A) (A) (A) (A) (A) (A) (A)
                 (A) (A) (A) (A) (A) (A) (A) (A) (A) (A) (A) (A)
                 (A) (A) (A) (A) (A) (A) (A) (A) (A) (A) (A) (A)
                 (A) (A) (A) (A) (A) (A) (A) (A) (A) (A) (A) (A)
                 (A) (A) (A) (A) (A) (A) (A) (A) (A) (A) (A) (A)
                 (A) (A) (A) (A) (A) (A) (A) (A) (A) (A) (A) (A)
                 (A) (A) (A) (A) (A) (A) (A) (A) (A) (A) (A) (A)
                 (A) (A) (A) (A) (A) (A) (A) (A) (A) (A) (A) (A)
                 (A) (A) (A) (A) (A) (A) (A) (A) (A) (A) (A) (A)
                 (A) (A) (A) (A) (A) (A) (A) (A) (A) (A) (A) (A)
                 (A) (A) (A) (A) (A) (A) (A) (A) (A) (A) (A) (A)
                 (A) (A) (A) (A) (A) (A) (A) (A) (A) (A) (A) (A)
                 (A) (A) (A) (A) (A) (A) (A) (A) (A) (A) (A) (A)
                 (A) (A) (A) (A) (A) (A) (A) (A) (A) (A) (A) (A)
                 (A) (A) (A) (A) (A) (A) (A) (A) (A) (A) (A) (A)
                 (A) (A) (A) (A) (A) (A) (A) (A) (A) (A) (A) (A)
                 (A) (A) (A) (A) (A) (A) (A) (A) (A) (A) (A) (A)
                 (A) (A) (A) (A) (A) (A) (A) (A) (A) (A) (A) (A)
                 (A) (A) (A) (A) (A) (A) (A) (A) (A) (A) (A) (A)
                 (A) (A) (A) (A) (A) (A) (A) (A) (A) (A) (A) (A)
                 (A) (A) (A) (A) (A) (A) (A) (A) (A) (A) (A) (A)
                 (A) (A) (A) (A) (A) (A) (A) (A) (A) (A) (A) (A)
                 (A) (A) (A) (A) (A) (A) (A) (A) (A) (A) (A) (A)
                 (A) (A) (A) (A) (A) (A) (A) (A) (A) (A) (A) (A)
                 (A) (A) (A) (A) (A) (A) (A) (A) (A) (A) (A) (A)
                 (A) (A) (A) (A) (A) (A) (A) (A) (A) (A) (A) (A)
                 (A) (A) (A) (A) (A) (A) (A) (A) (A) (A) (A) (A)
                 (A) (A) (A) (A) (A) (A) (A) (A) (A) (A) (A) (A)
                 (A) (A) (A) (A) (A) (A) (A) (A) (A) (A) (A) (A)
                 (A) (A) (A) (A) (A) (A) (A) (A) (A) (A) (A) (A)
                 (A) (A) (A) (A) (A) (A) (A) (A) (A) (A) (A) (A)
                 (A) (A) (A) (A) (A)
 The electronic state is 1-A.
 Alpha  occ. eigenvalues -- -256.17409 -88.93708 -30.02528 -25.86660 -25.86297
 Alpha  occ. eigenvalues --  -25.86264 -14.41639 -14.36193 -14.33177 -14.33150
 Alpha  occ. eigenvalues --  -14.33114 -14.32931 -10.25301 -10.23613 -10.20991
 Alpha  occ. eigenvalues --  -10.20921 -10.20807 -10.20806 -10.20804 -10.20712
 Alpha  occ. eigenvalues --  -10.20706 -10.20701 -10.20684 -10.20650 -10.20596
 Alpha  occ. eigenvalues --  -10.19992 -10.19528 -10.19443 -10.19011 -10.18960
 Alpha  occ. eigenvalues --  -10.18651 -10.18645 -10.18568 -10.18535 -10.18500
 Alpha  occ. eigenvalues --  -10.18495 -10.18487 -10.18486 -10.18467 -10.18461
 Alpha  occ. eigenvalues --  -10.18415 -10.18346 -10.18345 -10.18315 -10.18258
 Alpha  occ. eigenvalues --  -10.18224 -10.18083 -10.18052 -10.17152  -7.96377
 Alpha  occ. eigenvalues --   -5.90973  -5.90676  -5.90139  -3.39957  -2.16546
 Alpha  occ. eigenvalues --   -2.15839  -2.15792  -1.05286  -0.96921  -0.95990
 Alpha  occ. eigenvalues --   -0.95872  -0.94934  -0.90889  -0.82227  -0.81858
 Alpha  occ. eigenvalues --   -0.81509  -0.81293  -0.80610  -0.80265  -0.80236
 Alpha  occ. eigenvalues --   -0.79512  -0.79473  -0.76676  -0.75670  -0.74454
 Alpha  occ. eigenvalues --   -0.74180  -0.73900  -0.73073  -0.71798  -0.70889
 Alpha  occ. eigenvalues --   -0.70029  -0.68109  -0.67793  -0.67732  -0.64707
 Alpha  occ. eigenvalues --   -0.64536  -0.64080  -0.63991  -0.61253  -0.60570
 Alpha  occ. eigenvalues --   -0.59988  -0.58564  -0.57715  -0.56624  -0.55885
 Alpha  occ. eigenvalues --   -0.54354  -0.53564  -0.53250  -0.52527  -0.51014
 Alpha  occ. eigenvalues --   -0.50982  -0.50508  -0.48675  -0.47959  -0.47797
 Alpha  occ. eigenvalues --   -0.47532  -0.47199  -0.46627  -0.44884  -0.44778
 Alpha  occ. eigenvalues --   -0.44531  -0.44457  -0.44254  -0.43665  -0.43504
 Alpha  occ. eigenvalues --   -0.43401  -0.43214  -0.43159  -0.43082  -0.42925
 Alpha  occ. eigenvalues --   -0.42598  -0.42476  -0.42436  -0.42325  -0.41883
 Alpha  occ. eigenvalues --   -0.41742  -0.41684  -0.41396  -0.41235  -0.40243
 Alpha  occ. eigenvalues --   -0.40079  -0.40008  -0.39613  -0.39426  -0.39184
 Alpha  occ. eigenvalues --   -0.38808  -0.38489  -0.38288  -0.37904  -0.37594
 Alpha  occ. eigenvalues --   -0.37350  -0.36944  -0.36891  -0.36415  -0.36064
 Alpha  occ. eigenvalues --   -0.35839  -0.35498  -0.35156  -0.34327  -0.34164
 Alpha  occ. eigenvalues --   -0.33998  -0.33740  -0.33469  -0.32170  -0.31720
 Alpha  occ. eigenvalues --   -0.31309  -0.30620  -0.30245  -0.29164  -0.28986
 Alpha  occ. eigenvalues --   -0.28850  -0.26772  -0.26544  -0.24502  -0.24389
 Alpha  occ. eigenvalues --   -0.23601  -0.22939  -0.22119  -0.21973  -0.19201
 Alpha  occ. eigenvalues --   -0.17939  -0.17768  -0.17652  -0.17440
 Alpha virt. eigenvalues --   -0.06531  -0.06416  -0.01976   0.00541   0.01581
 Alpha virt. eigenvalues --    0.01968   0.02289   0.03266   0.03769   0.04034
 Alpha virt. eigenvalues --    0.04688   0.05045   0.05486   0.05519   0.05837
 Alpha virt. eigenvalues --    0.06178   0.06551   0.06723   0.07155   0.07867
 Alpha virt. eigenvalues --    0.08123   0.08247   0.08325   0.08590   0.09138
 Alpha virt. eigenvalues --    0.09451   0.09559   0.09670   0.10261   0.10433
 Alpha virt. eigenvalues --    0.10524   0.11003   0.11248   0.11465   0.11576
 Alpha virt. eigenvalues --    0.11904   0.12134   0.12273   0.12388   0.12646
 Alpha virt. eigenvalues --    0.13066   0.13243   0.13334   0.13667   0.13674
 Alpha virt. eigenvalues --    0.14023   0.14360   0.14418   0.14477   0.14589
 Alpha virt. eigenvalues --    0.14685   0.14958   0.15036   0.15337   0.15556
 Alpha virt. eigenvalues --    0.15729   0.15997   0.16096   0.16215   0.16495
 Alpha virt. eigenvalues --    0.16525   0.16914   0.16987   0.17303   0.17422
 Alpha virt. eigenvalues --    0.17766   0.18114   0.18342   0.18430   0.18597
 Alpha virt. eigenvalues --    0.19019   0.19524   0.19888   0.19949   0.20177
 Alpha virt. eigenvalues --    0.20478   0.20820   0.20959   0.21217   0.21590
 Alpha virt. eigenvalues --    0.21742   0.21845   0.22046   0.22270   0.22501
 Alpha virt. eigenvalues --    0.22832   0.23137   0.23222   0.23514   0.23848
 Alpha virt. eigenvalues --    0.24288   0.24815   0.25027   0.25243   0.25502
 Alpha virt. eigenvalues --    0.25649   0.25762   0.26069   0.26448   0.26683
 Alpha virt. eigenvalues --    0.26790   0.27239   0.27365   0.27621   0.28117
 Alpha virt. eigenvalues --    0.28422   0.28915   0.28987   0.29059   0.29338
 Alpha virt. eigenvalues --    0.29635   0.29680   0.29880   0.30170   0.30490
 Alpha virt. eigenvalues --    0.30726   0.30830   0.31000   0.31279   0.31558
 Alpha virt. eigenvalues --    0.31732   0.32224   0.32287   0.32666   0.32846
 Alpha virt. eigenvalues --    0.33200   0.33399   0.33607   0.33877   0.34034
 Alpha virt. eigenvalues --    0.34349   0.34902   0.35215   0.35467   0.35912
 Alpha virt. eigenvalues --    0.36095   0.36494   0.36663   0.36789   0.37072
 Alpha virt. eigenvalues --    0.37157   0.37360   0.37730   0.37950   0.38168
 Alpha virt. eigenvalues --    0.38598   0.38690   0.38884   0.39054   0.39096
 Alpha virt. eigenvalues --    0.39456   0.39843   0.39945   0.40287   0.40522
 Alpha virt. eigenvalues --    0.40705   0.40777   0.40949   0.41144   0.41313
 Alpha virt. eigenvalues --    0.41652   0.41918   0.41955   0.42105   0.42323
 Alpha virt. eigenvalues --    0.42710   0.42834   0.43048   0.43263   0.43498
 Alpha virt. eigenvalues --    0.43662   0.43740   0.44066   0.44346   0.44494
 Alpha virt. eigenvalues --    0.44576   0.44782   0.45139   0.45221   0.45371
 Alpha virt. eigenvalues --    0.45631   0.45765   0.45994   0.46078   0.46498
 Alpha virt. eigenvalues --    0.46646   0.46887   0.47157   0.47209   0.47395
 Alpha virt. eigenvalues --    0.47638   0.47676   0.47805   0.47907   0.48256
 Alpha virt. eigenvalues --    0.48380   0.48446   0.48641   0.48777   0.49058
 Alpha virt. eigenvalues --    0.49135   0.49391   0.49617   0.49710   0.49864
 Alpha virt. eigenvalues --    0.49899   0.50105   0.50511   0.50660   0.50783
 Alpha virt. eigenvalues --    0.50989   0.51099   0.51452   0.51797   0.51889
 Alpha virt. eigenvalues --    0.52054   0.52174   0.52386   0.52781   0.52869
 Alpha virt. eigenvalues --    0.52981   0.53346   0.53421   0.53680   0.53765
 Alpha virt. eigenvalues --    0.53939   0.54469   0.54507   0.55135   0.55366
 Alpha virt. eigenvalues --    0.55607   0.55739   0.55908   0.56041   0.56417
 Alpha virt. eigenvalues --    0.56522   0.56704   0.57033   0.57285   0.57700
 Alpha virt. eigenvalues --    0.58088   0.58311   0.58434   0.58831   0.59140
 Alpha virt. eigenvalues --    0.59365   0.59640   0.59776   0.60202   0.60422
 Alpha virt. eigenvalues --    0.60808   0.61132   0.61677   0.61853   0.62195
 Alpha virt. eigenvalues --    0.62357   0.62647   0.62862   0.62994   0.63425
 Alpha virt. eigenvalues --    0.63595   0.64296   0.64439   0.64657   0.65179
 Alpha virt. eigenvalues --    0.65312   0.65409   0.65599   0.65751   0.66169
 Alpha virt. eigenvalues --    0.66324   0.66530   0.66975   0.67196   0.67358
 Alpha virt. eigenvalues --    0.67863   0.68237   0.68346   0.68787   0.69140
 Alpha virt. eigenvalues --    0.70007   0.70130   0.70492   0.71042   0.71185
 Alpha virt. eigenvalues --    0.71360   0.71708   0.72106   0.72251   0.72418
 Alpha virt. eigenvalues --    0.72895   0.72946   0.73323   0.73671   0.74146
 Alpha virt. eigenvalues --    0.74182   0.74552   0.74563   0.75008   0.75402
 Alpha virt. eigenvalues --    0.75992   0.76568   0.76753   0.77073   0.77183
 Alpha virt. eigenvalues --    0.77385   0.77667   0.77824   0.78071   0.78349
 Alpha virt. eigenvalues --    0.78562   0.78778   0.79597   0.79905   0.80077
 Alpha virt. eigenvalues --    0.80751   0.80854   0.81294   0.81746   0.81858
 Alpha virt. eigenvalues --    0.82025   0.82394   0.82568   0.82845   0.83277
 Alpha virt. eigenvalues --    0.83618   0.83852   0.84156   0.84620   0.85106
 Alpha virt. eigenvalues --    0.85339   0.86169   0.86249   0.86878   0.87447
 Alpha virt. eigenvalues --    0.87906   0.88055   0.88229   0.88515   0.89110
 Alpha virt. eigenvalues --    0.89251   0.89932   0.90221   0.90408   0.90580
 Alpha virt. eigenvalues --    0.90729   0.91056   0.91544   0.91988   0.92245
 Alpha virt. eigenvalues --    0.92500   0.92641   0.92893   0.93129   0.93717
 Alpha virt. eigenvalues --    0.93836   0.94091   0.94441   0.94940   0.95103
 Alpha virt. eigenvalues --    0.95393   0.95673   0.96196   0.96338   0.96427
 Alpha virt. eigenvalues --    0.96800   0.96998   0.97496   0.97997   0.98263
 Alpha virt. eigenvalues --    0.98356   0.98880   0.99289   0.99585   0.99793
 Alpha virt. eigenvalues --    1.00112   1.00320   1.00646   1.01170   1.01434
 Alpha virt. eigenvalues --    1.01654   1.01916   1.02246   1.02446   1.02816
 Alpha virt. eigenvalues --    1.03083   1.03334   1.03855   1.04240   1.04609
 Alpha virt. eigenvalues --    1.04727   1.04818   1.05302   1.05489   1.05752
 Alpha virt. eigenvalues --    1.05996   1.06710   1.07086   1.07423   1.07487
 Alpha virt. eigenvalues --    1.07924   1.08099   1.08424   1.09344   1.09579
 Alpha virt. eigenvalues --    1.09737   1.09859   1.10313   1.10649   1.11119
 Alpha virt. eigenvalues --    1.11595   1.12373   1.12378   1.12738   1.12927
 Alpha virt. eigenvalues --    1.13429   1.13890   1.14147   1.14536   1.14577
 Alpha virt. eigenvalues --    1.15640   1.15675   1.16160   1.16744   1.17321
 Alpha virt. eigenvalues --    1.17474   1.17545   1.17815   1.18171   1.18791
 Alpha virt. eigenvalues --    1.18976   1.19673   1.19785   1.20017   1.20339
 Alpha virt. eigenvalues --    1.20645   1.20925   1.21009   1.21544   1.22181
 Alpha virt. eigenvalues --    1.22502   1.23083   1.23197   1.23554   1.24198
 Alpha virt. eigenvalues --    1.24394   1.24789   1.25532   1.25711   1.26015
 Alpha virt. eigenvalues --    1.26247   1.26964   1.27176   1.27420   1.27724
 Alpha virt. eigenvalues --    1.28260   1.28533   1.28826   1.29169   1.29365
 Alpha virt. eigenvalues --    1.29796   1.30193   1.30490   1.30828   1.31027
 Alpha virt. eigenvalues --    1.31462   1.32111   1.32744   1.33129   1.33331
 Alpha virt. eigenvalues --    1.33541   1.34042   1.34611   1.35558   1.35971
 Alpha virt. eigenvalues --    1.36100   1.36151   1.37711   1.37785   1.38637
 Alpha virt. eigenvalues --    1.39129   1.39594   1.39770   1.40398   1.41062
 Alpha virt. eigenvalues --    1.41515   1.42185   1.42360   1.42833   1.43342
 Alpha virt. eigenvalues --    1.43702   1.44410   1.44435   1.44863   1.45824
 Alpha virt. eigenvalues --    1.46458   1.46819   1.46947   1.47241   1.47626
 Alpha virt. eigenvalues --    1.48158   1.48355   1.48588   1.48794   1.49481
 Alpha virt. eigenvalues --    1.49587   1.50015   1.50269   1.50626   1.50784
 Alpha virt. eigenvalues --    1.50848   1.51436   1.51744   1.51887   1.52112
 Alpha virt. eigenvalues --    1.52447   1.52730   1.53063   1.53096   1.53431
 Alpha virt. eigenvalues --    1.53652   1.53978   1.54107   1.54464   1.54914
 Alpha virt. eigenvalues --    1.55150   1.55464   1.55704   1.55833   1.56046
 Alpha virt. eigenvalues --    1.56251   1.56506   1.56836   1.57238   1.57506
 Alpha virt. eigenvalues --    1.57825   1.57973   1.58217   1.58253   1.58744
 Alpha virt. eigenvalues --    1.58872   1.58956   1.59259   1.59738   1.59992
 Alpha virt. eigenvalues --    1.60359   1.60603   1.60863   1.60982   1.61390
 Alpha virt. eigenvalues --    1.61659   1.62201   1.62377   1.62884   1.62913
 Alpha virt. eigenvalues --    1.63104   1.63307   1.63848   1.64108   1.64449
 Alpha virt. eigenvalues --    1.64648   1.64898   1.65181   1.65468   1.65854
 Alpha virt. eigenvalues --    1.66085   1.66244   1.66574   1.66891   1.66935
 Alpha virt. eigenvalues --    1.67464   1.67688   1.67889   1.68268   1.68735
 Alpha virt. eigenvalues --    1.69196   1.69568   1.69687   1.69704   1.70329
 Alpha virt. eigenvalues --    1.70728   1.70804   1.71162   1.71261   1.71324
 Alpha virt. eigenvalues --    1.72029   1.72245   1.72691   1.72712   1.72964
 Alpha virt. eigenvalues --    1.73589   1.73723   1.74032   1.74296   1.74579
 Alpha virt. eigenvalues --    1.74957   1.75799   1.76071   1.76243   1.77423
 Alpha virt. eigenvalues --    1.77669   1.77774   1.78570   1.78979   1.79034
 Alpha virt. eigenvalues --    1.79737   1.80202   1.80997   1.81574   1.82216
 Alpha virt. eigenvalues --    1.82737   1.83108   1.83533   1.83800   1.84021
 Alpha virt. eigenvalues --    1.84609   1.84779   1.85155   1.85316   1.85742
 Alpha virt. eigenvalues --    1.86220   1.86558   1.86760   1.87068   1.87243
 Alpha virt. eigenvalues --    1.87825   1.87922   1.88477   1.89087   1.89291
 Alpha virt. eigenvalues --    1.89720   1.90226   1.90433   1.90855   1.91360
 Alpha virt. eigenvalues --    1.91585   1.91811   1.92869   1.93221   1.94056
 Alpha virt. eigenvalues --    1.94155   1.94471   1.95143   1.95166   1.95637
 Alpha virt. eigenvalues --    1.96066   1.96374   1.96761   1.97193   1.97926
 Alpha virt. eigenvalues --    1.98349   1.98858   1.99084   1.99346   1.99571
 Alpha virt. eigenvalues --    1.99936   2.00123   2.00399   2.01107   2.01628
 Alpha virt. eigenvalues --    2.01966   2.02407   2.02741   2.03235   2.03864
 Alpha virt. eigenvalues --    2.04310   2.04688   2.05293   2.05453   2.05702
 Alpha virt. eigenvalues --    2.06417   2.06748   2.07382   2.07550   2.08119
 Alpha virt. eigenvalues --    2.08939   2.09194   2.09324   2.09491   2.09705
 Alpha virt. eigenvalues --    2.10351   2.10600   2.10935   2.11576   2.11790
 Alpha virt. eigenvalues --    2.11876   2.12094   2.12869   2.13614   2.14034
 Alpha virt. eigenvalues --    2.14352   2.14441   2.14865   2.15288   2.15808
 Alpha virt. eigenvalues --    2.16151   2.16806   2.17410   2.17576   2.18341
 Alpha virt. eigenvalues --    2.18886   2.19277   2.19694   2.19889   2.20337
 Alpha virt. eigenvalues --    2.20565   2.21077   2.21305   2.21556   2.21949
 Alpha virt. eigenvalues --    2.22306   2.22791   2.23116   2.23549   2.23905
 Alpha virt. eigenvalues --    2.24650   2.24863   2.25201   2.26138   2.26530
 Alpha virt. eigenvalues --    2.26731   2.27104   2.27595   2.28034   2.28275
 Alpha virt. eigenvalues --    2.28777   2.29194   2.29221   2.29893   2.30265
 Alpha virt. eigenvalues --    2.30429   2.30989   2.31246   2.31961   2.32050
 Alpha virt. eigenvalues --    2.32436   2.33000   2.33343   2.33921   2.34628
 Alpha virt. eigenvalues --    2.35192   2.35419   2.35674   2.36119   2.36279
 Alpha virt. eigenvalues --    2.36519   2.36782   2.36967   2.37510   2.37611
 Alpha virt. eigenvalues --    2.37923   2.38120   2.38303   2.38930   2.39719
 Alpha virt. eigenvalues --    2.39994   2.40588   2.40790   2.41216   2.41988
 Alpha virt. eigenvalues --    2.42174   2.42393   2.42487   2.43041   2.43579
 Alpha virt. eigenvalues --    2.44703   2.44878   2.44967   2.45292   2.45711
 Alpha virt. eigenvalues --    2.45902   2.46476   2.46809   2.47145   2.47268
 Alpha virt. eigenvalues --    2.47409   2.48194   2.48374   2.48785   2.49270
 Alpha virt. eigenvalues --    2.49887   2.50100   2.50331   2.50777   2.51264
 Alpha virt. eigenvalues --    2.51478   2.52150   2.52377   2.52525   2.52900
 Alpha virt. eigenvalues --    2.53536   2.53675   2.53938   2.54333   2.54747
 Alpha virt. eigenvalues --    2.55420   2.56017   2.56084   2.56514   2.56803
 Alpha virt. eigenvalues --    2.57091   2.57537   2.57672   2.57857   2.58280
 Alpha virt. eigenvalues --    2.58644   2.58966   2.59222   2.59709   2.59959
 Alpha virt. eigenvalues --    2.60381   2.60630   2.60945   2.61167   2.61617
 Alpha virt. eigenvalues --    2.62096   2.62416   2.62556   2.62859   2.63143
 Alpha virt. eigenvalues --    2.63418   2.64077   2.64404   2.64710   2.65117
 Alpha virt. eigenvalues --    2.65325   2.65382   2.65786   2.66459   2.66890
 Alpha virt. eigenvalues --    2.67088   2.67510   2.67719   2.68654   2.69012
 Alpha virt. eigenvalues --    2.69158   2.69353   2.69620   2.70075   2.70553
 Alpha virt. eigenvalues --    2.70610   2.71255   2.71297   2.71515   2.71960
 Alpha virt. eigenvalues --    2.72088   2.72711   2.73050   2.73107   2.73549
 Alpha virt. eigenvalues --    2.74222   2.74533   2.75038   2.75538   2.75809
 Alpha virt. eigenvalues --    2.76299   2.76416   2.77006   2.77401   2.77693
 Alpha virt. eigenvalues --    2.77799   2.78405   2.78709   2.78936   2.79343
 Alpha virt. eigenvalues --    2.79999   2.80346   2.81014   2.81653   2.81958
 Alpha virt. eigenvalues --    2.82317   2.82648   2.82907   2.83192   2.83284
 Alpha virt. eigenvalues --    2.83815   2.84174   2.84548   2.84793   2.85291
 Alpha virt. eigenvalues --    2.86240   2.86314   2.86759   2.87144   2.87818
 Alpha virt. eigenvalues --    2.87965   2.88804   2.89037   2.89332   2.89560
 Alpha virt. eigenvalues --    2.89859   2.90352   2.90400   2.91001   2.91593
 Alpha virt. eigenvalues --    2.91796   2.91995   2.92473   2.92599   2.93166
 Alpha virt. eigenvalues --    2.93719   2.93924   2.94453   2.94879   2.95246
 Alpha virt. eigenvalues --    2.95367   2.95940   2.96256   2.96747   2.96786
 Alpha virt. eigenvalues --    2.96886   2.97194   2.97481   2.97691   2.98010
 Alpha virt. eigenvalues --    2.98425   2.99072   2.99256   2.99873   3.00154
 Alpha virt. eigenvalues --    3.00255   3.00719   3.01255   3.01481   3.01715
 Alpha virt. eigenvalues --    3.02255   3.02545   3.02931   3.03209   3.03571
 Alpha virt. eigenvalues --    3.03835   3.04628   3.04952   3.05176   3.05808
 Alpha virt. eigenvalues --    3.06203   3.06721   3.06936   3.07241   3.07486
 Alpha virt. eigenvalues --    3.07962   3.08382   3.08579   3.08659   3.09042
 Alpha virt. eigenvalues --    3.09647   3.09938   3.10064   3.10309   3.10555
 Alpha virt. eigenvalues --    3.11002   3.11238   3.11581   3.12121   3.12727
 Alpha virt. eigenvalues --    3.12766   3.13075   3.13432   3.13754   3.13977
 Alpha virt. eigenvalues --    3.14398   3.14658   3.14947   3.15282   3.15786
 Alpha virt. eigenvalues --    3.15934   3.16066   3.16186   3.16901   3.17129
 Alpha virt. eigenvalues --    3.17364   3.17513   3.17896   3.18051   3.18402
 Alpha virt. eigenvalues --    3.18705   3.18865   3.19006   3.19320   3.19588
 Alpha virt. eigenvalues --    3.20212   3.20619   3.20863   3.21035   3.21557
 Alpha virt. eigenvalues --    3.21787   3.21924   3.22152   3.22508   3.22815
 Alpha virt. eigenvalues --    3.22981   3.23407   3.23569   3.24013   3.24263
 Alpha virt. eigenvalues --    3.24345   3.24477   3.24954   3.25252   3.25443
 Alpha virt. eigenvalues --    3.25756   3.26048   3.26372   3.26652   3.26699
 Alpha virt. eigenvalues --    3.27021   3.27571   3.27633   3.27834   3.28138
 Alpha virt. eigenvalues --    3.28251   3.28837   3.29134   3.29242   3.29540
 Alpha virt. eigenvalues --    3.29787   3.30092   3.30304   3.30699   3.30802
 Alpha virt. eigenvalues --    3.31031   3.31385   3.31549   3.31970   3.32045
 Alpha virt. eigenvalues --    3.32357   3.32532   3.32966   3.33549   3.33885
 Alpha virt. eigenvalues --    3.34057   3.34180   3.34302   3.34928   3.35214
 Alpha virt. eigenvalues --    3.35515   3.35664   3.35964   3.36077   3.36450
 Alpha virt. eigenvalues --    3.36780   3.36994   3.37245   3.37520   3.37906
 Alpha virt. eigenvalues --    3.38052   3.38139   3.38569   3.38871   3.39199
 Alpha virt. eigenvalues --    3.39368   3.39600   3.39880   3.40155   3.40460
 Alpha virt. eigenvalues --    3.40780   3.41016   3.41238   3.41635   3.41823
 Alpha virt. eigenvalues --    3.42038   3.42168   3.42526   3.43216   3.43675
 Alpha virt. eigenvalues --    3.43964   3.44225   3.44578   3.45067   3.45290
 Alpha virt. eigenvalues --    3.45656   3.45867   3.45964   3.46269   3.47148
 Alpha virt. eigenvalues --    3.47559   3.47754   3.48620   3.48857   3.49206
 Alpha virt. eigenvalues --    3.49652   3.49772   3.50314   3.50754   3.50946
 Alpha virt. eigenvalues --    3.51081   3.51279   3.52042   3.52537   3.53167
 Alpha virt. eigenvalues --    3.53545   3.54209   3.54571   3.54758   3.55280
 Alpha virt. eigenvalues --    3.55460   3.55940   3.56109   3.56239   3.56431
 Alpha virt. eigenvalues --    3.57006   3.57733   3.57943   3.58131   3.58616
 Alpha virt. eigenvalues --    3.58972   3.59689   3.59954   3.60316   3.60672
 Alpha virt. eigenvalues --    3.61092   3.61389   3.61840   3.62329   3.63026
 Alpha virt. eigenvalues --    3.63171   3.63944   3.64206   3.65067   3.65472
 Alpha virt. eigenvalues --    3.65644   3.66097   3.66329   3.66829   3.67005
 Alpha virt. eigenvalues --    3.67509   3.67787   3.68302   3.68574   3.68850
 Alpha virt. eigenvalues --    3.69405   3.69884   3.70254   3.70399   3.70889
 Alpha virt. eigenvalues --    3.71251   3.71833   3.71985   3.72148   3.72703
 Alpha virt. eigenvalues --    3.72816   3.73279   3.73434   3.74500   3.74848
 Alpha virt. eigenvalues --    3.74969   3.75328   3.75474   3.75781   3.76452
 Alpha virt. eigenvalues --    3.76797   3.77354   3.78018   3.78428   3.78924
 Alpha virt. eigenvalues --    3.79408   3.79622   3.80052   3.80631   3.81117
 Alpha virt. eigenvalues --    3.81756   3.81992   3.82221   3.82921   3.83061
 Alpha virt. eigenvalues --    3.83511   3.84370   3.84926   3.85217   3.86285
 Alpha virt. eigenvalues --    3.86822   3.87265   3.88290   3.88799   3.89362
 Alpha virt. eigenvalues --    3.89715   3.90503   3.90645   3.91042   3.91858
 Alpha virt. eigenvalues --    3.92137   3.92242   3.92767   3.93484   3.93913
 Alpha virt. eigenvalues --    3.94881   3.95125   3.95803   3.96746   3.97431
 Alpha virt. eigenvalues --    3.97842   3.98642   3.99449   3.99502   4.00124
 Alpha virt. eigenvalues --    4.00562   4.01177   4.01301   4.01772   4.02455
 Alpha virt. eigenvalues --    4.03024   4.03859   4.04330   4.04339   4.04621
 Alpha virt. eigenvalues --    4.05259   4.05816   4.06316   4.06760   4.07383
 Alpha virt. eigenvalues --    4.07467   4.08494   4.09831   4.11168   4.11585
 Alpha virt. eigenvalues --    4.12579   4.12782   4.13972   4.14522   4.15418
 Alpha virt. eigenvalues --    4.15918   4.16290   4.17213   4.17649   4.18034
 Alpha virt. eigenvalues --    4.18075   4.19368   4.19897   4.20293   4.20318
 Alpha virt. eigenvalues --    4.20610   4.20740   4.21302   4.22237   4.22540
 Alpha virt. eigenvalues --    4.23149   4.24313   4.24434   4.24970   4.25460
 Alpha virt. eigenvalues --    4.25988   4.26331   4.27447   4.28005   4.28582
 Alpha virt. eigenvalues --    4.29130   4.29594   4.29855   4.30557   4.31215
 Alpha virt. eigenvalues --    4.31661   4.31672   4.32520   4.33051   4.33838
 Alpha virt. eigenvalues --    4.34127   4.34678   4.35101   4.35578   4.35878
 Alpha virt. eigenvalues --    4.36145   4.36692   4.37284   4.38393   4.38805
 Alpha virt. eigenvalues --    4.39057   4.39836   4.39942   4.40668   4.41023
 Alpha virt. eigenvalues --    4.41316   4.41444   4.41808   4.42257   4.42990
 Alpha virt. eigenvalues --    4.43645   4.43885   4.44650   4.45516   4.45588
 Alpha virt. eigenvalues --    4.46022   4.46744   4.46990   4.47504   4.47808
 Alpha virt. eigenvalues --    4.48167   4.48461   4.49220   4.49885   4.50592
 Alpha virt. eigenvalues --    4.51350   4.52115   4.52527   4.53830   4.53949
 Alpha virt. eigenvalues --    4.54761   4.55303   4.55959   4.56859   4.57027
 Alpha virt. eigenvalues --    4.57771   4.58163   4.58845   4.59499   4.60262
 Alpha virt. eigenvalues --    4.61036   4.62681   4.64668   4.64856   4.66546
 Alpha virt. eigenvalues --    4.66794   4.67788   4.68633   4.69259   4.69704
 Alpha virt. eigenvalues --    4.70364   4.70441   4.71231   4.72653   4.73249
 Alpha virt. eigenvalues --    4.73807   4.74249   4.75275   4.75734   4.75993
 Alpha virt. eigenvalues --    4.76833   4.76982   4.78818   4.80730   4.82132
 Alpha virt. eigenvalues --    4.82611   4.82881   4.84478   4.84630   4.85600
 Alpha virt. eigenvalues --    4.85731   4.86000   4.86559   4.87043   4.87836
 Alpha virt. eigenvalues --    4.87947   4.88991   4.89528   4.89784   4.90732
 Alpha virt. eigenvalues --    4.93067   4.94004   4.95352   4.95875   4.96436
 Alpha virt. eigenvalues --    4.97116   4.97510   4.97971   4.99133   4.99504
 Alpha virt. eigenvalues --    5.00116   5.00711   5.01958   5.02897   5.03088
 Alpha virt. eigenvalues --    5.05042   5.05320   5.05998   5.06385   5.07537
 Alpha virt. eigenvalues --    5.08913   5.09478   5.09556   5.11676   5.12573
 Alpha virt. eigenvalues --    5.13095   5.13697   5.15385   5.15608   5.18316
 Alpha virt. eigenvalues --    5.20337   5.21106   5.21954   5.22450   5.23543
 Alpha virt. eigenvalues --    5.23677   5.25131   5.27537   5.27713   5.28748
 Alpha virt. eigenvalues --    5.30131   5.31753   5.32109   5.33335   5.35421
 Alpha virt. eigenvalues --    5.38334   5.38898   5.39285   5.39729   5.40290
 Alpha virt. eigenvalues --    5.40699   5.41463   5.42824   5.43254   5.44987
 Alpha virt. eigenvalues --    5.48106   5.48862   5.50395   5.51350   5.51850
 Alpha virt. eigenvalues --    5.53291   5.54114   5.55146   5.58466   5.60941
 Alpha virt. eigenvalues --    5.62002   5.63252   5.63580   5.64231   5.64773
 Alpha virt. eigenvalues --    5.66455   5.67007   5.67436   5.68679   5.70246
 Alpha virt. eigenvalues --    5.73709   5.75763   5.78346   5.79044   5.83270
 Alpha virt. eigenvalues --    5.86474   5.88846   5.94633   5.95767   5.97919
 Alpha virt. eigenvalues --    6.00122   6.01479   6.02695   6.03626   6.04586
 Alpha virt. eigenvalues --    6.10013   6.15004   6.15784   6.16776   6.18127
 Alpha virt. eigenvalues --    6.19109   6.22247   6.28142   6.34940   6.36464
 Alpha virt. eigenvalues --    6.42399   9.28217   9.47795   9.59353  20.01818
 Alpha virt. eigenvalues --   22.36904  22.37172  22.43367  22.44743  22.46195
 Alpha virt. eigenvalues --   22.46924  22.48622  22.52351  22.53052  22.53739
 Alpha virt. eigenvalues --   22.62126  22.62954  22.83309  22.87876  22.88117
 Alpha virt. eigenvalues --   22.93305  22.96308  22.97251  22.97562  22.99872
 Alpha virt. eigenvalues --   23.04685  23.05192  23.11561  23.14574  23.28428
 Alpha virt. eigenvalues --   23.29698  23.32062  23.33047  23.41809  23.43875
 Alpha virt. eigenvalues --   23.50794  23.51465  23.55900  23.74220  23.79426
 Alpha virt. eigenvalues --   23.79920  23.89836  32.42142  32.83009  32.97387
 Alpha virt. eigenvalues --   33.06227  33.09405  33.13372
          Condensed to atoms (all electrons):
 Mulliken charges:
               1
     1  Fe  -0.538415
     2  N    0.000858
     3  N    0.014930
     4  N    0.060423
     5  N    0.040469
     6  C    0.170802
     7  C   -0.023495
     8  C   -0.046038
     9  C    0.206160
    10  C    0.244825
    11  C   -0.049018
    12  C   -0.004413
    13  C    0.134243
    14  C    0.156395
    15  C    0.084434
    16  C    0.000636
    17  C    0.102712
    18  C    0.137996
    19  C    0.103061
    20  C   -0.004583
    21  C    0.220019
    22  C   -0.447786
    23  H    0.132848
    24  C   -0.432690
    25  H    0.136909
    26  C   -0.398403
    27  H    0.117143
    28  C   -0.464780
    29  H    0.109059
    30  C   -0.414199
    31  H    0.133275
    32  H    0.136736
    33  H    0.119159
    34  C   -0.420171
    35  H    0.137980
    36  H    0.131747
    37  H    0.119605
    38  C   -0.451018
    39  H    0.142973
    40  H    0.128647
    41  H    0.155851
    42  C   -0.215856
    43  H    0.107824
    44  C   -0.292318
    45  H    0.138594
    46  H    0.121228
    47  C   -0.443717
    48  H    0.140961
    49  H    0.124660
    50  H    0.154124
    51  C   -0.207185
    52  H    0.113858
    53  C   -0.287484
    54  H    0.139519
    55  H    0.121202
    56  C   -0.418608
    57  H    0.118494
    58  H    0.142449
    59  H    0.132685
    60  C   -0.419687
    61  H    0.121322
    62  H    0.130923
    63  H    0.138838
    64  C   -0.392391
    65  H    0.134703
    66  H    0.146419
    67  H    0.134248
    68  N   -0.229599
    69  H    0.234000
    70  C    0.174974
    71  C   -0.002085
    72  H    0.178796
    73  N    0.123652
    74  C   -0.220457
    75  H    0.160386
    76  C   -0.352888
    77  H    0.114013
    78  H    0.115136
    79  H    0.156700
    80  C   -0.168856
    81  H    0.131738
    82  H    0.116578
    83  S    0.011609
    84  C   -0.361300
    85  H    0.159986
    86  H    0.142884
    87  H    0.145042
 Sum of Mulliken charges =  -0.00000
 Mulliken charges with hydrogens summed into heavy atoms:
               1
     1  Fe  -0.538415
     2  N    0.000858
     3  N    0.014930
     4  N    0.060423
     5  N    0.040469
     6  C    0.170802
     7  C   -0.023495
     8  C   -0.046038
     9  C    0.206160
    10  C    0.244825
    11  C   -0.049018
    12  C   -0.004413
    13  C    0.134243
    14  C    0.156395
    15  C    0.084434
    16  C    0.000636
    17  C    0.102712
    18  C    0.137996
    19  C    0.103061
    20  C   -0.004583
    21  C    0.220019
    22  C   -0.314938
    24  C   -0.295780
    26  C   -0.281260
    28  C   -0.355721
    30  C   -0.025030
    34  C   -0.030840
    38  C   -0.023546
    42  C   -0.108033
    44  C   -0.032496
    47  C   -0.023972
    51  C   -0.093327
    53  C   -0.026763
    56  C   -0.024980
    60  C   -0.028604
    64  C    0.022978
    68  N    0.004400
    70  C    0.174974
    71  C    0.176712
    73  N    0.123652
    74  C   -0.060071
    76  C    0.032960
    80  C    0.079460
    83  S    0.011609
    84  C    0.086613
 Electronic spatial extent (au):  <R**2>=          21578.7802
 Charge=             -0.0000 electrons
 Dipole moment (field-independent basis, Debye):
    X=             -0.6625    Y=              1.4751    Z=              3.9397  Tot=              4.2586
 Quadrupole moment (field-independent basis, Debye-Ang):
   XX=           -271.8936   YY=           -267.1349   ZZ=           -250.5810
   XY=             -1.1228   XZ=             -0.2030   YZ=              7.5837
 Traceless Quadrupole moment (field-independent basis, Debye-Ang):
   XX=             -8.6904   YY=             -3.9318   ZZ=             12.6222
   XY=             -1.1228   XZ=             -0.2030   YZ=              7.5837
 Octapole moment (field-independent basis, Debye-Ang**2):
  XXX=            -17.1718  YYY=             45.5805  ZZZ=            132.1922  XYY=              4.9677
  XXY=             31.3716  XXZ=             -5.4747  XZZ=            -11.0472  YZZ=             24.3595
  YYZ=             12.3766  XYZ=              2.7544
 Hexadecapole moment (field-independent basis, Debye-Ang**3):
 XXXX=         -12247.8116 YYYY=         -11845.7986 ZZZZ=          -4364.6161 XXXY=            -15.7790
 XXXZ=            109.2099 YYYX=            -15.9483 YYYZ=             36.7805 ZZZX=            -69.2947
 ZZZY=            136.5344 XXYY=          -4076.1189 XXZZ=          -3010.4058 YYZZ=          -2908.3783
 XXYZ=             40.3124 YYXZ=            -40.2381 ZZXY=            -13.6917
 N-N= 7.157952128726D+03 E-N=-2.237220206616D+04  KE= 3.413654900027D+03
  Exact polarizability:     733.365      -0.149     721.909      14.600      11.368     381.795
 Approx polarizability:    1374.965      -1.007    1386.025      47.532      32.956     597.667

 ----------------------------------------------------------------------

 Electric dipole moment (input orientation):
 (Debye = 10**-18 statcoulomb cm , SI units = C m)
                  (au)            (Debye)         (10**-30 SI)
   Tot        0.167546D+01      0.425860D+01      0.142052D+02
   x          0.117908D+01      0.299691D+01      0.999662D+01
   y         -0.118656D+01     -0.301594D+01     -0.100601D+02
   z         -0.950188D-01     -0.241514D+00     -0.805603D+00

 Dipole polarizability, Alpha (input orientation).
 (esu units = cm**3 , SI units = C**2 m**2 J**-1)
 Alpha(0;0):
               (au)            (10**-24 esu)      (10**-40 SI)
   iso        0.612356D+03      0.907418D+02      0.100964D+03
   aniso      0.347465D+03      0.514891D+02      0.572893D+02
   xx         0.655232D+03      0.970953D+02      0.108033D+03
   yx         0.127490D+03      0.188920D+02      0.210202D+02
   yy         0.491880D+03      0.728890D+02      0.811000D+02
   zx         0.496370D+02      0.735545D+01      0.818404D+01
   zy        -0.101682D+03     -0.150677D+02     -0.167650D+02
   zz         0.689958D+03      0.102241D+03      0.113759D+03

 First dipole hyperpolarizability, Beta (input orientation).
 ||, _|_  parallel and perpendicular components, (z) with respect to z axis,
 vector components x,y,z.  Values do not include the 1/n! factor of 1/2.
 (esu units = statvolt**-1 cm**4 , SI units = C**3 m**3 J**-2)
 Beta(0;0,0):
               (au)            (10**-30 esu)      (10**-50 SI)
   || (z)    -0.583682D+03     -0.504256D+01     -0.187150D+01
   _|_(z)    -0.194561D+03     -0.168085D+01     -0.623832D+00
   x         -0.422936D+04     -0.365384D+02     -0.135609D+02
   y         -0.233988D+04     -0.202148D+02     -0.750251D+01
   z         -0.291841D+04     -0.252128D+02     -0.935748D+01
   ||         0.112924D+04      0.975577D+01      0.362076D+01
   xxx       -0.809260D+03     -0.699137D+01     -0.259478D+01
   xxy       -0.556915D+03     -0.481131D+01     -0.178567D+01
   yxy       -0.180757D+03     -0.156160D+01     -0.579572D+00
   yyy       -0.408562D+03     -0.352965D+01     -0.131000D+01
   xxz        0.386936D+03      0.334283D+01      0.124066D+01
   yxz        0.372375D+03      0.321703D+01      0.119397D+01
   yyz       -0.960502D+01     -0.829799D-01     -0.307972D-01
   zxz       -0.419769D+03     -0.362648D+01     -0.134593D+01
   zyz        0.185516D+03      0.160271D+01      0.594831D+00
   zzz       -0.135013D+04     -0.116641D+02     -0.432902D+01

 ----------------------------------------------------------------------

 Dipole orientation:
    26         -2.60301858         14.21674379         -0.21125145
     7         -4.33538290         17.38169186          1.02995565
     7          0.71377491         15.94640325          0.38329739
     7         -0.83454381         11.22655765         -1.57384002
     7         -5.98838832         12.69228459         -0.88050622
     6         -6.86785252         17.67415267          1.42601928
     6         -7.39808616         20.17425420          2.41890432
     6         -5.13398339         21.37043463          2.60394202
     6         -3.25061421         19.58741370          1.72001325
     6          1.12938458         18.42407437          0.91268453
     6          3.81480133         18.96685840          0.89016682
     6          4.99974115         16.72698150          0.46540326
     6          3.02484130         14.86910243          0.11550285
     6          1.64373411         10.67540219         -1.31268395
     6          2.17757713          8.18806704         -2.34935081
     6         -0.07912559          7.29204640         -3.26076685
     6         -1.95241135          9.17271805         -2.64270438
     6         -6.38755231         10.44978514         -2.08246969
     6         -9.06879183          9.88412879         -2.15024941
     6        -10.25209390         11.85475002         -0.95483828
     6         -8.29000531         13.58397862         -0.19512747
     6         -8.71335043         15.90232094          0.94974682
     1        -10.64874047         16.40970493          1.36979276
     6         -0.70520997         20.15728357          1.55320878
     1         -0.11097691         22.06146089          2.04219223
     6          3.46186723         12.36136698         -0.49536198
     1          5.40134757         11.73246308         -0.49298931
     6         -4.52441906          8.89939580         -3.05178671
     1         -5.14248394          7.22372486         -4.02648643
     6         -9.96751104         21.09284547          3.11602115
     1        -10.82336444         19.86008153          4.52987654
     1        -11.20250967         21.12494266          1.46840618
     1         -9.87660115         22.99293508          3.89476075
     6         -4.54605951         23.94680995          3.58114941
     1         -3.70507261         25.10169776          2.09971372
     1         -3.20800547         23.84024616          5.14545208
     1         -6.24615725         24.88260770          4.25424199
     6        -12.97855621         12.14621573         -0.32908865
     1        -13.91427722         13.38481320         -1.68553060
     1        -13.19990725         12.96617906          1.54552866
     1        -13.90994737         10.31378492         -0.36500447
     6        -10.14683775          7.61610587         -3.21908926
     1         -8.97204505          5.93876304         -3.12274702
     6        -12.40689694          7.44496444         -4.30012315
     1        -13.62267137          9.05846681         -4.53629525
     1        -13.10442722          5.67827121         -5.03521383
     6         -0.63238034          4.75294627         -4.33855794
     1         -0.78026133          4.84215000         -6.39229503
     1         -2.40969374          4.01811959         -3.60309158
     1          0.86700571          3.43320621         -3.84593956
     6          4.63636523          7.01272849         -2.30212586
     1          5.79125462          7.47345497         -0.67598819
     6          5.53637968          5.45912755         -4.05651138
     1          4.48123903          5.01921713         -5.73674304
     1          7.38250693          4.62113945         -3.89207499
     6          7.75359877         16.16010527          0.32960423
     1          8.86701394         17.84469037          0.71102776
     1          8.26260752         15.45561160         -1.53811344
     1          8.27159216         14.72212159          1.71277210
     6          4.92025896         21.52170444          1.32708658
     1          6.95674265         21.49271496          1.05622976
     1          4.52614545         22.17060520          3.24335962
     1          4.10568536         22.87783166          0.01112133
     6         -3.51799261          8.04491726          8.18556098
     1         -1.80131269          7.49686307          9.17972370
     1         -4.19077778          6.44461388          7.09398379
     1         -4.94694200          8.54917805          9.57785665
     7         -2.15988518         12.49219394          7.29450590
     1         -1.78426068         12.94964218          9.10177125
     6         -3.01750266         10.19612992          6.46263533
     6         -1.90345992         14.01011148          5.25224541
     1         -1.27039606         15.93108617          5.32699142
     7         -2.54535655         12.80366005          3.18845613
     6         -3.24610049         10.43353605          3.90551348
     1         -3.86507868          9.08720200          2.52857262
     6          1.61864468         14.68393789         -6.80777803
     1          2.13306223         16.64121539         -7.16460020
     1          2.45949211         13.49615153         -8.26042682
     1          2.38172509         14.13314817         -4.98275391
     6         -1.23018825         14.38455196         -6.81703872
     1         -1.77685210         12.43129729         -6.47164225
     1         -2.03648599         15.03422202         -8.59930830
    16         -2.62781998         16.33327846         -4.30708574
     6         -5.86775560         16.33061976         -5.44897020
     1         -6.99653338         17.28526498         -4.02919413
     1         -6.52470839         14.40162639         -5.67960715
     1         -5.95439064         17.35148768         -7.22981989

 Electric dipole moment (dipole orientation):
 (Debye = 10**-18 statcoulomb cm , SI units = C m)
                  (au)            (Debye)         (10**-30 SI)
   Tot        0.167546D+01      0.425860D+01      0.142052D+02
   x          0.000000D+00      0.000000D+00      0.000000D+00
   y          0.000000D+00      0.000000D+00      0.000000D+00
   z          0.167546D+01      0.425860D+01      0.142052D+02

 Dipole polarizability, Alpha (dipole orientation).
 (esu units = cm**3 , SI units = C**2 m**2 J**-1)
 Alpha(0;0):
               (au)            (10**-24 esu)      (10**-40 SI)
   iso        0.612356D+03      0.907418D+02      0.100964D+03
   aniso      0.347465D+03      0.514891D+02      0.572893D+02
   xx         0.733248D+03      0.108656D+03      0.120896D+03
   yx        -0.720988D-01     -0.106839D-01     -0.118875D-01
   yy         0.669613D+03      0.992264D+02      0.110404D+03
   zx        -0.652425D+01     -0.966794D+00     -0.107570D+01
   zy         0.124042D+03      0.183812D+02      0.204518D+02
   zz         0.434208D+03      0.643430D+02      0.715912D+02

 First dipole hyperpolarizability, Beta (dipole orientation).
 ||, _|_  parallel and perpendicular components, (z) with respect to z axis,
 vector components x,y,z.  Values do not include the 1/n! factor of 1/2.
 (esu units = statvolt**-1 cm**4 , SI units = C**3 m**3 J**-2)
 Beta(0;0,0):
               (au)            (10**-30 esu)      (10**-50 SI)
   || (z)    -0.230743D+03     -0.199344D+01     -0.739846D+00
   _|_(z)    -0.769144D+02     -0.664481D+00     -0.246615D+00
   x         -0.119139D+04     -0.102927D+02     -0.382002D+01
   y         -0.539715D+04     -0.466271D+02     -0.173052D+02
   z         -0.115372D+04     -0.996721D+01     -0.369923D+01
   ||         0.112924D+04      0.975577D+01      0.362076D+01
   xxx       -0.671331D+03     -0.579977D+01     -0.215253D+01
   xxy       -0.106877D+04     -0.923330D+01     -0.342685D+01
   yxy        0.320915D+03      0.277246D+01      0.102897D+01
   yyy       -0.508596D+03     -0.439387D+01     -0.163074D+01
   xxz       -0.529297D+03     -0.457271D+01     -0.169712D+01
   yxz        0.327605D+02      0.283025D+00      0.105042D+00
   yyz       -0.140430D+03     -0.121320D+01     -0.450269D+00
   zxz       -0.467137D+02     -0.403570D+00     -0.149781D+00
   zyz       -0.221688D+03     -0.191521D+01     -0.710811D+00
   zzz        0.285155D+03      0.246351D+01      0.914309D+00

 ----------------------------------------------------------------------
 Unable to Open any file for archive entry.
 1\1\GINC-BGN1034\SP\RAPFD\def2TZVP\C37H42Fe1N6S1\BEBZHART\02-Sep-2024\
 0\\# polar def2tzvp apfd int=(grid=ultrafine)\\4eid_II_S\\0,1\Fe,0,3.2
 418894163,2.8744958434,6.303610392\N,0,4.1535603176,2.7093050431,8.097
 5961999\N,0,4.7805773052,4.0076505498,5.6988117978\N,0,2.3429541272,3.
 1385803548,4.5653141779\N,0,1.7155159125,1.8010164235,7.0130901257\C,0
 ,3.7462783219,1.925301749,9.1384009944\C,0,4.6817504247,2.0245167109,1
 0.2430077349\C,0,5.654185476,2.8846177449,9.8425908486\C,0,5.299890680
 8,3.3005931324,8.499544205\C,0,5.7749129209,4.5394556224,6.4566918826\
 C,0,6.5932712413,5.4332148313,5.6607384001\C,0,6.1066848157,5.36862428
 82,4.3927930628\C,0,4.9605439873,4.4871876575,4.4424786788\C,0,2.90903
 43707,3.5970225814,3.4280174612\C,0,1.9617345562,3.5183882562,2.328164
 8852\C,0,0.8045786361,3.0069596115,2.8601139248\C,0,1.0897017744,2.717
 6394629,4.2439802313\C,0,0.5405989343,1.5841448591,6.3574038325\C,0,-0
 .3167308704,0.7197256302,7.1459399052\C,0,0.381974314,0.4292386294,8.2
 892406046\C,0,1.6415385266,1.1216302556,8.1838137411\C,0,2.6096601651,
 1.1487276595,9.1759374289\H,0,2.4214769573,0.575934022,10.0742163457\C
 ,0,6.0368971596,4.2159920637,7.7702120698\H,0,6.9007418693,4.670760491
 6,8.2478613317\C,0,4.1417731676,4.2168540429,3.3582567387\H,0,4.454316
 9157,4.6023701119,2.4002363552\C,0,0.2144604127,2.0841121182,5.1116373
 103\H,0,-0.7723666986,1.8613360756,4.7430754125\C,0,4.5523500936,1.272
 521067,11.5231903831\H,0,4.5190796388,0.1978781375,11.3374835576\H,0,3
 .6373343394,1.552649243,12.0445766772\H,0,5.3964447949,1.4769633047,12
 .1780486459\C,0,6.8861968528,3.321233586,10.5598527087\H,0,6.868790523
 4,4.3977478682,10.7239388231\H,0,7.7752705469,3.0826870561,9.974681681
 8\H,0,6.9711687223,2.8255590834,11.5234687384\C,0,0.0111881261,-0.4953
 271968,9.395021992\H,0,-0.3828475217,0.0583416002,10.2483712791\H,0,0.
 8829073749,-1.0565538101,9.7284861975\H,0,-0.7486212042,-1.1963743747,
 9.0562209131\C,0,-1.6198479695,0.2568317113,6.7295077137\H,0,-1.757648
 0163,0.1335164374,5.6605194134\C,0,-2.6383451706,-0.0123340359,7.53945
 50197\H,0,-2.5807674624,0.1361057689,8.6039761918\H,0,-3.581364923,-0.
 3696808533,7.1591832727\C,0,-0.4457540352,2.6269692051,2.146929286\H,0
 ,-1.2227922899,3.3773941484,2.2970642321\H,0,-0.8240497897,1.672327516
 8,2.5113400387\H,0,-0.2544124093,2.5345155515,1.0791867709\C,0,2.26873
 40629,3.8968738861,0.9706255773\H,0,3.2934037581,3.7245253336,0.664408
[...]
  1460. RY*(   7) C  80                  0.00027     1.36711   
  1461. RY*(   8) C  80                  0.00020     1.38933   
  1462. RY*(   9) C  80                  0.00011     2.06974   
  1463. RY*(  10) C  80                  0.00008     1.64638   
  1464. RY*(  11) C  80                  0.00005     2.75649   
  1465. RY*(  12) C  80                  0.00005     2.19471   
  1466. RY*(  13) C  80                  0.00001     2.27694   
  1467. RY*(  14) C  80                  0.00000    21.32204   
  1468. RY*(  15) C  80                  0.00001     3.02542   
  1469. RY*(  16) C  80                  0.00001     1.87973   
  1470. RY*(  17) C  80                  0.00001     2.48936   
  1471. RY*(  18) C  80                  0.00001     2.23180   
  1472. RY*(  19) C  80                  0.00001     3.38571   
  1473. RY*(  20) C  80                  0.00000     3.54320   
  1474. RY*(  21) C  80                  0.00000     3.47144   
  1475. RY*(  22) C  80                  0.00000     3.24091   
  1476. RY*(  23) C  80                  0.00000     3.56153   
  1477. RY*(  24) C  80                  0.00000     3.29776   
  1478. RY*(  25) C  80                  0.00000     3.40402   
  1479. RY*(  26) C  80                  0.00000     3.56350   
  1480. RY*(   1) H  81                  0.00161     0.91381   
  1481. RY*(   2) H  81                  0.00026     2.47096   
  1482. RY*(   3) H  81                  0.00013     2.48559   
  1483. RY*(   4) H  81                  0.00005     3.00325   
  1484. RY*(   5) H  81                  0.00003     2.48403   
  1485. RY*(   1) H  82                  0.00103     1.10591   
  1486. RY*(   2) H  82                  0.00025     1.84711   
  1487. RY*(   3) H  82                  0.00014     2.29111   
  1488. RY*(   4) H  82                  0.00007     2.06231   
  1489. RY*(   5) H  82                  0.00001     3.07257   
  1490. RY*(   1) S  83                  0.00686     0.62144   
  1491. RY*(   2) S  83                  0.00312     1.20714   
  1492. RY*(   3) S  83                  0.00270     1.11547   
  1493. RY*(   4) S  83                  0.00152     1.17024   
  1494. RY*(   5) S  83                  0.00098     1.49998   
  1495. RY*(   6) S  83                  0.00086     1.52123   
  1496. RY*(   7) S  83                  0.00078     1.69506   
  1497. RY*(   8) S  83                  0.00052     2.05629   
  1498. RY*(   9) S  83                  0.00030     1.71127   
  1499. RY*(  10) S  83                  0.00023     1.58055   
  1500. RY*(  11) S  83                  0.00016     2.63224   
  1501. RY*(  12) S  83                  0.00009     1.95906   
  1502. RY*(  13) S  83                  0.00010     2.43709   
  1503. RY*(  14) S  83                  0.00009     2.46478   
  1504. RY*(  15) S  83                  0.00006     2.46955   
  1505. RY*(  16) S  83                  0.00003     2.65364   
  1506. RY*(  17) S  83                  0.00003     2.71956   
  1507. RY*(  18) S  83                  0.00002     3.00134   
  1508. RY*(  19) S  83                  0.00000     7.90354   
  1509. RY*(  20) S  83                  0.00000     8.47335   
  1510. RY*(  21) S  83                  0.00000    16.23141   
  1511. RY*(  22) S  83                  0.00001     2.58639   
  1512. RY*(  23) S  83                  0.00000     8.52099   
  1513. RY*(  24) S  83                  0.00000     2.26668   
  1514. RY*(  25) S  83                  0.00001     2.30660   
  1515. RY*(  26) S  83                  0.00001     2.40376   
  1516. RY*(  27) S  83                  0.00000     2.18240   
  1517. RY*(  28) S  83                  0.00001     2.19675   
  1518. RY*(   1) C  84                  0.00200     1.43442   
  1519. RY*(   2) C  84                  0.00125     1.07830   
  1520. RY*(   3) C  84                  0.00057     0.92387   
  1521. RY*(   4) C  84                  0.00047     1.11921   
  1522. RY*(   5) C  84                  0.00034     1.02793   
  1523. RY*(   6) C  84                  0.00031     1.13091   
  1524. RY*(   7) C  84                  0.00018     1.14607   
  1525. RY*(   8) C  84                  0.00008     1.58217   
  1526. RY*(   9) C  84                  0.00007     1.76958   
  1527. RY*(  10) C  84                  0.00004     1.43830   
  1528. RY*(  11) C  84                  0.00003     1.87531   
  1529. RY*(  12) C  84                  0.00002     1.90111   
  1530. RY*(  13) C  84                  0.00001     3.13828   
  1531. RY*(  14) C  84                  0.00001     2.41433   
  1532. RY*(  15) C  84                  0.00000     3.16702   
  1533. RY*(  16) C  84                  0.00000     2.87242   
  1534. RY*(  17) C  84                  0.00000     3.00555   
  1535. RY*(  18) C  84                  0.00000    21.17810   
  1536. RY*(  19) C  84                  0.00001     3.15246   
  1537. RY*(  20) C  84                  0.00000     3.59038   
  1538. RY*(  21) C  84                  0.00000     3.09880   
  1539. RY*(  22) C  84                  0.00000     3.28879   
  1540. RY*(  23) C  84                  0.00000     3.28634   
  1541. RY*(  24) C  84                  0.00000     3.40068   
  1542. RY*(  25) C  84                  0.00000     3.15487   
  1543. RY*(  26) C  84                  0.00000     3.34800   
  1544. RY*(   1) H  85                  0.00051     1.64954   
  1545. RY*(   2) H  85                  0.00017     1.82982   
  1546. RY*(   3) H  85                  0.00009     2.37217   
  1547. RY*(   4) H  85                  0.00004     1.92459   
  1548. RY*(   5) H  85                  0.00002     2.91403   
  1549. RY*(   1) H  86                  0.00132     0.87726   
  1550. RY*(   2) H  86                  0.00027     2.33343   
  1551. RY*(   3) H  86                  0.00010     2.32638   
  1552. RY*(   4) H  86                  0.00008     2.63195   
  1553. RY*(   5) H  86                  0.00003     2.68445   
  1554. RY*(   1) H  87                  0.00094     1.12812   
  1555. RY*(   2) H  87                  0.00017     1.57469   
  1556. RY*(   3) H  87                  0.00010     2.16008   
  1557. RY*(   4) H  87                  0.00006     2.15837   
  1558. RY*(   5) H  87                  0.00001     2.96883   
  1559. BD*(   1)Fe   1 - N   3          0.06246     0.43835   
  1560. BD*(   1)Fe   1 - N   4          0.09263     0.36582   
  1561. BD*(   1)Fe   1 - N   5          0.05923     0.43016   
  1562. BD*(   1)Fe   1 - N  73          0.06579     0.38947   
  1563. BD*(   1)Fe   1 - S  83          0.05648     0.36999   
  1564. BD*(   1) N   2 - C   6          0.02726     0.50832   
  1565. BD*(   2) N   2 - C   6          0.63433     0.01499  1611(v),1584(v),1579(v)
                                                    309(g),203(g),723(v)
  1566. BD*(   1) N   2 - C   9          0.02590     0.52858   
  1567. BD*(   1) N   3 - C  10          0.02742     0.52112   
  1568. BD*(   2) N   3 - C  10          0.61895     0.01815  1584(v),1593(v),1588(v)
                                                    413(g),229(g),754(v),1574(r)
  1569. BD*(   1) N   3 - C  13          0.02757     0.52322   
  1570. BD*(   1) N   4 - C  14          0.02758     0.53454   
  1571. BD*(   2) N   4 - C  14          0.60421     0.02028  1593(v),1602(v),1597(v)
                                                    517(g),255(g),785(v),1563(v)
                                                    519(g)
  1572. BD*(   1) N   4 - C  17          0.02921     0.51919   
  1573. BD*(   1) N   5 - C  18          0.02830     0.51725   
  1574. BD*(   2) N   5 - C  18          0.62327     0.01636  1602(v),1611(v),1606(v)
                                                    621(g),281(g),1568(r),816(v)
                                                    1563(v)
  1575. BD*(   1) N   5 - C  21          0.02755     0.52855   
  1576. BD*(   1) C   6 - C   7          0.03559     0.49314   
  1577. BD*(   1) C   6 - C  22          0.02057     0.58912   
  1578. BD*(   1) C   7 - C   8          0.02240     0.61509   
  1579. BD*(   2) C   7 - C   8          0.24573     0.07540  1584(v),1565(v),1617(v)
                                                    1619(v),1616(v),1620(v)
  1580. BD*(   1) C   7 - C  30          0.01739     0.41898   
  1581. BD*(   1) C   8 - C   9          0.03612     0.49440   
  1582. BD*(   1) C   8 - C  34          0.01736     0.41822   
  1583. BD*(   1) C   9 - C  24          0.02158     0.58259   
  1584. BD*(   2) C   9 - C  24          0.42729     0.05284  1568(v),1579(v),1565(v)
                                                    1593(r),1611(r),754(g)
                                                    387(g),389(g)
  1585. BD*(   1) C  10 - C  11          0.03584     0.49503   
  1586. BD*(   1) C  10 - C  24          0.02101     0.58979   
  1587. BD*(   1) C  11 - C  12          0.02243     0.61465   
  1588. BD*(   2) C  11 - C  12          0.24516     0.07624  1593(v),1568(v),1642(v)
                                                    1639(v),1640(v),1643(v)
  1589. BD*(   1) C  11 - C  60          0.01726     0.41908   
  1590. BD*(   1) C  12 - C  13          0.03566     0.49864   
  1591. BD*(   1) C  12 - C  56          0.01740     0.42131   
  1592. BD*(   1) C  13 - C  26          0.02148     0.57798   
  1593. BD*(   2) C  13 - C  26          0.41586     0.05371  1571(v),1588(v),1568(v)
                                                    1584(r),785(g),1602(r)
                                                    493(g),1635(r),491(g)
  1594. BD*(   1) C  14 - C  15          0.03507     0.49110   
  1595. BD*(   1) C  14 - C  26          0.02115     0.58100   
  1596. BD*(   1) C  15 - C  16          0.02495     0.59344   
  1597. BD*(   2) C  15 - C  16          0.29047     0.06968  1635(v),1602(v),1571(v)
                                                    1630(v),1606(r),1631(v)
  1598. BD*(   1) C  15 - C  51          0.02646     0.50698   
  1599. BD*(   1) C  16 - C  17          0.03488     0.50262   
  1600. BD*(   1) C  16 - C  47          0.01659     0.42154   
  1601. BD*(   1) C  17 - C  28          0.02188     0.57588   
  1602. BD*(   2) C  17 - C  28          0.43700     0.04960  1574(v),1597(v),1571(v)
                                                    1611(r),816(g),1593(r)
                                                    595(g),597(g)
  1603. BD*(   1) C  18 - C  19          0.03482     0.49438   
  1604. BD*(   1) C  18 - C  28          0.02109     0.58207   
  1605. BD*(   1) C  19 - C  20          0.02494     0.59578   
  1606. BD*(   2) C  19 - C  20          0.29292     0.06976  1627(v),1611(v),1574(v)
                                                    1622(v),1597(r),1623(v)
  1607. BD*(   1) C  19 - C  42          0.02690     0.50457   
  1608. BD*(   1) C  20 - C  21          0.03456     0.50437   
  1609. BD*(   1) C  20 - C  38          0.01650     0.42201   
  1610. BD*(   1) C  21 - C  22          0.02187     0.57620   
  1611. BD*(   2) C  21 - C  22          0.44152     0.05161  1606(v),1565(v),1574(v)
                                                    1584(r),723(g),1602(r)
                                                    701(g)
  1612. BD*(   1) C  22 - H  23          0.01294     0.43640   
  1613. BD*(   1) C  24 - H  25          0.01303     0.42976   
  1614. BD*(   1) C  26 - H  27          0.01292     0.44338   
  1615. BD*(   1) C  28 - H  29          0.01356     0.44499   
  1616. BD*(   1) C  30 - H  31          0.01106     0.38179   
  1617. BD*(   1) C  30 - H  32          0.01117     0.38384   
  1618. BD*(   1) C  30 - H  33          0.00682     0.39329   
  1619. BD*(   1) C  34 - H  35          0.01130     0.38445   
  1620. BD*(   1) C  34 - H  36          0.01074     0.38153   
  1621. BD*(   1) C  34 - H  37          0.00680     0.39420   
  1622. BD*(   1) C  38 - H  39          0.01269     0.38171   
  1623. BD*(   1) C  38 - H  40          0.01008     0.38937   
  1624. BD*(   1) C  38 - H  41          0.00835     0.39695   
  1625. BD*(   1) C  42 - H  43          0.02155     0.42530   
  1626. BD*(   1) C  42 - C  44          0.00786     0.63690   
  1627. BD*(   2) C  42 - C  44          0.08144     0.06187   
  1628. BD*(   1) C  44 - H  45          0.01112     0.43877   
  1629. BD*(   1) C  44 - H  46          0.00865     0.43864   
  1630. BD*(   1) C  47 - H  48          0.01256     0.38269   
  1631. BD*(   1) C  47 - H  49          0.01041     0.38862   
  1632. BD*(   1) C  47 - H  50          0.00852     0.39652   
  1633. BD*(   1) C  51 - H  52          0.02137     0.42823   
  1634. BD*(   1) C  51 - C  53          0.00800     0.63734   
  1635. BD*(   2) C  51 - C  53          0.08046     0.06280   
  1636. BD*(   1) C  53 - H  54          0.01090     0.44011   
  1637. BD*(   1) C  53 - H  55          0.00867     0.44073   
  1638. BD*(   1) C  56 - H  57          0.00671     0.39479   
  1639. BD*(   1) C  56 - H  58          0.01130     0.38624   
  1640. BD*(   1) C  56 - H  59          0.01074     0.38338   
  1641. BD*(   1) C  60 - H  61          0.00664     0.39448   
  1642. BD*(   1) C  60 - H  62          0.01169     0.38182   
  1643. BD*(   1) C  60 - H  63          0.01022     0.38677   
  1644. BD*(   1) C  64 - H  65          0.01196     0.36017   
  1645. BD*(   1) C  64 - H  66          0.00346     0.37308   
  1646. BD*(   1) C  64 - H  67          0.01186     0.36026   
  1647. BD*(   1) C  64 - C  70          0.01382     0.39229   
  1648. BD*(   1) N  68 - H  69          0.01427     0.36765   
  1649. BD*(   1) N  68 - C  70          0.02726     0.43117   
  1650. BD*(   1) N  68 - C  71          0.02241     0.44617   
  1651. BD*(   1) C  70 - C  74          0.02110     0.56812   
  1652. BD*(   1) C  71 - H  72          0.01733     0.39172   
  1653. BD*(   1) C  71 - N  73          0.01937     0.53801   
  1654. BD*(   1) N  73 - C  74          0.01854     0.48417   
  1655. BD*(   2) N  73 - C  74          0.64151    -0.01141  94(v),174(v),1383(g),1356(g)
                                                    1360(g)
  1656. BD*(   1) C  74 - H  75          0.01411     0.43131   
  1657. BD*(   1) C  76 - H  77          0.00865     0.39398   
  1658. BD*(   1) C  76 - H  78          0.00783     0.39248   
  1659. BD*(   1) C  76 - H  79          0.01012     0.42033   
  1660. BD*(   1) C  76 - C  80          0.00631     0.36789   
  1661. BD*(   1) C  80 - H  81          0.02269     0.39429   
  1662. BD*(   1) C  80 - H  82          0.01871     0.36910   
  1663. BD*(   1) C  80 - S  83          0.03400     0.16438   
  1664. BD*(   1) S  83 - C  84          0.01576     0.17566   
  1665. BD*(   1) C  84 - H  85          0.00695     0.39757   
  1666. BD*(   1) C  84 - H  86          0.01553     0.39444   
  1667. BD*(   1) C  84 - H  87          0.01249     0.38159   
       -------------------------------
              Total Lewis  338.63469  ( 97.3088%)
        Valence non-Lewis    8.68327  (  2.4952%)
        Rydberg non-Lewis    0.68204  (  0.1960%)
       -------------------------------
            Total unit  1  348.00000  (100.0000%)
           Charge unit  1    0.00000
 Unable to Open any file for archive entry.
 1\1\GINC-BGN1034\SP\RAPFD\def2TZVP\C37H42Fe1N6S1\BEBZHART\02-Sep-2024\
 0\\# apfd/def2TZVP int=(grid=ultrafine) geom=check guess=read pop=nbo 
 scf=qc\\4eid_II_S_nbo\\0,1\Fe,0,3.2418894163,2.8744958434,6.303610392\
 N,0,4.1535603176,2.7093050431,8.0975961999\N,0,4.7805773052,4.00765054
 98,5.6988117978\N,0,2.3429541272,3.1385803548,4.5653141779\N,0,1.71551
 59125,1.8010164235,7.0130901257\C,0,3.7462783219,1.925301749,9.1384009
 944\C,0,4.6817504247,2.0245167109,10.2430077349\C,0,5.654185476,2.8846
 177449,9.8425908486\C,0,5.2998906808,3.3005931324,8.499544205\C,0,5.77
 49129209,4.5394556224,6.4566918826\C,0,6.5932712413,5.4332148313,5.660
 7384001\C,0,6.1066848157,5.3686242882,4.3927930628\C,0,4.9605439873,4.
 4871876575,4.4424786788\C,0,2.9090343707,3.5970225814,3.4280174612\C,0
 ,1.9617345562,3.5183882562,2.3281648852\C,0,0.8045786361,3.0069596115,
 2.8601139248\C,0,1.0897017744,2.7176394629,4.2439802313\C,0,0.54059893
 43,1.5841448591,6.3574038325\C,0,-0.3167308704,0.7197256302,7.14593990
 52\C,0,0.381974314,0.4292386294,8.2892406046\C,0,1.6415385266,1.121630
 2556,8.1838137411\C,0,2.6096601651,1.1487276595,9.1759374289\H,0,2.421
 4769573,0.575934022,10.0742163457\C,0,6.0368971596,4.2159920637,7.7702
 120698\H,0,6.9007418693,4.6707604916,8.2478613317\C,0,4.1417731676,4.2
 168540429,3.3582567387\H,0,4.4543169157,4.6023701119,2.4002363552\C,0,
 0.2144604127,2.0841121182,5.1116373103\H,0,-0.7723666986,1.8613360756,
 4.7430754125\C,0,4.5523500936,1.272521067,11.5231903831\H,0,4.51907963
 88,0.1978781375,11.3374835576\H,0,3.6373343394,1.552649243,12.04457667
 72\H,0,5.3964447949,1.4769633047,12.1780486459\C,0,6.8861968528,3.3212
 33586,10.5598527087\H,0,6.8687905234,4.3977478682,10.7239388231\H,0,7.
 7752705469,3.0826870561,9.9746816818\H,0,6.9711687223,2.8255590834,11.
 5234687384\C,0,0.0111881261,-0.4953271968,9.395021992\H,0,-0.382847521
 7,0.0583416002,10.2483712791\H,0,0.8829073749,-1.0565538101,9.72848619
 75\H,0,-0.7486212042,-1.1963743747,9.0562209131\C,0,-1.6198479695,0.25
 68317113,6.7295077137\H,0,-1.7576480163,0.1335164374,5.6605194134\C,0,
 -2.6383451706,-0.0123340359,7.5394550197\H,0,-2.5807674624,0.136105768
 9,8.6039761918\H,0,-3.581364923,-0.3696808533,7.1591832727\C,0,-0.4457
 540352,2.6269692051,2.146929286\H,0,-1.2227922899,3.3773941484,2.29706
 42321\H,0,-0.8240497897,1.6723275168,2.5113400387\H,0,-0.2544124093,2.
 5345155515,1.0791867709\C,0,2.2687340629,3.8968738861,0.9706255773\H,0
 ,3.2934037581,3.7245253336,0.6644085013\C,0,1.4072565482,4.4209831775,
 0.1058797228\H,0,0.3933344247,4.6466512448,0.3843750289\H,0,1.69823046
 01,4.6678494311,-0.9005968072\C,0,6.5898121125,6.0489836925,3.15889225
 82\H,0,7.4827042875,6.6348009714,3.3641318688\H,0,5.8252499011,6.71666
 5251,2.7613715104\H,0,6.8330572556,5.3190966504,2.3855793776\C,0,7.748
 1447818,6.2116716981,6.1934175879\H,0,8.1510495015,6.8753719555,5.4322
 989035\H,0,8.5441250738,5.5441400774,6.5258601949\H,0,7.4324933178,6.8
 131681745,7.0444828644\C,0,4.4132959019,-2.0575972132,4.0793783344\H,0
 ,5.061783661,-2.0860242078,3.2048636439\H,0,3.3902615988,-2.2331939506
 ,3.7629467296\H,0,4.7135990629,-2.8539332323,4.7587112695\N,0,5.666239
 71,-0.241856695,5.2670377458\H,0,6.561573855,-0.7007709908,5.244353267
 \C,0,4.4989349761,-0.7388776934,4.7508980015\C,0,5.3945506773,0.971361
 0484,5.8016945086\H,0,6.1185906527,1.5963896356,6.2836098292\N,0,4.127
 3465759,1.2663514005,5.6505379826\C,0,3.555584323,0.2143563421,5.00173
 94687\H,0,2.5108124841,0.2236841905,4.769012524\C,0,1.9771041492,6.642
 7353585,5.1045234618\H,0,2.5207565901,7.4053239683,5.6571790778\H,0,1.
 315398565,7.1278762233,4.3898497901\H,0,2.6945482852,6.0356389651,4.55
 91677317\C,0,1.1738877198,5.7755135865,6.0535031666\H,0,0.6189998988,5
 .0091881305,5.5147065208\H,0,0.4891482797,6.3790079684,6.6507265692\S,
 0,2.3021321445,4.9270349295,7.2289642415\C,0,1.0617851346,4.4484639849
 ,8.4687831514\H,0,1.5736932519,3.8373651287,9.204295442\H,0,0.27144515
 41,3.8731913685,7.9974373151\H,0,0.662246502,5.3446233724,8.9370740211
 \\Version=ES64L-G16RevC.02\State=1-A\HF=-3424.8516573\RMSD=6.533e-10\D
 ipole=1.1790754,-1.1865627,-0.0950188\Quadrupole=4.0131144,0.960423,-4
 .9735374,-8.5355404,-1.4511587,2.4176869\PG=C01 [X(C37H42Fe1N6S1)]\\@
 The archive entry for this job was punched.


 THE FIRST MORNING OF CREATION WROTE WHAT THE LAST DAWN OF
 RECKONING SHALL READ. -- OMAR KHAYYAM
 Job cpu time:       0 days  1 hours  5 minutes 17.0 seconds.
 Elapsed time:       0 days  0 hours  1 minutes 19.1 seconds.
 File lengths (MBytes):  RWF=    938 Int=      0 D2E=      0 Chk=    161 Scr=      1
 Normal termination of Gaussian 16 at Mon Sep  2 15:27:21 2024.
