 Entering Gaussian System, Link 0=g16
 Input=4g7q05re.com
 Output=4g7q05re.log
 Initial command:
 /sw/chem/gaussian/g16_C02/a100/g16/l1.exe "/local/bebjones_8087997/Gau-1220621.inp" -scrdir="/local/bebjones_8087997/"
 Entering Link 1 = /sw/chem/gaussian/g16_C02/a100/g16/l1.exe PID=   1220622.
  
 Copyright (c) 1988-2021, Gaussian, Inc.  All Rights Reserved.
  
 This is part of the Gaussian(R) 16 program.  It is based on
 the Gaussian(R) 09 system (copyright 2009, Gaussian, Inc.),
 the Gaussian(R) 03 system (copyright 2003, Gaussian, Inc.),
 the Gaussian(R) 98 system (copyright 1998, Gaussian, Inc.),
 the Gaussian(R) 94 system (copyright 1995, Gaussian, Inc.),
 the Gaussian 92(TM) system (copyright 1992, Gaussian, Inc.),
 the Gaussian 90(TM) system (copyright 1990, Gaussian, Inc.),
 the Gaussian 88(TM) system (copyright 1988, Gaussian, Inc.),
 the Gaussian 86(TM) system (copyright 1986, Carnegie Mellon
 University), and the Gaussian 82(TM) system (copyright 1983,
 Carnegie Mellon University). Gaussian is a federally registered
 trademark of Gaussian, Inc.
  
 This software contains proprietary and confidential information,
 including trade secrets, belonging to Gaussian, Inc.
  
 This software is provided under written license and may be
 used, copied, transmitted, or stored only in accord with that
 written license.
  
 The following legend is applicable only to US Government
 contracts under FAR:
  
                    RESTRICTED RIGHTS LEGEND
  
 Use, reproduction and disclosure by the US Government is
 subject to restrictions as set forth in subparagraphs (a)
 and (c) of the Commercial Computer Software - Restricted
 Rights clause in FAR 52.227-19.
  
 Gaussian, Inc.
 340 Quinnipiac St., Bldg. 40, Wallingford CT 06492
  
  
 ---------------------------------------------------------------
 Warning -- This program may not be used in any manner that
 competes with the business of Gaussian, Inc. or will provide
 assistance to any competitor of Gaussian, Inc.  The licensee
 of this program is prohibited from giving any competitor of
 Gaussian, Inc. access to this program.  By using this program,
 the user acknowledges that Gaussian, Inc. is engaged in the
 business of creating and licensing software in the field of
 computational chemistry and represents and warrants to the
 licensee that it is not a competitor of Gaussian, Inc. and that
 it will not use this program in any manner prohibited above.
 ---------------------------------------------------------------
  

 Cite this work as:
 Gaussian 16, Revision C.02,
 M. J. Frisch, G. W. Trucks, H. B. Schlegel, G. E. Scuseria, 
 M. A. Robb, J. R. Cheeseman, G. Scalmani, V. Barone, 
 G. A. Petersson, H. Nakatsuji, X. Li, M. Caricato, A. V. Marenich, 
 J. Bloino, B. G. Janesko, R. Gomperts, B. Mennucci, H. P. Hratchian, 
 J. V. Ortiz, A. F. Izmaylov, J. L. Sonnenberg, D. Williams-Young, 
 F. Ding, F. Lipparini, F. Egidi, J. Goings, B. Peng, A. Petrone, 
 T. Henderson, D. Ranasinghe, V. G. Zakrzewski, J. Gao, N. Rega, 
 G. Zheng, W. Liang, M. Hada, M. Ehara, K. Toyota, R. Fukuda, 
 J. Hasegawa, M. Ishida, T. Nakajima, Y. Honda, O. Kitao, H. Nakai, 
 T. Vreven, K. Throssell, J. A. Montgomery, Jr., J. E. Peralta, 
 F. Ogliaro, M. J. Bearpark, J. J. Heyd, E. N. Brothers, K. N. Kudin, 
 V. N. Staroverov, T. A. Keith, R. Kobayashi, J. Normand, 
 K. Raghavachari, A. P. Rendell, J. C. Burant, S. S. Iyengar, 
 J. Tomasi, M. Cossi, J. M. Millam, M. Klene, C. Adamo, R. Cammi, 
 J. W. Ochterski, R. L. Martin, K. Morokuma, O. Farkas, 
 J. B. Foresman, and D. J. Fox, Gaussian, Inc., Wallingford CT, 2019.
 
 ******************************************
 Gaussian 16:  ES64L-G16RevC.02  7-Dec-2021
                18-Nov-2024 
 ******************************************
 %mem=16GB
 %CPU=0-71
 SetSPE:  set environment variable "OMP_PROC_BIND" = "true"
 SetSPE:  set environment variable "OMP_PLACES" = "{0},{1},{2},{3},{4},{5},{6},{7},{8},{9},{10},{11},{12},{13},{14},{15},{16},{17},{18},{19},{20},{21},{22},{23},{24},{25},{26},{27},{28},{29},{30},{31},{32},{33},{34},{35},{36},{37},{38},{39},{40},{41},{42},{43},{44},{45},{46},{47},{48},{49},{50},{51},{52},{53},{54},{55},{56},{57},{58},{59},{60},{61},{62},{63},{64},{65},{66},{67},{68},{69},{70},{71}"
 Will use up to   72 processors via shared memory.
 %gpucpu=0,1,2,3=0,1,2,3
 Will use    4 GPUs:
 Thread  CPU   GPU
      0    0     0
      1    1     1
      2    2     2
      3    3     3
      4    4    -1
      5    5    -1
      6    6    -1
      7    7    -1
      8    8    -1
      9    9    -1
     10   10    -1
     11   11    -1
     12   12    -1
     13   13    -1
     14   14    -1
     15   15    -1
     16   16    -1
     17   17    -1
     18   18    -1
     19   19    -1
     20   20    -1
     21   21    -1
     22   22    -1
     23   23    -1
     24   24    -1
     25   25    -1
     26   26    -1
     27   27    -1
     28   28    -1
     29   29    -1
     30   30    -1
     31   31    -1
     32   32    -1
     33   33    -1
     34   34    -1
     35   35    -1
     36   36    -1
     37   37    -1
     38   38    -1
     39   39    -1
     40   40    -1
     41   41    -1
     42   42    -1
     43   43    -1
     44   44    -1
     45   45    -1
     46   46    -1
     47   47    -1
     48   48    -1
     49   49    -1
     50   50    -1
     51   51    -1
     52   52    -1
     53   53    -1
     54   54    -1
     55   55    -1
     56   56    -1
     57   57    -1
     58   58    -1
     59   59    -1
     60   60    -1
     61   61    -1
     62   62    -1
     63   63    -1
     64   64    -1
     65   65    -1
     66   66    -1
     67   67    -1
     68   68    -1
     69   69    -1
     70   70    -1
     71   71    -1
 SetGPE:  set environment variable "OMP_PROC_BIND" = "true"
 SetGPE:  set environment variable "OMP_PLACES" = "{0},{1},{2},{3},{4},{5},{6},{7},{8},{9},{10},{11},{12},{13},{14},{15},{16},{17},{18},{19},{20},{21},{22},{23},{24},{25},{26},{27},{28},{29},{30},{31},{32},{33},{34},{35},{36},{37},{38},{39},{40},{41},{42},{43},{44},{45},{46},{47},{48},{49},{50},{51},{52},{53},{54},{55},{56},{57},{58},{59},{60},{61},{62},{63},{64},{65},{66},{67},{68},{69},{70},{71}"
 %oldchk=4g7q_II_S.chk
 %chk=4g7q_II_Sre.chk
 Properties for Device   0
 Minimum vector length:                              32
 Maximum vector length:                            1024
 Number of SMPs:                                    108
 Maximum number of threads per SMP:                2048
 Number of ASync Engines:                             5
 Memory:                                           9207742464
 Properties for Device   1
 Minimum vector length:                              32
 Maximum vector length:                            1024
 Number of SMPs:                                    108
 Maximum number of threads per SMP:                2048
 Number of ASync Engines:                             5
 Memory:                                           9207742464
 Properties for Device   2
 Minimum vector length:                              32
 Maximum vector length:                            1024
 Number of SMPs:                                    108
 Maximum number of threads per SMP:                2048
 Number of ASync Engines:                             5
 Memory:                                           9207742464
 Properties for Device   3
 Minimum vector length:                              32
 Maximum vector length:                            1024
 Number of SMPs:                                    108
 Maximum number of threads per SMP:                2048
 Number of ASync Engines:                             5
 Memory:                                           9207742464
   8286968217 words of memory will be used on each GPU.
 Copying data from "4g7q_II_S.chk" to current chk file "4g7q_II_Sre.chk"
 IOpt=  2 FromEx=T IUOpen= 4 IOptOp= 5 NList=   0 IFRang= 0 IUIn= 4 IUOut= 2.
 --------------------------------------
 # apfd/gen scf=maxcycle=999 geom=check
 --------------------------------------
 1/29=2,38=1,172=1/1;
 2/12=2,40=1/2;
 3/5=7,11=2,14=-4,25=1,30=1,74=-44/1,2,3;
 4//1;
 5/5=2,7=999,38=5/2;
 6/7=2,8=2,9=2,10=2,28=1/1;
 99/5=1,9=1/99;
 ---------
 4g7q_II_Q
 ---------
 Structure from the checkpoint file:  "4g7q_II_Sre.chk"
 Charge =  0 Multiplicity = 5
 Z-Matrix found in chk file.
 Fe,0,2.5752374223,-4.4566299732,35.2105464652
 N,0,0.8216257221,-5.3483700565,35.5486764706
 N,0,3.4424089825,-5.9870893391,36.2434580836
 N,0,4.4097647543,-3.8381332996,34.7077799057
 N,0,1.7499506872,-3.0137114494,34.2156458233
 C,0,-0.3811740659,-4.7784208032,35.2576401149
 C,0,-1.4560510688,-5.7028515211,35.5507607462
 C,0,-0.8739735765,-6.7977979029,36.1113471881
 C,0,0.5403337478,-6.5026867875,36.2019829095
 C,0,2.8515074442,-7.1105355485,36.7365102307
 C,0,3.7872604324,-7.8944466377,37.4998388457
 C,0,5.0009463895,-7.2718595661,37.3756864027
 C,0,4.7683973761,-6.1218309988,36.5207003879
 C,0,5.6124185031,-4.2449906808,35.1882434428
 C,0,6.6882741504,-3.5189558474,34.5653635455
 C,0,6.0976500908,-2.5996200457,33.7381481999
 C,0,4.6654745759,-2.7456040217,33.9349091987
 C,0,2.3501346933,-2.1264999217,33.3836484522
 C,0,1.4104302284,-1.1006574037,32.9859612352
 C,0,0.1994285256,-1.4768238842,33.4829107391
 C,0,0.427409838,-2.7013021427,34.2170015336
 C,0,-0.5736428237,-3.5086622281,34.7319826239
 H,0,-1.59288045,-3.1642281921,34.631031992
 C,0,1.48482331,-7.3479152721,36.7468958438
 H,0,1.1344118518,-8.2518577509,37.2218096695
 C,0,5.7835194287,-5.2971255564,36.0721131228
 H,0,6.7889453875,-5.5143914899,36.4002091589
 C,0,3.723763654,-2.0398490652,33.2043377704
 H,0,4.0840081069,-1.2592896978,32.5504819941
 C,0,-1.5040387006,-8.0527067113,36.6112356249
 H,0,-2.5688594971,-8.0674207801,36.3906696936
 H,0,-1.3768863331,-8.1415012481,37.6907096853
 H,0,-1.0435735429,-8.9242101065,36.1453327917
 C,0,-2.8941448203,-5.4472904525,35.250442084
 H,0,-3.0318529031,-5.2092972094,34.1953356469
 H,0,-3.2640271749,-4.6048661119,35.8361985063
 H,0,-3.5001603252,-6.3183465591,35.4879941908
 C,0,3.4706619838,-9.1783863421,38.1848371064
 H,0,2.7687753119,-9.7657702512,37.5944511231
 H,0,3.0199712925,-8.997035035,39.1621571715
 H,0,4.3787636917,-9.7608701139,38.3286120379
 C,0,6.2817766935,-7.6556702895,37.9240043622
 H,0,7.1460363955,-7.4247830802,37.3116816331
 C,0,6.4721155379,-8.2462492336,39.0999858018
 H,0,5.6594032785,-8.4578459062,39.7726481317
 H,0,7.4576053376,-8.5166329323,39.4417938255
 C,0,8.1371788887,-3.8188600581,34.7385835745
 H,0,8.2988855181,-4.8886418129,34.8624189935
 H,0,8.5386632389,-3.3131412401,35.6189722377
 H,0,8.6946940741,-3.4816959726,33.8668993184
 C,0,6.7196482013,-1.6310149372,32.8626051909
 H,0,6.166222947,-1.3937409398,31.9611247785
 C,0,7.8844881696,-1.0265619907,33.0749483689
 H,0,8.4577170347,-1.1824160805,33.9719688573
 H,0,8.294082096,-0.3276956658,32.3641254383
 C,0,1.7586789651,0.0756434219,32.139119577
 H,0,2.1678699625,-0.2476411987,31.1814994206
 H,0,2.5089895069,0.6926367517,32.6342156039
 H,0,0.8818335834,0.6894840225,31.9472515087
 C,0,-1.1244761846,-0.8012763,33.3618813658
 H,0,-1.0211377904,0.1710215878,32.8864752802
 H,0,-1.5747825231,-0.6582423087,34.3439690876
 H,0,-1.8088921312,-1.4031706444,32.7620770228
 C,0,1.0762492592,-1.2359164648,39.5429889809
 H,0,1.5105466085,-0.2383229054,39.6111451751
 H,0,1.0884292475,-1.6813531308,40.5378255022
 H,0,0.0454100551,-1.1448265946,39.2151198967
 N,0,3.1645044246,-2.3575609723,38.7355679107
 H,0,3.749243931,-2.0397395244,39.4908511947
 C,0,1.8323870058,-2.075525199,38.5793182181
 C,0,3.5427448179,-3.1347473024,37.6958309398
 H,0,4.5353859182,-3.5116518726,37.5598302746
 N,0,2.5334393702,-3.3619735236,36.8915852776
 C,0,1.4624184203,-2.7105170992,37.4287420044
 H,0,0.5038762643,-2.7425837151,36.954167633
 C,0,4.0673607341,-7.8802679183,31.0242246122
 H,0,5.0261476377,-8.123214906,31.4714463013
 H,0,4.2420003118,-7.4364506451,30.0439757616
 H,0,3.5028035811,-8.8023532614,30.8852198238
 N,0,2.0848648164,-6.4611250679,31.5976403946
 H,0,1.5550879849,-6.6893884791,30.772492507
 C,0,3.3324799407,-6.9385011453,31.9062928423
 C,0,1.7055498472,-5.6339236222,32.5971444908
 H,0,0.7686909973,-5.1166422412,32.6248567832
 N,0,2.6339911875,-5.5587232776,33.5170389593
 C,0,3.6518199363,-6.3641347273,33.1029197025
 H,0,4.539934602,-6.4762235916,33.6889276759
 Recover connectivity data from disk.
 Stoichiometry    C38H40FeN8(5)
 Framework group  C1[X(C38H40FeN8)]
 Deg. of freedom   255
 Full point group                 C1      NOp   1
 Largest Abelian subgroup         C1      NOp   1
 Largest concise Abelian subgroup C1      NOp   1
                         Standard orientation:                         
 ---------------------------------------------------------------------
 Center     Atomic      Atomic             Coordinates (Angstroms)
 Number     Number       Type             X           Y           Z
 ---------------------------------------------------------------------
      1         26           0       -0.200943    0.000974    0.023336
      2          7           0       -1.553418   -1.442940   -0.242389
      3          7           0        1.210278   -1.469753    0.104674
      4          7           0        1.284469    1.340406    0.006703
      5          7           0       -1.541709    1.396076   -0.071403
      6          6           0       -2.898444   -1.226132   -0.229324
      7          6           0       -3.605423   -2.454826   -0.523168
      8          6           0       -2.657139   -3.426413   -0.616730
      9          6           0       -1.391859   -2.786635   -0.324631
     10          6           0        1.047327   -2.804838   -0.108378
     11          6           0        2.268304   -3.522537    0.150356
     12          6           0        3.218235   -2.576139    0.429685
     13          6           0        2.543301   -1.295562    0.319088
     14          6           0        2.608532    1.153921    0.240868
     15          6           0        3.327803    2.397717    0.150363
     16          6           0        2.385043    3.366499   -0.075394
     17          6           0        1.099869    2.689288   -0.045999
     18          6           0       -1.348888    2.723775   -0.270455
     19          6           0       -2.592594    3.441172   -0.091326
     20          6           0       -3.559274    2.496426    0.075914
     21          6           0       -2.883996    1.218450    0.044481
     22          6           0       -3.523985   -0.009503    0.003401
     23          1           0       -4.602949   -0.011253    0.062600
     24          6           0       -0.175481   -3.436286   -0.282439
     25          1           0       -0.177272   -4.511150   -0.382981
     26          6           0        3.200891   -0.083955    0.425971
     27          1           0        4.261718   -0.104330    0.625884
     28          6           0       -0.099398    3.326182   -0.319436
     29          1           0       -0.077558    4.399783   -0.435543
     30          6           0       -2.817937   -4.881623   -0.896327
     31          1           0       -3.852347   -5.119829   -1.132892
     32          1           0       -2.519990   -5.473324   -0.030051
     33          1           0       -2.194088   -5.180803   -1.738893
     34          6           0       -5.082937   -2.557359   -0.696535
     35          1           0       -5.430862   -1.863696   -1.462455
     36          1           0       -5.595749   -2.314562    0.234956
     37          1           0       -5.369559   -3.564540   -0.989550
     38          6           0        2.438627   -4.996610    0.023642
     39          1           0        1.862319   -5.378891   -0.817756
     40          1           0        2.096765   -5.506670    0.925936
     41          1           0        3.487711   -5.241134   -0.132043
     42          6           0        4.619115   -2.754664    0.736534
     43          1           0        5.283713   -1.975951    0.380013
     44          6           0        5.136442   -3.773353    1.416673
     45          1           0        4.523495   -4.551702    1.836455
     46          1           0        6.195787   -3.849287    1.598752
     47          6           0        4.810581    2.534832    0.193294
     48          1           0        5.292320    1.675832   -0.271424
     49          1           0        5.167147    2.605135    1.222830
     50          1           0        5.117503    3.434350   -0.336803
     51          6           0        2.568701    4.788267   -0.266445
     52          1           0        1.849176    5.268045   -0.920160
     53          6           0        3.524997    5.529397    0.284489
     54          1           0        4.238942    5.122707    0.979049
     55          1           0        3.609300    6.583861    0.078458
     56          6           0       -2.724398    4.924529   -0.157515
     57          1           0       -2.377738    5.298732   -1.121250
     58          1           0       -2.124280    5.395393    0.621530
     59          1           0       -3.759790    5.228932   -0.024195
     60          6           0       -5.025731    2.669401    0.284051
     61          1           0       -5.277714    3.719374    0.410990
     62          1           0       -5.355408    2.126666    1.169762
     63          1           0       -5.582608    2.286148   -0.572379
     64          6           0       -1.947533   -0.188099    5.343457
     65          1           0       -1.817251    0.704908    5.955028
     66          1           0       -1.666509   -1.054741    5.941971
     67          1           0       -2.995661   -0.275814    5.074832
     68          7           0        0.241523    0.014659    4.144396
     69          1           0        0.808596    0.060228    4.974899
     70          6           0       -1.123149   -0.107982    4.110850
     71          6           0        0.679430    0.062603    2.866086
     72          1           0        1.709357    0.153546    2.588833
     73          7           0       -0.322673   -0.021932    2.025976
     74          6           0       -1.450262   -0.129732    2.785543
     75          1           0       -2.414762   -0.215291    2.330052
     76          6           0        1.618745   -0.048802   -5.283196
     77          1           0        2.659658   -0.166494   -4.998675
     78          1           0        1.517038    0.868866   -5.862765
     79          1           0        1.333260   -0.886939   -5.919052
     80          7           0       -0.589699    0.139595   -4.116858
     81          1           0       -1.140643    0.218891   -4.955792
     82          6           0        0.773276    0.001221   -4.063483
     83          6           0       -1.048833    0.151831   -2.845561
     84          1           0       -2.082046    0.246233   -2.581720
     85          7           0       -0.062756    0.029927   -1.993120
     86          6           0        1.076595   -0.065212   -2.734056
     87          1           0        2.032063   -0.174322   -2.265130
 ---------------------------------------------------------------------
 Rotational constants (GHZ):           0.0763292           0.0750137           0.0591617
 General basis read from cards:  (5D, 7F)
 There are   806 symmetry adapted cartesian basis functions of A   symmetry.
 There are   757 symmetry adapted basis functions of A   symmetry.
   757 basis functions,  1534 primitive gaussians,   806 cartesian basis functions
   177 alpha electrons      173 beta electrons
       nuclear repulsion energy      7162.7869865251 Hartrees.
 NAtoms=   87 NActive=   87 NUniq=   87 SFac= 1.00D+00 NAtFMM=   60 NAOKFM=T Big=T
 Integral buffers will be    131072 words long.
 Raffenetti 2 integral format.
 Two-electron integral symmetry is turned on.
 R6APFD:  NTU= -4 IXU= 1 FactS= 1.050
 Nuclear repulsion after empirical dispersion term =     7162.6168347338 Hartrees.
 One-electron integrals computed using PRISM.
 NBasis=   757 RedAO= T EigKep=  2.85D-04  NBF=   757
 NBsUse=   757 1.00D-06 EigRej= -1.00D+00 NBFU=   757
 ExpMin= 4.20D-02 ExpMax= 3.01D+05 ExpMxC= 2.91D+03 IAcc=3 IRadAn=         5 AccDes= 0.00D+00
 Harris functional with IExCor= 3731 and IRadAn=       5 diagonalized for initial guess.
 HarFok:  IExCor= 3731 AccDes= 0.00D+00 IRadAn=         5 IDoV= 1 UseB2=F ITyADJ=14
 ICtDFT=  3500011 ScaDFX=  1.000000  1.000000  1.000000  1.000000
 FoFCou: FMM=F IPFlag=           0 FMFlag=      100000 FMFlg1=        2001
         NFxFlg=           0 DoJE=T BraDBF=F KetDBF=T FulRan=T
         wScrn=  0.000000 ICntrl=       500 IOpCl=  0 I1Cent=   200000004 NGrid=           0
         NMat0=    1 NMatS0=      1 NMatT0=    0 NMatD0=    1 NMtDS0=    0 NMtDT0=    0
 Petite list used in FoFCou.
 Initial guess <Sx>= 0.0000 <Sy>= 0.0000 <Sz>= 2.0000 <S**2>= 6.0000 S= 2.0000
 Requested convergence on RMS density matrix=1.00D-08 within 999 cycles.
 Requested convergence on MAX density matrix=1.00D-06.
 Requested convergence on             energy=1.00D-06.
 No special actions if energy rises.
 EnCoef did   100 forward-backward iterations
 EnCoef did   100 forward-backward iterations
 EnCoef did   100 forward-backward iterations
 EnCoef did   100 forward-backward iterations
 EnCoef did     2 forward-backward iterations
 EnCoef did   100 forward-backward iterations
 EnCoef did     5 forward-backward iterations
 EnCoef did     2 forward-backward iterations
 EnCoef did     3 forward-backward iterations
 Restarting incremental Fock formation.
 Restarting incremental Fock formation.
 SCF Done:  E(UAPFD) =  -3172.34467333     A.U. after   57 cycles
            NFock= 57  Conv=0.32D-08     -V/T= 2.0034
 <Sx>= 0.0000 <Sy>= 0.0000 <Sz>= 2.0000 <S**2>= 6.2752 S= 2.0544
 <L.S>=  0.00000000000    
 Annihilation of the first spin contaminant:
 S**2 before annihilation     6.2752,   after     6.0028

 **********************************************************************

            Population analysis using the SCF Density.

 **********************************************************************

 Orbital symmetries:
 Alpha Orbitals:
       Occupied  (A) (A) (A) (A) (A) (A) (A) (A) (A) (A) (A) (A)
                 (A) (A) (A) (A) (A) (A) (A) (A) (A) (A) (A) (A)
                 (A) (A) (A) (A) (A) (A) (A) (A) (A) (A) (A) (A)
                 (A) (A) (A) (A) (A) (A) (A) (A) (A) (A) (A) (A)
                 (A) (A) (A) (A) (A) (A) (A) (A) (A) (A) (A) (A)
                 (A) (A) (A) (A) (A) (A) (A) (A) (A) (A) (A) (A)
                 (A) (A) (A) (A) (A) (A) (A) (A) (A) (A) (A) (A)
                 (A) (A) (A) (A) (A) (A) (A) (A) (A) (A) (A) (A)
                 (A) (A) (A) (A) (A) (A) (A) (A) (A) (A) (A) (A)
                 (A) (A) (A) (A) (A) (A) (A) (A) (A) (A) (A) (A)
                 (A) (A) (A) (A) (A) (A) (A) (A) (A) (A) (A) (A)
                 (A) (A) (A) (A) (A) (A) (A) (A) (A) (A) (A) (A)
                 (A) (A) (A) (A) (A) (A) (A) (A) (A) (A) (A) (A)
                 (A) (A) (A) (A) (A) (A) (A) (A) (A) (A) (A) (A)
                 (A) (A) (A) (A) (A) (A) (A) (A) (A)
       Virtual   (A) (A) (A) (A) (A) (A) (A) (A) (A) (A) (A) (A)
                 (A) (A) (A) (A) (A) (A) (A) (A) (A) (A) (A) (A)
                 (A) (A) (A) (A) (A) (A) (A) (A) (A) (A) (A) (A)
                 (A) (A) (A) (A) (A) (A) (A) (A) (A) (A) (A) (A)
                 (A) (A) (A) (A) (A) (A) (A) (A) (A) (A) (A) (A)
                 (A) (A) (A) (A) (A) (A) (A) (A) (A) (A) (A) (A)
                 (A) (A) (A) (A) (A) (A) (A) (A) (A) (A) (A) (A)
                 (A) (A) (A) (A) (A) (A) (A) (A) (A) (A) (A) (A)
                 (A) (A) (A) (A) (A) (A) (A) (A) (A) (A) (A) (A)
                 (A) (A) (A) (A) (A) (A) (A) (A) (A) (A) (A) (A)
                 (A) (A) (A) (A) (A) (A) (A) (A) (A) (A) (A) (A)
                 (A) (A) (A) (A) (A) (A) (A) (A) (A) (A) (A) (A)
                 (A) (A) (A) (A) (A) (A) (A) (A) (A) (A) (A) (A)
                 (A) (A) (A) (A) (A) (A) (A) (A) (A) (A) (A) (A)
                 (A) (A) (A) (A) (A) (A) (A) (A) (A) (A) (A) (A)
                 (A) (A) (A) (A) (A) (A) (A) (A) (A) (A) (A) (A)
                 (A) (A) (A) (A) (A) (A) (A) (A) (A) (A) (A) (A)
                 (A) (A) (A) (A) (A) (A) (A) (A) (A) (A) (A) (A)
                 (A) (A) (A) (A) (A) (A) (A) (A) (A) (A) (A) (A)
                 (A) (A) (A) (A) (A) (A) (A) (A) (A) (A) (A) (A)
                 (A) (A) (A) (A) (A) (A) (A) (A) (A) (A) (A) (A)
                 (A) (A) (A) (A) (A) (A) (A) (A) (A) (A) (A) (A)
                 (A) (A) (A) (A) (A) (A) (A) (A) (A) (A) (A) (A)
                 (A) (A) (A) (A) (A) (A) (A) (A) (A) (A) (A) (A)
                 (A) (A) (A) (A) (A) (A) (A) (A) (A) (A) (A) (A)
                 (A) (A) (A) (A) (A) (A) (A) (A) (A) (A) (A) (A)
                 (A) (A) (A) (A) (A) (A) (A) (A) (A) (A) (A) (A)
                 (A) (A) (A) (A) (A) (A) (A) (A) (A) (A) (A) (A)
                 (A) (A) (A) (A) (A) (A) (A) (A) (A) (A) (A) (A)
                 (A) (A) (A) (A) (A) (A) (A) (A) (A) (A) (A) (A)
                 (A) (A) (A) (A) (A) (A) (A) (A) (A) (A) (A) (A)
                 (A) (A) (A) (A) (A) (A) (A) (A) (A) (A) (A) (A)
                 (A) (A) (A) (A) (A) (A) (A) (A) (A) (A) (A) (A)
                 (A) (A) (A) (A) (A) (A) (A) (A) (A) (A) (A) (A)
                 (A) (A) (A) (A) (A) (A) (A) (A) (A) (A) (A) (A)
                 (A) (A) (A) (A) (A) (A) (A) (A) (A) (A) (A) (A)
                 (A) (A) (A) (A) (A) (A) (A) (A) (A) (A) (A) (A)
                 (A) (A) (A) (A) (A) (A) (A) (A) (A) (A) (A) (A)
                 (A) (A) (A) (A) (A) (A) (A) (A) (A) (A) (A) (A)
                 (A) (A) (A) (A) (A) (A) (A) (A) (A) (A) (A) (A)
                 (A) (A) (A) (A) (A) (A) (A) (A) (A) (A) (A) (A)
                 (A) (A) (A) (A) (A) (A) (A) (A) (A) (A) (A) (A)
                 (A) (A) (A) (A) (A) (A) (A) (A) (A) (A) (A) (A)
                 (A) (A) (A) (A) (A) (A) (A) (A) (A) (A) (A) (A)
                 (A) (A) (A) (A) (A) (A) (A) (A) (A) (A) (A) (A)
                 (A) (A) (A) (A) (A) (A) (A) (A) (A) (A) (A) (A)
                 (A) (A) (A) (A) (A) (A) (A) (A) (A) (A) (A) (A)
                 (A) (A) (A) (A) (A) (A) (A) (A) (A) (A) (A) (A)
                 (A) (A) (A) (A)
 Beta  Orbitals:
       Occupied  (A) (A) (A) (A) (A) (A) (A) (A) (A) (A) (A) (A)
                 (A) (A) (A) (A) (A) (A) (A) (A) (A) (A) (A) (A)
                 (A) (A) (A) (A) (A) (A) (A) (A) (A) (A) (A) (A)
                 (A) (A) (A) (A) (A) (A) (A) (A) (A) (A) (A) (A)
                 (A) (A) (A) (A) (A) (A) (A) (A) (A) (A) (A) (A)
                 (A) (A) (A) (A) (A) (A) (A) (A) (A) (A) (A) (A)
                 (A) (A) (A) (A) (A) (A) (A) (A) (A) (A) (A) (A)
                 (A) (A) (A) (A) (A) (A) (A) (A) (A) (A) (A) (A)
                 (A) (A) (A) (A) (A) (A) (A) (A) (A) (A) (A) (A)
                 (A) (A) (A) (A) (A) (A) (A) (A) (A) (A) (A) (A)
                 (A) (A) (A) (A) (A) (A) (A) (A) (A) (A) (A) (A)
                 (A) (A) (A) (A) (A) (A) (A) (A) (A) (A) (A) (A)
                 (A) (A) (A) (A) (A) (A) (A) (A) (A) (A) (A) (A)
                 (A) (A) (A) (A) (A) (A) (A) (A) (A) (A) (A) (A)
                 (A) (A) (A) (A) (A)
       Virtual   (A) (A) (A) (A) (A) (A) (A) (A) (A) (A) (A) (A)
                 (A) (A) (A) (A) (A) (A) (A) (A) (A) (A) (A) (A)
                 (A) (A) (A) (A) (A) (A) (A) (A) (A) (A) (A) (A)
                 (A) (A) (A) (A) (A) (A) (A) (A) (A) (A) (A) (A)
                 (A) (A) (A) (A) (A) (A) (A) (A) (A) (A) (A) (A)
                 (A) (A) (A) (A) (A) (A) (A) (A) (A) (A) (A) (A)
                 (A) (A) (A) (A) (A) (A) (A) (A) (A) (A) (A) (A)
                 (A) (A) (A) (A) (A) (A) (A) (A) (A) (A) (A) (A)
                 (A) (A) (A) (A) (A) (A) (A) (A) (A) (A) (A) (A)
                 (A) (A) (A) (A) (A) (A) (A) (A) (A) (A) (A) (A)
                 (A) (A) (A) (A) (A) (A) (A) (A) (A) (A) (A) (A)
                 (A) (A) (A) (A) (A) (A) (A) (A) (A) (A) (A) (A)
                 (A) (A) (A) (A) (A) (A) (A) (A) (A) (A) (A) (A)
                 (A) (A) (A) (A) (A) (A) (A) (A) (A) (A) (A) (A)
                 (A) (A) (A) (A) (A) (A) (A) (A) (A) (A) (A) (A)
                 (A) (A) (A) (A) (A) (A) (A) (A) (A) (A) (A) (A)
                 (A) (A) (A) (A) (A) (A) (A) (A) (A) (A) (A) (A)
                 (A) (A) (A) (A) (A) (A) (A) (A) (A) (A) (A) (A)
                 (A) (A) (A) (A) (A) (A) (A) (A) (A) (A) (A) (A)
                 (A) (A) (A) (A) (A) (A) (A) (A) (A) (A) (A) (A)
                 (A) (A) (A) (A) (A) (A) (A) (A) (A) (A) (A) (A)
                 (A) (A) (A) (A) (A) (A) (A) (A) (A) (A) (A) (A)
                 (A) (A) (A) (A) (A) (A) (A) (A) (A) (A) (A) (A)
                 (A) (A) (A) (A) (A) (A) (A) (A) (A) (A) (A) (A)
                 (A) (A) (A) (A) (A) (A) (A) (A) (A) (A) (A) (A)
                 (A) (A) (A) (A) (A) (A) (A) (A) (A) (A) (A) (A)
                 (A) (A) (A) (A) (A) (A) (A) (A) (A) (A) (A) (A)
                 (A) (A) (A) (A) (A) (A) (A) (A) (A) (A) (A) (A)
                 (A) (A) (A) (A) (A) (A) (A) (A) (A) (A) (A) (A)
                 (A) (A) (A) (A) (A) (A) (A) (A) (A) (A) (A) (A)
                 (A) (A) (A) (A) (A) (A) (A) (A) (A) (A) (A) (A)
                 (A) (A) (A) (A) (A) (A) (A) (A) (A) (A) (A) (A)
                 (A) (A) (A) (A) (A) (A) (A) (A) (A) (A) (A) (A)
                 (A) (A) (A) (A) (A) (A) (A) (A) (A) (A) (A) (A)
                 (A) (A) (A) (A) (A) (A) (A) (A) (A) (A) (A) (A)
                 (A) (A) (A) (A) (A) (A) (A) (A) (A) (A) (A) (A)
                 (A) (A) (A) (A) (A) (A) (A) (A) (A) (A) (A) (A)
                 (A) (A) (A) (A) (A) (A) (A) (A) (A) (A) (A) (A)
                 (A) (A) (A) (A) (A) (A) (A) (A) (A) (A) (A) (A)
                 (A) (A) (A) (A) (A) (A) (A) (A) (A) (A) (A) (A)
                 (A) (A) (A) (A) (A) (A) (A) (A) (A) (A) (A) (A)
                 (A) (A) (A) (A) (A) (A) (A) (A) (A) (A) (A) (A)
                 (A) (A) (A) (A) (A) (A) (A) (A) (A) (A) (A) (A)
                 (A) (A) (A) (A) (A) (A) (A) (A) (A) (A) (A) (A)
                 (A) (A) (A) (A) (A) (A) (A) (A) (A) (A) (A) (A)
                 (A) (A) (A) (A) (A) (A) (A) (A) (A) (A) (A) (A)
                 (A) (A) (A) (A) (A) (A) (A) (A) (A) (A) (A) (A)
                 (A) (A) (A) (A) (A) (A) (A) (A) (A) (A) (A) (A)
                 (A) (A) (A) (A) (A) (A) (A) (A)
 The electronic state is 5-A.
 Alpha  occ. eigenvalues -- -256.17003 -30.06857 -25.91152 -25.89407 -25.89226
 Alpha  occ. eigenvalues --  -14.42007 -14.41753 -14.35278 -14.34703 -14.32216
 Alpha  occ. eigenvalues --  -14.32179 -14.32119 -14.32108 -10.25147 -10.24909
 Alpha  occ. eigenvalues --  -10.23377 -10.23043 -10.20795 -10.20761 -10.20742
 Alpha  occ. eigenvalues --  -10.20706 -10.20555 -10.20514 -10.20278 -10.19980
 Alpha  occ. eigenvalues --  -10.19962 -10.19732 -10.19685 -10.19681 -10.19325
 Alpha  occ. eigenvalues --  -10.19142 -10.18437 -10.18418 -10.18395 -10.18375
 Alpha  occ. eigenvalues --  -10.18321 -10.18298 -10.18281 -10.18146 -10.18080
 Alpha  occ. eigenvalues --  -10.18079 -10.17974 -10.17945 -10.17930 -10.17870
 Alpha  occ. eigenvalues --  -10.17827 -10.17823 -10.17718 -10.17613 -10.17578
 Alpha  occ. eigenvalues --  -10.17516  -3.52879  -2.32230  -2.28539  -2.28184
 Alpha  occ. eigenvalues --   -1.04256  -1.03963  -0.95720  -0.94711  -0.94646
 Alpha  occ. eigenvalues --   -0.93665  -0.89794  -0.89426  -0.80883  -0.80586
 Alpha  occ. eigenvalues --   -0.80228  -0.79637  -0.79307  -0.79282  -0.78990
 Alpha  occ. eigenvalues --   -0.78233  -0.78088  -0.75545  -0.74506  -0.73166
 Alpha  occ. eigenvalues --   -0.72489  -0.72252  -0.70865  -0.70566  -0.69796
 Alpha  occ. eigenvalues --   -0.68938  -0.67307  -0.66984  -0.66590  -0.63649
 Alpha  occ. eigenvalues --   -0.63276  -0.62800  -0.62648  -0.60184  -0.59886
 Alpha  occ. eigenvalues --   -0.59461  -0.58837  -0.56277  -0.55430  -0.54867
 Alpha  occ. eigenvalues --   -0.54634  -0.53292  -0.52367  -0.52094  -0.51527
 Alpha  occ. eigenvalues --   -0.49842  -0.49743  -0.49234  -0.47798  -0.46865
 Alpha  occ. eigenvalues --   -0.46754  -0.46502  -0.46390  -0.46254  -0.45942
 Alpha  occ. eigenvalues --   -0.44106  -0.43600  -0.43429  -0.43316  -0.43029
 Alpha  occ. eigenvalues --   -0.42794  -0.42536  -0.42437  -0.42148  -0.41950
 Alpha  occ. eigenvalues --   -0.41909  -0.41772  -0.41644  -0.41387  -0.41255
 Alpha  occ. eigenvalues --   -0.41210  -0.41154  -0.40939  -0.40660  -0.40550
 Alpha  occ. eigenvalues --   -0.40507  -0.40296  -0.39576  -0.39301  -0.39178
 Alpha  occ. eigenvalues --   -0.38599  -0.38330  -0.38287  -0.38145  -0.37837
 Alpha  occ. eigenvalues --   -0.37635  -0.37340  -0.37073  -0.36743  -0.36574
 Alpha  occ. eigenvalues --   -0.35831  -0.35616  -0.35386  -0.34974  -0.34526
 Alpha  occ. eigenvalues --   -0.33304  -0.33264  -0.32746  -0.32467  -0.32421
 Alpha  occ. eigenvalues --   -0.31956  -0.30740  -0.30059  -0.29798  -0.29283
 Alpha  occ. eigenvalues --   -0.27987  -0.27833  -0.27718  -0.27349  -0.27132
 Alpha  occ. eigenvalues --   -0.24766  -0.24627  -0.22521  -0.22288  -0.21235
 Alpha  occ. eigenvalues --   -0.20642  -0.20006  -0.19708  -0.16476  -0.15991
 Alpha  occ. eigenvalues --   -0.15800  -0.14654
 Alpha virt. eigenvalues --   -0.05050  -0.04690  -0.00131   0.02655   0.03587
 Alpha virt. eigenvalues --    0.03770   0.04512   0.07538   0.07655   0.08153
 Alpha virt. eigenvalues --    0.08500   0.08708   0.09989   0.10585   0.10731
 Alpha virt. eigenvalues --    0.11645   0.12015   0.12186   0.12895   0.12987
 Alpha virt. eigenvalues --    0.13240   0.13651   0.14103   0.14414   0.15033
 Alpha virt. eigenvalues --    0.15453   0.15739   0.15950   0.16023   0.16277
 Alpha virt. eigenvalues --    0.16597   0.16976   0.17140   0.17349   0.17768
 Alpha virt. eigenvalues --    0.18093   0.18215   0.18443   0.18733   0.18786
 Alpha virt. eigenvalues --    0.18813   0.18996   0.19216   0.19497   0.19714
 Alpha virt. eigenvalues --    0.20071   0.20429   0.20598   0.20684   0.21206
 Alpha virt. eigenvalues --    0.21913   0.22191   0.22301   0.22503   0.22754
 Alpha virt. eigenvalues --    0.23234   0.23579   0.23797   0.24021   0.24427
 Alpha virt. eigenvalues --    0.24969   0.25218   0.25568   0.26185   0.26601
 Alpha virt. eigenvalues --    0.27159   0.27664   0.27811   0.28107   0.28434
 Alpha virt. eigenvalues --    0.28667   0.28901   0.28922   0.31005   0.31465
 Alpha virt. eigenvalues --    0.32257   0.32625   0.33351   0.33546   0.34460
 Alpha virt. eigenvalues --    0.34872   0.35578   0.36068   0.37125   0.37382
 Alpha virt. eigenvalues --    0.37501   0.38098   0.38511   0.39231   0.40325
 Alpha virt. eigenvalues --    0.40506   0.41775   0.42938   0.43633   0.43882
 Alpha virt. eigenvalues --    0.44637   0.45169   0.45287   0.45549   0.47574
 Alpha virt. eigenvalues --    0.48002   0.48328   0.49181   0.49716   0.49900
 Alpha virt. eigenvalues --    0.50254   0.50350   0.50961   0.51499   0.52393
 Alpha virt. eigenvalues --    0.52640   0.53017   0.53085   0.53493   0.53601
 Alpha virt. eigenvalues --    0.53960   0.54072   0.54332   0.54521   0.54706
 Alpha virt. eigenvalues --    0.55049   0.55689   0.56292   0.56442   0.56588
 Alpha virt. eigenvalues --    0.56605   0.56913   0.57297   0.57624   0.58835
 Alpha virt. eigenvalues --    0.58871   0.59326   0.59452   0.59822   0.60226
 Alpha virt. eigenvalues --    0.60646   0.61280   0.61516   0.61805   0.62007
 Alpha virt. eigenvalues --    0.62226   0.62559   0.63328   0.63511   0.63826
 Alpha virt. eigenvalues --    0.64428   0.65077   0.65206   0.65774   0.66127
 Alpha virt. eigenvalues --    0.66425   0.66549   0.67359   0.67403   0.67554
 Alpha virt. eigenvalues --    0.67710   0.67898   0.68177   0.68222   0.68669
 Alpha virt. eigenvalues --    0.68903   0.69542   0.70009   0.70387   0.70591
 Alpha virt. eigenvalues --    0.71249   0.71608   0.71832   0.72175   0.72704
 Alpha virt. eigenvalues --    0.73273   0.73292   0.74328   0.74491   0.75161
 Alpha virt. eigenvalues --    0.75724   0.75798   0.76299   0.76485   0.76816
 Alpha virt. eigenvalues --    0.77098   0.77749   0.78503   0.78880   0.78963
 Alpha virt. eigenvalues --    0.79432   0.79506   0.80215   0.80431   0.80606
 Alpha virt. eigenvalues --    0.81246   0.81828   0.81910   0.82197   0.82887
 Alpha virt. eigenvalues --    0.83019   0.83615   0.84254   0.84957   0.85241
 Alpha virt. eigenvalues --    0.85760   0.86214   0.86979   0.87352   0.87621
 Alpha virt. eigenvalues --    0.87888   0.88033   0.88323   0.88555   0.88696
 Alpha virt. eigenvalues --    0.88948   0.89140   0.89409   0.89910   0.90359
 Alpha virt. eigenvalues --    0.90385   0.90611   0.90667   0.91238   0.91493
 Alpha virt. eigenvalues --    0.91614   0.91862   0.92536   0.92870   0.93191
 Alpha virt. eigenvalues --    0.93332   0.93536   0.94115   0.94818   0.95216
 Alpha virt. eigenvalues --    0.95637   0.95719   0.96188   0.96397   0.96908
 Alpha virt. eigenvalues --    0.97463   0.97708   0.98136   0.98532   0.98717
 Alpha virt. eigenvalues --    0.99271   0.99643   0.99972   1.00271   1.00378
 Alpha virt. eigenvalues --    1.00859   1.01117   1.01197   1.01281   1.01580
 Alpha virt. eigenvalues --    1.02213   1.02580   1.02960   1.03466   1.03693
 Alpha virt. eigenvalues --    1.04421   1.05094   1.06093   1.06714   1.06863
 Alpha virt. eigenvalues --    1.07371   1.07539   1.08132   1.09102   1.09911
 Alpha virt. eigenvalues --    1.10491   1.10720   1.11671   1.11980   1.13074
 Alpha virt. eigenvalues --    1.13670   1.14846   1.15084   1.15991   1.17248
 Alpha virt. eigenvalues --    1.17740   1.17900   1.18156   1.18587   1.19003
 Alpha virt. eigenvalues --    1.19207   1.19894   1.20763   1.20856   1.21473
 Alpha virt. eigenvalues --    1.22207   1.22634   1.23259   1.23725   1.24237
 Alpha virt. eigenvalues --    1.24819   1.25270   1.26128   1.26233   1.26893
 Alpha virt. eigenvalues --    1.27530   1.28322   1.28734   1.30731   1.31175
 Alpha virt. eigenvalues --    1.31536   1.31819   1.32443   1.32524   1.33208
 Alpha virt. eigenvalues --    1.33831   1.34275   1.34800   1.35600   1.36105
 Alpha virt. eigenvalues --    1.36664   1.37436   1.37694   1.38668   1.39004
 Alpha virt. eigenvalues --    1.39119   1.39560   1.40676   1.41237   1.41471
 Alpha virt. eigenvalues --    1.42080   1.42847   1.43323   1.43478   1.44042
 Alpha virt. eigenvalues --    1.45134   1.46434   1.47050   1.47691   1.47989
 Alpha virt. eigenvalues --    1.48605   1.49309   1.49612   1.50143   1.50967
 Alpha virt. eigenvalues --    1.51928   1.52709   1.53457   1.54106   1.54914
 Alpha virt. eigenvalues --    1.55096   1.55680   1.56480   1.56624   1.56914
 Alpha virt. eigenvalues --    1.57606   1.57792   1.58489   1.59406   1.60386
 Alpha virt. eigenvalues --    1.61433   1.61876   1.62875   1.64012   1.65335
 Alpha virt. eigenvalues --    1.65523   1.66876   1.67204   1.67908   1.68368
 Alpha virt. eigenvalues --    1.69433   1.70194   1.70892   1.71644   1.71985
 Alpha virt. eigenvalues --    1.73497   1.74415   1.75384   1.77268   1.78895
 Alpha virt. eigenvalues --    1.79464   1.80606   1.81042   1.81774   1.82306
 Alpha virt. eigenvalues --    1.82631   1.83269   1.83408   1.84297   1.84852
 Alpha virt. eigenvalues --    1.85250   1.85467   1.85799   1.86513   1.87419
 Alpha virt. eigenvalues --    1.88110   1.88420   1.88561   1.89015   1.89602
 Alpha virt. eigenvalues --    1.89996   1.90203   1.90640   1.90890   1.91454
 Alpha virt. eigenvalues --    1.92078   1.92380   1.92598   1.93230   1.93724
 Alpha virt. eigenvalues --    1.95278   1.95589   1.96423   1.96773   1.97694
 Alpha virt. eigenvalues --    1.98350   1.98816   1.99248   1.99985   2.00435
 Alpha virt. eigenvalues --    2.01240   2.01455   2.02064   2.02828   2.03561
 Alpha virt. eigenvalues --    2.04245   2.04593   2.05918   2.07070   2.07368
 Alpha virt. eigenvalues --    2.08119   2.08249   2.09167   2.09662   2.10308
 Alpha virt. eigenvalues --    2.10528   2.10963   2.11972   2.12452   2.13127
 Alpha virt. eigenvalues --    2.13669   2.13847   2.14326   2.14392   2.15346
 Alpha virt. eigenvalues --    2.15629   2.16070   2.16282   2.16545   2.17267
 Alpha virt. eigenvalues --    2.17707   2.18311   2.20382   2.21480   2.22137
 Alpha virt. eigenvalues --    2.22995   2.23890   2.24493   2.24692   2.25086
 Alpha virt. eigenvalues --    2.25538   2.25889   2.26139   2.27610   2.27715
 Alpha virt. eigenvalues --    2.27988   2.28447   2.28604   2.28856   2.29203
 Alpha virt. eigenvalues --    2.29671   2.30745   2.31039   2.31555   2.31688
 Alpha virt. eigenvalues --    2.32234   2.32760   2.33389   2.33526   2.33974
 Alpha virt. eigenvalues --    2.34699   2.35295   2.35569   2.36295   2.36744
 Alpha virt. eigenvalues --    2.37235   2.37868   2.38481   2.38731   2.39186
 Alpha virt. eigenvalues --    2.39834   2.40417   2.40520   2.41349   2.42023
 Alpha virt. eigenvalues --    2.42675   2.42951   2.43038   2.43283   2.43724
 Alpha virt. eigenvalues --    2.44686   2.44992   2.45272   2.45998   2.46450
 Alpha virt. eigenvalues --    2.46657   2.47108   2.48882   2.49953   2.50146
 Alpha virt. eigenvalues --    2.50215   2.53196   2.53772   2.53972   2.54410
 Alpha virt. eigenvalues --    2.55452   2.55750   2.56884   2.57338   2.57534
 Alpha virt. eigenvalues --    2.57986   2.58926   2.59228   2.60362   2.62000
 Alpha virt. eigenvalues --    2.62286   2.63221   2.63536   2.65510   2.65784
 Alpha virt. eigenvalues --    2.66833   2.68028   2.68462   2.70513   2.70764
 Alpha virt. eigenvalues --    2.72479   2.73391   2.74267   2.75649   2.77286
 Alpha virt. eigenvalues --    2.77966   2.78102   2.78307   2.79667   2.81310
 Alpha virt. eigenvalues --    2.81538   2.82178   2.83005   2.84094   2.88797
 Alpha virt. eigenvalues --    2.89484   2.89857   2.91158   2.92589   2.93442
 Alpha virt. eigenvalues --    2.94474   2.96675   2.97615   2.97749   2.98538
 Alpha virt. eigenvalues --    3.00091   3.01085   3.02471   3.03688   3.06608
 Alpha virt. eigenvalues --    3.06893   3.07292   3.07946   3.12286   3.14984
 Alpha virt. eigenvalues --    3.15659   3.17285   3.17675   3.17944   3.22659
 Alpha virt. eigenvalues --    3.25452   3.27135   3.31815   3.32538   3.39883
 Alpha virt. eigenvalues --    3.41349   3.42441   3.48003   3.48190   3.66914
 Alpha virt. eigenvalues --    3.77614   3.90507   4.06522   4.23205   4.25050
  Beta  occ. eigenvalues -- -256.16865 -29.98239 -25.83260 -25.82510 -25.82412
  Beta  occ. eigenvalues --  -14.41995 -14.41741 -14.35099 -14.34504 -14.32001
  Beta  occ. eigenvalues --  -14.31949 -14.31901 -14.31884 -10.25133 -10.24900
  Beta  occ. eigenvalues --  -10.23371 -10.23037 -10.20794 -10.20708 -10.20699
  Beta  occ. eigenvalues --  -10.20656 -10.20512 -10.20504 -10.20279 -10.20089
  Beta  occ. eigenvalues --  -10.19965 -10.19845 -10.19784 -10.19775 -10.19340
  Beta  occ. eigenvalues --  -10.19116 -10.18388 -10.18366 -10.18362 -10.18343
  Beta  occ. eigenvalues --  -10.18309 -10.18282 -10.18251 -10.18214 -10.18056
  Beta  occ. eigenvalues --  -10.18037 -10.18027 -10.18023 -10.17922 -10.17900
  Beta  occ. eigenvalues --  -10.17830 -10.17819 -10.17671 -10.17656 -10.17653
  Beta  occ. eigenvalues --  -10.17613  -3.32446  -2.08106  -2.07786  -2.07696
  Beta  occ. eigenvalues --   -1.04164  -1.03869  -0.95512  -0.94511  -0.94454
  Beta  occ. eigenvalues --   -0.93461  -0.89619  -0.89245  -0.80914  -0.80551
  Beta  occ. eigenvalues --   -0.80199  -0.79558  -0.79267  -0.79223  -0.78968
  Beta  occ. eigenvalues --   -0.78295  -0.78084  -0.75547  -0.74499  -0.73158
  Beta  occ. eigenvalues --   -0.72525  -0.72257  -0.70819  -0.70522  -0.69756
  Beta  occ. eigenvalues --   -0.68890  -0.67203  -0.66864  -0.66595  -0.63469
  Beta  occ. eigenvalues --   -0.63138  -0.62785  -0.62706  -0.60131  -0.59833
  Beta  occ. eigenvalues --   -0.59429  -0.58802  -0.56274  -0.55260  -0.54786
  Beta  occ. eigenvalues --   -0.54556  -0.53249  -0.52314  -0.52030  -0.51283
  Beta  occ. eigenvalues --   -0.49734  -0.49645  -0.49138  -0.47407  -0.46761
  Beta  occ. eigenvalues --   -0.46625  -0.46324  -0.46185  -0.46091  -0.45861
  Beta  occ. eigenvalues --   -0.43825  -0.43516  -0.43372  -0.43139  -0.42945
  Beta  occ. eigenvalues --   -0.42462  -0.42404  -0.42286  -0.42002  -0.41868
  Beta  occ. eigenvalues --   -0.41811  -0.41698  -0.41546  -0.41317  -0.41180
  Beta  occ. eigenvalues --   -0.41120  -0.41091  -0.40753  -0.40607  -0.40523
  Beta  occ. eigenvalues --   -0.40488  -0.40256  -0.39185  -0.39128  -0.38950
  Beta  occ. eigenvalues --   -0.38534  -0.38267  -0.37922  -0.37611  -0.37307
  Beta  occ. eigenvalues --   -0.36800  -0.36700  -0.36453  -0.35687  -0.35635
  Beta  occ. eigenvalues --   -0.35421  -0.34707  -0.34468  -0.34041  -0.33216
  Beta  occ. eigenvalues --   -0.32804  -0.32368  -0.31975  -0.31083  -0.30472
  Beta  occ. eigenvalues --   -0.30121  -0.29704  -0.29225  -0.28710  -0.27643
  Beta  occ. eigenvalues --   -0.27473  -0.26785  -0.25276  -0.24820  -0.22556
  Beta  occ. eigenvalues --   -0.22389  -0.21877  -0.20872  -0.20724  -0.20032
  Beta  occ. eigenvalues --   -0.16553  -0.16395  -0.11560
  Beta virt. eigenvalues --   -0.05487  -0.03956  -0.00356   0.00415   0.01220
  Beta virt. eigenvalues --    0.02936   0.03785   0.04424   0.04549   0.07478
  Beta virt. eigenvalues --    0.07889   0.08078   0.08739   0.09618   0.09967
  Beta virt. eigenvalues --    0.10024   0.10643   0.10847   0.11490   0.11771
  Beta virt. eigenvalues --    0.12002   0.12166   0.12947   0.13051   0.13400
  Beta virt. eigenvalues --    0.13664   0.14121   0.14407   0.15033   0.15462
  Beta virt. eigenvalues --    0.15785   0.15953   0.16000   0.16263   0.16601
  Beta virt. eigenvalues --    0.16990   0.17141   0.17408   0.17844   0.18110
  Beta virt. eigenvalues --    0.18249   0.18466   0.18737   0.18767   0.18832
  Beta virt. eigenvalues --    0.19003   0.19221   0.19531   0.19757   0.20078
  Beta virt. eigenvalues --    0.20437   0.20610   0.20702   0.21196   0.21903
  Beta virt. eigenvalues --    0.22177   0.22341   0.22526   0.22766   0.23288
  Beta virt. eigenvalues --    0.23622   0.23859   0.24060   0.24572   0.25103
  Beta virt. eigenvalues --    0.25446   0.25616   0.26285   0.26700   0.27209
  Beta virt. eigenvalues --    0.27718   0.27962   0.28158   0.28445   0.28717
  Beta virt. eigenvalues --    0.29028   0.29127   0.31053   0.31965   0.32472
  Beta virt. eigenvalues --    0.32725   0.33802   0.33946   0.34789   0.35058
  Beta virt. eigenvalues --    0.36208   0.36548   0.37222   0.37720   0.38034
  Beta virt. eigenvalues --    0.38188   0.38551   0.39589   0.40541   0.40734
  Beta virt. eigenvalues --    0.41885   0.43117   0.43834   0.44204   0.44770
  Beta virt. eigenvalues --    0.45159   0.45328   0.45611   0.47953   0.48734
  Beta virt. eigenvalues --    0.49161   0.49495   0.50049   0.50315   0.50458
  Beta virt. eigenvalues --    0.50838   0.51282   0.51983   0.52551   0.52803
  Beta virt. eigenvalues --    0.53152   0.53183   0.53563   0.53756   0.54102
  Beta virt. eigenvalues --    0.54182   0.54445   0.54570   0.54949   0.55107
  Beta virt. eigenvalues --    0.55793   0.56357   0.56468   0.56630   0.56650
  Beta virt. eigenvalues --    0.57082   0.57427   0.57828   0.58849   0.58942
  Beta virt. eigenvalues --    0.59453   0.59531   0.59904   0.60284   0.60693
  Beta virt. eigenvalues --    0.61307   0.61503   0.61823   0.62062   0.62291
  Beta virt. eigenvalues --    0.62668   0.63486   0.63593   0.63861   0.64501
  Beta virt. eigenvalues --    0.65081   0.65263   0.65818   0.66175   0.66506
  Beta virt. eigenvalues --    0.66685   0.67401   0.67494   0.67616   0.67838
  Beta virt. eigenvalues --    0.67917   0.68224   0.68398   0.68856   0.69090
  Beta virt. eigenvalues --    0.69588   0.70089   0.70443   0.70671   0.71274
  Beta virt. eigenvalues --    0.71652   0.71928   0.72197   0.72729   0.73336
  Beta virt. eigenvalues --    0.73453   0.74306   0.74552   0.75582   0.75967
  Beta virt. eigenvalues --    0.76184   0.76512   0.76774   0.76832   0.77256
  Beta virt. eigenvalues --    0.77759   0.78520   0.78957   0.79027   0.79488
  Beta virt. eigenvalues --    0.79617   0.80248   0.80586   0.80795   0.81554
  Beta virt. eigenvalues --    0.81893   0.82070   0.82311   0.82979   0.83395
  Beta virt. eigenvalues --    0.84051   0.84334   0.85032   0.85468   0.85801
  Beta virt. eigenvalues --    0.86290   0.87029   0.87391   0.87666   0.87907
  Beta virt. eigenvalues --    0.88085   0.88411   0.88606   0.88785   0.88997
  Beta virt. eigenvalues --    0.89269   0.89486   0.89947   0.90399   0.90562
  Beta virt. eigenvalues --    0.90653   0.90828   0.91338   0.91561   0.91644
  Beta virt. eigenvalues --    0.91957   0.92600   0.92967   0.93323   0.93429
  Beta virt. eigenvalues --    0.93577   0.94326   0.95016   0.95320   0.95706
  Beta virt. eigenvalues --    0.95767   0.96268   0.96407   0.96971   0.97509
  Beta virt. eigenvalues --    0.97734   0.98310   0.98643   0.98903   0.99472
  Beta virt. eigenvalues --    0.99791   1.00073   1.00423   1.00574   1.00932
  Beta virt. eigenvalues --    1.01216   1.01404   1.01582   1.02009   1.02302
  Beta virt. eigenvalues --    1.03045   1.03184   1.03532   1.03732   1.04479
  Beta virt. eigenvalues --    1.05127   1.06260   1.06773   1.07046   1.07462
  Beta virt. eigenvalues --    1.07745   1.08311   1.09534   1.10155   1.10617
  Beta virt. eigenvalues --    1.10906   1.11950   1.12302   1.13286   1.13812
  Beta virt. eigenvalues --    1.15177   1.15271   1.16804   1.17329   1.17939
  Beta virt. eigenvalues --    1.18155   1.18206   1.18637   1.19093   1.19398
  Beta virt. eigenvalues --    1.19898   1.20838   1.21024   1.21616   1.22400
  Beta virt. eigenvalues --    1.22733   1.23438   1.23864   1.24429   1.24944
  Beta virt. eigenvalues --    1.25391   1.26279   1.26456   1.27884   1.28398
  Beta virt. eigenvalues --    1.29231   1.29831   1.31483   1.31664   1.31893
  Beta virt. eigenvalues --    1.32296   1.32612   1.32864   1.33410   1.34063
  Beta virt. eigenvalues --    1.34364   1.34973   1.35689   1.36181   1.36999
  Beta virt. eigenvalues --    1.37433   1.37785   1.38784   1.39169   1.39252
  Beta virt. eigenvalues --    1.39656   1.40887   1.41424   1.41861   1.42467
  Beta virt. eigenvalues --    1.43083   1.43438   1.43645   1.44241   1.45290
  Beta virt. eigenvalues --    1.46518   1.47192   1.47881   1.48182   1.48786
  Beta virt. eigenvalues --    1.49324   1.49738   1.50221   1.51103   1.52017
  Beta virt. eigenvalues --    1.52992   1.53634   1.54249   1.55008   1.55173
  Beta virt. eigenvalues --    1.55826   1.56607   1.56755   1.57083   1.57662
  Beta virt. eigenvalues --    1.57888   1.58673   1.59856   1.60522   1.61557
  Beta virt. eigenvalues --    1.61946   1.62996   1.64081   1.65387   1.65700
  Beta virt. eigenvalues --    1.66973   1.67328   1.68189   1.68557   1.69659
  Beta virt. eigenvalues --    1.70303   1.70958   1.71839   1.72383   1.73680
  Beta virt. eigenvalues --    1.74662   1.75664   1.77370   1.78944   1.79519
  Beta virt. eigenvalues --    1.80710   1.81097   1.81800   1.82398   1.82693
  Beta virt. eigenvalues --    1.83412   1.83590   1.84391   1.84942   1.85281
  Beta virt. eigenvalues --    1.85542   1.85885   1.86569   1.87519   1.88254
  Beta virt. eigenvalues --    1.88492   1.88672   1.89112   1.89655   1.90078
  Beta virt. eigenvalues --    1.90226   1.90686   1.90964   1.91497   1.92130
  Beta virt. eigenvalues --    1.92491   1.92667   1.93239   1.93818   1.95363
  Beta virt. eigenvalues --    1.95779   1.96577   1.96934   1.97911   1.98417
  Beta virt. eigenvalues --    1.98947   1.99470   2.00276   2.00681   2.01324
  Beta virt. eigenvalues --    2.01541   2.02644   2.02911   2.03807   2.04655
  Beta virt. eigenvalues --    2.05262   2.06226   2.07300   2.07666   2.08351
  Beta virt. eigenvalues --    2.08508   2.09466   2.09799   2.10528   2.10965
  Beta virt. eigenvalues --    2.11185   2.12224   2.12887   2.13298   2.13946
  Beta virt. eigenvalues --    2.14001   2.14461   2.14497   2.15456   2.15710
  Beta virt. eigenvalues --    2.16117   2.16399   2.16600   2.17336   2.17849
  Beta virt. eigenvalues --    2.18401   2.20450   2.21620   2.22185   2.23113
  Beta virt. eigenvalues --    2.23984   2.24644   2.24806   2.25151   2.25869
  Beta virt. eigenvalues --    2.25964   2.26320   2.27698   2.27735   2.28063
  Beta virt. eigenvalues --    2.28584   2.28751   2.28938   2.29288   2.30194
  Beta virt. eigenvalues --    2.31015   2.31240   2.31635   2.31827   2.32318
  Beta virt. eigenvalues --    2.32821   2.33457   2.33619   2.34700   2.34945
  Beta virt. eigenvalues --    2.35811   2.36316   2.36685   2.37750   2.37825
  Beta virt. eigenvalues --    2.38676   2.39008   2.39076   2.39806   2.39986
  Beta virt. eigenvalues --    2.40581   2.41075   2.41503   2.42294   2.42733
  Beta virt. eigenvalues --    2.43077   2.43471   2.43657   2.43972   2.44835
  Beta virt. eigenvalues --    2.45337   2.45436   2.46126   2.46657   2.46875
  Beta virt. eigenvalues --    2.47565   2.49098   2.50048   2.50272   2.50457
  Beta virt. eigenvalues --    2.53647   2.53944   2.54119   2.54700   2.55607
  Beta virt. eigenvalues --    2.56072   2.57458   2.57766   2.58546   2.58932
  Beta virt. eigenvalues --    2.59083   2.60161   2.61096   2.62127   2.62416
  Beta virt. eigenvalues --    2.63304   2.63908   2.65796   2.65947   2.66932
  Beta virt. eigenvalues --    2.68300   2.68558   2.70785   2.71046   2.72700
  Beta virt. eigenvalues --    2.73611   2.74365   2.75883   2.77413   2.78137
  Beta virt. eigenvalues --    2.78291   2.78411   2.79979   2.81614   2.81665
  Beta virt. eigenvalues --    2.82209   2.83359   2.84172   2.88861   2.89611
  Beta virt. eigenvalues --    2.89944   2.91309   2.92828   2.93583   2.94630
  Beta virt. eigenvalues --    2.96785   2.97776   2.97896   2.98714   3.00229
  Beta virt. eigenvalues --    3.01134   3.02576   3.03970   3.06875   3.07077
  Beta virt. eigenvalues --    3.07705   3.08105   3.13161   3.15196   3.15954
  Beta virt. eigenvalues --    3.17508   3.17748   3.18160   3.22734   3.25531
  Beta virt. eigenvalues --    3.27709   3.31862   3.32576   3.39911   3.41516
  Beta virt. eigenvalues --    3.43110   3.48200   3.48418   3.79450   3.85650
  Beta virt. eigenvalues --    4.02148   4.14881   4.33941   4.35809
          Condensed to atoms (all electrons):
          Atomic-Atomic Spin Densities.
 Mulliken charges and spin densities:
               1          2
     1  Fe   1.006931   3.920731
     2  N   -0.675344   0.055930
     3  N   -0.658061   0.050172
     4  N   -0.664584   0.052242
     5  N   -0.691766   0.062111
     6  C    0.300539   0.027768
     7  C    0.022141  -0.047154
     8  C    0.031613   0.043498
     9  C    0.310202  -0.071243
    10  C    0.297280  -0.073467
    11  C    0.032840   0.051378
    12  C   -0.013409  -0.057042
    13  C    0.295903   0.032257
    14  C    0.289163   0.031813
    15  C    0.026936  -0.059020
    16  C   -0.008092   0.047707
    17  C    0.306251  -0.078192
    18  C    0.292983  -0.083992
    19  C    0.032269   0.053461
    20  C    0.025061  -0.056637
    21  C    0.300124   0.032697
    22  C   -0.345688  -0.055572
    23  H    0.155175   0.002713
    24  C   -0.313684   0.036950
    25  H    0.156635  -0.001196
    26  C   -0.348632  -0.069668
    27  H    0.157804   0.003524
    28  C   -0.310708   0.040534
    29  H    0.154617  -0.001414
    30  C   -0.608147  -0.002631
    31  H    0.178807   0.000591
    32  H    0.188956   0.001441
    33  H    0.186022   0.001274
    34  C   -0.605272   0.004914
    35  H    0.180433  -0.002254
    36  H    0.183650  -0.002439
    37  H    0.179752   0.000219
    38  C   -0.612251  -0.003314
    39  H    0.182283   0.000841
    40  H    0.184560   0.001996
    41  H    0.192234   0.000763
    42  C   -0.144050   0.019556
    43  H    0.158837  -0.002122
    44  C   -0.411406  -0.029570
    45  H    0.168859   0.001487
    46  H    0.158973   0.001562
    47  C   -0.609695   0.005855
    48  H    0.178409  -0.001656
    49  H    0.180016  -0.003156
    50  H    0.191787  -0.000420
    51  C   -0.146314  -0.012243
    52  H    0.161386   0.001075
    53  C   -0.402785   0.017335
    54  H    0.171472  -0.000868
    55  H    0.161674  -0.000683
    56  C   -0.609170  -0.003286
    57  H    0.185926   0.001480
    58  H    0.190350   0.001647
    59  H    0.178926   0.000617
    60  C   -0.605353   0.005843
    61  H    0.180397   0.000236
    62  H    0.182539  -0.002540
    63  H    0.181053  -0.003349
    64  C   -0.601242   0.000717
    65  H    0.191305   0.000089
    66  H    0.191541   0.000031
    67  H    0.207015   0.000053
    68  N   -0.637862   0.003018
    69  H    0.360463   0.002137
    70  C    0.268990   0.001962
    71  C    0.246718   0.006357
    72  H    0.220213   0.000919
    73  N   -0.462220   0.038801
    74  C   -0.039685  -0.001591
    75  H    0.194580   0.001427
    76  C   -0.601239   0.000736
    77  H    0.208645   0.000050
    78  H    0.190044   0.000094
    79  H    0.189419   0.000071
    80  N   -0.636895   0.002927
    81  H    0.357622   0.002289
    82  C    0.267848   0.002312
    83  C    0.243638   0.003608
    84  H    0.214742   0.001369
    85  N   -0.430841   0.044019
    86  C   -0.035656  -0.002391
    87  H    0.195499   0.001903
 Sum of Mulliken charges =  -0.00000   4.00000
 Mulliken charges and spin densities with hydrogens summed into heavy atoms:
               1          2
     1  Fe   1.006931   3.920731
     2  N   -0.675344   0.055930
     3  N   -0.658061   0.050172
     4  N   -0.664584   0.052242
     5  N   -0.691766   0.062111
     6  C    0.300539   0.027768
     7  C    0.022141  -0.047154
     8  C    0.031613   0.043498
     9  C    0.310202  -0.071243
    10  C    0.297280  -0.073467
    11  C    0.032840   0.051378
    12  C   -0.013409  -0.057042
    13  C    0.295903   0.032257
    14  C    0.289163   0.031813
    15  C    0.026936  -0.059020
    16  C   -0.008092   0.047707
    17  C    0.306251  -0.078192
    18  C    0.292983  -0.083992
    19  C    0.032269   0.053461
    20  C    0.025061  -0.056637
    21  C    0.300124   0.032697
    22  C   -0.190513  -0.052859
    24  C   -0.157049   0.035754
    26  C   -0.190828  -0.066143
    28  C   -0.156091   0.039119
    30  C   -0.054362   0.000676
    34  C   -0.061438   0.000440
    38  C   -0.053175   0.000285
    42  C    0.014786   0.017434
    44  C   -0.083574  -0.026521
    47  C   -0.059483   0.000623
    51  C    0.015072  -0.011168
    53  C   -0.069638   0.015784
    56  C   -0.053969   0.000457
    60  C   -0.061364   0.000190
    64  C   -0.011380   0.000890
    68  N   -0.277399   0.005155
    70  C    0.268990   0.001962
    71  C    0.466930   0.007276
    73  N   -0.462220   0.038801
    74  C    0.154896  -0.000164
    76  C   -0.013131   0.000951
    80  N   -0.279273   0.005216
    82  C    0.267848   0.002312
    83  C    0.458380   0.004977
    85  N   -0.430841   0.044019
    86  C    0.159842  -0.000488
 Electronic spatial extent (au):  <R**2>=          22465.8445
 Charge=             -0.0000 electrons
 Dipole moment (field-independent basis, Debye):
    X=             -1.7461    Y=              0.1576    Z=             -0.0652  Tot=              1.7544
 Quadrupole moment (field-independent basis, Debye-Ang):
   XX=           -267.1329   YY=           -276.7622   ZZ=           -225.3588
   XY=              1.3121   XZ=              6.1298   YZ=             -1.2914
 Traceless Quadrupole moment (field-independent basis, Debye-Ang):
   XX=            -10.7150   YY=            -20.3442   ZZ=             31.0592
   XY=              1.3121   XZ=              6.1298   YZ=             -1.2914
 Octapole moment (field-independent basis, Debye-Ang**2):
  XXX=            -36.4094  YYY=             -5.1533  ZZZ=              5.3800  XYY=            -27.0009
  XXY=             11.4081  XXZ=              6.9244  XZZ=            -20.0415  YZZ=              3.1902
  YYZ=             -9.7539  XYZ=              4.0441
 Hexadecapole moment (field-independent basis, Debye-Ang**3):
 XXXX=         -11937.0166 YYYY=         -11477.4959 ZZZZ=          -4962.4487 XXXY=             44.3641
 XXXZ=             35.2420 YYYX=             34.3048 YYYZ=            -66.1778 ZZZX=            105.5805
 ZZZY=            -23.8188 XXYY=          -4011.6544 XXZZ=          -3051.9013 YYZZ=          -3165.0969
 XXYZ=             28.2332 YYXZ=             53.6452 ZZXY=              0.1424
 N-N= 7.162616834734D+03 E-N=-2.177648383407D+04  KE= 3.161440268029D+03
                          Isotropic Fermi Contact Couplings
        Atom                 a.u.       MegaHertz       Gauss      10(-4) cm-1
     1  Fe(57)             0.38966      14.12910       5.04161       4.71296
     2  N(14)              0.11802       9.53360       3.40183       3.18007
     3  N(14)              0.12225       9.87469       3.52353       3.29384
     4  N(14)              0.11653       9.41268       3.35868       3.13973
     5  N(14)              0.11478       9.27148       3.30829       3.09263
     6  C(13)              0.00903       2.53886       0.90593       0.84687
     7  C(13)             -0.00346      -0.97107      -0.34650      -0.32391
     8  C(13)              0.01131       3.17877       1.13426       1.06032
     9  C(13)             -0.00457      -1.28463      -0.45839      -0.42851
    10  C(13)             -0.00656      -1.84487      -0.65830      -0.61538
    11  C(13)              0.01253       3.52068       1.25627       1.17437
    12  C(13)             -0.00494      -1.38703      -0.49493      -0.46266
    13  C(13)              0.01087       3.05412       1.08978       1.01874
    14  C(13)              0.01204       3.38508       1.20788       1.12914
    15  C(13)             -0.00496      -1.39314      -0.49711      -0.46470
    16  C(13)              0.01139       3.20174       1.14246       1.06798
    17  C(13)             -0.00878      -2.46895      -0.88098      -0.82355
    18  C(13)             -0.00682      -1.91698      -0.68403      -0.63944
    19  C(13)              0.01324       3.72223       1.32818       1.24160
    20  C(13)             -0.00456      -1.28217      -0.45751      -0.42768
    21  C(13)              0.01165       3.27488       1.16856       1.09238
    22  C(13)             -0.00721      -2.02773      -0.72355      -0.67638
    23  H(1)               0.00085       0.95046       0.33915       0.31704
    24  C(13)              0.00672       1.88851       0.67387       0.62994
    25  H(1)              -0.00035      -0.39392      -0.14056      -0.13140
    26  C(13)             -0.00914      -2.56838      -0.91646      -0.85672
    27  H(1)               0.00109       1.22008       0.43536       0.40698
    28  C(13)              0.00719       2.02180       0.72143       0.67440
    29  H(1)              -0.00040      -0.44547      -0.15895      -0.14859
    30  C(13)             -0.00030      -0.08466      -0.03021      -0.02824
    31  H(1)               0.00018       0.20458       0.07300       0.06824
    32  H(1)               0.00066       0.74259       0.26497       0.24770
    33  H(1)               0.00057       0.64109       0.22876       0.21385
    34  C(13)              0.00233       0.65587       0.23403       0.21877
    35  H(1)              -0.00081      -0.90830      -0.32410      -0.30298
    36  H(1)              -0.00105      -1.17735      -0.42011      -0.39272
    37  H(1)               0.00005       0.05332       0.01903       0.01779
    38  C(13)             -0.00064      -0.18001      -0.06423      -0.06004
    39  H(1)               0.00045       0.50685       0.18086       0.16907
    40  H(1)               0.00097       1.08043       0.38553       0.36039
    41  H(1)               0.00026       0.28762       0.10263       0.09594
    42  C(13)              0.00424       1.19264       0.42556       0.39782
    43  H(1)              -0.00060      -0.67518      -0.24092      -0.22522
    44  C(13)             -0.00423      -1.18904      -0.42428      -0.39662
    45  H(1)               0.00046       0.51798       0.18483       0.17278
    46  H(1)               0.00048       0.53831       0.19208       0.17956
    47  C(13)              0.00273       0.76823       0.27412       0.25625
    48  H(1)              -0.00045      -0.50457      -0.18004      -0.16831
    49  H(1)              -0.00149      -1.66255      -0.59324      -0.55457
    50  H(1)              -0.00031      -0.34257      -0.12224      -0.11427
    51  C(13)             -0.00199      -0.55809      -0.19914      -0.18616
    52  H(1)               0.00037       0.41376       0.14764       0.13801
    53  C(13)              0.00291       0.81888       0.29220       0.27315
    54  H(1)              -0.00027      -0.30082      -0.10734      -0.10034
    55  H(1)              -0.00021      -0.23375      -0.08341      -0.07797
    56  C(13)             -0.00045      -0.12705      -0.04533      -0.04238
    57  H(1)               0.00080       0.89080       0.31786       0.29714
    58  H(1)               0.00081       0.91047       0.32488       0.30370
    59  H(1)               0.00019       0.21425       0.07645       0.07147
    60  C(13)              0.00279       0.78545       0.28027       0.26200
    61  H(1)               0.00004       0.04811       0.01717       0.01605
    62  H(1)              -0.00093      -1.03809      -0.37042      -0.34627
    63  H(1)              -0.00128      -1.42899      -0.50990      -0.47666
    64  C(13)              0.00045       0.12781       0.04561       0.04263
    65  H(1)               0.00006       0.06402       0.02284       0.02135
    66  H(1)               0.00003       0.03781       0.01349       0.01261
    67  H(1)               0.00004       0.04332       0.01546       0.01445
    68  N(14)              0.00849       0.68556       0.24463       0.22868
    69  H(1)               0.00056       0.62439       0.22280       0.20828
    70  C(13)              0.00328       0.92062       0.32850       0.30709
    71  C(13)              0.00237       0.66469       0.23718       0.22172
    72  H(1)               0.00013       0.14603       0.05211       0.04871
    73  N(14)              0.11549       9.32908       3.32885       3.11184
    74  C(13)             -0.00043      -0.12008      -0.04285      -0.04005
    75  H(1)               0.00041       0.46360       0.16542       0.15464
    76  C(13)              0.00050       0.14086       0.05026       0.04699
    77  H(1)               0.00004       0.04333       0.01546       0.01445
    78  H(1)               0.00005       0.06068       0.02165       0.02024
    79  H(1)               0.00005       0.05497       0.01961       0.01834
    80  N(14)              0.00851       0.68703       0.24515       0.22917
    81  H(1)               0.00060       0.66855       0.23856       0.22301
    82  C(13)              0.00313       0.87976       0.31392       0.29346
    83  C(13)              0.00032       0.09120       0.03254       0.03042
    84  H(1)               0.00019       0.21680       0.07736       0.07232
    85  N(14)              0.12568      10.15169       3.62238       3.38624
    86  C(13)             -0.00232      -0.65199      -0.23265      -0.21748
    87  H(1)               0.00043       0.48080       0.17156       0.16038
 --------------------------------------------------------
       Center         ----  Spin Dipole Couplings  ----
                      3XX-RR        3YY-RR        3ZZ-RR
 --------------------------------------------------------
     1   Atom       -0.713641      1.540709     -0.827068
     2   Atom        0.044087      0.041822     -0.085909
     3   Atom        0.042814      0.050734     -0.093548
     4   Atom        0.062537      0.038854     -0.101391
     5   Atom        0.037951      0.048812     -0.086764
     6   Atom        0.034298     -0.024555     -0.009743
     7   Atom        0.031434      0.023744     -0.055178
     8   Atom       -0.013653     -0.007847      0.021499
     9   Atom        0.017723      0.079927     -0.097649
    10   Atom        0.019048      0.076822     -0.095870
    11   Atom       -0.015413     -0.011745      0.027159
    12   Atom        0.031170      0.030852     -0.062022
    13   Atom        0.028946     -0.025351     -0.003595
    14   Atom        0.034900     -0.027957     -0.006943
    15   Atom        0.038493      0.031295     -0.069788
    16   Atom       -0.014730     -0.009326      0.024056
    17   Atom        0.022559      0.081915     -0.104474
    18   Atom        0.022651      0.090155     -0.112806
    19   Atom       -0.016818     -0.011870      0.028688
    20   Atom        0.035496      0.032871     -0.068366
    21   Atom        0.035907     -0.029164     -0.006743
    22   Atom        0.058696      0.011606     -0.070302
    23   Atom        0.011259     -0.004273     -0.006986
    24   Atom       -0.027281      0.018569      0.008712
    25   Atom       -0.007891      0.013840     -0.005950
    26   Atom        0.060276      0.021233     -0.081509
    27   Atom        0.008850     -0.002870     -0.005980
    28   Atom       -0.030131      0.020978      0.009154
    29   Atom       -0.008485      0.014841     -0.006356
    30   Atom       -0.001919      0.005191     -0.003271
    31   Atom        0.000032      0.002096     -0.002128
    32   Atom       -0.001713      0.004575     -0.002862
    33   Atom       -0.002053      0.004255     -0.002201
    34   Atom        0.005470     -0.001675     -0.003795
    35   Atom        0.004428     -0.002073     -0.002355
    36   Atom        0.004161     -0.001483     -0.002679
    37   Atom        0.002279     -0.000159     -0.002120
    38   Atom       -0.002006      0.005391     -0.003385
    39   Atom       -0.001964      0.004750     -0.002786
    40   Atom       -0.001843      0.004346     -0.002503
    41   Atom       -0.000011      0.002339     -0.002328
    42   Atom       -0.000827     -0.003697      0.004523
    43   Atom        0.004462     -0.001815     -0.002646
    44   Atom        0.014306      0.000081     -0.014387
    45   Atom        0.001488     -0.000383     -0.001105
    46   Atom       -0.000352      0.000939     -0.000587
    47   Atom        0.005536     -0.001452     -0.004084
    48   Atom        0.004968     -0.002230     -0.002738
    49   Atom        0.003075     -0.000970     -0.002105
    50   Atom        0.002400     -0.000228     -0.002172
    51   Atom       -0.001238      0.009288     -0.008049
    52   Atom       -0.002014      0.005079     -0.003065
    53   Atom        0.001799     -0.005429      0.003630
    54   Atom        0.001038      0.000336     -0.001374
    55   Atom       -0.000976      0.002652     -0.001676
    56   Atom       -0.002238      0.005843     -0.003605
    57   Atom       -0.001942      0.004473     -0.002531
    58   Atom       -0.002227      0.005319     -0.003092
    59   Atom        0.000015      0.002417     -0.002432
    60   Atom        0.005463     -0.001551     -0.003912
    61   Atom        0.002191      0.000093     -0.002284
    62   Atom        0.004439     -0.001784     -0.002656
    63   Atom        0.004003     -0.001470     -0.002533
    64   Atom       -0.002485     -0.003985      0.006470
    65   Atom       -0.002056     -0.002455      0.004511
    66   Atom       -0.002158     -0.002328      0.004487
    67   Atom       -0.000729     -0.003203      0.003932
    68   Atom       -0.011919     -0.003413      0.015333
    69   Atom       -0.004227     -0.004948      0.009174
    70   Atom       -0.007572     -0.008405      0.015977
    71   Atom       -0.014695     -0.016346      0.031041
    72   Atom        0.002084     -0.017811      0.015727
    73   Atom       -0.115463     -0.108911      0.224374
    74   Atom       -0.007216     -0.022428      0.029644
    75   Atom        0.008297     -0.017679      0.009382
    76   Atom       -0.002363     -0.004037      0.006399
    77   Atom       -0.000598     -0.003226      0.003823
    78   Atom       -0.001974     -0.002395      0.004370
    79   Atom       -0.002090     -0.002391      0.004480
    80   Atom       -0.011057     -0.004220      0.015277
    81   Atom       -0.004256     -0.004894      0.009150
    82   Atom       -0.007377     -0.007982      0.015359
    83   Atom       -0.012730     -0.018757      0.031487
    84   Atom        0.001200     -0.017624      0.016424
    85   Atom       -0.119480     -0.109455      0.228935
    86   Atom       -0.004440     -0.023148      0.027589
    87   Atom        0.008774     -0.017976      0.009201
 --------------------------------------------------------
                        XY            XZ            YZ
 --------------------------------------------------------
     1   Atom        0.387302     -0.100210     -0.012746
     2   Atom        0.179446      0.044757      0.036803
     3   Atom       -0.172540      0.009573     -0.020045
     4   Atom        0.181422     -0.002728      0.004798
     5   Atom       -0.186594      0.003021      0.013341
     6   Atom        0.022237      0.006817     -0.003455
     7   Atom        0.011595      0.009471      0.017245
     8   Atom        0.014192     -0.001854     -0.004973
     9   Atom        0.017751      0.016647      0.016636
    10   Atom       -0.021732      0.018360      0.016159
    11   Atom       -0.011490     -0.014003     -0.006731
    12   Atom       -0.013683      0.021209      0.004106
    13   Atom       -0.022490      0.003267     -0.002099
    14   Atom        0.019087      0.002333      0.005054
    15   Atom        0.013611      0.006233     -0.010731
    16   Atom        0.013536     -0.004546      0.007452
    17   Atom        0.024361      0.016786     -0.013686
    18   Atom       -0.021302     -0.014580     -0.019983
    19   Atom       -0.014150      0.010320      0.002274
    20   Atom       -0.014501     -0.012312     -0.004763
    21   Atom       -0.023861     -0.001810     -0.001223
    22   Atom        0.001441     -0.007008      0.012392
    23   Atom       -0.000088     -0.000050      0.000375
    24   Atom       -0.000262     -0.004189      0.000881
    25   Atom       -0.000281     -0.000064      0.001817
    26   Atom       -0.000296      0.022104     -0.006318
    27   Atom       -0.000323      0.002366     -0.000242
    28   Atom        0.000978     -0.002734      0.001246
    29   Atom        0.000485     -0.000444     -0.001996
    30   Atom        0.004141      0.000759      0.001768
    31   Atom        0.003398      0.000768      0.001020
    32   Atom        0.002951      0.000061     -0.000098
    33   Atom        0.002623      0.000828      0.002544
    34   Atom        0.004041      0.001277      0.000511
    35   Atom        0.002764      0.001976      0.000650
    36   Atom        0.003092     -0.000202     -0.000096
    37   Atom        0.002793      0.000788      0.000558
    38   Atom       -0.004211     -0.000229      0.000081
    39   Atom       -0.002780     -0.000443      0.001413
    40   Atom       -0.002879      0.000346     -0.001267
    41   Atom       -0.003635     -0.000350      0.000007
    42   Atom       -0.004241     -0.001172      0.007471
    43   Atom       -0.002034      0.000118      0.000028
    44   Atom        0.001175      0.006428     -0.020292
    45   Atom       -0.004045      0.001884     -0.000843
    46   Atom       -0.001361      0.000345     -0.001201
    47   Atom        0.003854      0.000308      0.000440
    48   Atom        0.002525     -0.000302     -0.000014
    49   Atom        0.002735      0.001081      0.000470
    50   Atom        0.002586     -0.000175     -0.000127
    51   Atom        0.006320      0.005758     -0.001919
    52   Atom        0.003430     -0.000517     -0.001205
    53   Atom        0.000593     -0.011623      0.002895
    54   Atom        0.001974      0.000940      0.000178
    55   Atom        0.001766     -0.000504     -0.000285
    56   Atom       -0.004375      0.000325     -0.000442
    57   Atom       -0.002870      0.000553     -0.001822
    58   Atom       -0.002733     -0.000205      0.001022
    59   Atom       -0.003610      0.000022     -0.000026
    60   Atom       -0.004425     -0.000616      0.000150
    61   Atom       -0.002907     -0.000312      0.000175
    62   Atom       -0.003280     -0.001483      0.000612
    63   Atom       -0.003034      0.000743     -0.000285
    64   Atom        0.000151     -0.003809     -0.000382
    65   Atom       -0.000233     -0.002055      0.000926
    66   Atom        0.000326     -0.001850     -0.001361
    67   Atom        0.000248     -0.004101     -0.000392
    68   Atom        0.000300      0.001836     -0.000955
    69   Atom        0.000117      0.003264      0.000197
    70   Atom        0.000558     -0.004770     -0.000086
    71   Atom       -0.003723      0.021131     -0.001681
    72   Atom        0.001739      0.026152      0.001858
    73   Atom       -0.000555     -0.018124     -0.003458
    74   Atom       -0.000983     -0.025623     -0.000301
    75   Atom        0.002558     -0.027393     -0.002472
    76   Atom       -0.000064     -0.003972      0.000136
    77   Atom       -0.000167     -0.004175      0.000246
    78   Atom        0.000318     -0.002166     -0.001113
    79   Atom       -0.000275     -0.001937      0.001162
    80   Atom        0.001149      0.001447     -0.001249
    81   Atom       -0.000121      0.002932     -0.000687
    82   Atom        0.000025     -0.005214     -0.000147
    83   Atom       -0.001561      0.020274     -0.003718
    84   Atom       -0.002628      0.025063     -0.003211
    85   Atom        0.000799     -0.023308     -0.005699
    86   Atom       -0.001285     -0.026251      0.001642
    87   Atom       -0.002249     -0.027153      0.002147
 --------------------------------------------------------


 ---------------------------------------------------------------------------------
              Anisotropic Spin Dipole Couplings in Principal Axis System
 ---------------------------------------------------------------------------------

       Atom             a.u.   MegaHertz   Gauss  10(-4) cm-1        Axes

              Baa    -0.9027   -15.628    -5.576    -5.213  0.6071 -0.0921  0.7892
     1 Fe(57) Bbb    -0.7031   -12.172    -4.343    -4.060  0.7772 -0.1376 -0.6140
              Bcc     1.6057    27.800     9.920     9.273  0.1652  0.9862 -0.0120
 
              Baa    -0.1372    -5.291    -1.888    -1.765  0.7135 -0.6888 -0.1284
     2 N(14)  Bbb    -0.0956    -3.689    -1.316    -1.230 -0.0339 -0.2169  0.9756
              Bcc     0.2328     8.980     3.204     2.996  0.6998  0.6917  0.1781
 
              Baa    -0.1274    -4.913    -1.753    -1.639  0.6893  0.6919  0.2148
     3 N(14)  Bbb    -0.0934    -3.601    -1.285    -1.201 -0.1997 -0.1036  0.9744
              Bcc     0.2208     8.514     3.038     2.840 -0.6964  0.7145 -0.0668
 
              Baa    -0.1321    -5.093    -1.817    -1.699 -0.6730  0.7193 -0.1724
     4 N(14)  Bbb    -0.1005    -3.874    -1.382    -1.292 -0.1207  0.1232  0.9850
              Bcc     0.2325     8.967     3.200     2.991  0.7297  0.6837  0.0039
 
              Baa    -0.1455    -5.613    -2.003    -1.872  0.7013  0.6865 -0.1919
     5 N(14)  Bbb    -0.0847    -3.267    -1.166    -1.090  0.1539  0.1170  0.9811
              Bcc     0.2302     8.879     3.168     2.962 -0.6960  0.7176  0.0236
 
              Baa    -0.0333    -4.467    -1.594    -1.490 -0.3250  0.9177  0.2287
     6 C(13)  Bbb    -0.0090    -1.210    -0.432    -0.404 -0.0241 -0.2498  0.9680
              Bcc     0.0423     5.678     2.026     1.894  0.9454  0.3091  0.1033
 
              Baa    -0.0593    -7.960    -2.840    -2.655 -0.0775 -0.1923  0.9783
[...]
 
              Baa    -0.0303    -4.072    -1.453    -1.358  0.9974 -0.0207  0.0697
    28 C(13)  Bbb     0.0092     1.238     0.442     0.413 -0.0714 -0.0993  0.9925
              Bcc     0.0211     2.834     1.011     0.945  0.0136  0.9948  0.1005
 
              Baa    -0.0086    -4.575    -1.632    -1.526  0.9812 -0.0039  0.1927
    29 H(1)   Bbb    -0.0065    -3.449    -1.231    -1.150 -0.1915  0.0959  0.9768
              Bcc     0.0150     8.024     2.863     2.676  0.0223  0.9954 -0.0933
 
              Baa    -0.0038    -0.514    -0.184    -0.172  0.8712 -0.4418  0.2143
    30 C(13)  Bbb    -0.0036    -0.484    -0.173    -0.161 -0.2699 -0.0661  0.9606
              Bcc     0.0074     0.998     0.356     0.333  0.4102  0.8947  0.1768
 
              Baa    -0.0025    -1.328    -0.474    -0.443  0.8091 -0.5827 -0.0762
    31 H(1)   Bbb    -0.0024    -1.260    -0.449    -0.420 -0.0447 -0.1903  0.9807
              Bcc     0.0048     2.587     0.923     0.863  0.5860  0.7901  0.1800
 
              Baa    -0.0030    -1.582    -0.564    -0.528  0.6884 -0.2781 -0.6699
    32 H(1)   Bbb    -0.0028    -1.483    -0.529    -0.495  0.6251 -0.2410  0.7424
              Bcc     0.0057     3.065     1.094     1.022  0.3679  0.9298 -0.0080
 
              Baa    -0.0031    -1.666    -0.594    -0.556  0.4428 -0.4290  0.7873
    33 H(1)   Bbb    -0.0029    -1.571    -0.561    -0.524  0.8373 -0.1162 -0.5343
              Bcc     0.0061     3.237     1.155     1.080  0.3207  0.8958  0.3077
 
              Baa    -0.0040    -0.533    -0.190    -0.178 -0.1600  0.0624  0.9851
    34 C(13)  Bbb    -0.0035    -0.468    -0.167    -0.156 -0.3937  0.9112 -0.1217
              Bcc     0.0075     1.001     0.357     0.334  0.9052  0.4073  0.1212
 
              Baa    -0.0031    -1.659    -0.592    -0.553 -0.3938  0.8769  0.2755
    35 H(1)   Bbb    -0.0029    -1.523    -0.543    -0.508 -0.1209 -0.3465  0.9302
              Bcc     0.0060     3.182     1.135     1.061  0.9112  0.3330  0.2424
 
              Baa    -0.0028    -1.519    -0.542    -0.507 -0.4023  0.9145  0.0424
    36 H(1)   Bbb    -0.0027    -1.432    -0.511    -0.478  0.0420 -0.0278  0.9987
              Bcc     0.0055     2.951     1.053     0.984  0.9146  0.4035 -0.0272
 
              Baa    -0.0023    -1.211    -0.432    -0.404 -0.0566 -0.1844  0.9812
    37 H(1)   Bbb    -0.0020    -1.058    -0.378    -0.353 -0.5596  0.8197  0.1218
              Bcc     0.0043     2.269     0.810     0.757  0.8268  0.5422  0.1496
 
              Baa    -0.0040    -0.532    -0.190    -0.178  0.8737  0.3907  0.2898
    38 C(13)  Bbb    -0.0033    -0.447    -0.160    -0.149 -0.2578 -0.1333  0.9570
              Bcc     0.0073     0.980     0.350     0.327 -0.4125  0.9108  0.0158
 
              Baa    -0.0031    -1.638    -0.585    -0.547 -0.4293 -0.3061  0.8497
    39 H(1)   Bbb    -0.0029    -1.563    -0.558    -0.521  0.8395  0.2119  0.5004
              Bcc     0.0060     3.202     1.142     1.068 -0.3332  0.9281  0.1660
 
              Baa    -0.0030    -1.620    -0.578    -0.540  0.8328  0.3919  0.3909
    40 H(1)   Bbb    -0.0027    -1.414    -0.505    -0.472 -0.4214 -0.0092  0.9068
              Bcc     0.0057     3.034     1.083     1.012 -0.3590  0.9200 -0.1575
 
              Baa    -0.0028    -1.503    -0.536    -0.501  0.7085  0.4988  0.4993
    41 H(1)   Bbb    -0.0022    -1.160    -0.414    -0.387 -0.3888 -0.3146  0.8659
              Bcc     0.0050     2.663     0.950     0.888 -0.5890  0.8076  0.0289
 
              Baa    -0.0093    -1.247    -0.445    -0.416  0.3593  0.8333 -0.4202
    42 C(13)  Bbb    -0.0006    -0.084    -0.030    -0.028  0.8852 -0.1618  0.4361
              Bcc     0.0099     1.331     0.475     0.444 -0.2954  0.5286  0.7958
 
              Baa    -0.0027    -1.420    -0.507    -0.474 -0.0801 -0.2243  0.9712
    43 H(1)   Bbb    -0.0024    -1.282    -0.457    -0.428  0.2723  0.9324  0.2378
              Bcc     0.0051     2.702     0.964     0.901  0.9589 -0.2835  0.0137
 
              Baa    -0.0295    -3.959    -1.413    -1.321 -0.1347  0.5641  0.8146
    44 C(13)  Bbb     0.0120     1.611     0.575     0.537  0.6525  0.6692 -0.3556
              Bcc     0.0175     2.348     0.838     0.783  0.7457 -0.4836  0.4582
 
              Baa    -0.0037    -1.986    -0.709    -0.662  0.6475  0.7258 -0.2324
    45 H(1)   Bbb    -0.0016    -0.857    -0.306    -0.286 -0.0813  0.3690  0.9258
              Bcc     0.0053     2.843     1.014     0.948  0.7577 -0.5806  0.2980
 
              Baa    -0.0015    -0.791    -0.282    -0.264  0.5384  0.5974  0.5943
    46 H(1)   Bbb    -0.0008    -0.438    -0.156    -0.146  0.7061  0.0650 -0.7051
              Bcc     0.0023     1.229     0.439     0.410 -0.4599  0.7993 -0.3868
 
              Baa    -0.0042    -0.561    -0.200    -0.187  0.0708 -0.2556  0.9642
    47 C(13)  Bbb    -0.0031    -0.414    -0.148    -0.138 -0.4016  0.8775  0.2621
              Bcc     0.0073     0.975     0.348     0.325  0.9131  0.4058  0.0405
 
              Baa    -0.0030    -1.626    -0.580    -0.542 -0.2994  0.9206 -0.2506
    48 H(1)   Bbb    -0.0027    -1.455    -0.519    -0.485 -0.0438  0.2491  0.9675
              Bcc     0.0058     3.082     1.100     1.028  0.9531  0.3007 -0.0342
 
              Baa    -0.0024    -1.279    -0.457    -0.427 -0.4517  0.6716  0.5873
    49 H(1)   Bbb    -0.0023    -1.206    -0.430    -0.402  0.1446 -0.5945  0.7910
              Bcc     0.0047     2.486     0.887     0.829  0.8804  0.4422  0.1714
 
              Baa    -0.0022    -1.163    -0.415    -0.388  0.0053  0.0581  0.9983
    50 H(1)   Bbb    -0.0018    -0.968    -0.345    -0.323 -0.5239  0.8505 -0.0468
              Bcc     0.0040     2.131     0.760     0.711  0.8518  0.5227 -0.0349
 
              Baa    -0.0125    -1.673    -0.597    -0.558 -0.5432  0.2291  0.8077
    51 C(13)  Bbb     0.0002     0.025     0.009     0.008  0.7170 -0.3740  0.5882
              Bcc     0.0123     1.647     0.588     0.550  0.4369  0.8987  0.0389
 
              Baa    -0.0034    -1.817    -0.648    -0.606  0.9225 -0.3496  0.1637
    52 H(1)   Bbb    -0.0032    -1.727    -0.616    -0.576 -0.1035  0.1843  0.9774
              Bcc     0.0066     3.544     1.265     1.182  0.3719  0.9186 -0.1338
 
              Baa    -0.0102    -1.367    -0.488    -0.456  0.6299 -0.4594  0.6262
    53 C(13)  Bbb    -0.0043    -0.582    -0.208    -0.194  0.3934  0.8839  0.2528
              Bcc     0.0145     1.949     0.695     0.650 -0.6696  0.0871  0.7376
 
              Baa    -0.0019    -1.014    -0.362    -0.338 -0.5054  0.3846  0.7724
    54 H(1)   Bbb    -0.0010    -0.511    -0.182    -0.171 -0.3981  0.6902 -0.6042
              Bcc     0.0029     1.525     0.544     0.509  0.7655  0.6129  0.1957
 
              Baa    -0.0021    -1.101    -0.393    -0.367  0.6673 -0.2066  0.7156
    55 H(1)   Bbb    -0.0013    -0.719    -0.256    -0.240 -0.6401  0.3321  0.6928
              Bcc     0.0034     1.819     0.649     0.607  0.3807  0.9204 -0.0894
 
              Baa    -0.0042    -0.561    -0.200    -0.187  0.8986  0.3828 -0.2143
    56 C(13)  Bbb    -0.0036    -0.484    -0.173    -0.161  0.1781  0.1281  0.9756
              Bcc     0.0078     1.044     0.373     0.348 -0.4009  0.9149 -0.0470
 
              Baa    -0.0031    -1.672    -0.597    -0.558  0.7096  0.4057  0.5760
    57 H(1)   Bbb    -0.0029    -1.525    -0.544    -0.509 -0.6141 -0.0445  0.7880
              Bcc     0.0060     3.197     1.141     1.067 -0.3454  0.9129 -0.2176
 
              Baa    -0.0033    -1.754    -0.626    -0.585 -0.5100 -0.2593  0.8201
    58 H(1)   Bbb    -0.0030    -1.617    -0.577    -0.539  0.8042  0.1945  0.5616
              Bcc     0.0063     3.371     1.203     1.125 -0.3051  0.9460  0.1094
 
              Baa    -0.0026    -1.381    -0.493    -0.461  0.8110  0.5848 -0.0195
    59 H(1)   Bbb    -0.0024    -1.297    -0.463    -0.433  0.0132  0.0151  0.9998
              Bcc     0.0050     2.679     0.956     0.894 -0.5849  0.8111 -0.0045
 
              Baa    -0.0040    -0.537    -0.192    -0.179  0.2154  0.3328  0.9181
    60 C(13)  Bbb    -0.0036    -0.488    -0.174    -0.163  0.3806  0.8372 -0.3928
              Bcc     0.0076     1.025     0.366     0.342  0.8993 -0.4340 -0.0536
 
              Baa    -0.0023    -1.231    -0.439    -0.411  0.1019  0.0512  0.9935
    61 H(1)   Bbb    -0.0019    -1.038    -0.370    -0.346  0.5671  0.8175 -0.1003
              Bcc     0.0043     2.269     0.810     0.757  0.8173 -0.5736 -0.0543
 
              Baa    -0.0032    -1.705    -0.608    -0.569  0.4079  0.9086  0.0904
    62 H(1)   Bbb    -0.0029    -1.572    -0.561    -0.524  0.1279 -0.1549  0.9796
              Bcc     0.0061     3.277     1.169     1.093  0.9040 -0.3880 -0.1794
 
              Baa    -0.0028    -1.509    -0.538    -0.503  0.4157  0.8898 -0.1885
    63 H(1)   Bbb    -0.0026    -1.389    -0.496    -0.463 -0.0122  0.2127  0.9771
              Bcc     0.0054     2.898     1.034     0.967  0.9094 -0.4038  0.0993
 
              Baa    -0.0040    -0.537    -0.192    -0.179 -0.0932  0.9956  0.0024
    64 C(13)  Bbb    -0.0039    -0.521    -0.186    -0.174  0.9340  0.0866  0.3467
              Bcc     0.0079     1.058     0.378     0.353 -0.3450 -0.0346  0.9380
 
              Baa    -0.0027    -1.418    -0.506    -0.473  0.8874 -0.3505  0.2996
    65 H(1)   Bbb    -0.0026    -1.367    -0.488    -0.456  0.3713  0.9284 -0.0137
              Bcc     0.0052     2.785     0.994     0.929 -0.2734  0.1234  0.9540
 
              Baa    -0.0026    -1.414    -0.504    -0.472  0.8743  0.3821  0.2994
    66 H(1)   Bbb    -0.0026    -1.375    -0.490    -0.459 -0.4183  0.9060  0.0650
              Bcc     0.0052     2.788     0.995     0.930 -0.2464 -0.1821  0.9519
 
              Baa    -0.0032    -1.722    -0.615    -0.575 -0.1584  0.9867 -0.0368
    67 H(1)   Bbb    -0.0031    -1.661    -0.593    -0.554  0.8500  0.1552  0.5034
              Bcc     0.0063     3.383     1.207     1.128 -0.5024 -0.0485  0.8633
 
              Baa    -0.0121    -0.465    -0.166    -0.155  0.9968 -0.0421 -0.0683
    68 N(14)  Bbb    -0.0034    -0.133    -0.047    -0.044  0.0454  0.9979  0.0463
              Bcc     0.0155     0.598     0.213     0.199  0.0662 -0.0493  0.9966
 
              Baa    -0.0050    -2.687    -0.959    -0.896  0.7570 -0.6322 -0.1651
    69 H(1)   Bbb    -0.0049    -2.611    -0.932    -0.871  0.6135  0.7747 -0.1532
              Bcc     0.0099     5.298     1.891     1.767  0.2247  0.0147  0.9743
 
              Baa    -0.0090    -1.206    -0.430    -0.402  0.7254 -0.6747  0.1363
    70 C(13)  Bbb    -0.0079    -1.063    -0.379    -0.355  0.6612  0.7380  0.1346
              Bcc     0.0169     2.269     0.810     0.757 -0.1914 -0.0076  0.9815
 
              Baa    -0.0240    -3.226    -1.151    -1.076  0.8770  0.3532 -0.3257
    71 C(13)  Bbb    -0.0154    -2.069    -0.738    -0.690 -0.3111  0.9341  0.1753
              Bcc     0.0395     5.296     1.890     1.766  0.3661 -0.0524  0.9291
 
              Baa    -0.0183    -9.755    -3.481    -3.254  0.6712 -0.5601 -0.4855
    72 H(1)   Bbb    -0.0178    -9.480    -3.383    -3.162  0.4199  0.8271 -0.3737
              Bcc     0.0361    19.235     6.864     6.416  0.6109  0.0470  0.7903
 
              Baa    -0.1165    -4.493    -1.603    -1.499  0.9938  0.0973  0.0538
    73 N(14)  Bbb    -0.1089    -4.199    -1.498    -1.401 -0.0977  0.9952  0.0050
              Bcc     0.2254     8.692     3.102     2.899 -0.0531 -0.0102  0.9985
 
              Baa    -0.0228    -3.065    -1.094    -1.022  0.3361  0.9265  0.1694
    74 C(13)  Bbb    -0.0199    -2.675    -0.955    -0.892  0.8240 -0.3763  0.4236
              Bcc     0.0428     5.740     2.048     1.915 -0.4562  0.0028  0.8899
 
              Baa    -0.0186    -9.909    -3.536    -3.305  0.7132 -0.1435  0.6861
    75 H(1)   Bbb    -0.0179    -9.550    -3.408    -3.185  0.0573  0.9875  0.1470
              Bcc     0.0365    19.459     6.944     6.491 -0.6986 -0.0655  0.7125
 
              Baa    -0.0040    -0.542    -0.193    -0.181  0.0718  0.9973  0.0143
    76 C(13)  Bbb    -0.0039    -0.523    -0.186    -0.174  0.9302 -0.0721  0.3599
              Bcc     0.0079     1.065     0.380     0.355 -0.3599  0.0125  0.9329
 
              Baa    -0.0032    -1.727    -0.616    -0.576  0.1230  0.9917  0.0382
    77 H(1)   Bbb    -0.0031    -1.659    -0.592    -0.553  0.8480 -0.1251  0.5151
              Bcc     0.0063     3.386     1.208     1.129 -0.5156  0.0310  0.8563
 
              Baa    -0.0027    -1.414    -0.505    -0.472  0.9004  0.2905  0.3239
    78 H(1)   Bbb    -0.0026    -1.368    -0.488    -0.456 -0.3231  0.9450  0.0508
              Bcc     0.0052     2.782     0.993     0.928 -0.2913 -0.1504  0.9447
 
              Baa    -0.0026    -1.410    -0.503    -0.470  0.7992 -0.5197  0.3021
    79 H(1)   Bbb    -0.0026    -1.363    -0.486    -0.455  0.5423  0.8401  0.0105
              Bcc     0.0052     2.773     0.989     0.925 -0.2592  0.1554  0.9532
 
              Baa    -0.0113    -0.438    -0.156    -0.146  0.9836 -0.1694 -0.0614
    80 N(14)  Bbb    -0.0041    -0.157    -0.056    -0.053  0.1725  0.9837  0.0506
              Bcc     0.0154     0.595     0.212     0.198  0.0519 -0.0603  0.9968
 
              Baa    -0.0049    -2.633    -0.939    -0.878 -0.3042  0.9463  0.1095
    81 H(1)   Bbb    -0.0049    -2.594    -0.926    -0.865  0.9304  0.3198 -0.1790
              Bcc     0.0098     5.227     1.865     1.743  0.2044 -0.0474  0.9777
 
              Baa    -0.0085    -1.143    -0.408    -0.381  0.9769  0.0128  0.2134
    82 C(13)  Bbb    -0.0080    -1.071    -0.382    -0.357 -0.0138  0.9999  0.0032
              Bcc     0.0165     2.214     0.790     0.739 -0.2133 -0.0061  0.9770
 
              Baa    -0.0206    -2.768    -0.988    -0.923  0.9315  0.0665 -0.3576
    83 C(13)  Bbb    -0.0190    -2.553    -0.911    -0.852 -0.0372  0.9954  0.0882
              Bcc     0.0397     5.321     1.899     1.775  0.3619 -0.0689  0.9297
 
              Baa    -0.0180    -9.610    -3.429    -3.205  0.2860  0.9507 -0.1195
    84 H(1)   Bbb    -0.0173    -9.241    -3.297    -3.082  0.7519 -0.3000 -0.5870
              Bcc     0.0353    18.850     6.726     6.288  0.5940 -0.0780  0.8007
 
              Baa    -0.1210    -4.669    -1.666    -1.557  0.9972 -0.0364  0.0658
    85 N(14)  Bbb    -0.1095    -4.225    -1.507    -1.409  0.0352  0.9992  0.0192
              Bcc     0.2306     8.893     3.173     2.966 -0.0665 -0.0169  0.9976
 
              Baa    -0.0232    -3.118    -1.113    -1.040  0.0831  0.9965  0.0107
    86 C(13)  Bbb    -0.0192    -2.570    -0.917    -0.857  0.8681 -0.0777  0.4903
              Bcc     0.0424     5.688     2.030     1.897 -0.4894  0.0314  0.8715
 
              Baa    -0.0182    -9.734    -3.473    -3.247  0.5474  0.6796  0.4884
    87 H(1)   Bbb    -0.0181    -9.644    -3.441    -3.217 -0.4537  0.7314 -0.5092
              Bcc     0.0363    19.378     6.915     6.464 -0.7032  0.0572  0.7087
 

 ---------------------------------------------------------------------------------

 Unable to Open any file for archive entry.
 1\1\GINC-BGN1015\SP\UAPFD\Gen\C38H40Fe1N8(5)\BEBJONES\18-Nov-2024\0\\#
  apfd/gen scf=maxcycle=999 geom=check\\4g7q_II_Q\\0,5\Fe,0,2.575237422
 3,-4.4566299732,35.2105464652\N,0,0.8216257221,-5.3483700565,35.548676
 4706\N,0,3.4424089825,-5.9870893391,36.2434580836\N,0,4.4097647543,-3.
 8381332996,34.7077799057\N,0,1.7499506872,-3.0137114494,34.2156458233\
 C,0,-0.3811740659,-4.7784208032,35.2576401149\C,0,-1.4560510688,-5.702
 8515211,35.5507607462\C,0,-0.8739735765,-6.7977979029,36.1113471881\C,
 0,0.5403337478,-6.5026867875,36.2019829095\C,0,2.8515074442,-7.1105355
 485,36.7365102307\C,0,3.7872604324,-7.8944466377,37.4998388457\C,0,5.0
 009463895,-7.2718595661,37.3756864027\C,0,4.7683973761,-6.1218309988,3
 6.5207003879\C,0,5.6124185031,-4.2449906808,35.1882434428\C,0,6.688274
 1504,-3.5189558474,34.5653635455\C,0,6.0976500908,-2.5996200457,33.738
 1481999\C,0,4.6654745759,-2.7456040217,33.9349091987\C,0,2.3501346933,
 -2.1264999217,33.3836484522\C,0,1.4104302284,-1.1006574037,32.98596123
 52\C,0,0.1994285256,-1.4768238842,33.4829107391\C,0,0.427409838,-2.701
 3021427,34.2170015336\C,0,-0.5736428237,-3.5086622281,34.7319826239\H,
 0,-1.59288045,-3.1642281921,34.631031992\C,0,1.48482331,-7.3479152721,
 36.7468958438\H,0,1.1344118518,-8.2518577509,37.2218096695\C,0,5.78351
 94287,-5.2971255564,36.0721131228\H,0,6.7889453875,-5.5143914899,36.40
 02091589\C,0,3.723763654,-2.0398490652,33.2043377704\H,0,4.0840081069,
 -1.2592896978,32.5504819941\C,0,-1.5040387006,-8.0527067113,36.6112356
 249\H,0,-2.5688594971,-8.0674207801,36.3906696936\H,0,-1.3768863331,-8
 .1415012481,37.6907096853\H,0,-1.0435735429,-8.9242101065,36.145332791
 7\C,0,-2.8941448203,-5.4472904525,35.250442084\H,0,-3.0318529031,-5.20
 92972094,34.1953356469\H,0,-3.2640271749,-4.6048661119,35.8361985063\H
 ,0,-3.5001603252,-6.3183465591,35.4879941908\C,0,3.4706619838,-9.17838
 63421,38.1848371064\H,0,2.7687753119,-9.7657702512,37.5944511231\H,0,3
 .0199712925,-8.997035035,39.1621571715\H,0,4.3787636917,-9.7608701139,
 38.3286120379\C,0,6.2817766935,-7.6556702895,37.9240043622\H,0,7.14603
 63955,-7.4247830802,37.3116816331\C,0,6.4721155379,-8.2462492336,39.09
 99858018\H,0,5.6594032785,-8.4578459062,39.7726481317\H,0,7.4576053376
 ,-8.5166329323,39.4417938255\C,0,8.1371788887,-3.8188600581,34.7385835
 745\H,0,8.2988855181,-4.8886418129,34.8624189935\H,0,8.5386632389,-3.3
 131412401,35.6189722377\H,0,8.6946940741,-3.4816959726,33.8668993184\C
 ,0,6.7196482013,-1.6310149372,32.8626051909\H,0,6.166222947,-1.3937409
 398,31.9611247785\C,0,7.8844881696,-1.0265619907,33.0749483689\H,0,8.4
 577170347,-1.1824160805,33.9719688573\H,0,8.294082096,-0.3276956658,32
 .3641254383\C,0,1.7586789651,0.0756434219,32.139119577\H,0,2.167869962
 5,-0.2476411987,31.1814994206\H,0,2.5089895069,0.6926367517,32.6342156
 039\H,0,0.8818335834,0.6894840225,31.9472515087\C,0,-1.1244761846,-0.8
 012763,33.3618813658\H,0,-1.0211377904,0.1710215878,32.8864752802\H,0,
 -1.5747825231,-0.6582423087,34.3439690876\H,0,-1.8088921312,-1.4031706
 444,32.7620770228\C,0,1.0762492592,-1.2359164648,39.5429889809\H,0,1.5
 105466085,-0.2383229054,39.6111451751\H,0,1.0884292475,-1.6813531308,4
 0.5378255022\H,0,0.0454100551,-1.1448265946,39.2151198967\N,0,3.164504
 4246,-2.3575609723,38.7355679107\H,0,3.749243931,-2.0397395244,39.4908
 511947\C,0,1.8323870058,-2.075525199,38.5793182181\C,0,3.5427448179,-3
 .1347473024,37.6958309398\H,0,4.5353859182,-3.5116518726,37.5598302746
 \N,0,2.5334393702,-3.3619735236,36.8915852776\C,0,1.4624184203,-2.7105
 170992,37.4287420044\H,0,0.5038762643,-2.7425837151,36.954167633\C,0,4
 .0673607341,-7.8802679183,31.0242246122\H,0,5.0261476377,-8.123214906,
 31.4714463013\H,0,4.2420003118,-7.4364506451,30.0439757616\H,0,3.50280
 35811,-8.8023532614,30.8852198238\N,0,2.0848648164,-6.4611250679,31.59
 76403946\H,0,1.5550879849,-6.6893884791,30.772492507\C,0,3.3324799407,
 -6.9385011453,31.9062928423\C,0,1.7055498472,-5.6339236222,32.59714449
 08\H,0,0.7686909973,-5.1166422412,32.6248567832\N,0,2.6339911875,-5.55
 87232776,33.5170389593\C,0,3.6518199363,-6.3641347273,33.1029197025\H,
 0,4.539934602,-6.4762235916,33.6889276759\\Version=ES64L-G16RevC.02\St
 ate=5-A\HF=-3172.3446733\S2=6.275201\S2-1=0.\S2A=6.002752\RMSD=3.234e-
 09\Dipole=-0.6312567,0.2351423,-0.150496\Quadrupole=-7.7369358,-6.1521
 529,13.8890886,1.5672658,5.2313201,16.1321638\PG=C01 [X(C38H40Fe1N8)]\
 \@
 The archive entry for this job was punched.


 Cherishing children is the mark of a civilized society.
 -- Joan Ganz Cooney
 Job cpu time:       0 days  4 hours 28 minutes 48.8 seconds.
 Elapsed time:       0 days  0 hours  4 minutes 34.0 seconds.
 File lengths (MBytes):  RWF=    533 Int=      0 D2E=      0 Chk=    233 Scr=      1
 Normal termination of Gaussian 16 at Mon Nov 18 19:06:50 2024.
