 Entering Gaussian System, Link 0=g16
 Input=4hpc12re.com
 Output=4hpc12re.log
 Initial command:
 /sw/chem/gaussian/g16_C02/a100/g16/l1.exe "/local/bebjones_8087802/Gau-1529236.inp" -scrdir="/local/bebjones_8087802/"
 Entering Link 1 = /sw/chem/gaussian/g16_C02/a100/g16/l1.exe PID=   1529237.
  
 Copyright (c) 1988-2021, Gaussian, Inc.  All Rights Reserved.
  
 This is part of the Gaussian(R) 16 program.  It is based on
 the Gaussian(R) 09 system (copyright 2009, Gaussian, Inc.),
 the Gaussian(R) 03 system (copyright 2003, Gaussian, Inc.),
 the Gaussian(R) 98 system (copyright 1998, Gaussian, Inc.),
 the Gaussian(R) 94 system (copyright 1995, Gaussian, Inc.),
 the Gaussian 92(TM) system (copyright 1992, Gaussian, Inc.),
 the Gaussian 90(TM) system (copyright 1990, Gaussian, Inc.),
 the Gaussian 88(TM) system (copyright 1988, Gaussian, Inc.),
 the Gaussian 86(TM) system (copyright 1986, Carnegie Mellon
 University), and the Gaussian 82(TM) system (copyright 1983,
 Carnegie Mellon University). Gaussian is a federally registered
 trademark of Gaussian, Inc.
  
 This software contains proprietary and confidential information,
 including trade secrets, belonging to Gaussian, Inc.
  
 This software is provided under written license and may be
 used, copied, transmitted, or stored only in accord with that
 written license.
  
 The following legend is applicable only to US Government
 contracts under FAR:
  
                    RESTRICTED RIGHTS LEGEND
  
 Use, reproduction and disclosure by the US Government is
 subject to restrictions as set forth in subparagraphs (a)
 and (c) of the Commercial Computer Software - Restricted
 Rights clause in FAR 52.227-19.
  
 Gaussian, Inc.
 340 Quinnipiac St., Bldg. 40, Wallingford CT 06492
  
  
 ---------------------------------------------------------------
 Warning -- This program may not be used in any manner that
 competes with the business of Gaussian, Inc. or will provide
 assistance to any competitor of Gaussian, Inc.  The licensee
 of this program is prohibited from giving any competitor of
 Gaussian, Inc. access to this program.  By using this program,
 the user acknowledges that Gaussian, Inc. is engaged in the
 business of creating and licensing software in the field of
 computational chemistry and represents and warrants to the
 licensee that it is not a competitor of Gaussian, Inc. and that
 it will not use this program in any manner prohibited above.
 ---------------------------------------------------------------
  

 Cite this work as:
 Gaussian 16, Revision C.02,
 M. J. Frisch, G. W. Trucks, H. B. Schlegel, G. E. Scuseria, 
 M. A. Robb, J. R. Cheeseman, G. Scalmani, V. Barone, 
 G. A. Petersson, H. Nakatsuji, X. Li, M. Caricato, A. V. Marenich, 
 J. Bloino, B. G. Janesko, R. Gomperts, B. Mennucci, H. P. Hratchian, 
 J. V. Ortiz, A. F. Izmaylov, J. L. Sonnenberg, D. Williams-Young, 
 F. Ding, F. Lipparini, F. Egidi, J. Goings, B. Peng, A. Petrone, 
 T. Henderson, D. Ranasinghe, V. G. Zakrzewski, J. Gao, N. Rega, 
 G. Zheng, W. Liang, M. Hada, M. Ehara, K. Toyota, R. Fukuda, 
 J. Hasegawa, M. Ishida, T. Nakajima, Y. Honda, O. Kitao, H. Nakai, 
 T. Vreven, K. Throssell, J. A. Montgomery, Jr., J. E. Peralta, 
 F. Ogliaro, M. J. Bearpark, J. J. Heyd, E. N. Brothers, K. N. Kudin, 
 V. N. Staroverov, T. A. Keith, R. Kobayashi, J. Normand, 
 K. Raghavachari, A. P. Rendell, J. C. Burant, S. S. Iyengar, 
 J. Tomasi, M. Cossi, J. M. Millam, M. Klene, C. Adamo, R. Cammi, 
 J. W. Ochterski, R. L. Martin, K. Morokuma, O. Farkas, 
 J. B. Foresman, and D. J. Fox, Gaussian, Inc., Wallingford CT, 2019.
 
 ******************************************
 Gaussian 16:  ES64L-G16RevC.02  7-Dec-2021
                18-Nov-2024 
 ******************************************
 %mem=16GB
 %CPU=0-71
 SetSPE:  set environment variable "OMP_PROC_BIND" = "true"
 SetSPE:  set environment variable "OMP_PLACES" = "{0},{1},{2},{3},{4},{5},{6},{7},{8},{9},{10},{11},{12},{13},{14},{15},{16},{17},{18},{19},{20},{21},{22},{23},{24},{25},{26},{27},{28},{29},{30},{31},{32},{33},{34},{35},{36},{37},{38},{39},{40},{41},{42},{43},{44},{45},{46},{47},{48},{49},{50},{51},{52},{53},{54},{55},{56},{57},{58},{59},{60},{61},{62},{63},{64},{65},{66},{67},{68},{69},{70},{71}"
 Will use up to   72 processors via shared memory.
 %gpucpu=0,1,2,3=0,1,2,3
 Will use    4 GPUs:
 Thread  CPU   GPU
      0    0     0
      1    1     1
      2    2     2
      3    3     3
      4    4    -1
      5    5    -1
      6    6    -1
      7    7    -1
      8    8    -1
      9    9    -1
     10   10    -1
     11   11    -1
     12   12    -1
     13   13    -1
     14   14    -1
     15   15    -1
     16   16    -1
     17   17    -1
     18   18    -1
     19   19    -1
     20   20    -1
     21   21    -1
     22   22    -1
     23   23    -1
     24   24    -1
     25   25    -1
     26   26    -1
     27   27    -1
     28   28    -1
     29   29    -1
     30   30    -1
     31   31    -1
     32   32    -1
     33   33    -1
     34   34    -1
     35   35    -1
     36   36    -1
     37   37    -1
     38   38    -1
     39   39    -1
     40   40    -1
     41   41    -1
     42   42    -1
     43   43    -1
     44   44    -1
     45   45    -1
     46   46    -1
     47   47    -1
     48   48    -1
     49   49    -1
     50   50    -1
     51   51    -1
     52   52    -1
     53   53    -1
     54   54    -1
     55   55    -1
     56   56    -1
     57   57    -1
     58   58    -1
     59   59    -1
     60   60    -1
     61   61    -1
     62   62    -1
     63   63    -1
     64   64    -1
     65   65    -1
     66   66    -1
     67   67    -1
     68   68    -1
     69   69    -1
     70   70    -1
     71   71    -1
 SetGPE:  set environment variable "OMP_PROC_BIND" = "true"
 SetGPE:  set environment variable "OMP_PLACES" = "{0},{1},{2},{3},{4},{5},{6},{7},{8},{9},{10},{11},{12},{13},{14},{15},{16},{17},{18},{19},{20},{21},{22},{23},{24},{25},{26},{27},{28},{29},{30},{31},{32},{33},{34},{35},{36},{37},{38},{39},{40},{41},{42},{43},{44},{45},{46},{47},{48},{49},{50},{51},{52},{53},{54},{55},{56},{57},{58},{59},{60},{61},{62},{63},{64},{65},{66},{67},{68},{69},{70},{71}"
 %oldchk=4hpc_II_S.chk
 %chk=4hpc_II_Sre.chk
 Properties for Device   0
 Minimum vector length:                              32
 Maximum vector length:                            1024
 Number of SMPs:                                    108
 Maximum number of threads per SMP:                2048
 Number of ASync Engines:                             5
 Memory:                                           9207742464
 Properties for Device   1
 Minimum vector length:                              32
 Maximum vector length:                            1024
 Number of SMPs:                                    108
 Maximum number of threads per SMP:                2048
 Number of ASync Engines:                             5
 Memory:                                           9207742464
 Properties for Device   2
 Minimum vector length:                              32
 Maximum vector length:                            1024
 Number of SMPs:                                    108
 Maximum number of threads per SMP:                2048
 Number of ASync Engines:                             5
 Memory:                                           9207742464
 Properties for Device   3
 Minimum vector length:                              32
 Maximum vector length:                            1024
 Number of SMPs:                                    108
 Maximum number of threads per SMP:                2048
 Number of ASync Engines:                             5
 Memory:                                           9207742464
   8286968217 words of memory will be used on each GPU.
 Copying data from "4hpc_II_S.chk" to current chk file "4hpc_II_Sre.chk"
 IOpt=  2 FromEx=T IUOpen= 4 IOptOp= 5 NList=   0 IFRang= 0 IUIn= 4 IUOut= 2.
 --------------------------------------
 # apfd/gen scf=maxcycle=999 geom=check
 --------------------------------------
 1/29=2,38=1,172=1/1;
 2/12=2,40=1/2;
 3/5=7,11=2,14=-4,25=1,30=1,74=-44/1,2,3;
 4//1;
 5/5=2,7=999,38=5/2;
 6/7=2,8=2,9=2,10=2,28=1/1;
 99/5=1,9=1/99;
 ----------
 4hpc_III_D
 ----------
 Structure from the checkpoint file:  "4hpc_II_Sre.chk"
 Charge =  1 Multiplicity = 2
 Z-Matrix found in chk file.
 Fe,0,15.008,24.942,-16.064
 N,0,16.628,26.011,-16.677
 N,0,16.258,23.554,-15.251
 N,0,13.408,23.899,-15.384
 N,0,13.799,26.35,-16.865
 C,0,16.612,27.228,-17.337
 C,0,17.959,27.575,-17.713
 C,0,18.759,26.594,-17.299
 C,0,17.946,25.596,-16.633
 C,0,17.641,23.521,-15.36
 C,0,18.125,22.376,-14.609
 C,0,17.059,21.759,-14.099
 C,0,15.871,22.482,-14.481
 C,0,13.438,22.738,-14.636
 C,0,12.076,22.282,-14.435
 C,0,11.26,23.13,-15.086
 C,0,12.085,24.161,-15.674
 C,0,12.404,26.294,-16.831
 C,0,11.865,27.536,-17.33
 C,0,13.066,28.382,-17.694
 C,0,14.215,27.576,-17.378
 C,0,15.504,27.988,-17.581
 H,0,15.658,28.996,-17.965
 C,0,18.403,24.425,-16.063
 H,0,19.462,24.196,-16.18
 C,0,14.577,22.143,-14.14
 H,0,14.446,21.337,-13.418
 C,0,11.635,25.245,-16.398
 H,0,10.574,25.27,-16.648
 C,0,20.29,26.531,-17.49
 H,0,20.681,27.552,-17.69
 H,0,20.534,25.876,-18.354
 H,0,20.767,26.136,-16.568
 C,0,18.377,28.849,-18.482
 H,0,18.6,29.662,-17.759
 H,0,17.549,29.175,-19.147
 H,0,19.288,28.642,-19.084
 C,0,19.599,21.946,-14.445
 H,0,19.978,22.289,-13.458
 H,0,20.215,22.406,-15.247
 H,0,19.675,20.839,-14.495
 C,0,17.031,20.518,-13.189
 H,0,16.309,19.706,-13.359
 C,0,17.896,20.417,-12.172
 H,0,18.628,21.215,-11.981
 H,0,17.885,19.535,-11.515
 C,0,11.693,20.999,-13.653
 H,0,11.371,21.273,-12.626
 H,0,12.572,20.323,-13.586
 H,0,10.855,20.482,-14.168
 C,0,9.715,23.127,-15.204
 H,0,9.233,23.631,-16.054
 C,0,8.927,22.533,-14.31
 H,0,9.36,22.015,-13.441
 H,0,7.834,22.553,-14.429
 C,0,10.394,27.951,-17.473
 H,0,9.86,27.76,-16.518
 H,0,9.913,27.357,-18.28
 H,0,10.331,29.035,-17.71
 C,0,13.054,29.813,-18.261
 H,0,13.256,30.538,-17.443
 H,0,12.058,30.034,-18.701
 H,0,13.843,29.916,-19.036
 C,0,16.582,28.169,-11.782
 H,0,17.65,27.869,-11.844
 H,0,16.226,28.018,-10.741
 H,0,16.492,29.24,-12.063
 N,0,14.401,27.446,-12.85
 H,0,13.832,28.062,-12.305
 C,0,15.77,27.328,-12.722
 C,0,13.975,26.624,-13.796
 H,0,12.933,26.509,-14.093
 N,0,15.021,25.991,-14.295
 C,0,16.155,26.421,-13.649
 H,0,17.133,26.038,-13.912
 C,0,16.357,24.064,-19.145
 H,0,17.315,23.767,-18.667
 H,0,16.431,25.137,-19.422
 H,0,16.232,23.458,-20.068
 S,0,14.943,23.799,-18.02
 H,0,15.639,23.123,-17.118
 Recover connectivity data from disk.
 Stoichiometry    C35H38FeN6S(1+,2)
 Framework group  C1[X(C35H38FeN6S)]
 Deg. of freedom   237
 Full point group                 C1      NOp   1
 Largest Abelian subgroup         C1      NOp   1
 Largest concise Abelian subgroup C1      NOp   1
                         Standard orientation:                         
 ---------------------------------------------------------------------
 Center     Atomic      Atomic             Coordinates (Angstroms)
 Number     Number       Type             X           Y           Z
 ---------------------------------------------------------------------
      1         26           0       -0.011674   -0.104750   -0.336867
      2          7           0       -1.988354   -0.589904   -0.319719
      3          7           0       -0.517311    1.868325   -0.300573
      4          7           0        1.951712    0.397672   -0.282670
      5          7           0        0.452042   -2.072102   -0.352306
      6          6           0       -2.524616   -1.866060   -0.291542
      7          6           0       -3.956107   -1.776046   -0.429103
      8          6           0       -4.270234   -0.486916   -0.544109
      9          6           0       -3.046888    0.286645   -0.469561
     10          6           0       -1.797160    2.396523   -0.393587
     11          6           0       -1.695764    3.842353   -0.300970
     12          6           0       -0.402350    4.140374   -0.176841
     13          6           0        0.362059    2.917438   -0.166694
     14          6           0        2.474332    1.674148   -0.206492
     15          6           0        3.920371    1.586722   -0.275118
     16          6           0        4.245268    0.291124   -0.432060
     17          6           0        3.015866   -0.469011   -0.422347
     18          6           0        1.757623   -2.567592   -0.368644
     19          6           0        1.725936   -3.999699   -0.195009
     20          6           0        0.261070   -4.361517   -0.077236
     21          6           0       -0.453019   -3.117381   -0.186300
     22          6           0       -1.817548   -3.024736   -0.142127
     23          1           0       -2.381382   -3.942059    0.024742
     24          6           0       -2.949422    1.661208   -0.547448
     25          1           0       -3.867078    2.213534   -0.748581
     26          6           0        1.734959    2.826411   -0.054901
     27          1           0        2.279075    3.743176    0.172169
     28          6           0        2.909639   -1.840387   -0.521229
     29          1           0        3.822419   -2.395219   -0.739951
     30          6           0       -5.692627    0.087379   -0.721292
     31          1           0       -6.440096   -0.663303   -0.385003
     32          1           0       -5.872768    0.320271   -1.792911
     33          1           0       -5.804513    1.007418   -0.109208
     34          6           0       -4.932428   -2.973915   -0.461799
     35          1           0       -5.263612   -3.210529    0.571525
     36          1           0       -4.421831   -3.863107   -0.889249
     37          1           0       -5.822415   -2.715992   -1.075454
     38          6           0       -2.867389    4.846929   -0.351915
     39          1           0       -3.126995    5.166919    0.680398
     40          1           0       -3.755214    4.364090   -0.813317
     41          1           0       -2.570837    5.740066   -0.941906
     42          6           0        0.234284    5.530505   -0.000208
     43          1           0        1.137497    5.816010   -0.558975
     44          6           0       -0.313794    6.412609    0.844906
     45          1           0       -1.217060    6.151716    1.415129
     46          1           0        0.132635    7.408746    0.979464
     47          6           0        4.870348    2.811566   -0.235120
     48          1           0        5.285462    2.925540    0.788686
     49          1           0        4.308028    3.732355   -0.499791
     50          1           0        5.708035    2.659969   -0.949302
     51          6           0        5.638870   -0.374769   -0.556231
     52          1           0        5.733190   -1.351629   -1.051899
     53          6           0        6.749122    0.188067   -0.083399
     54          1           0        6.708448    1.165146    0.421217
     55          1           0        7.720123   -0.316664   -0.191170
     56          6           0        2.904267   -4.981651   -0.133195
     57          1           0        3.657096   -4.612562    0.595286
     58          1           0        3.380155   -5.060665   -1.134561
     59          1           0        2.544093   -5.980140    0.196181
     60          6           0       -0.332380   -5.765452    0.137657
     61          1           0       -0.594660   -5.897375    1.209739
     62          1           0        0.414693   -6.536501   -0.148388
     63          1           0       -1.251820   -5.881752   -0.474601
     64          6           0       -1.665139   -0.135205    5.000891
     65          1           0       -2.555487    0.502195    4.812553
     66          1           0       -1.071342    0.311414    5.826212
     67          1           0       -2.005252   -1.153815    5.285248
     68          7           0        0.359724   -0.905307    3.686743
     69          1           0        0.785059   -1.379737    4.457618
     70          6           0       -0.829211   -0.208242    3.757462
     71          6           0        0.833909   -0.842513    2.452530
     72          1           0        1.767146   -1.298926    2.123966
     73          7           0       -0.013600   -0.143862    1.719440
     74          6           0       -1.066006    0.254041    2.508292
     75          1           0       -1.887256    0.831687    2.103056
     76          6           0       -1.589245   -0.249357   -3.430991
     77          1           0       -2.267727    0.584411   -3.150009
     78          1           0       -2.079627   -1.202458   -3.140031
     79          1           0       -1.459852   -0.229107   -4.534457
     80         16           0        0.031143   -0.095173   -2.602851
     81          1           0       -0.190153    1.127829   -2.144277
 ---------------------------------------------------------------------
 Rotational constants (GHZ):           0.0878599           0.0853829           0.0576146
 General basis read from cards:  (5D, 7F)
 There are   746 symmetry adapted cartesian basis functions of A   symmetry.
 There are   701 symmetry adapted basis functions of A   symmetry.
   701 basis functions,  1438 primitive gaussians,   746 cartesian basis functions
   166 alpha electrons      165 beta electrons
       nuclear repulsion energy      6510.7833661636 Hartrees.
 NAtoms=   81 NActive=   81 NUniq=   81 SFac= 1.00D+00 NAtFMM=   60 NAOKFM=T Big=T
 Integral buffers will be    131072 words long.
 Raffenetti 2 integral format.
 Two-electron integral symmetry is turned on.
 R6APFD:  NTU= -4 IXU= 1 FactS= 1.050
 Nuclear repulsion after empirical dispersion term =     6510.6199999237 Hartrees.
 One-electron integrals computed using PRISM.
 NBasis=   701 RedAO= T EigKep=  2.86D-04  NBF=   701
 NBsUse=   701 1.00D-06 EigRej= -1.00D+00 NBFU=   701
 ExpMin= 4.20D-02 ExpMax= 3.01D+05 ExpMxC= 3.30D+03 IAcc=3 IRadAn=         5 AccDes= 0.00D+00
 Harris functional with IExCor= 3731 and IRadAn=       5 diagonalized for initial guess.
 HarFok:  IExCor= 3731 AccDes= 0.00D+00 IRadAn=         5 IDoV= 1 UseB2=F ITyADJ=14
 ICtDFT=  3500011 ScaDFX=  1.000000  1.000000  1.000000  1.000000
 FoFCou: FMM=F IPFlag=           0 FMFlag=      100000 FMFlg1=        2001
         NFxFlg=           0 DoJE=T BraDBF=F KetDBF=T FulRan=T
         wScrn=  0.000000 ICntrl=       500 IOpCl=  0 I1Cent=   200000004 NGrid=           0
         NMat0=    1 NMatS0=      1 NMatT0=    0 NMatD0=    1 NMtDS0=    0 NMtDT0=    0
 Petite list used in FoFCou.
 Initial guess <Sx>= 0.0000 <Sy>= 0.0000 <Sz>= 0.5000 <S**2>= 0.7500 S= 0.5000
 Requested convergence on RMS density matrix=1.00D-08 within 999 cycles.
 Requested convergence on MAX density matrix=1.00D-06.
 Requested convergence on             energy=1.00D-06.
 No special actions if energy rises.
 EnCoef did   100 forward-backward iterations
 EnCoef did   100 forward-backward iterations
 EnCoef did   100 forward-backward iterations
 EnCoef did     3 forward-backward iterations
 EnCoef did     5 forward-backward iterations
 EnCoef did     2 forward-backward iterations
 EnCoef did     7 forward-backward iterations
 Restarting incremental Fock formation.
 Restarting incremental Fock formation.
 Restarting incremental Fock formation.
 Restarting incremental Fock formation.
 SCF Done:  E(UAPFD) =  -3345.35764789     A.U. after   82 cycles
            NFock= 82  Conv=0.20D-08     -V/T= 2.0042
 <Sx>= 0.0000 <Sy>= 0.0000 <Sz>= 0.5000 <S**2>= 0.8083 S= 0.5287
 <L.S>=  0.00000000000    
 Annihilation of the first spin contaminant:
 S**2 before annihilation     0.8083,   after     0.7511

 **********************************************************************

            Population analysis using the SCF Density.

 **********************************************************************

 Orbital symmetries:
 Alpha Orbitals:
       Occupied  (A) (A) (A) (A) (A) (A) (A) (A) (A) (A) (A) (A)
                 (A) (A) (A) (A) (A) (A) (A) (A) (A) (A) (A) (A)
                 (A) (A) (A) (A) (A) (A) (A) (A) (A) (A) (A) (A)
                 (A) (A) (A) (A) (A) (A) (A) (A) (A) (A) (A) (A)
                 (A) (A) (A) (A) (A) (A) (A) (A) (A) (A) (A) (A)
                 (A) (A) (A) (A) (A) (A) (A) (A) (A) (A) (A) (A)
                 (A) (A) (A) (A) (A) (A) (A) (A) (A) (A) (A) (A)
                 (A) (A) (A) (A) (A) (A) (A) (A) (A) (A) (A) (A)
                 (A) (A) (A) (A) (A) (A) (A) (A) (A) (A) (A) (A)
                 (A) (A) (A) (A) (A) (A) (A) (A) (A) (A) (A) (A)
                 (A) (A) (A) (A) (A) (A) (A) (A) (A) (A) (A) (A)
                 (A) (A) (A) (A) (A) (A) (A) (A) (A) (A) (A) (A)
                 (A) (A) (A) (A) (A) (A) (A) (A) (A) (A) (A) (A)
                 (A) (A) (A) (A) (A) (A) (A) (A) (A) (A)
       Virtual   (A) (A) (A) (A) (A) (A) (A) (A) (A) (A) (A) (A)
                 (A) (A) (A) (A) (A) (A) (A) (A) (A) (A) (A) (A)
                 (A) (A) (A) (A) (A) (A) (A) (A) (A) (A) (A) (A)
                 (A) (A) (A) (A) (A) (A) (A) (A) (A) (A) (A) (A)
                 (A) (A) (A) (A) (A) (A) (A) (A) (A) (A) (A) (A)
                 (A) (A) (A) (A) (A) (A) (A) (A) (A) (A) (A) (A)
                 (A) (A) (A) (A) (A) (A) (A) (A) (A) (A) (A) (A)
                 (A) (A) (A) (A) (A) (A) (A) (A) (A) (A) (A) (A)
                 (A) (A) (A) (A) (A) (A) (A) (A) (A) (A) (A) (A)
                 (A) (A) (A) (A) (A) (A) (A) (A) (A) (A) (A) (A)
                 (A) (A) (A) (A) (A) (A) (A) (A) (A) (A) (A) (A)
                 (A) (A) (A) (A) (A) (A) (A) (A) (A) (A) (A) (A)
                 (A) (A) (A) (A) (A) (A) (A) (A) (A) (A) (A) (A)
                 (A) (A) (A) (A) (A) (A) (A) (A) (A) (A) (A) (A)
                 (A) (A) (A) (A) (A) (A) (A) (A) (A) (A) (A) (A)
                 (A) (A) (A) (A) (A) (A) (A) (A) (A) (A) (A) (A)
                 (A) (A) (A) (A) (A) (A) (A) (A) (A) (A) (A) (A)
                 (A) (A) (A) (A) (A) (A) (A) (A) (A) (A) (A) (A)
                 (A) (A) (A) (A) (A) (A) (A) (A) (A) (A) (A) (A)
                 (A) (A) (A) (A) (A) (A) (A) (A) (A) (A) (A) (A)
                 (A) (A) (A) (A) (A) (A) (A) (A) (A) (A) (A) (A)
                 (A) (A) (A) (A) (A) (A) (A) (A) (A) (A) (A) (A)
                 (A) (A) (A) (A) (A) (A) (A) (A) (A) (A) (A) (A)
                 (A) (A) (A) (A) (A) (A) (A) (A) (A) (A) (A) (A)
                 (A) (A) (A) (A) (A) (A) (A) (A) (A) (A) (A) (A)
                 (A) (A) (A) (A) (A) (A) (A) (A) (A) (A) (A) (A)
                 (A) (A) (A) (A) (A) (A) (A) (A) (A) (A) (A) (A)
                 (A) (A) (A) (A) (A) (A) (A) (A) (A) (A) (A) (A)
                 (A) (A) (A) (A) (A) (A) (A) (A) (A) (A) (A) (A)
                 (A) (A) (A) (A) (A) (A) (A) (A) (A) (A) (A) (A)
                 (A) (A) (A) (A) (A) (A) (A) (A) (A) (A) (A) (A)
                 (A) (A) (A) (A) (A) (A) (A) (A) (A) (A) (A) (A)
                 (A) (A) (A) (A) (A) (A) (A) (A) (A) (A) (A) (A)
                 (A) (A) (A) (A) (A) (A) (A) (A) (A) (A) (A) (A)
                 (A) (A) (A) (A) (A) (A) (A) (A) (A) (A) (A) (A)
                 (A) (A) (A) (A) (A) (A) (A) (A) (A) (A) (A) (A)
                 (A) (A) (A) (A) (A) (A) (A) (A) (A) (A) (A) (A)
                 (A) (A) (A) (A) (A) (A) (A) (A) (A) (A) (A) (A)
                 (A) (A) (A) (A) (A) (A) (A) (A) (A) (A) (A) (A)
                 (A) (A) (A) (A) (A) (A) (A) (A) (A) (A) (A) (A)
                 (A) (A) (A) (A) (A) (A) (A) (A) (A) (A) (A) (A)
                 (A) (A) (A) (A) (A) (A) (A) (A) (A) (A) (A) (A)
                 (A) (A) (A) (A) (A) (A) (A) (A) (A) (A) (A) (A)
                 (A) (A) (A) (A) (A) (A) (A) (A) (A) (A) (A) (A)
                 (A) (A) (A) (A) (A) (A) (A)
 Beta  Orbitals:
       Occupied  (A) (A) (A) (A) (A) (A) (A) (A) (A) (A) (A) (A)
                 (A) (A) (A) (A) (A) (A) (A) (A) (A) (A) (A) (A)
                 (A) (A) (A) (A) (A) (A) (A) (A) (A) (A) (A) (A)
                 (A) (A) (A) (A) (A) (A) (A) (A) (A) (A) (A) (A)
                 (A) (A) (A) (A) (A) (A) (A) (A) (A) (A) (A) (A)
                 (A) (A) (A) (A) (A) (A) (A) (A) (A) (A) (A) (A)
                 (A) (A) (A) (A) (A) (A) (A) (A) (A) (A) (A) (A)
                 (A) (A) (A) (A) (A) (A) (A) (A) (A) (A) (A) (A)
                 (A) (A) (A) (A) (A) (A) (A) (A) (A) (A) (A) (A)
                 (A) (A) (A) (A) (A) (A) (A) (A) (A) (A) (A) (A)
                 (A) (A) (A) (A) (A) (A) (A) (A) (A) (A) (A) (A)
                 (A) (A) (A) (A) (A) (A) (A) (A) (A) (A) (A) (A)
                 (A) (A) (A) (A) (A) (A) (A) (A) (A) (A) (A) (A)
                 (A) (A) (A) (A) (A) (A) (A) (A) (A)
       Virtual   (A) (A) (A) (A) (A) (A) (A) (A) (A) (A) (A) (A)
                 (A) (A) (A) (A) (A) (A) (A) (A) (A) (A) (A) (A)
                 (A) (A) (A) (A) (A) (A) (A) (A) (A) (A) (A) (A)
                 (A) (A) (A) (A) (A) (A) (A) (A) (A) (A) (A) (A)
                 (A) (A) (A) (A) (A) (A) (A) (A) (A) (A) (A) (A)
                 (A) (A) (A) (A) (A) (A) (A) (A) (A) (A) (A) (A)
                 (A) (A) (A) (A) (A) (A) (A) (A) (A) (A) (A) (A)
                 (A) (A) (A) (A) (A) (A) (A) (A) (A) (A) (A) (A)
                 (A) (A) (A) (A) (A) (A) (A) (A) (A) (A) (A) (A)
                 (A) (A) (A) (A) (A) (A) (A) (A) (A) (A) (A) (A)
                 (A) (A) (A) (A) (A) (A) (A) (A) (A) (A) (A) (A)
                 (A) (A) (A) (A) (A) (A) (A) (A) (A) (A) (A) (A)
                 (A) (A) (A) (A) (A) (A) (A) (A) (A) (A) (A) (A)
                 (A) (A) (A) (A) (A) (A) (A) (A) (A) (A) (A) (A)
                 (A) (A) (A) (A) (A) (A) (A) (A) (A) (A) (A) (A)
                 (A) (A) (A) (A) (A) (A) (A) (A) (A) (A) (A) (A)
                 (A) (A) (A) (A) (A) (A) (A) (A) (A) (A) (A) (A)
                 (A) (A) (A) (A) (A) (A) (A) (A) (A) (A) (A) (A)
                 (A) (A) (A) (A) (A) (A) (A) (A) (A) (A) (A) (A)
                 (A) (A) (A) (A) (A) (A) (A) (A) (A) (A) (A) (A)
                 (A) (A) (A) (A) (A) (A) (A) (A) (A) (A) (A) (A)
                 (A) (A) (A) (A) (A) (A) (A) (A) (A) (A) (A) (A)
                 (A) (A) (A) (A) (A) (A) (A) (A) (A) (A) (A) (A)
                 (A) (A) (A) (A) (A) (A) (A) (A) (A) (A) (A) (A)
                 (A) (A) (A) (A) (A) (A) (A) (A) (A) (A) (A) (A)
                 (A) (A) (A) (A) (A) (A) (A) (A) (A) (A) (A) (A)
                 (A) (A) (A) (A) (A) (A) (A) (A) (A) (A) (A) (A)
                 (A) (A) (A) (A) (A) (A) (A) (A) (A) (A) (A) (A)
                 (A) (A) (A) (A) (A) (A) (A) (A) (A) (A) (A) (A)
                 (A) (A) (A) (A) (A) (A) (A) (A) (A) (A) (A) (A)
                 (A) (A) (A) (A) (A) (A) (A) (A) (A) (A) (A) (A)
                 (A) (A) (A) (A) (A) (A) (A) (A) (A) (A) (A) (A)
                 (A) (A) (A) (A) (A) (A) (A) (A) (A) (A) (A) (A)
                 (A) (A) (A) (A) (A) (A) (A) (A) (A) (A) (A) (A)
                 (A) (A) (A) (A) (A) (A) (A) (A) (A) (A) (A) (A)
                 (A) (A) (A) (A) (A) (A) (A) (A) (A) (A) (A) (A)
                 (A) (A) (A) (A) (A) (A) (A) (A) (A) (A) (A) (A)
                 (A) (A) (A) (A) (A) (A) (A) (A) (A) (A) (A) (A)
                 (A) (A) (A) (A) (A) (A) (A) (A) (A) (A) (A) (A)
                 (A) (A) (A) (A) (A) (A) (A) (A) (A) (A) (A) (A)
                 (A) (A) (A) (A) (A) (A) (A) (A) (A) (A) (A) (A)
                 (A) (A) (A) (A) (A) (A) (A) (A) (A) (A) (A) (A)
                 (A) (A) (A) (A) (A) (A) (A) (A) (A) (A) (A) (A)
                 (A) (A) (A) (A) (A) (A) (A) (A) (A) (A) (A) (A)
                 (A) (A) (A) (A) (A) (A) (A) (A)
 The electronic state is 2-A.
 Alpha  occ. eigenvalues -- -256.36797 -89.07042 -30.23727 -26.08227 -26.07781
 Alpha  occ. eigenvalues --  -26.06014 -14.53331 -14.48942 -14.47524 -14.47025
 Alpha  occ. eigenvalues --  -14.46915 -14.46662 -10.37554 -10.34645 -10.34176
 Alpha  occ. eigenvalues --  -10.33726 -10.33719 -10.33579 -10.33560 -10.33541
 Alpha  occ. eigenvalues --  -10.33379 -10.33319 -10.33128 -10.32329 -10.31749
 Alpha  occ. eigenvalues --  -10.31654 -10.30850 -10.30791 -10.30680 -10.30655
 Alpha  occ. eigenvalues --  -10.30558 -10.30461 -10.30443 -10.30436 -10.30422
 Alpha  occ. eigenvalues --  -10.30182 -10.30106 -10.30024 -10.29941 -10.29456
 Alpha  occ. eigenvalues --  -10.29285 -10.29269 -10.29193 -10.29188 -10.28984
 Alpha  occ. eigenvalues --  -10.28612 -10.28210  -8.10404  -6.04951  -6.04612
 Alpha  occ. eigenvalues --   -6.04208  -3.62575  -2.40742  -2.39478  -2.35773
 Alpha  occ. eigenvalues --   -1.16390  -1.07847  -1.06694  -1.06493  -1.04720
 Alpha  occ. eigenvalues --   -1.00963  -0.93399  -0.92006  -0.91064  -0.90954
 Alpha  occ. eigenvalues --   -0.90381  -0.90296  -0.90215  -0.89980  -0.88127
 Alpha  occ. eigenvalues --   -0.85668  -0.85331  -0.84665  -0.83608  -0.81688
 Alpha  occ. eigenvalues --   -0.81084  -0.80499  -0.79388  -0.78051  -0.77642
 Alpha  occ. eigenvalues --   -0.77394  -0.76687  -0.75268  -0.74800  -0.74566
 Alpha  occ. eigenvalues --   -0.71852  -0.69031  -0.68642  -0.68164  -0.67802
 Alpha  occ. eigenvalues --   -0.65977  -0.64773  -0.63621  -0.63235  -0.62537
 Alpha  occ. eigenvalues --   -0.61638  -0.60632  -0.60526  -0.58900  -0.58250
 Alpha  occ. eigenvalues --   -0.57985  -0.57646  -0.57342  -0.56684  -0.55667
 Alpha  occ. eigenvalues --   -0.55058  -0.54461  -0.54249  -0.53606  -0.53575
 Alpha  occ. eigenvalues --   -0.53048  -0.52782  -0.52557  -0.52431  -0.52282
 Alpha  occ. eigenvalues --   -0.52270  -0.52003  -0.51692  -0.51383  -0.51195
 Alpha  occ. eigenvalues --   -0.51036  -0.50349  -0.50172  -0.49942  -0.49929
 Alpha  occ. eigenvalues --   -0.49766  -0.49679  -0.49502  -0.49248  -0.48957
 Alpha  occ. eigenvalues --   -0.48773  -0.48528  -0.48043  -0.47423  -0.47254
 Alpha  occ. eigenvalues --   -0.47091  -0.46749  -0.46450  -0.46275  -0.45874
 Alpha  occ. eigenvalues --   -0.45572  -0.45412  -0.44877  -0.44561  -0.44443
 Alpha  occ. eigenvalues --   -0.43204  -0.42826  -0.42697  -0.42458  -0.41808
 Alpha  occ. eigenvalues --   -0.40736  -0.40256  -0.39650  -0.39272  -0.38724
 Alpha  occ. eigenvalues --   -0.38641  -0.38199  -0.36886  -0.36673  -0.34267
 Alpha  occ. eigenvalues --   -0.33127  -0.32834  -0.31876  -0.31072  -0.29187
 Alpha  occ. eigenvalues --   -0.28964
 Alpha virt. eigenvalues --   -0.17786  -0.17489  -0.17231  -0.14254  -0.11535
 Alpha virt. eigenvalues --   -0.07966  -0.07763  -0.07346  -0.06518  -0.04905
 Alpha virt. eigenvalues --   -0.03901  -0.02724  -0.02285  -0.01465  -0.00831
 Alpha virt. eigenvalues --    0.00259   0.00420   0.01223   0.01836   0.02209
 Alpha virt. eigenvalues --    0.02390   0.02975   0.03227   0.03608   0.03867
 Alpha virt. eigenvalues --    0.04156   0.04394   0.04573   0.05139   0.05400
 Alpha virt. eigenvalues --    0.05895   0.05990   0.06283   0.06503   0.06888
 Alpha virt. eigenvalues --    0.07211   0.07308   0.07511   0.07811   0.08050
 Alpha virt. eigenvalues --    0.08366   0.08496   0.08759   0.08808   0.09215
 Alpha virt. eigenvalues --    0.09304   0.09471   0.09744   0.10004   0.10685
 Alpha virt. eigenvalues --    0.10868   0.11426   0.11486   0.11989   0.12285
 Alpha virt. eigenvalues --    0.12796   0.12928   0.13599   0.13717   0.14006
 Alpha virt. eigenvalues --    0.14239   0.14470   0.14486   0.14841   0.15059
 Alpha virt. eigenvalues --    0.15516   0.16035   0.16304   0.17097   0.17179
 Alpha virt. eigenvalues --    0.18723   0.19890   0.20589   0.20792   0.21476
 Alpha virt. eigenvalues --    0.21584   0.21924   0.22993   0.23354   0.24295
 Alpha virt. eigenvalues --    0.24731   0.25214   0.25829   0.26116   0.26413
 Alpha virt. eigenvalues --    0.27399   0.27790   0.28632   0.29165   0.30177
 Alpha virt. eigenvalues --    0.31593   0.32597   0.32862   0.33181   0.33776
 Alpha virt. eigenvalues --    0.34636   0.35042   0.35681   0.36309   0.36628
 Alpha virt. eigenvalues --    0.37822   0.37984   0.38776   0.38980   0.39221
 Alpha virt. eigenvalues --    0.39413   0.39886   0.40479   0.41045   0.41259
 Alpha virt. eigenvalues --    0.42011   0.42490   0.42870   0.43269   0.43964
 Alpha virt. eigenvalues --    0.44014   0.44184   0.44757   0.45419   0.45485
 Alpha virt. eigenvalues --    0.45772   0.46075   0.46456   0.46755   0.47370
 Alpha virt. eigenvalues --    0.47901   0.48083   0.48584   0.48951   0.49288
 Alpha virt. eigenvalues --    0.49614   0.49766   0.50415   0.50614   0.50854
 Alpha virt. eigenvalues --    0.51175   0.51352   0.51666   0.52736   0.52974
 Alpha virt. eigenvalues --    0.53222   0.53783   0.53938   0.54497   0.54824
 Alpha virt. eigenvalues --    0.55205   0.55643   0.56014   0.56438   0.57038
 Alpha virt. eigenvalues --    0.57236   0.57445   0.58110   0.58204   0.58964
 Alpha virt. eigenvalues --    0.59156   0.59498   0.60030   0.60406   0.60667
 Alpha virt. eigenvalues --    0.61300   0.61771   0.62582   0.62832   0.63266
 Alpha virt. eigenvalues --    0.63984   0.64290   0.64416   0.65257   0.65303
 Alpha virt. eigenvalues --    0.65752   0.66389   0.66596   0.66772   0.67391
 Alpha virt. eigenvalues --    0.67926   0.68097   0.68480   0.68850   0.69030
 Alpha virt. eigenvalues --    0.69148   0.69431   0.69905   0.70389   0.70518
 Alpha virt. eigenvalues --    0.71357   0.71767   0.72283   0.72999   0.73612
 Alpha virt. eigenvalues --    0.74002   0.75082   0.75293   0.75333   0.76195
 Alpha virt. eigenvalues --    0.76610   0.76691   0.77223   0.77516   0.78177
 Alpha virt. eigenvalues --    0.78264   0.78491   0.78766   0.78896   0.79391
 Alpha virt. eigenvalues --    0.79670   0.80090   0.80279   0.80692   0.80899
 Alpha virt. eigenvalues --    0.81218   0.81583   0.82108   0.82336   0.82547
 Alpha virt. eigenvalues --    0.83043   0.83107   0.83534   0.83785   0.84268
 Alpha virt. eigenvalues --    0.84736   0.85019   0.85270   0.85727   0.86068
 Alpha virt. eigenvalues --    0.86693   0.87441   0.87647   0.87852   0.87894
 Alpha virt. eigenvalues --    0.88402   0.88954   0.89421   0.89454   0.89783
 Alpha virt. eigenvalues --    0.90834   0.91248   0.91744   0.92307   0.92388
 Alpha virt. eigenvalues --    0.92624   0.92762   0.92998   0.93501   0.93824
 Alpha virt. eigenvalues --    0.94637   0.95436   0.95845   0.96722   0.97151
 Alpha virt. eigenvalues --    0.97595   0.98167   0.98470   0.99283   1.00188
 Alpha virt. eigenvalues --    1.00666   1.01650   1.02808   1.02953   1.03963
 Alpha virt. eigenvalues --    1.04878   1.06125   1.06331   1.07124   1.07507
 Alpha virt. eigenvalues --    1.08166   1.08361   1.08759   1.09315   1.10234
 Alpha virt. eigenvalues --    1.10622   1.11697   1.12099   1.12234   1.13221
 Alpha virt. eigenvalues --    1.13937   1.14315   1.14752   1.15462   1.15984
 Alpha virt. eigenvalues --    1.17145   1.17923   1.19037   1.19363   1.19600
 Alpha virt. eigenvalues --    1.20316   1.20981   1.21441   1.22879   1.23638
 Alpha virt. eigenvalues --    1.24006   1.24334   1.24673   1.26021   1.26196
 Alpha virt. eigenvalues --    1.26846   1.27171   1.27479   1.28063   1.28477
 Alpha virt. eigenvalues --    1.28666   1.29199   1.29871   1.30486   1.31121
 Alpha virt. eigenvalues --    1.31636   1.33128   1.33688   1.34427   1.35429
 Alpha virt. eigenvalues --    1.36255   1.36428   1.36746   1.37806   1.38028
 Alpha virt. eigenvalues --    1.38367   1.39462   1.40641   1.41754   1.42253
 Alpha virt. eigenvalues --    1.42368   1.42959   1.44023   1.44972   1.45399
 Alpha virt. eigenvalues --    1.46156   1.47007   1.48017   1.48614   1.50167
 Alpha virt. eigenvalues --    1.50557   1.50818   1.51890   1.52459   1.53529
 Alpha virt. eigenvalues --    1.54503   1.55069   1.57170   1.57901   1.59588
 Alpha virt. eigenvalues --    1.60067   1.60490   1.61210   1.62223   1.63363
 Alpha virt. eigenvalues --    1.64173   1.64906   1.65524   1.66893   1.68295
 Alpha virt. eigenvalues --    1.68885   1.69732   1.70771   1.71229   1.71797
 Alpha virt. eigenvalues --    1.72014   1.72579   1.72985   1.73818   1.74073
 Alpha virt. eigenvalues --    1.74605   1.75046   1.75631   1.76326   1.76640
 Alpha virt. eigenvalues --    1.77038   1.77230   1.78237   1.78643   1.79420
 Alpha virt. eigenvalues --    1.79738   1.80486   1.81088   1.81801   1.82097
 Alpha virt. eigenvalues --    1.82987   1.83891   1.83974   1.84230   1.84725
 Alpha virt. eigenvalues --    1.85285   1.85751   1.86437   1.88104   1.88425
 Alpha virt. eigenvalues --    1.89356   1.89759   1.90201   1.90764   1.91801
 Alpha virt. eigenvalues --    1.92539   1.92827   1.93636   1.94327   1.94793
 Alpha virt. eigenvalues --    1.95687   1.97501   1.98056   1.98333   1.99136
 Alpha virt. eigenvalues --    2.00518   2.01062   2.01343   2.01995   2.03400
 Alpha virt. eigenvalues --    2.03918   2.04223   2.04555   2.05011   2.05453
 Alpha virt. eigenvalues --    2.06435   2.07467   2.08439   2.08723   2.09267
 Alpha virt. eigenvalues --    2.09856   2.10930   2.11652   2.11821   2.11945
 Alpha virt. eigenvalues --    2.12640   2.13322   2.13384   2.13912   2.14155
 Alpha virt. eigenvalues --    2.14213   2.14783   2.14830   2.15763   2.16337
 Alpha virt. eigenvalues --    2.16737   2.16938   2.17338   2.17514   2.17880
 Alpha virt. eigenvalues --    2.18126   2.18901   2.19023   2.19825   2.19989
 Alpha virt. eigenvalues --    2.21082   2.21561   2.21963   2.22358   2.22738
 Alpha virt. eigenvalues --    2.23090   2.25028   2.25715   2.26073   2.26875
 Alpha virt. eigenvalues --    2.27254   2.27619   2.28748   2.29224   2.29345
 Alpha virt. eigenvalues --    2.30157   2.30715   2.31258   2.32423   2.33094
 Alpha virt. eigenvalues --    2.33328   2.35315   2.36145   2.36321   2.37993
 Alpha virt. eigenvalues --    2.38428   2.39226   2.39882   2.41076   2.41447
 Alpha virt. eigenvalues --    2.41718   2.42306   2.43475   2.44629   2.45160
 Alpha virt. eigenvalues --    2.45500   2.46223   2.47418   2.48087   2.49059
 Alpha virt. eigenvalues --    2.50472   2.52925   2.54615   2.55621   2.55981
 Alpha virt. eigenvalues --    2.57434   2.58316   2.58882   2.59102   2.60708
 Alpha virt. eigenvalues --    2.62967   2.63852   2.64899   2.65423   2.67036
 Alpha virt. eigenvalues --    2.67915   2.69723   2.70240   2.75284   2.75807
 Alpha virt. eigenvalues --    2.76415   2.76574   2.78838   2.81424   2.81631
 Alpha virt. eigenvalues --    2.83667   2.85549   2.85840   2.86226   2.88335
 Alpha virt. eigenvalues --    2.88611   2.90237   2.92054   2.92930   2.93607
 Alpha virt. eigenvalues --    2.97553   3.00068   3.01840   3.04086   3.04632
 Alpha virt. eigenvalues --    3.08337   3.12845   3.14965   3.16799   3.24555
 Alpha virt. eigenvalues --    3.25992   3.29738   3.34151   3.34338   3.46898
 Alpha virt. eigenvalues --    3.55031   3.66842   3.76102   4.03590   4.15537
  Beta  occ. eigenvalues -- -256.36759 -89.07069 -30.21474 -26.05794 -26.05671
  Beta  occ. eigenvalues --  -26.04916 -14.53326 -14.49009 -14.47572 -14.47079
  Beta  occ. eigenvalues --  -14.46976 -14.46725 -10.37539 -10.34647 -10.34171
  Beta  occ. eigenvalues --  -10.33725 -10.33715 -10.33582 -10.33554 -10.33533
  Beta  occ. eigenvalues --  -10.33381 -10.33323 -10.33132 -10.32328 -10.31708
  Beta  occ. eigenvalues --  -10.31657 -10.30850 -10.30794 -10.30680 -10.30660
  Beta  occ. eigenvalues --  -10.30550 -10.30465 -10.30442 -10.30429 -10.30420
  Beta  occ. eigenvalues --  -10.30185 -10.30106 -10.30024 -10.29941 -10.29459
  Beta  occ. eigenvalues --  -10.29287 -10.29270 -10.29193 -10.29189 -10.28985
  Beta  occ. eigenvalues --  -10.28607 -10.28212  -8.10433  -6.04969  -6.04631
  Beta  occ. eigenvalues --   -6.04292  -3.57102  -2.33135  -2.32945  -2.32386
  Beta  occ. eigenvalues --   -1.16397  -1.07874  -1.06736  -1.06526  -1.04750
  Beta  occ. eigenvalues --   -1.01005  -0.93401  -0.92060  -0.91072  -0.90961
  Beta  occ. eigenvalues --   -0.90392  -0.90304  -0.90218  -0.90004  -0.88115
  Beta  occ. eigenvalues --   -0.85667  -0.85341  -0.84667  -0.83609  -0.81685
  Beta  occ. eigenvalues --   -0.81084  -0.80503  -0.79396  -0.78055  -0.77662
  Beta  occ. eigenvalues --   -0.77400  -0.76708  -0.75269  -0.74830  -0.74566
  Beta  occ. eigenvalues --   -0.71855  -0.69032  -0.68642  -0.68170  -0.67805
  Beta  occ. eigenvalues --   -0.65979  -0.64776  -0.63631  -0.63242  -0.62548
  Beta  occ. eigenvalues --   -0.61663  -0.60643  -0.60535  -0.58838  -0.58090
  Beta  occ. eigenvalues --   -0.57988  -0.57620  -0.57296  -0.56685  -0.55662
  Beta  occ. eigenvalues --   -0.55032  -0.54460  -0.54244  -0.53591  -0.53539
  Beta  occ. eigenvalues --   -0.53001  -0.52756  -0.52574  -0.52437  -0.52282
  Beta  occ. eigenvalues --   -0.52219  -0.51995  -0.51678  -0.51266  -0.51154
  Beta  occ. eigenvalues --   -0.51019  -0.50336  -0.50146  -0.49937  -0.49899
  Beta  occ. eigenvalues --   -0.49762  -0.49644  -0.49377  -0.49176  -0.48931
  Beta  occ. eigenvalues --   -0.48720  -0.48430  -0.48037  -0.47408  -0.47243
  Beta  occ. eigenvalues --   -0.46962  -0.46713  -0.46445  -0.46103  -0.45869
  Beta  occ. eigenvalues --   -0.45560  -0.45104  -0.44650  -0.44259  -0.43210
  Beta  occ. eigenvalues --   -0.42826  -0.42702  -0.42381  -0.42126  -0.40946
  Beta  occ. eigenvalues --   -0.40496  -0.39752  -0.38905  -0.38595  -0.37703
  Beta  occ. eigenvalues --   -0.37064  -0.36235  -0.35851  -0.34290  -0.33080
  Beta  occ. eigenvalues --   -0.32949  -0.31796  -0.30996  -0.29226  -0.28916
  Beta virt. eigenvalues --   -0.19528  -0.17587  -0.16029  -0.14899  -0.11496
  Beta virt. eigenvalues --   -0.11333  -0.07900  -0.07521  -0.07242  -0.06461
  Beta virt. eigenvalues --   -0.04884  -0.03734  -0.02666  -0.02206  -0.01323
  Beta virt. eigenvalues --   -0.00817   0.00269   0.00462   0.01228   0.01865
  Beta virt. eigenvalues --    0.02212   0.02404   0.02993   0.03231   0.03619
  Beta virt. eigenvalues --    0.03925   0.04168   0.04430   0.04581   0.05157
  Beta virt. eigenvalues --    0.05411   0.05905   0.05992   0.06302   0.06517
  Beta virt. eigenvalues --    0.06898   0.07222   0.07311   0.07522   0.07816
  Beta virt. eigenvalues --    0.08054   0.08375   0.08507   0.08777   0.08821
  Beta virt. eigenvalues --    0.09219   0.09321   0.09483   0.09762   0.10018
  Beta virt. eigenvalues --    0.10693   0.10877   0.11436   0.11502   0.12005
  Beta virt. eigenvalues --    0.12295   0.12807   0.13001   0.13612   0.13715
  Beta virt. eigenvalues --    0.14022   0.14247   0.14489   0.14559   0.14843
  Beta virt. eigenvalues --    0.15175   0.15533   0.16050   0.16521   0.17102
  Beta virt. eigenvalues --    0.17216   0.18826   0.19875   0.20618   0.20801
  Beta virt. eigenvalues --    0.21530   0.21598   0.21946   0.23095   0.23352
  Beta virt. eigenvalues --    0.24421   0.24908   0.25225   0.25840   0.26117
  Beta virt. eigenvalues --    0.26462   0.27410   0.27804   0.28729   0.29257
  Beta virt. eigenvalues --    0.30281   0.31716   0.32629   0.32891   0.33229
  Beta virt. eigenvalues --    0.33782   0.34865   0.35191   0.35847   0.36344
  Beta virt. eigenvalues --    0.36679   0.37863   0.38014   0.38817   0.38994
  Beta virt. eigenvalues --    0.39266   0.39449   0.39888   0.40523   0.41059
  Beta virt. eigenvalues --    0.41306   0.42073   0.42541   0.42888   0.43306
  Beta virt. eigenvalues --    0.43983   0.44029   0.44190   0.44766   0.45429
  Beta virt. eigenvalues --    0.45501   0.45787   0.46090   0.46542   0.46770
  Beta virt. eigenvalues --    0.47391   0.47918   0.48116   0.48629   0.48957
  Beta virt. eigenvalues --    0.49305   0.49654   0.49798   0.50422   0.50646
  Beta virt. eigenvalues --    0.50852   0.51183   0.51372   0.51678   0.52761
  Beta virt. eigenvalues --    0.52983   0.53340   0.53788   0.53961   0.54530
  Beta virt. eigenvalues --    0.54839   0.55298   0.55682   0.56091   0.56503
  Beta virt. eigenvalues --    0.57116   0.57242   0.57469   0.58119   0.58213
  Beta virt. eigenvalues --    0.58983   0.59305   0.59551   0.60066   0.60421
  Beta virt. eigenvalues --    0.60717   0.61349   0.61790   0.62605   0.62840
  Beta virt. eigenvalues --    0.63310   0.64021   0.64340   0.64775   0.65300
  Beta virt. eigenvalues --    0.65491   0.65810   0.66445   0.66633   0.66815
  Beta virt. eigenvalues --    0.67419   0.67935   0.68283   0.68496   0.68870
  Beta virt. eigenvalues --    0.69041   0.69230   0.69435   0.69914   0.70452
  Beta virt. eigenvalues --    0.70581   0.71416   0.71881   0.72309   0.73035
  Beta virt. eigenvalues --    0.73650   0.74022   0.75109   0.75318   0.75337
  Beta virt. eigenvalues --    0.76224   0.76621   0.76705   0.77232   0.77537
  Beta virt. eigenvalues --    0.78199   0.78280   0.78495   0.78775   0.78909
  Beta virt. eigenvalues --    0.79430   0.79724   0.80138   0.80296   0.80703
  Beta virt. eigenvalues --    0.80933   0.81236   0.81595   0.82149   0.82351
  Beta virt. eigenvalues --    0.82606   0.83069   0.83117   0.83558   0.83800
  Beta virt. eigenvalues --    0.84295   0.84778   0.85040   0.85300   0.85912
  Beta virt. eigenvalues --    0.86302   0.86787   0.87466   0.87776   0.87873
  Beta virt. eigenvalues --    0.88130   0.88449   0.88984   0.89475   0.89497
  Beta virt. eigenvalues --    0.89814   0.90857   0.91320   0.91779   0.92327
  Beta virt. eigenvalues --    0.92410   0.92663   0.92770   0.93047   0.93534
  Beta virt. eigenvalues --    0.93850   0.94646   0.95466   0.95854   0.96733
  Beta virt. eigenvalues --    0.97179   0.97647   0.98240   0.98518   0.99314
  Beta virt. eigenvalues --    1.00271   1.00729   1.01708   1.02876   1.03013
  Beta virt. eigenvalues --    1.03975   1.04908   1.06209   1.06347   1.07133
  Beta virt. eigenvalues --    1.07572   1.08175   1.08379   1.08766   1.09333
  Beta virt. eigenvalues --    1.10255   1.10629   1.11737   1.12120   1.12279
  Beta virt. eigenvalues --    1.13317   1.13972   1.14414   1.14767   1.15501
  Beta virt. eigenvalues --    1.16167   1.17239   1.17977   1.19043   1.19379
  Beta virt. eigenvalues --    1.19618   1.20362   1.21008   1.21494   1.22947
  Beta virt. eigenvalues --    1.23645   1.24045   1.24375   1.24693   1.26038
  Beta virt. eigenvalues --    1.26222   1.26872   1.27184   1.27516   1.28096
  Beta virt. eigenvalues --    1.28484   1.28710   1.29211   1.29908   1.30498
  Beta virt. eigenvalues --    1.31138   1.31678   1.33179   1.33728   1.34515
  Beta virt. eigenvalues --    1.35463   1.36266   1.36468   1.36767   1.37872
  Beta virt. eigenvalues --    1.38043   1.38440   1.39480   1.40737   1.41818
  Beta virt. eigenvalues --    1.42331   1.42370   1.42962   1.44025   1.44982
  Beta virt. eigenvalues --    1.45480   1.46169   1.47020   1.48038   1.48687
  Beta virt. eigenvalues --    1.50211   1.50564   1.50837   1.51909   1.52652
  Beta virt. eigenvalues --    1.53594   1.54525   1.55171   1.57251   1.57960
  Beta virt. eigenvalues --    1.59604   1.60106   1.60505   1.61223   1.62256
  Beta virt. eigenvalues --    1.63390   1.64185   1.64963   1.65550   1.66899
  Beta virt. eigenvalues --    1.68329   1.68887   1.69744   1.70795   1.71231
  Beta virt. eigenvalues --    1.71813   1.72037   1.72582   1.72993   1.73823
  Beta virt. eigenvalues --    1.74095   1.74611   1.75057   1.75658   1.76321
  Beta virt. eigenvalues --    1.76637   1.77021   1.77229   1.78250   1.78645
  Beta virt. eigenvalues --    1.79432   1.79744   1.80499   1.81117   1.81821
  Beta virt. eigenvalues --    1.82129   1.83026   1.83933   1.83986   1.84265
  Beta virt. eigenvalues --    1.84746   1.85335   1.85764   1.86477   1.88172
  Beta virt. eigenvalues --    1.88530   1.89400   1.89883   1.90317   1.90796
  Beta virt. eigenvalues --    1.91819   1.92576   1.92882   1.93663   1.94420
  Beta virt. eigenvalues --    1.94868   1.95806   1.97515   1.98065   1.98436
  Beta virt. eigenvalues --    1.99149   2.00542   2.01089   2.01391   2.02011
  Beta virt. eigenvalues --    2.03427   2.03937   2.04229   2.04553   2.05041
  Beta virt. eigenvalues --    2.05458   2.06450   2.07480   2.08464   2.08817
  Beta virt. eigenvalues --    2.09308   2.09873   2.11067   2.11722   2.11907
  Beta virt. eigenvalues --    2.12090   2.12697   2.13391   2.13420   2.13946
  Beta virt. eigenvalues --    2.14262   2.14350   2.14848   2.14887   2.15863
  Beta virt. eigenvalues --    2.16440   2.16891   2.17055   2.17424   2.17737
  Beta virt. eigenvalues --    2.17997   2.18186   2.18966   2.19100   2.20002
  Beta virt. eigenvalues --    2.20275   2.21572   2.21660   2.22077   2.22420
  Beta virt. eigenvalues --    2.22937   2.23177   2.25054   2.25842   2.26128
  Beta virt. eigenvalues --    2.26932   2.27406   2.27754   2.28807   2.29307
  Beta virt. eigenvalues --    2.29386   2.30194   2.30766   2.31306   2.32502
  Beta virt. eigenvalues --    2.33120   2.33346   2.35368   2.36260   2.36544
  Beta virt. eigenvalues --    2.38015   2.38530   2.39261   2.39935   2.41296
  Beta virt. eigenvalues --    2.41567   2.41763   2.42345   2.43510   2.44642
  Beta virt. eigenvalues --    2.45190   2.45534   2.46251   2.47445   2.48213
  Beta virt. eigenvalues --    2.49068   2.50528   2.52923   2.54636   2.55628
  Beta virt. eigenvalues --    2.56000   2.57482   2.58332   2.58889   2.59126
  Beta virt. eigenvalues --    2.60719   2.62977   2.63851   2.64889   2.65433
  Beta virt. eigenvalues --    2.67039   2.67912   2.69718   2.70223   2.75300
  Beta virt. eigenvalues --    2.75829   2.76419   2.76565   2.78826   2.81436
  Beta virt. eigenvalues --    2.81621   2.83672   2.85543   2.85843   2.86218
  Beta virt. eigenvalues --    2.88326   2.88634   2.90241   2.92042   2.92933
  Beta virt. eigenvalues --    2.93595   2.97563   3.00056   3.01838   3.04094
  Beta virt. eigenvalues --    3.04655   3.08328   3.12919   3.14971   3.16801
  Beta virt. eigenvalues --    3.24547   3.25969   3.29808   3.34131   3.34393
  Beta virt. eigenvalues --    3.54854   3.56799   3.69540   3.77948   4.04872
  Beta virt. eigenvalues --    4.17384
          Condensed to atoms (all electrons):
          Atomic-Atomic Spin Densities.
 Mulliken charges and spin densities:
               1          2
     1  Fe   0.543010   1.128132
     2  N   -0.624128  -0.028907
     3  N   -0.680118  -0.027353
     4  N   -0.648330  -0.027086
     5  N   -0.662762  -0.032803
     6  C    0.305853  -0.002722
     7  C    0.036446   0.006840
     8  C    0.025087  -0.005489
     9  C    0.289575   0.005757
    10  C    0.290169   0.006063
    11  C    0.033908  -0.000597
    12  C   -0.010723   0.011065
    13  C    0.325239  -0.000075
    14  C    0.317670  -0.001115
    15  C    0.021997   0.009328
    16  C    0.002095  -0.005612
    17  C    0.297142   0.007687
    18  C    0.313187   0.007436
    19  C    0.001327  -0.002651
    20  C    0.003679   0.030417
    21  C    0.338658  -0.004031
    22  C   -0.289837   0.000396
    23  H    0.195943   0.000057
    24  C   -0.315754  -0.002299
    25  H    0.194194   0.000105
    26  C   -0.287953  -0.004531
    27  H    0.200345   0.000267
    28  C   -0.282057  -0.004020
    29  H    0.198888   0.000154
    30  C   -0.592962   0.000001
    31  H    0.200433  -0.000126
    32  H    0.200685  -0.000132
    33  H    0.192220  -0.000058
    34  C   -0.593008  -0.000615
    35  H    0.205186   0.000379
    36  H    0.190133   0.000105
    37  H    0.202035   0.000026
    38  C   -0.589696  -0.000433
    39  H    0.202047   0.000143
    40  H    0.185919   0.000045
    41  H    0.215776  -0.000040
    42  C   -0.159350  -0.002897
    43  H    0.187989   0.000281
    44  C   -0.367627   0.003838
    45  H    0.181448  -0.000197
    46  H    0.192678  -0.000141
    47  C   -0.603304  -0.000836
    48  H    0.204166   0.000531
    49  H    0.188859   0.000072
    50  H    0.214654   0.000156
    51  C   -0.131785   0.000729
    52  H    0.181697  -0.000042
    53  C   -0.388906  -0.001377
    54  H    0.185192   0.000065
    55  H    0.192062   0.000029
    56  C   -0.595294  -0.000657
    57  H    0.194630   0.000158
    58  H    0.206404   0.000243
    59  H    0.200268  -0.000145
    60  C   -0.594508  -0.002632
    61  H    0.202735   0.001587
    62  H    0.204311   0.000163
    63  H    0.196304   0.000750
    64  C   -0.595196  -0.000241
    65  H    0.215719  -0.000010
    66  H    0.207240  -0.000029
    67  H    0.208783  -0.000010
    68  N   -0.618989   0.002454
    69  H    0.381584  -0.000388
    70  C    0.271207  -0.000539
    71  C    0.266300   0.011915
    72  H    0.240162  -0.000772
    73  N   -0.450532  -0.033489
    74  C   -0.024682   0.001444
    75  H    0.213784  -0.000230
    76  C   -0.704141   0.000326
    77  H    0.235258   0.000110
    78  H    0.243152   0.000036
    79  H    0.240852  -0.001983
    80  S    0.251510  -0.046279
    81  H    0.173843   0.004298
 Sum of Mulliken charges =   1.00000   1.00000
 Mulliken charges and spin densities with hydrogens summed into heavy atoms:
               1          2
     1  Fe   0.543010   1.128132
     2  N   -0.624128  -0.028907
     3  N   -0.680118  -0.027353
     4  N   -0.648330  -0.027086
     5  N   -0.662762  -0.032803
     6  C    0.305853  -0.002722
     7  C    0.036446   0.006840
     8  C    0.025087  -0.005489
     9  C    0.289575   0.005757
    10  C    0.290169   0.006063
    11  C    0.033908  -0.000597
    12  C   -0.010723   0.011065
    13  C    0.325239  -0.000075
    14  C    0.317670  -0.001115
    15  C    0.021997   0.009328
    16  C    0.002095  -0.005612
    17  C    0.297142   0.007687
    18  C    0.313187   0.007436
    19  C    0.001327  -0.002651
    20  C    0.003679   0.030417
    21  C    0.338658  -0.004031
    22  C   -0.093894   0.000453
    24  C   -0.121560  -0.002194
    26  C   -0.087609  -0.004264
    28  C   -0.083168  -0.003866
    30  C    0.000377  -0.000314
    34  C    0.004346  -0.000105
    38  C    0.014046  -0.000284
    42  C    0.028638  -0.002616
    44  C    0.006500   0.003500
    47  C    0.004376  -0.000077
    51  C    0.049912   0.000687
    53  C   -0.011651  -0.001283
    56  C    0.006009  -0.000402
    60  C    0.008843  -0.000132
    64  C    0.036546  -0.000291
    68  N   -0.237405   0.002066
    70  C    0.271207  -0.000539
    71  C    0.506462   0.011143
    73  N   -0.450532  -0.033489
    74  C    0.189102   0.001214
    76  C    0.015121  -0.001512
    80  S    0.425353  -0.041981
 Electronic spatial extent (au):  <R**2>=          20901.6848
 Charge=              1.0000 electrons
 Dipole moment (field-independent basis, Debye):
    X=             -1.3499    Y=             -1.4132    Z=              3.5560  Tot=              4.0576
 Quadrupole moment (field-independent basis, Debye-Ang):
   XX=           -196.6099   YY=           -198.7511   ZZ=           -219.1678
   XY=             -2.3581   XZ=              6.4276   YZ=             -5.6119
 Traceless Quadrupole moment (field-independent basis, Debye-Ang):
   XX=              8.2330   YY=              6.0918   ZZ=            -14.3249
   XY=             -2.3581   XZ=              6.4276   YZ=             -5.6119
 Octapole moment (field-independent basis, Debye-Ang**2):
  XXX=             37.1615  YYY=             11.6253  ZZZ=            128.2577  XYY=              9.9523
  XXY=            -15.2904  XXZ=            -15.2483  XZZ=            -39.4129  YZZ=            -39.6131
  YYZ=             21.4353  XYZ=             -5.1894
 Hexadecapole moment (field-independent basis, Debye-Ang**3):
 XXXX=         -10472.9506 YYYY=         -10036.7994 ZZZZ=          -3071.6383 XXXY=             69.4253
 XXXZ=             58.1667 YYYX=            -32.9456 YYYZ=             82.8463 ZZZX=             76.3638
 ZZZY=           -164.2147 XXYY=          -3605.7082 XXZZ=          -2696.3967 YYZZ=          -2649.0707
 XXYZ=             56.3373 YYXZ=            -32.9293 ZZXY=            -51.5147
 N-N= 6.510619999924D+03 E-N=-2.085278621691D+04  KE= 3.331452708418D+03
                          Isotropic Fermi Contact Couplings
        Atom                 a.u.       MegaHertz       Gauss      10(-4) cm-1
     1  Fe(57)             0.14182      20.57007       7.33991       6.86144
     2  N(14)             -0.02515      -8.12639      -2.89970      -2.71067
     3  N(14)             -0.02202      -7.11362      -2.53831      -2.37285
     4  N(14)             -0.02323      -7.50642      -2.67848      -2.50387
     5  N(14)             -0.02908      -9.39699      -3.35308      -3.13450
     6  C(13)             -0.00079      -0.88688      -0.31646      -0.29583
     7  C(13)              0.00041       0.45916       0.16384       0.15316
     8  C(13)             -0.00170      -1.91007      -0.68156      -0.63713
     9  C(13)             -0.00064      -0.72407      -0.25837      -0.24152
    10  C(13)             -0.00084      -0.94372      -0.33674      -0.31479
    11  C(13)             -0.00105      -1.18027      -0.42115      -0.39370
    12  C(13)              0.00110       1.23310       0.44000       0.41132
    13  C(13)             -0.00008      -0.09119      -0.03254      -0.03042
    14  C(13)             -0.00054      -0.60852      -0.21714      -0.20298
    15  C(13)              0.00079       0.88903       0.31723       0.29655
    16  C(13)             -0.00167      -1.87678      -0.66968      -0.62603
    17  C(13)             -0.00023      -0.26070      -0.09303      -0.08696
    18  C(13)             -0.00087      -0.98267      -0.35064      -0.32778
    19  C(13)             -0.00202      -2.27598      -0.81213      -0.75919
    20  C(13)              0.00382       4.29468       1.53245       1.43255
    21  C(13)             -0.00072      -0.80896      -0.28866      -0.26984
    22  C(13)             -0.00005      -0.06071      -0.02166      -0.02025
    23  H(1)               0.00003       0.13519       0.04824       0.04509
    24  C(13)             -0.00050      -0.56421      -0.20132      -0.18820
    25  H(1)               0.00005       0.21915       0.07820       0.07310
    26  C(13)             -0.00072      -0.80992      -0.28900      -0.27016
    27  H(1)               0.00010       0.43075       0.15370       0.14368
    28  C(13)             -0.00088      -0.98919      -0.35297      -0.32996
    29  H(1)               0.00006       0.26932       0.09610       0.08983
    30  C(13)             -0.00006      -0.06191      -0.02209      -0.02065
    31  H(1)              -0.00005      -0.23405      -0.08351      -0.07807
    32  H(1)              -0.00007      -0.32516      -0.11602      -0.10846
    33  H(1)              -0.00004      -0.17385      -0.06204      -0.05799
    34  C(13)             -0.00021      -0.23898      -0.08528      -0.07972
    35  H(1)               0.00020       0.87900       0.31365       0.29320
    36  H(1)               0.00005       0.20668       0.07375       0.06894
    37  H(1)               0.00003       0.11696       0.04174       0.03901
    38  C(13)             -0.00022      -0.24396      -0.08705      -0.08138
    39  H(1)               0.00008       0.37855       0.13508       0.12627
    40  H(1)               0.00001       0.05671       0.02024       0.01892
    41  H(1)              -0.00001      -0.05494      -0.01960      -0.01833
    42  C(13)             -0.00065      -0.72971      -0.26038      -0.24341
    43  H(1)               0.00011       0.51275       0.18296       0.17104
    44  C(13)              0.00072       0.80589       0.28756       0.26881
    45  H(1)              -0.00006      -0.26134      -0.09325      -0.08717
    46  H(1)              -0.00005      -0.21151      -0.07547      -0.07055
    47  C(13)             -0.00030      -0.33587      -0.11985      -0.11203
    48  H(1)               0.00028       1.23085       0.43920       0.41057
    49  H(1)               0.00004       0.16043       0.05724       0.05351
    50  H(1)               0.00008       0.36096       0.12880       0.12040
    51  C(13)              0.00004       0.04929       0.01759       0.01644
    52  H(1)              -0.00002      -0.06879      -0.02455      -0.02295
    53  C(13)             -0.00025      -0.28241      -0.10077      -0.09420
    54  H(1)               0.00002       0.08847       0.03157       0.02951
    55  H(1)               0.00000       0.01418       0.00506       0.00473
    56  C(13)             -0.00035      -0.39332      -0.14035      -0.13120
    57  H(1)               0.00004       0.18993       0.06777       0.06336
    58  H(1)               0.00009       0.39628       0.14140       0.13219
    59  H(1)              -0.00006      -0.25974      -0.09268      -0.08664
    60  C(13)             -0.00097      -1.08654      -0.38770      -0.36243
    61  H(1)               0.00080       3.59455       1.28263       1.19901
    62  H(1)               0.00011       0.47062       0.16793       0.15698
    63  H(1)               0.00034       1.51021       0.53888       0.50375
    64  C(13)             -0.00011      -0.12774      -0.04558      -0.04261
    65  H(1)              -0.00001      -0.02927      -0.01044      -0.00976
    66  H(1)               0.00000       0.01985       0.00708       0.00662
    67  H(1)               0.00001       0.04447       0.01587       0.01483
    68  N(14)             -0.00077      -0.24976      -0.08912      -0.08331
    69  H(1)              -0.00019      -0.84077      -0.30001      -0.28045
    70  C(13)             -0.00073      -0.81805      -0.29190      -0.27287
    71  C(13)              0.00027       0.30713       0.10959       0.10245
    72  H(1)              -0.00027      -1.22149      -0.43586      -0.40744
    73  N(14)             -0.02872      -9.28009      -3.31137      -3.09551
    74  C(13)              0.00004       0.04644       0.01657       0.01549
    75  H(1)              -0.00009      -0.39582      -0.14124      -0.13203
    76  C(13)             -0.00048      -0.53582      -0.19119      -0.17873
    77  H(1)               0.00006       0.26657       0.09512       0.08892
    78  H(1)              -0.00005      -0.21704      -0.07745      -0.07240
    79  H(1)              -0.00109      -4.86922      -1.73746      -1.62420
    80  S(33)             -0.02332      -8.01113      -2.85857      -2.67223
    81  H(1)               0.00220       9.84116       3.51157       3.28266
 --------------------------------------------------------
       Center         ----  Spin Dipole Couplings  ----
                      3XX-RR        3YY-RR        3ZZ-RR
 --------------------------------------------------------
     1   Atom       -1.848752      0.696709      1.152044
     2   Atom       -0.013328      0.006667      0.006660
     3   Atom       -0.002032     -0.007371      0.009403
     4   Atom       -0.011595      0.002885      0.008710
     5   Atom       -0.000099     -0.021788      0.021886
     6   Atom        0.006417      0.000729     -0.007146
     7   Atom       -0.002011     -0.004167      0.006179
     8   Atom        0.003725      0.000153     -0.003878
     9   Atom        0.004394     -0.007317      0.002923
    10   Atom       -0.005892      0.001227      0.004665
    11   Atom       -0.001285     -0.000522      0.001807
    12   Atom       -0.007764     -0.003320      0.011085
    13   Atom       -0.005210      0.009632     -0.004422
    14   Atom        0.005733     -0.000167     -0.005566
    15   Atom       -0.003451     -0.005494      0.008945
    16   Atom        0.003619      0.000014     -0.003634
    17   Atom        0.003178     -0.008784      0.005605
    18   Atom       -0.007205      0.000590      0.006616
    19   Atom       -0.000607     -0.000500      0.001106
    20   Atom       -0.017091     -0.012271      0.029363
    21   Atom       -0.003534      0.011239     -0.007706
    22   Atom       -0.000847      0.003838     -0.002991
    23   Atom       -0.000009      0.001637     -0.001627
    24   Atom        0.005032     -0.000368     -0.004664
    25   Atom        0.001854     -0.000346     -0.001509
    26   Atom        0.001380      0.006303     -0.007683
    27   Atom       -0.000114      0.001658     -0.001544
    28   Atom        0.005630      0.000396     -0.006026
    29   Atom        0.001872     -0.000322     -0.001550
    30   Atom        0.001109     -0.000482     -0.000627
    31   Atom        0.001026     -0.000508     -0.000519
    32   Atom        0.001138     -0.000568     -0.000569
    33   Atom        0.001302     -0.000636     -0.000666
    34   Atom        0.000773     -0.000282     -0.000491
    35   Atom        0.000739     -0.000161     -0.000578
    36   Atom        0.000550      0.000186     -0.000736
    37   Atom        0.000859     -0.000316     -0.000543
    38   Atom       -0.000116      0.000634     -0.000517
    39   Atom       -0.000044      0.000660     -0.000616
    40   Atom        0.000227      0.000497     -0.000724
    41   Atom       -0.000235      0.000820     -0.000585
    42   Atom       -0.000762      0.001983     -0.001220
    43   Atom       -0.000596      0.001315     -0.000719
    44   Atom       -0.000553      0.000689     -0.000135
    45   Atom       -0.000291      0.000758     -0.000468
    46   Atom       -0.000406      0.000839     -0.000433
    47   Atom        0.000697     -0.000275     -0.000422
    48   Atom        0.000717     -0.000175     -0.000543
    49   Atom        0.000451      0.000325     -0.000775
    50   Atom        0.000866     -0.000281     -0.000585
    51   Atom        0.000901     -0.000680     -0.000221
    52   Atom        0.001217     -0.000576     -0.000641
    53   Atom        0.001444     -0.000212     -0.001232
    54   Atom        0.000944     -0.000482     -0.000462
    55   Atom        0.000574     -0.000278     -0.000296
    56   Atom        0.000045      0.000515     -0.000560
    57   Atom        0.000264      0.000458     -0.000722
    58   Atom        0.000127      0.000556     -0.000683
    59   Atom       -0.000139      0.000778     -0.000639
    60   Atom       -0.000983      0.001167     -0.000184
    61   Atom       -0.000771      0.001283     -0.000513
    62   Atom       -0.000788      0.001538     -0.000750
    63   Atom       -0.000428      0.001335     -0.000907
    64   Atom       -0.000475     -0.000595      0.001070
    65   Atom       -0.000317     -0.000701      0.001018
    66   Atom       -0.000543     -0.000581      0.001124
    67   Atom       -0.000400     -0.000632      0.001032
    68   Atom       -0.002828      0.002891     -0.000063
    69   Atom       -0.001308     -0.000836      0.002144
    70   Atom       -0.001471     -0.001104      0.002574
    71   Atom       -0.004275     -0.000301      0.004575
    72   Atom        0.000157     -0.002524      0.002367
    73   Atom        0.004536      0.004695     -0.009232
    74   Atom       -0.004114     -0.002874      0.006987
    75   Atom        0.000051     -0.003102      0.003051
    76   Atom       -0.000803     -0.001889      0.002692
    77   Atom        0.000343     -0.002526      0.002184
    78   Atom       -0.000468     -0.002012      0.002480
    79   Atom       -0.001315     -0.001197      0.002513
    80   Atom        0.056319      0.062234     -0.118553
    81   Atom       -0.014235     -0.003590      0.017824
 --------------------------------------------------------
                        XY            XZ            YZ
 --------------------------------------------------------
     1   Atom        0.190653     -0.207429     -0.301554
     2   Atom       -0.003343      0.004875      0.000575
     3   Atom        0.002811     -0.002159      0.000585
     4   Atom       -0.003136     -0.001873     -0.001843
     5   Atom        0.009376     -0.002542      0.001979
     6   Atom        0.006167      0.000595     -0.000424
     7   Atom        0.001716     -0.001091      0.000563
     8   Atom       -0.000637      0.000260     -0.000563
     9   Atom        0.000369     -0.002487      0.002192
    10   Atom       -0.004530     -0.000867     -0.001314
    11   Atom       -0.002019     -0.000414     -0.000329
    12   Atom        0.000044     -0.001594     -0.000524
    13   Atom        0.001601      0.000578      0.001644
    14   Atom        0.006338      0.000705      0.000732
    15   Atom        0.001808      0.001305     -0.001317
    16   Atom       -0.000610     -0.000392      0.000329
    17   Atom        0.000525      0.000492     -0.001735
    18   Atom       -0.003851      0.002481      0.001235
    19   Atom       -0.001970     -0.000224      0.001324
    20   Atom        0.000397      0.001258      0.007094
    21   Atom        0.002013      0.000551      0.001280
    22   Atom        0.004852     -0.000474     -0.000354
    23   Atom        0.001968     -0.000136     -0.000213
    24   Atom       -0.004454      0.000752     -0.000913
    25   Atom       -0.001948      0.000352     -0.000210
    26   Atom        0.004854      0.001270      0.001748
    27   Atom        0.001773      0.000248      0.000389
    28   Atom       -0.004557     -0.001338      0.000810
    29   Atom       -0.001878     -0.000390      0.000214
    30   Atom        0.000022      0.000062     -0.000024
    31   Atom        0.000080      0.000034      0.000018
    32   Atom       -0.000108      0.000429     -0.000008
    33   Atom       -0.000315     -0.000046     -0.000021
    34   Atom        0.000854      0.000043      0.000016
    35   Atom        0.000801     -0.000250     -0.000144
    36   Atom        0.001029      0.000186      0.000138
    37   Atom        0.000603      0.000196      0.000091
    38   Atom       -0.000739     -0.000005     -0.000001
    39   Atom       -0.000816     -0.000174      0.000267
    40   Atom       -0.001061      0.000112     -0.000137
    41   Atom       -0.000707      0.000134     -0.000141
    42   Atom        0.000682     -0.001116      0.000994
    43   Atom        0.000431     -0.000015     -0.000003
    44   Atom       -0.001641      0.002013     -0.001530
    45   Atom       -0.000257     -0.000192      0.000378
    46   Atom        0.000171      0.000122      0.000184
    47   Atom        0.000928      0.000074      0.000012
    48   Atom        0.000829      0.000337      0.000185
    49   Atom        0.001109     -0.000052     -0.000042
    50   Atom        0.000707     -0.000181     -0.000095
    51   Atom        0.000030     -0.000219     -0.000395
    52   Atom       -0.000410     -0.000262      0.000041
    53   Atom       -0.000125      0.000235      0.000768
    54   Atom        0.000209      0.000152     -0.000027
    55   Atom        0.000035      0.000041      0.000016
    56   Atom       -0.000566     -0.000108     -0.000025
    57   Atom       -0.001013      0.000176     -0.000239
    58   Atom       -0.000902     -0.000178      0.000230
    59   Atom       -0.000860      0.000096     -0.000098
    60   Atom        0.000259     -0.000062      0.000122
    61   Atom        0.000453     -0.000222     -0.000734
    62   Atom       -0.000107      0.000034     -0.000051
    63   Atom        0.000735      0.000061      0.000110
    64   Atom       -0.000000     -0.000534      0.000121
    65   Atom       -0.000103     -0.000876      0.000210
    66   Atom       -0.000055     -0.000342      0.000141
    67   Atom        0.000095     -0.000648     -0.000296
    68   Atom        0.005075      0.003302      0.003511
    69   Atom       -0.000181      0.000814     -0.001026
    70   Atom        0.000037     -0.001122      0.000499
    71   Atom        0.009372      0.007140      0.002927
    72   Atom       -0.002486      0.004975     -0.002983
    73   Atom       -0.002656      0.003990      0.006076
    74   Atom        0.000574     -0.003178      0.001886
    75   Atom       -0.002145     -0.005854      0.002789
    76   Atom        0.001891      0.002497      0.002073
    77   Atom       -0.000688      0.004275     -0.001243
    78   Atom        0.001028      0.003854      0.001834
    79   Atom        0.000077      0.001614      0.000095
    80   Atom       -0.031868      0.070642      0.090650
    81   Atom       -0.003024      0.004271     -0.021104
 --------------------------------------------------------


 ---------------------------------------------------------------------------------
              Anisotropic Spin Dipole Couplings in Principal Axis System
 ---------------------------------------------------------------------------------

       Atom             a.u.   MegaHertz   Gauss  10(-4) cm-1        Axes

              Baa    -1.8743   -32.450   -11.579   -10.824  0.9959 -0.0666  0.0616
     1 Fe(57) Bbb     0.5490     9.504     3.391     3.170  0.0313  0.8896  0.4556
              Bcc     1.3254    22.946     8.188     7.654 -0.0852 -0.4518  0.8880
 
              Baa    -0.0150    -0.578    -0.206    -0.193  0.9629  0.1545 -0.2210
     2 N(14)  Bbb     0.0071     0.275     0.098     0.092 -0.0814  0.9479  0.3080
              Bcc     0.0078     0.302     0.108     0.101  0.2571 -0.2786  0.9254
 
              Baa    -0.0087    -0.335    -0.120    -0.112 -0.4094  0.9090 -0.0783
     3 N(14)  Bbb    -0.0011    -0.043    -0.015    -0.014  0.8947  0.4168  0.1606
              Bcc     0.0098     0.378     0.135     0.126 -0.1786  0.0043  0.9839
 
              Baa    -0.0125    -0.481    -0.172    -0.161  0.9719  0.2109  0.1043
     4 N(14)  Bbb     0.0032     0.123     0.044     0.041 -0.2303  0.9438  0.2369
              Bcc     0.0093     0.358     0.128     0.120 -0.0484 -0.2543  0.9659
 
              Baa    -0.0254    -0.981    -0.350    -0.327 -0.3515  0.9344 -0.0580
     5 N(14)  Bbb     0.0032     0.125     0.045     0.042  0.9304  0.3556  0.0891
              Bcc     0.0222     0.856     0.305     0.286 -0.1039  0.0226  0.9943
 
              Baa    -0.0073    -0.975    -0.348    -0.325 -0.1020  0.1311  0.9861
     6 C(13)  Bbb    -0.0031    -0.417    -0.149    -0.139 -0.5288  0.8325 -0.1653
              Bcc     0.0104     1.391     0.496     0.464  0.8426  0.5383  0.0156
 
              Baa    -0.0052    -0.699    -0.249    -0.233 -0.4948  0.8643 -0.0902
     7 C(13)  Bbb    -0.0011    -0.151    -0.054    -0.050  0.8603  0.5018  0.0898
              Bcc     0.0063     0.850     0.303     0.283 -0.1228  0.0331  0.9919
 
              Baa    -0.0040    -0.531    -0.190    -0.177 -0.0226  0.1321  0.9910
     8 C(13)  Bbb     0.0001     0.014     0.005     0.005  0.1808  0.9754 -0.1259
              Bcc     0.0039     0.517     0.184     0.172  0.9833 -0.1763  0.0459
 
              Baa    -0.0078    -1.051    -0.375    -0.350 -0.0732  0.9738 -0.2154
     9 C(13)  Bbb     0.0015     0.201     0.072     0.067  0.6207  0.2136  0.7544
              Bcc     0.0063     0.850     0.303     0.283  0.7807 -0.0785 -0.6200
 
              Baa    -0.0082    -1.105    -0.394    -0.369  0.8913  0.4412  0.1048
    10 C(13)  Bbb     0.0031     0.411     0.147     0.137 -0.4425  0.7958  0.4133
              Bcc     0.0052     0.694     0.248     0.232  0.0989 -0.4148  0.9045
 
              Baa    -0.0030    -0.405    -0.144    -0.135  0.7655  0.6341  0.1089
    11 C(13)  Bbb     0.0012     0.154     0.055     0.052 -0.6366  0.7711 -0.0148
              Bcc     0.0019     0.250     0.089     0.083 -0.0934 -0.0580  0.9939
 
              Baa    -0.0079    -1.060    -0.378    -0.354  0.9965 -0.0001  0.0837
    12 C(13)  Bbb    -0.0033    -0.448    -0.160    -0.149 -0.0030  0.9993  0.0360
              Bcc     0.0112     1.508     0.538     0.503 -0.0836 -0.0361  0.9958
 
              Baa    -0.0056    -0.745    -0.266    -0.248  0.9189 -0.0546 -0.3907
    13 C(13)  Bbb    -0.0045    -0.597    -0.213    -0.199  0.3793 -0.1497  0.9131
              Bcc     0.0100     1.342     0.479     0.448  0.1083  0.9872  0.1169
 
              Baa    -0.0057    -0.761    -0.271    -0.254  0.0331 -0.1691  0.9850
    14 C(13)  Bbb    -0.0042    -0.559    -0.200    -0.187 -0.5402  0.8262  0.1599
              Bcc     0.0098     1.320     0.471     0.440  0.8409  0.5374  0.0640
 
              Baa    -0.0068    -0.906    -0.323    -0.302 -0.5112  0.8519  0.1139
    15 C(13)  Bbb    -0.0024    -0.324    -0.116    -0.108  0.8546  0.5179 -0.0381
              Bcc     0.0092     1.230     0.439     0.410  0.0915 -0.0779  0.9928
 
              Baa    -0.0037    -0.494    -0.176    -0.165  0.0467 -0.0810  0.9956
    16 C(13)  Bbb    -0.0001    -0.009    -0.003    -0.003  0.1702  0.9828  0.0720
              Bcc     0.0037     0.503     0.179     0.168  0.9843 -0.1661 -0.0597
 
              Baa    -0.0090    -1.210    -0.432    -0.404 -0.0475  0.9917  0.1193
    17 C(13)  Bbb     0.0031     0.421     0.150     0.140  0.9864  0.0654 -0.1508
              Bcc     0.0059     0.789     0.282     0.263  0.1573 -0.1105  0.9813
 
              Baa    -0.0093    -1.244    -0.444    -0.415  0.9102  0.3770 -0.1715
    18 C(13)  Bbb     0.0022     0.290     0.104     0.097 -0.3886  0.9206 -0.0388
              Bcc     0.0071     0.953     0.340     0.318  0.1432  0.1019  0.9844
 
              Baa    -0.0027    -0.361    -0.129    -0.120  0.6591  0.7213 -0.2128
    19 C(13)  Bbb     0.0003     0.035     0.012     0.012  0.6119 -0.3499  0.7094
              Bcc     0.0024     0.326     0.116     0.109 -0.4372  0.5977  0.6720
 
              Baa    -0.0171    -2.300    -0.821    -0.767  0.9984 -0.0541 -0.0187
    20 C(13)  Bbb    -0.0134    -1.803    -0.643    -0.601  0.0503  0.9851 -0.1648
              Bcc     0.0306     4.103     1.464     1.369  0.0274  0.1635  0.9862
 
              Baa    -0.0078    -1.051    -0.375    -0.351 -0.1011 -0.0560  0.9933
    21 C(13)  Bbb    -0.0038    -0.506    -0.180    -0.169  0.9858 -0.1401  0.0924
              Bcc     0.0116     1.557     0.556     0.519  0.1340  0.9885  0.0693
 
              Baa    -0.0039    -0.529    -0.189    -0.176  0.8312 -0.5081  0.2256
    22 C(13)  Bbb    -0.0030    -0.399    -0.142    -0.133 -0.1624  0.1662  0.9726
              Bcc     0.0069     0.928     0.331     0.309  0.5317  0.8451 -0.0556
 
              Baa    -0.0016    -0.876    -0.313    -0.292  0.0184  0.0538  0.9984
    23 H(1)   Bbb    -0.0013    -0.704    -0.251    -0.235  0.8328 -0.5534  0.0144
              Bcc     0.0030     1.580     0.564     0.527  0.5532  0.8312 -0.0550
 
              Baa    -0.0049    -0.651    -0.232    -0.217  0.0275  0.2254  0.9739
    24 C(13)  Bbb    -0.0028    -0.374    -0.133    -0.125  0.4993  0.8409 -0.2087
              Bcc     0.0076     1.025     0.366     0.342  0.8660 -0.4919  0.0894
 
              Baa    -0.0015    -0.825    -0.294    -0.275 -0.0498  0.0930  0.9944
    25 H(1)   Bbb    -0.0015    -0.791    -0.282    -0.264  0.5077  0.8598 -0.0549
              Bcc     0.0030     1.616     0.577     0.539  0.8601 -0.5021  0.0900
 
              Baa    -0.0080    -1.068    -0.381    -0.356 -0.0872 -0.0919  0.9919
    26 C(13)  Bbb    -0.0016    -0.214    -0.076    -0.071  0.8492 -0.5275  0.0257
              Bcc     0.0096     1.282     0.457     0.428  0.5209  0.8446  0.1240
 
              Baa    -0.0016    -0.850    -0.303    -0.283 -0.0692 -0.0813  0.9943
    27 H(1)   Bbb    -0.0012    -0.646    -0.230    -0.215  0.8495 -0.5273  0.0160
              Bcc     0.0028     1.496     0.534     0.499  0.5230  0.8458  0.1056
 
              Baa    -0.0062    -0.831    -0.297    -0.277  0.0891 -0.0606  0.9942
    28 C(13)  Bbb    -0.0022    -0.301    -0.107    -0.100  0.5020  0.8649  0.0077
              Bcc     0.0084     1.132     0.404     0.378  0.8603 -0.4983 -0.1075
 
              Baa    -0.0016    -0.850    -0.303    -0.284  0.1068 -0.0093  0.9942
    29 H(1)   Bbb    -0.0014    -0.747    -0.266    -0.249  0.4933  0.8687 -0.0449
              Bcc     0.0030     1.597     0.570     0.533  0.8633 -0.4953 -0.0974
 
              Baa    -0.0006    -0.085    -0.030    -0.028 -0.0369  0.1594  0.9865
    30 C(13)  Bbb    -0.0005    -0.064    -0.023    -0.021 -0.0073  0.9871 -0.1598
              Bcc     0.0011     0.149     0.053     0.050  0.9993  0.0131  0.0353
 
              Baa    -0.0005    -0.284    -0.101    -0.095  0.0147 -0.6219  0.7830
    31 H(1)   Bbb    -0.0005    -0.266    -0.095    -0.089 -0.0551  0.7814  0.6216
              Bcc     0.0010     0.550     0.196     0.184  0.9984  0.0523  0.0228
 
              Baa    -0.0007    -0.360    -0.128    -0.120 -0.2366 -0.1733  0.9560
    32 H(1)   Bbb    -0.0006    -0.305    -0.109    -0.102  0.0167  0.9831  0.1823
              Bcc     0.0012     0.665     0.237     0.222  0.9715 -0.0591  0.2297
 
              Baa    -0.0007    -0.377    -0.134    -0.126  0.1389  0.7996  0.5843
    33 H(1)   Bbb    -0.0006    -0.345    -0.123    -0.115 -0.0747 -0.5799  0.8113
              Bcc     0.0014     0.722     0.258     0.241  0.9875 -0.1563 -0.0208
 
              Baa    -0.0008    -0.102    -0.036    -0.034 -0.4874  0.8728  0.0253
    34 C(13)  Bbb    -0.0005    -0.066    -0.024    -0.022 -0.0103 -0.0347  0.9993
              Bcc     0.0013     0.168     0.060     0.056  0.8731  0.4868  0.0259
 
              Baa    -0.0006    -0.336    -0.120    -0.112 -0.5224  0.8207 -0.2316
    35 H(1)   Bbb    -0.0006    -0.332    -0.119    -0.111  0.0121  0.2787  0.9603
              Bcc     0.0013     0.668     0.239     0.223  0.8526  0.4988 -0.1555
 
              Baa    -0.0008    -0.407    -0.145    -0.136 -0.1853  0.0587  0.9809
    36 H(1)   Bbb    -0.0007    -0.360    -0.128    -0.120 -0.6200  0.7675 -0.1630
              Bcc     0.0014     0.767     0.274     0.256  0.7624  0.6384  0.1058
 
              Baa    -0.0006    -0.308    -0.110    -0.103  0.1825 -0.6695  0.7200
    37 H(1)   Bbb    -0.0006    -0.300    -0.107    -0.100 -0.3633  0.6346  0.6821
              Bcc     0.0011     0.609     0.217     0.203  0.9136  0.3861  0.1274
 
              Baa    -0.0006    -0.077    -0.027    -0.026  0.8489  0.5213  0.0873
    38 C(13)  Bbb    -0.0005    -0.069    -0.025    -0.023 -0.0739 -0.0463  0.9962
              Bcc     0.0011     0.146     0.052     0.049 -0.5233  0.8521  0.0008
 
              Baa    -0.0007    -0.358    -0.128    -0.119  0.0802 -0.1486  0.9856
    39 H(1)   Bbb    -0.0006    -0.310    -0.111    -0.103  0.8367  0.5475  0.0144
              Bcc     0.0013     0.668     0.238     0.223 -0.5418  0.8235  0.1682
 
              Baa    -0.0007    -0.395    -0.141    -0.132  0.0969  0.1910  0.9768
    40 H(1)   Bbb    -0.0007    -0.377    -0.135    -0.126  0.7462  0.6355 -0.1983
              Bcc     0.0014     0.772     0.275     0.257 -0.6586  0.7481 -0.0810
 
              Baa    -0.0007    -0.349    -0.124    -0.116 -0.6221 -0.2270  0.7493
    41 H(1)   Bbb    -0.0005    -0.289    -0.103    -0.096  0.6414  0.4011  0.6540
              Bcc     0.0012     0.637     0.227     0.213 -0.4490  0.8875 -0.1039
 
              Baa    -0.0025    -0.330    -0.118    -0.110  0.6023 -0.2614  0.7542
    42 C(13)  Bbb     0.0001     0.019     0.007     0.006  0.7875  0.0403 -0.6149
              Bcc     0.0023     0.310     0.111     0.103  0.1303  0.9644  0.2302
 
              Baa    -0.0007    -0.386    -0.138    -0.129  0.3486 -0.0721  0.9345
    43 H(1)   Bbb    -0.0007    -0.365    -0.130    -0.122  0.9134 -0.1976 -0.3559
              Bcc     0.0014     0.751     0.268     0.251  0.2104  0.9776 -0.0030
 
              Baa    -0.0024    -0.321    -0.114    -0.107  0.7758  0.1042 -0.6223
    44 C(13)  Bbb    -0.0011    -0.146    -0.052    -0.049  0.3309  0.7726  0.5419
              Bcc     0.0035     0.466     0.166     0.156 -0.5373  0.6263 -0.5649
 
              Baa    -0.0006    -0.332    -0.119    -0.111  0.3879 -0.1752  0.9049
    45 H(1)   Bbb    -0.0003    -0.169    -0.060    -0.056  0.8903  0.3252 -0.3187
              Bcc     0.0009     0.501     0.179     0.167 -0.2384  0.9293  0.2821
 
              Baa    -0.0005    -0.289    -0.103    -0.096 -0.6515 -0.0202  0.7584
    46 H(1)   Bbb    -0.0003    -0.187    -0.067    -0.062  0.7450 -0.2058  0.6345
              Bcc     0.0009     0.476     0.170     0.159  0.1432  0.9784  0.1492
 
              Baa    -0.0008    -0.112    -0.040    -0.038 -0.5184  0.8525  0.0678
    47 C(13)  Bbb    -0.0004    -0.057    -0.020    -0.019 -0.0002 -0.0794  0.9968
              Bcc     0.0013     0.169     0.060     0.056  0.8552  0.5167  0.0413
 
              Baa    -0.0007    -0.360    -0.128    -0.120 -0.5400  0.8003  0.2607
    48 H(1)   Bbb    -0.0006    -0.330    -0.118    -0.110 -0.0333 -0.3298  0.9435
              Bcc     0.0013     0.690     0.246     0.230  0.8410  0.5008  0.2048
 
              Baa    -0.0008    -0.415    -0.148    -0.138  0.0852 -0.0476  0.9952
    49 H(1)   Bbb    -0.0007    -0.386    -0.138    -0.129 -0.6818  0.7256  0.0930
              Bcc     0.0015     0.801     0.286     0.267  0.7266  0.6864 -0.0293
 
              Baa    -0.0006    -0.332    -0.118    -0.111 -0.3242  0.8083  0.4914
    50 H(1)   Bbb    -0.0006    -0.322    -0.115    -0.107  0.3006 -0.4045  0.8637
              Bcc     0.0012     0.654     0.233     0.218  0.8970  0.4278 -0.1118
 
              Baa    -0.0009    -0.122    -0.044    -0.041  0.0470  0.8607  0.5069
    51 C(13)  Bbb    -0.0000    -0.005    -0.002    -0.002  0.2118 -0.5045  0.8371
              Bcc     0.0009     0.127     0.045     0.042  0.9762  0.0680 -0.2060
 
              Baa    -0.0007    -0.367    -0.131    -0.122  0.2285  0.5446  0.8069
    52 H(1)   Bbb    -0.0007    -0.349    -0.125    -0.117  0.0973  0.8119 -0.5756
              Bcc     0.0013     0.716     0.256     0.239  0.9687 -0.2100 -0.1325
 
              Baa    -0.0017    -0.224    -0.080    -0.075 -0.0853 -0.4710  0.8780
    53 C(13)  Bbb     0.0002     0.027     0.010     0.009 -0.0010  0.8812  0.4727
              Bcc     0.0015     0.197     0.070     0.066  0.9964 -0.0395  0.0756
 
              Baa    -0.0005    -0.291    -0.104    -0.097 -0.1712  0.8055  0.5673
    54 H(1)   Bbb    -0.0004    -0.237    -0.084    -0.079 -0.0026 -0.5762  0.8173
              Bcc     0.0010     0.528     0.188     0.176  0.9852  0.1384  0.1007
 
              Baa    -0.0003    -0.163    -0.058    -0.054 -0.0222 -0.4765  0.8789
    55 H(1)   Bbb    -0.0003    -0.145    -0.052    -0.048 -0.0596  0.8782  0.4746
              Bcc     0.0006     0.308     0.110     0.103  0.9980  0.0418  0.0479
 
              Baa    -0.0006    -0.081    -0.029    -0.027  0.3135  0.1799  0.9324
    56 C(13)  Bbb    -0.0003    -0.039    -0.014    -0.013  0.7690  0.5279 -0.3605
              Bcc     0.0009     0.120     0.043     0.040 -0.5571  0.8300  0.0272
 
              Baa    -0.0008    -0.411    -0.147    -0.137  0.1027  0.2707  0.9572
    57 H(1)   Bbb    -0.0006    -0.346    -0.124    -0.115  0.7399  0.6224 -0.2554
              Bcc     0.0014     0.758     0.270     0.253 -0.6649  0.7344 -0.1364
 
              Baa    -0.0007    -0.387    -0.138    -0.129  0.0739 -0.1257  0.9893
    58 H(1)   Bbb    -0.0006    -0.312    -0.111    -0.104  0.7865  0.6173  0.0196
              Bcc     0.0013     0.700     0.250     0.233 -0.6131  0.7767  0.1445
 
              Baa    -0.0007    -0.365    -0.130    -0.122 -0.6588 -0.3424  0.6699
    59 H(1)   Bbb    -0.0006    -0.331    -0.118    -0.110  0.5491  0.3898  0.7392
              Bcc     0.0013     0.695     0.248     0.232 -0.5143  0.8549 -0.0688
 
              Baa    -0.0010    -0.137    -0.049    -0.046  0.9883 -0.1223  0.0909
    60 C(13)  Bbb    -0.0002    -0.025    -0.009    -0.008 -0.1000 -0.0704  0.9925
              Bcc     0.0012     0.162     0.058     0.054  0.1149  0.9900  0.0818
 
              Baa    -0.0009    -0.480    -0.171    -0.160  0.8939 -0.0352  0.4468
    61 H(1)   Bbb    -0.0007    -0.400    -0.143    -0.133 -0.3996  0.3888  0.8301
              Bcc     0.0016     0.880     0.314     0.293  0.2029  0.9206 -0.3335
 
              Baa    -0.0008    -0.432    -0.154    -0.144  0.8781  0.0295 -0.4775
    62 H(1)   Bbb    -0.0007    -0.392    -0.140    -0.131  0.4762  0.0422  0.8783
              Bcc     0.0015     0.824     0.294     0.275 -0.0461  0.9987 -0.0230
 
              Baa    -0.0009    -0.488    -0.174    -0.163 -0.0990 -0.0165  0.9950
    63 H(1)   Bbb    -0.0007    -0.370    -0.132    -0.123  0.9350 -0.3438  0.0873
              Bcc     0.0016     0.858     0.306     0.286  0.3406  0.9389  0.0494
 
              Baa    -0.0007    -0.089    -0.032    -0.030  0.8121 -0.5085  0.2860
    64 C(13)  Bbb    -0.0006    -0.078    -0.028    -0.026  0.5026  0.8587  0.0996
              Bcc     0.0012     0.167     0.060     0.056 -0.2963  0.0629  0.9530
 
              Baa    -0.0008    -0.401    -0.143    -0.134  0.8935 -0.0394  0.4473
    65 H(1)   Bbb    -0.0007    -0.387    -0.138    -0.129  0.0828  0.9935 -0.0779
              Bcc     0.0015     0.788     0.281     0.263 -0.4413  0.1067  0.8910
 
              Baa    -0.0006    -0.336    -0.120    -0.112  0.7979  0.5930  0.1082
    66 H(1)   Bbb    -0.0006    -0.306    -0.109    -0.102 -0.5707  0.8009 -0.1814
              Bcc     0.0012     0.642     0.229     0.214 -0.1942  0.0830  0.9774
 
              Baa    -0.0007    -0.368    -0.131    -0.123  0.3380  0.8979  0.2819
    67 H(1)   Bbb    -0.0006    -0.342    -0.122    -0.114  0.8720 -0.4114  0.2651
              Bcc     0.0013     0.710     0.253     0.237 -0.3540 -0.1563  0.9221
 
              Baa    -0.0061    -0.234    -0.084    -0.078  0.8813 -0.4010 -0.2499
    68 N(14)  Bbb    -0.0024    -0.092    -0.033    -0.031 -0.0109 -0.5460  0.8377
              Bcc     0.0085     0.327     0.117     0.109  0.4724  0.7356  0.4856
 
              Baa    -0.0015    -0.798    -0.285    -0.266  0.9600 -0.1258 -0.2501
    69 H(1)   Bbb    -0.0011    -0.609    -0.217    -0.203  0.1894  0.9496  0.2496
              Bcc     0.0026     1.408     0.502     0.470  0.2061 -0.2870  0.9355
 
              Baa    -0.0018    -0.242    -0.086    -0.081  0.9335 -0.2398  0.2667
    70 C(13)  Bbb    -0.0011    -0.150    -0.054    -0.050  0.2620  0.9637 -0.0506
              Bcc     0.0029     0.392     0.140     0.131 -0.2449  0.1171  0.9624
 
              Baa    -0.0128    -1.715    -0.612    -0.572  0.8026 -0.5470 -0.2379
    71 C(13)  Bbb    -0.0003    -0.038    -0.014    -0.013 -0.2276 -0.6495  0.7255
              Bcc     0.0131     1.753     0.626     0.585  0.5514  0.5281  0.6458
 
              Baa    -0.0040    -2.138    -0.763    -0.713  0.4889  0.8720  0.0264
    72 H(1)   Bbb    -0.0038    -2.032    -0.725    -0.678 -0.6448  0.3408  0.6842
              Bcc     0.0078     4.170     1.488     1.391  0.5876 -0.3515  0.7289
 
              Baa    -0.0128    -0.493    -0.176    -0.164 -0.2612 -0.3523  0.8987
    73 N(14)  Bbb     0.0052     0.200     0.071     0.067  0.8316  0.3907  0.3948
              Bcc     0.0076     0.293     0.104     0.098 -0.4902  0.8504  0.1909
 
              Baa    -0.0054    -0.728    -0.260    -0.243  0.8686 -0.4060  0.2841
    74 C(13)  Bbb    -0.0027    -0.358    -0.128    -0.119  0.4322  0.9011 -0.0337
              Bcc     0.0081     1.086     0.387     0.362 -0.2424  0.1521  0.9582
 
              Baa    -0.0045    -2.397    -0.855    -0.800  0.7819 -0.0415  0.6221
    75 H(1)   Bbb    -0.0042    -2.217    -0.791    -0.739  0.2099  0.9571 -0.1999
              Bcc     0.0086     4.614     1.646     1.539 -0.5871  0.2868  0.7570
 
              Baa    -0.0033    -0.446    -0.159    -0.149 -0.5704  0.8201 -0.0458
    76 C(13)  Bbb    -0.0017    -0.234    -0.083    -0.078  0.6790  0.4395 -0.5880
              Bcc     0.0051     0.679     0.242     0.227  0.4621  0.3666  0.8075
 
              Baa    -0.0032    -1.725    -0.616    -0.575  0.6482 -0.4496 -0.6146
    77 H(1)   Bbb    -0.0026    -1.406    -0.502    -0.469  0.4474  0.8779 -0.1705
              Bcc     0.0059     3.132     1.117     1.045  0.6162 -0.1645  0.7702
 
              Baa    -0.0032    -1.696    -0.605    -0.566  0.7454  0.2882 -0.6011
    78 H(1)   Bbb    -0.0025    -1.346    -0.480    -0.449 -0.3876  0.9210 -0.0390
              Bcc     0.0057     3.042     1.085     1.015  0.5424  0.2621  0.7982
 
              Baa    -0.0019    -1.018    -0.363    -0.340  0.9382 -0.0563 -0.3414
    79 H(1)   Bbb    -0.0012    -0.639    -0.228    -0.213  0.0437  0.9981 -0.0445
              Bcc     0.0031     1.657     0.591     0.553  0.3433  0.0268  0.9388
 
              Baa    -0.1814    -7.438    -2.654    -2.481 -0.3098 -0.3669  0.8772
    80 S(33)  Bbb     0.0813     3.333     1.189     1.112  0.9439 -0.0075  0.3302
              Bcc     0.1001     4.105     1.465     1.369 -0.1146  0.9302  0.3486
 
              Baa    -0.0166    -8.864    -3.163    -2.957  0.1866  0.8478  0.4964
    81 H(1)   Bbb    -0.0148    -7.879    -2.811    -2.628  0.9758 -0.1014 -0.1935
              Bcc     0.0314    16.743     5.974     5.585  0.1137 -0.5205  0.8462
 

 ---------------------------------------------------------------------------------

 Unable to Open any file for archive entry.
 1\1\GINC-BGN1015\SP\UAPFD\Gen\C35H38Fe1N6S1(1+,2)\BEBJONES\18-Nov-2024
 \0\\# apfd/gen scf=maxcycle=999 geom=check\\4hpc_III_D\\1,2\Fe,0,15.00
 8,24.942,-16.064\N,0,16.628,26.011,-16.677\N,0,16.258,23.554,-15.251\N
 ,0,13.408,23.899,-15.384\N,0,13.799,26.35,-16.865\C,0,16.612,27.228,-1
 7.337\C,0,17.959,27.575,-17.713\C,0,18.759,26.594,-17.299\C,0,17.946,2
 5.596,-16.633\C,0,17.641,23.521,-15.36\C,0,18.125,22.376,-14.609\C,0,1
 7.059,21.759,-14.099\C,0,15.871,22.482,-14.481\C,0,13.438,22.738,-14.6
 36\C,0,12.076,22.282,-14.435\C,0,11.26,23.13,-15.086\C,0,12.085,24.161
 ,-15.674\C,0,12.404,26.294,-16.831\C,0,11.865,27.536,-17.33\C,0,13.066
 ,28.382,-17.694\C,0,14.215,27.576,-17.378\C,0,15.504,27.988,-17.581\H,
 0,15.658,28.996,-17.965\C,0,18.403,24.425,-16.063\H,0,19.462,24.196,-1
 6.18\C,0,14.577,22.143,-14.14\H,0,14.446,21.337,-13.418\C,0,11.635,25.
 245,-16.398\H,0,10.574,25.27,-16.648\C,0,20.29,26.531,-17.49\H,0,20.68
 1,27.552,-17.69\H,0,20.534,25.876,-18.354\H,0,20.767,26.136,-16.568\C,
 0,18.377,28.849,-18.482\H,0,18.6,29.662,-17.759\H,0,17.549,29.175,-19.
 147\H,0,19.288,28.642,-19.084\C,0,19.599,21.946,-14.445\H,0,19.978,22.
 289,-13.458\H,0,20.215,22.406,-15.247\H,0,19.675,20.839,-14.495\C,0,17
 .031,20.518,-13.189\H,0,16.309,19.706,-13.359\C,0,17.896,20.417,-12.17
 2\H,0,18.628,21.215,-11.981\H,0,17.885,19.535,-11.515\C,0,11.693,20.99
 9,-13.653\H,0,11.371,21.273,-12.626\H,0,12.572,20.323,-13.586\H,0,10.8
 55,20.482,-14.168\C,0,9.715,23.127,-15.204\H,0,9.233,23.631,-16.054\C,
 0,8.927,22.533,-14.31\H,0,9.36,22.015,-13.441\H,0,7.834,22.553,-14.429
 \C,0,10.394,27.951,-17.473\H,0,9.86,27.76,-16.518\H,0,9.913,27.357,-18
 .28\H,0,10.331,29.035,-17.71\C,0,13.054,29.813,-18.261\H,0,13.256,30.5
 38,-17.443\H,0,12.058,30.034,-18.701\H,0,13.843,29.916,-19.036\C,0,16.
 582,28.169,-11.782\H,0,17.65,27.869,-11.844\H,0,16.226,28.018,-10.741\
 H,0,16.492,29.24,-12.063\N,0,14.401,27.446,-12.85\H,0,13.832,28.062,-1
 2.305\C,0,15.77,27.328,-12.722\C,0,13.975,26.624,-13.796\H,0,12.933,26
 .509,-14.093\N,0,15.021,25.991,-14.295\C,0,16.155,26.421,-13.649\H,0,1
 7.133,26.038,-13.912\C,0,16.357,24.064,-19.145\H,0,17.315,23.767,-18.6
 67\H,0,16.431,25.137,-19.422\H,0,16.232,23.458,-20.068\S,0,14.943,23.7
 99,-18.02\H,0,15.639,23.123,-17.118\\Version=ES64L-G16RevC.02\State=2-
 A\HF=-3345.3576479\S2=0.808293\S2-1=0.\S2A=0.751091\RMSD=1.957e-09\Dip
 ole=0.2839346,1.3173123,0.8558674\Quadrupole=6.9888319,1.7384503,-8.72
 72822,-3.6169816,-5.1616791,-5.0279502\PG=C01 [X(C35H38Fe1N6S1)]\\@
 The archive entry for this job was punched.


 If your ship doesn't come in, swim out to it!
                          -- Jonathan Winters
 Job cpu time:       0 days  5 hours  9 minutes 14.2 seconds.
 Elapsed time:       0 days  0 hours  5 minutes 15.5 seconds.
 File lengths (MBytes):  RWF=    458 Int=      0 D2E=      0 Chk=    155 Scr=      1
 Normal termination of Gaussian 16 at Mon Nov 18 18:29:41 2024.
   -- OSCAR WILDE
 Job cpu time:       0 days  5 hours  5 minutes 44.0 seconds.
 Elapsed time:       0 days  0 hours  5 minutes 12.6 seconds.
 File lengths (MBytes):  RWF=    458 Int=      0 D2E=      0 Chk=    155 Scr=      1
 Normal termination of Gaussian 16 at Mon Nov 18 18:29:39 2024.
