 Entering Gaussian System, Link 0=g16
 Input=4ict01.com
 Output=4ict01.log
 Initial command:
 /sw/chem/gaussian/g16_C02/a100/g16/l1.exe "/local/bebjones_8087500/Gau-1729048.inp" -scrdir="/local/bebjones_8087500/"
 Entering Link 1 = /sw/chem/gaussian/g16_C02/a100/g16/l1.exe PID=   1729049.
  
 Copyright (c) 1988-2021, Gaussian, Inc.  All Rights Reserved.
  
 This is part of the Gaussian(R) 16 program.  It is based on
 the Gaussian(R) 09 system (copyright 2009, Gaussian, Inc.),
 the Gaussian(R) 03 system (copyright 2003, Gaussian, Inc.),
 the Gaussian(R) 98 system (copyright 1998, Gaussian, Inc.),
 the Gaussian(R) 94 system (copyright 1995, Gaussian, Inc.),
 the Gaussian 92(TM) system (copyright 1992, Gaussian, Inc.),
 the Gaussian 90(TM) system (copyright 1990, Gaussian, Inc.),
 the Gaussian 88(TM) system (copyright 1988, Gaussian, Inc.),
 the Gaussian 86(TM) system (copyright 1986, Carnegie Mellon
 University), and the Gaussian 82(TM) system (copyright 1983,
 Carnegie Mellon University). Gaussian is a federally registered
 trademark of Gaussian, Inc.
  
 This software contains proprietary and confidential information,
 including trade secrets, belonging to Gaussian, Inc.
  
 This software is provided under written license and may be
 used, copied, transmitted, or stored only in accord with that
 written license.
  
 The following legend is applicable only to US Government
 contracts under FAR:
  
                    RESTRICTED RIGHTS LEGEND
  
 Use, reproduction and disclosure by the US Government is
 subject to restrictions as set forth in subparagraphs (a)
 and (c) of the Commercial Computer Software - Restricted
 Rights clause in FAR 52.227-19.
  
 Gaussian, Inc.
 340 Quinnipiac St., Bldg. 40, Wallingford CT 06492
  
  
 ---------------------------------------------------------------
 Warning -- This program may not be used in any manner that
 competes with the business of Gaussian, Inc. or will provide
 assistance to any competitor of Gaussian, Inc.  The licensee
 of this program is prohibited from giving any competitor of
 Gaussian, Inc. access to this program.  By using this program,
 the user acknowledges that Gaussian, Inc. is engaged in the
 business of creating and licensing software in the field of
 computational chemistry and represents and warrants to the
 licensee that it is not a competitor of Gaussian, Inc. and that
 it will not use this program in any manner prohibited above.
 ---------------------------------------------------------------
  

 Cite this work as:
 Gaussian 16, Revision C.02,
 M. J. Frisch, G. W. Trucks, H. B. Schlegel, G. E. Scuseria, 
 M. A. Robb, J. R. Cheeseman, G. Scalmani, V. Barone, 
 G. A. Petersson, H. Nakatsuji, X. Li, M. Caricato, A. V. Marenich, 
 J. Bloino, B. G. Janesko, R. Gomperts, B. Mennucci, H. P. Hratchian, 
 J. V. Ortiz, A. F. Izmaylov, J. L. Sonnenberg, D. Williams-Young, 
 F. Ding, F. Lipparini, F. Egidi, J. Goings, B. Peng, A. Petrone, 
 T. Henderson, D. Ranasinghe, V. G. Zakrzewski, J. Gao, N. Rega, 
 G. Zheng, W. Liang, M. Hada, M. Ehara, K. Toyota, R. Fukuda, 
 J. Hasegawa, M. Ishida, T. Nakajima, Y. Honda, O. Kitao, H. Nakai, 
 T. Vreven, K. Throssell, J. A. Montgomery, Jr., J. E. Peralta, 
 F. Ogliaro, M. J. Bearpark, J. J. Heyd, E. N. Brothers, K. N. Kudin, 
 V. N. Staroverov, T. A. Keith, R. Kobayashi, J. Normand, 
 K. Raghavachari, A. P. Rendell, J. C. Burant, S. S. Iyengar, 
 J. Tomasi, M. Cossi, J. M. Millam, M. Klene, C. Adamo, R. Cammi, 
 J. W. Ochterski, R. L. Martin, K. Morokuma, O. Farkas, 
 J. B. Foresman, and D. J. Fox, Gaussian, Inc., Wallingford CT, 2019.
 
 ******************************************
 Gaussian 16:  ES64L-G16RevC.02  7-Dec-2021
                18-Nov-2024 
 ******************************************
 %mem=16GB
 %CPU=0-71
 SetSPE:  set environment variable "OMP_PROC_BIND" = "true"
 SetSPE:  set environment variable "OMP_PLACES" = "{0},{1},{2},{3},{4},{5},{6},{7},{8},{9},{10},{11},{12},{13},{14},{15},{16},{17},{18},{19},{20},{21},{22},{23},{24},{25},{26},{27},{28},{29},{30},{31},{32},{33},{34},{35},{36},{37},{38},{39},{40},{41},{42},{43},{44},{45},{46},{47},{48},{49},{50},{51},{52},{53},{54},{55},{56},{57},{58},{59},{60},{61},{62},{63},{64},{65},{66},{67},{68},{69},{70},{71}"
 Will use up to   72 processors via shared memory.
 %gpucpu=0,1,2,3=0,1,2,3
 Will use    4 GPUs:
 Thread  CPU   GPU
      0    0     0
      1    1     1
      2    2     2
      3    3     3
      4    4    -1
      5    5    -1
      6    6    -1
      7    7    -1
      8    8    -1
      9    9    -1
     10   10    -1
     11   11    -1
     12   12    -1
     13   13    -1
     14   14    -1
     15   15    -1
     16   16    -1
     17   17    -1
     18   18    -1
     19   19    -1
     20   20    -1
     21   21    -1
     22   22    -1
     23   23    -1
     24   24    -1
     25   25    -1
     26   26    -1
     27   27    -1
     28   28    -1
     29   29    -1
     30   30    -1
     31   31    -1
     32   32    -1
     33   33    -1
     34   34    -1
     35   35    -1
     36   36    -1
     37   37    -1
     38   38    -1
     39   39    -1
     40   40    -1
     41   41    -1
     42   42    -1
     43   43    -1
     44   44    -1
     45   45    -1
     46   46    -1
     47   47    -1
     48   48    -1
     49   49    -1
     50   50    -1
     51   51    -1
     52   52    -1
     53   53    -1
     54   54    -1
     55   55    -1
     56   56    -1
     57   57    -1
     58   58    -1
     59   59    -1
     60   60    -1
     61   61    -1
     62   62    -1
     63   63    -1
     64   64    -1
     65   65    -1
     66   66    -1
     67   67    -1
     68   68    -1
     69   69    -1
     70   70    -1
     71   71    -1
 SetGPE:  set environment variable "OMP_PROC_BIND" = "true"
 SetGPE:  set environment variable "OMP_PLACES" = "{0},{1},{2},{3},{4},{5},{6},{7},{8},{9},{10},{11},{12},{13},{14},{15},{16},{17},{18},{19},{20},{21},{22},{23},{24},{25},{26},{27},{28},{29},{30},{31},{32},{33},{34},{35},{36},{37},{38},{39},{40},{41},{42},{43},{44},{45},{46},{47},{48},{49},{50},{51},{52},{53},{54},{55},{56},{57},{58},{59},{60},{61},{62},{63},{64},{65},{66},{67},{68},{69},{70},{71}"
 %chk=4ict_II_O.chk
 Properties for Device   0
 Minimum vector length:                              32
 Maximum vector length:                            1024
 Number of SMPs:                                    108
 Maximum number of threads per SMP:                2048
 Number of ASync Engines:                             5
 Memory:                                           9207742464
 Properties for Device   1
 Minimum vector length:                              32
 Maximum vector length:                            1024
 Number of SMPs:                                    108
 Maximum number of threads per SMP:                2048
 Number of ASync Engines:                             5
 Memory:                                           9207742464
 Properties for Device   2
 Minimum vector length:                              32
 Maximum vector length:                            1024
 Number of SMPs:                                    108
 Maximum number of threads per SMP:                2048
 Number of ASync Engines:                             5
 Memory:                                           9207742464
 Properties for Device   3
 Minimum vector length:                              32
 Maximum vector length:                            1024
 Number of SMPs:                                    108
 Maximum number of threads per SMP:                2048
 Number of ASync Engines:                             5
 Memory:                                           9207742464
   8286968217 words of memory will be used on each GPU.
 ------------------------------------------
 # polar def2tzvp apfd int=(grid=ultrafine)
 ------------------------------------------
 1/38=1,172=1/1;
 2/12=2,17=6,18=5,40=1/2;
 3/5=44,7=101,11=2,25=1,30=1,74=-44,75=-5/1,2,3;
 4//1;
 5/5=2,38=5,98=1/2;
 8/6=4,10=90,11=11/1;
 10/6=1,13=10/2;
 6/7=2,8=2,9=2,10=2,28=1/1;
 99/5=1,9=1/99;
 ---------
 4ict_II_S
 ---------
 Symbolic Z-matrix:
 Charge =  0 Multiplicity = 1
 Fe                    6.09445   24.50564  -7.51954 
 N                     4.40334   23.45985  -7.24526 
 N                     5.76312   24.58903  -9.45904 
 N                     7.90859   25.33006  -7.756 
 N                     6.56165   24.16119  -5.58813 
 C                     3.82675   23.12285  -6.06325 
 C                     2.50439   22.58173  -6.27733 
 C                     2.29381   22.60297  -7.62208 
 C                     3.48942   23.16095  -8.21103 
 C                     4.73685   24.01792  -10.14793 
 C                     4.84675   24.29996  -11.55568 
 C                     5.96458   25.07747  -11.70675 
 C                     6.52617   25.23478  -10.37916 
 C                     8.28992   26.029   -8.86288 
 C                     9.48459   26.78934  -8.60419 
 C                     9.83681   26.51873  -7.30764 
 C                     8.82336   25.61606  -6.79964 
 C                     7.73662   24.43219  -4.96169 
 C                     7.68427   24.02833  -3.57217 
 C                     6.43444   23.53874  -3.36578 
 C                     5.75072   23.62463  -4.63896 
 C                     4.45145   23.19781  -4.83305 
 H                     3.9017    22.85468  -3.97064 
 C                     3.66904   23.35004  -9.56916 
 H                     2.88557   23.00273  -10.22508 
 C                     7.67025   25.95735  -10.09915 
 H                     8.12943   26.49457  -10.91478 
 C                     8.81372   25.09038  -5.52091 
 H                     9.66373   25.28704  -4.88647 
 C                     1.10258   22.15831  -8.39873 
 H                     0.31988   21.80065  -7.73459 
 H                     1.36874   21.34998  -9.08044 
 H                     0.70171   22.98106  -8.99106 
 C                     1.60582   22.11195  -5.18588 
 H                     1.44082   22.90594  -4.45764 
 H                     2.04915   21.26304  -4.66447 
 H                     0.64186   21.80351  -5.58283 
 C                     3.93668   23.76669  -12.60601 
 H                     3.03525   24.37667  -12.68869 
 H                     3.6338    22.74754  -12.37035 
 H                     4.44007   23.76741  -13.57064 
 C                     6.54098   25.62647  -12.91426 
 H                     7.62202   25.70099  -12.92388 
 C                     5.85609   26.03993  -13.97542 
 H                     4.78039   26.03256  -14.00258 
 H                     6.35232   26.42698  -14.84976 
 C                     10.12948   27.72402  -9.56666 
 H                     9.3815    28.22268  -10.18108 
 H                     10.81159   27.19011  -10.23053 
 H                     10.69804   28.47925  -9.02773 
 C                     10.94182   27.03167  -6.52911 
 H                     10.75357   27.13568  -5.46717 
 C                     12.13554   27.36809  -7.00722 
 H                     12.39568   27.24358  -8.04361 
 H                     12.90811   27.75827  -6.36566 
 C                     8.81586   24.16787  -2.6135 
 H                     9.04843   25.2201  -2.44693 
 H                     9.70996   23.68109  -3.00238 
 H                     8.56829   23.71747  -1.65545 
 C                     5.82466   22.99432  -2.12025 
 H                     4.94517   23.57434  -1.84022 
 H                     6.53303   23.02882  -1.29638 
 H                     5.51543   21.9589  -2.26509 
 O                     6.975     22.478   -7.923 
 H                     6.24      21.876   -7.807 
 H                     7.817     22.253   -8.101 
 C                     3.43276   26.54041  -7.80042 
 H                     2.82557   25.99117  -7.08902 
 H                     3.44113   26.02151  -8.75281 
 H                     3.06196   27.55515  -7.90459 
 S                     5.12587   26.58776  -7.11093 
 H                     5.64981   27.26552  -8.13999 
 
 Stoichiometry    C31H34FeN4OS
 Framework group  C1[X(C31H34FeN4OS)]
 Deg. of freedom   210
 Full point group                 C1      NOp   1
 Largest Abelian subgroup         C1      NOp   1
 Largest concise Abelian subgroup C1      NOp   1
                         Standard orientation:                         
 ---------------------------------------------------------------------
 Center     Atomic      Atomic             Coordinates (Angstroms)
 Number     Number       Type             X           Y           Z
 ---------------------------------------------------------------------
      1         26           0       -0.017658   -0.171651   -0.080282
      2          7           0       -1.571965   -1.436648   -0.192772
      3          7           0       -1.224498    1.373915   -0.262399
      4          7           0        1.590698    1.021525   -0.207567
      5          7           0        1.219285   -1.760885   -0.187764
      6          6           0       -1.557019   -2.778836    0.010938
      7          6           0       -2.903161   -3.299342    0.076112
      8          6           0       -3.735049   -2.234754   -0.090545
      9          6           0       -2.885261   -1.077283   -0.251152
     10          6           0       -2.572673    1.352540   -0.451925
     11          6           0       -3.097022    2.690387   -0.544839
     12          6           0       -2.029227    3.534419   -0.388887
     13          6           0       -0.866374    2.683943   -0.224314
     14          6           0        1.560038    2.367771    0.006461
     15          6           0        2.888514    2.887991    0.198274
     16          6           0        3.738808    1.820248    0.074717
     17          6           0        2.896225    0.665423   -0.162777
     18          6           0        2.569629   -1.747657   -0.338831
     19          6           0        3.096082   -3.095857   -0.381464
     20          6           0        2.032650   -3.924235   -0.216297
     21          6           0        0.868607   -3.070972   -0.103355
     22          6           0       -0.415092   -3.555529    0.055647
     23          1           0       -0.538310   -4.620434    0.176134
     24          6           0       -3.355446    0.208650   -0.445718
     25          1           0       -4.422923    0.336346   -0.539799
     26          6           0        0.420190    3.152739   -0.038822
     27          1           0        0.549752    4.219602    0.059827
     28          6           0        3.366820   -0.620555   -0.353547
     29          1           0        4.433652   -0.763686   -0.424842
     30          6           0       -5.224247   -2.194498   -0.115102
     31          1           0       -5.640327   -3.184347    0.054276
     32          1           0       -5.582560   -1.833118   -1.079462
     33          1           0       -5.602816   -1.525382    0.657846
     34          6           0       -3.235317   -4.736226    0.286859
     35          1           0       -2.775518   -5.104801    1.203758
     36          1           0       -2.864890   -5.339825   -0.542299
     37          1           0       -4.310581   -4.879114    0.359739
     38          6           0       -4.518109    3.031834   -0.827175
     39          1           0       -5.116009    3.002439    0.085594
     40          1           0       -4.949197    2.325974   -1.535592
     41          1           0       -4.584294    4.033246   -1.247559
     42          6           0       -1.994499    4.980080   -0.412556
     43          1           0       -1.093856    5.419041   -0.825402
     44          6           0       -2.957980    5.780786    0.030933
     45          1           0       -3.852696    5.400828    0.492496
     46          1           0       -2.871465    6.852844   -0.030081
     47          6           0        3.214224    4.301613    0.532080
     48          1           0        2.445556    4.734875    1.170124
     49          1           0        3.285539    4.908815   -0.371955
     50          1           0        4.168328    4.350564    1.053020
     51          6           0        5.178587    1.772757    0.197282
     52          1           0        5.581376    0.846962    0.590529
     53          6           0        6.016449    2.750263   -0.133168
     54          1           0        5.679035    3.673307   -0.570693
     55          1           0        7.080547    2.647227    0.000195
     56          6           0        4.536794   -3.429956   -0.559624
     57          1           0        5.119394   -3.076832    0.291789
     58          1           0        4.931437   -2.957713   -1.458985
     59          1           0        4.676287   -4.504697   -0.646146
     60          6           0        1.990827   -5.412628   -0.166076
     61          1           0        1.581686   -5.751504    0.785817
     62          1           0        2.987952   -5.831013   -0.277538
     63          1           0        1.361295   -5.806088   -0.964551
     64          8           0       -0.095321   -0.288426   -2.323006
     65          1           0       -0.815905   -0.892589   -2.501413
     66          1           0        0.438326    0.087809   -2.927110
     67          6           0       -1.732447   -0.137024    2.811437
     68          1           0       -2.038137   -1.175634    2.745921
     69          1           0       -2.350213    0.468885    2.157532
     70          1           0       -1.788076    0.205661    3.839796
     71         16           0        0.006668   -0.070862    2.249866
     72          1           0        0.124853    1.254543    2.398680
 ---------------------------------------------------------------------
 Rotational constants (GHZ):           0.1091923           0.1072182           0.0598350
 Standard basis: def2TZVP (5D, 7F)
 There are  1594 symmetry adapted cartesian basis functions of A   symmetry.
 There are  1402 symmetry adapted basis functions of A   symmetry.
  1402 basis functions,  2279 primitive gaussians,  1594 cartesian basis functions
   149 alpha electrons      149 beta electrons
       nuclear repulsion energy      5418.3252543302 Hartrees.
 NAtoms=   72 NActive=   72 NUniq=   72 SFac= 1.00D+00 NAtFMM=   60 NAOKFM=T Big=T
 Integral buffers will be    131072 words long.
 Raffenetti 2 integral format.
 Two-electron integral symmetry is turned on.
 R6APFD:  NTU= -4 IXU= 1 FactS= 1.050
 Nuclear repulsion after empirical dispersion term =     5418.1727639103 Hartrees.
 One-electron integrals computed using PRISM.
   1 Symmetry operations used in ECPInt.
 ECPInt:  NShTT=  157080 NPrTT=  488567 LenC2=  124746 LenP2D=  258888.
 LDataN:  DoStor=T MaxTD1= 6 Len=  172
 Number of processors reduced to  25 by ecpmxn.
 NBasis=  1402 RedAO= T EigKep=  3.41D-06  NBF=  1402
 NBsUse=  1402 1.00D-06 EigRej= -1.00D+00 NBFU=  1402
 ExpMin= 4.20D-02 ExpMax= 3.01D+05 ExpMxC= 2.91D+03 IAcc=3 IRadAn=         5 AccDes= 0.00D+00
 Harris functional with IExCor= 3731 and IRadAn=       5 diagonalized for initial guess.
 HarFok:  IExCor= 3731 AccDes= 0.00D+00 IRadAn=         5 IDoV= 1 UseB2=F ITyADJ=14
 ICtDFT=  3500011 ScaDFX=  1.000000  1.000000  1.000000  1.000000
 FoFCou: FMM=F IPFlag=           0 FMFlag=      100000 FMFlg1=        2001
         NFxFlg=           0 DoJE=T BraDBF=F KetDBF=T FulRan=T
         wScrn=  0.000000 ICntrl=       500 IOpCl=  0 I1Cent=   200000004 NGrid=           0
         NMat0=    1 NMatS0=      1 NMatT0=    0 NMatD0=    1 NMtDS0=    0 NMtDT0=    0
 Petite list used in FoFCou.
 Requested convergence on RMS density matrix=1.00D-08 within 128 cycles.
 Requested convergence on MAX density matrix=1.00D-06.
 Requested convergence on             energy=1.00D-06.
 No special actions if energy rises.
 EnCoef did     2 forward-backward iterations
 EnCoef did   100 forward-backward iterations
 EnCoef did   100 forward-backward iterations
 EnCoef did   100 forward-backward iterations
 EnCoef did     3 forward-backward iterations
 Restarting incremental Fock formation.
 SCF Done:  E(RAPFD) =  -3157.19332204     A.U. after   28 cycles
            NFock= 28  Conv=0.17D-08     -V/T= 2.0031
 DoSCS=F DFT=T ScalE2(SS,OS)=  1.000000  1.000000
 Range of M.O.s used for correlation:     1  1402
 NBasis=  1402 NAE=   149 NBE=   149 NFC=     0 NFV=     0
 NROrb=   1402 NOA=   149 NOB=   149 NVA=  1253 NVB=  1253

 **** Warning!!: The largest alpha MO coefficient is  0.55334445D+02

          Differentiating once with respect to electric field.
                with respect to dipole field.
          Electric field/nuclear overlap derivatives assumed to be zero.
          There are     3 degrees of freedom in the 1st order CPHF.  IDoFFX=0 NUNeed=     3.
      3 vectors produced by pass  0 Test12= 6.22D-12 3.33D-08 XBig12= 1.85D+03 2.17D+01.
 AX will form     3 AO Fock derivatives at one time.
      3 vectors produced by pass  1 Test12= 6.22D-12 3.33D-08 XBig12= 1.19D+03 7.54D+00.
      3 vectors produced by pass  2 Test12= 6.22D-12 3.33D-08 XBig12= 4.58D+02 4.91D+00.
      3 vectors produced by pass  3 Test12= 6.22D-12 3.33D-08 XBig12= 2.93D+02 3.97D+00.
      3 vectors produced by pass  4 Test12= 6.22D-12 3.33D-08 XBig12= 1.65D+02 2.46D+00.
      3 vectors produced by pass  5 Test12= 6.22D-12 3.33D-08 XBig12= 8.07D+01 2.61D+00.
      3 vectors produced by pass  6 Test12= 6.22D-12 3.33D-08 XBig12= 6.00D+01 2.92D+00.
      3 vectors produced by pass  7 Test12= 6.22D-12 3.33D-08 XBig12= 4.28D+01 2.72D+00.
      3 vectors produced by pass  8 Test12= 6.22D-12 3.33D-08 XBig12= 1.98D+01 1.17D+00.
      3 vectors produced by pass  9 Test12= 6.22D-12 3.33D-08 XBig12= 1.16D+01 7.46D-01.
      3 vectors produced by pass 10 Test12= 6.22D-12 3.33D-08 XBig12= 5.39D+00 5.68D-01.
      3 vectors produced by pass 11 Test12= 6.22D-12 3.33D-08 XBig12= 1.96D+00 3.19D-01.
      3 vectors produced by pass 12 Test12= 6.22D-12 3.33D-08 XBig12= 4.97D-01 1.31D-01.
      3 vectors produced by pass 13 Test12= 6.22D-12 3.33D-08 XBig12= 9.93D-02 4.87D-02.
      3 vectors produced by pass 14 Test12= 6.22D-12 3.33D-08 XBig12= 1.97D-02 2.99D-02.
      3 vectors produced by pass 15 Test12= 6.22D-12 3.33D-08 XBig12= 7.46D-03 1.89D-02.
      3 vectors produced by pass 16 Test12= 6.22D-12 3.33D-08 XBig12= 2.42D-03 1.09D-02.
      3 vectors produced by pass 17 Test12= 6.22D-12 3.33D-08 XBig12= 6.06D-04 4.27D-03.
      3 vectors produced by pass 18 Test12= 6.22D-12 3.33D-08 XBig12= 1.32D-04 1.87D-03.
      3 vectors produced by pass 19 Test12= 6.22D-12 3.33D-08 XBig12= 3.16D-05 1.22D-03.
      3 vectors produced by pass 20 Test12= 6.22D-12 3.33D-08 XBig12= 8.95D-06 7.00D-04.
      3 vectors produced by pass 21 Test12= 6.22D-12 3.33D-08 XBig12= 1.66D-06 3.06D-04.
      3 vectors produced by pass 22 Test12= 6.22D-12 3.33D-08 XBig12= 2.67D-07 9.75D-05.
      3 vectors produced by pass 23 Test12= 6.22D-12 3.33D-08 XBig12= 5.86D-08 6.37D-05.
      3 vectors produced by pass 24 Test12= 6.22D-12 3.33D-08 XBig12= 1.09D-08 1.47D-05.
      3 vectors produced by pass 25 Test12= 6.22D-12 3.33D-08 XBig12= 1.58D-09 6.43D-06.
      3 vectors produced by pass 26 Test12= 6.22D-12 3.33D-08 XBig12= 1.67D-10 2.52D-06.
      3 vectors produced by pass 27 Test12= 6.22D-12 3.33D-08 XBig12= 1.75D-11 4.68D-07.
      3 vectors produced by pass 28 Test12= 6.22D-12 3.33D-08 XBig12= 4.74D-12 3.93D-07.
      3 vectors produced by pass 29 Test12= 6.22D-12 3.33D-08 XBig12= 7.06D-13 1.43D-07.
      2 vectors produced by pass 30 Test12= 6.22D-12 3.33D-08 XBig12= 7.87D-14 5.44D-08.
 InvSVY:  IOpt=1 It=  1 EMax= 2.13D-14
 Solved reduced A of dimension    92 with     3 vectors.
 Isotropic polarizability for W=    0.000000      549.77 Bohr**3.
 End of Minotr F.D. properties file   721 does not exist.
 End of Minotr F.D. properties file   722 does not exist.
 End of Minotr F.D. properties file   788 does not exist.

 **********************************************************************

            Population analysis using the SCF Density.

 **********************************************************************

 Orbital symmetries:
       Occupied  (A) (A) (A) (A) (A) (A) (A) (A) (A) (A) (A) (A)
                 (A) (A) (A) (A) (A) (A) (A) (A) (A) (A) (A) (A)
                 (A) (A) (A) (A) (A) (A) (A) (A) (A) (A) (A) (A)
                 (A) (A) (A) (A) (A) (A) (A) (A) (A) (A) (A) (A)
                 (A) (A) (A) (A) (A) (A) (A) (A) (A) (A) (A) (A)
                 (A) (A) (A) (A) (A) (A) (A) (A) (A) (A) (A) (A)
                 (A) (A) (A) (A) (A) (A) (A) (A) (A) (A) (A) (A)
                 (A) (A) (A) (A) (A) (A) (A) (A) (A) (A) (A) (A)
                 (A) (A) (A) (A) (A) (A) (A) (A) (A) (A) (A) (A)
                 (A) (A) (A) (A) (A) (A) (A) (A) (A) (A) (A) (A)
                 (A) (A) (A) (A) (A) (A) (A) (A) (A) (A) (A) (A)
                 (A) (A) (A) (A) (A) (A) (A) (A) (A) (A) (A) (A)
                 (A) (A) (A) (A) (A)
       Virtual   (A) (A) (A) (A) (A) (A) (A) (A) (A) (A) (A) (A)
                 (A) (A) (A) (A) (A) (A) (A) (A) (A) (A) (A) (A)
                 (A) (A) (A) (A) (A) (A) (A) (A) (A) (A) (A) (A)
                 (A) (A) (A) (A) (A) (A) (A) (A) (A) (A) (A) (A)
                 (A) (A) (A) (A) (A) (A) (A) (A) (A) (A) (A) (A)
                 (A) (A) (A) (A) (A) (A) (A) (A) (A) (A) (A) (A)
                 (A) (A) (A) (A) (A) (A) (A) (A) (A) (A) (A) (A)
                 (A) (A) (A) (A) (A) (A) (A) (A) (A) (A) (A) (A)
                 (A) (A) (A) (A) (A) (A) (A) (A) (A) (A) (A) (A)
                 (A) (A) (A) (A) (A) (A) (A) (A) (A) (A) (A) (A)
                 (A) (A) (A) (A) (A) (A) (A) (A) (A) (A) (A) (A)
                 (A) (A) (A) (A) (A) (A) (A) (A) (A) (A) (A) (A)
                 (A) (A) (A) (A) (A) (A) (A) (A) (A) (A) (A) (A)
                 (A) (A) (A) (A) (A) (A) (A) (A) (A) (A) (A) (A)
                 (A) (A) (A) (A) (A) (A) (A) (A) (A) (A) (A) (A)
                 (A) (A) (A) (A) (A) (A) (A) (A) (A) (A) (A) (A)
                 (A) (A) (A) (A) (A) (A) (A) (A) (A) (A) (A) (A)
                 (A) (A) (A) (A) (A) (A) (A) (A) (A) (A) (A) (A)
                 (A) (A) (A) (A) (A) (A) (A) (A) (A) (A) (A) (A)
                 (A) (A) (A) (A) (A) (A) (A) (A) (A) (A) (A) (A)
                 (A) (A) (A) (A) (A) (A) (A) (A) (A) (A) (A) (A)
                 (A) (A) (A) (A) (A) (A) (A) (A) (A) (A) (A) (A)
                 (A) (A) (A) (A) (A) (A) (A) (A) (A) (A) (A) (A)
                 (A) (A) (A) (A) (A) (A) (A) (A) (A) (A) (A) (A)
                 (A) (A) (A) (A) (A) (A) (A) (A) (A) (A) (A) (A)
                 (A) (A) (A) (A) (A) (A) (A) (A) (A) (A) (A) (A)
                 (A) (A) (A) (A) (A) (A) (A) (A) (A) (A) (A) (A)
                 (A) (A) (A) (A) (A) (A) (A) (A) (A) (A) (A) (A)
                 (A) (A) (A) (A) (A) (A) (A) (A) (A) (A) (A) (A)
                 (A) (A) (A) (A) (A) (A) (A) (A) (A) (A) (A) (A)
                 (A) (A) (A) (A) (A) (A) (A) (A) (A) (A) (A) (A)
                 (A) (A) (A) (A) (A) (A) (A) (A) (A) (A) (A) (A)
                 (A) (A) (A) (A) (A) (A) (A) (A) (A) (A) (A) (A)
                 (A) (A) (A) (A) (A) (A) (A) (A) (A) (A) (A) (A)
                 (A) (A) (A) (A) (A) (A) (A) (A) (A) (A) (A) (A)
                 (A) (A) (A) (A) (A) (A) (A) (A) (A) (A) (A) (A)
                 (A) (A) (A) (A) (A) (A) (A) (A) (A) (A) (A) (A)
                 (A) (A) (A) (A) (A) (A) (A) (A) (A) (A) (A) (A)
                 (A) (A) (A) (A) (A) (A) (A) (A) (A) (A) (A) (A)
                 (A) (A) (A) (A) (A) (A) (A) (A) (A) (A) (A) (A)
                 (A) (A) (A) (A) (A) (A) (A) (A) (A) (A) (A) (A)
                 (A) (A) (A) (A) (A) (A) (A) (A) (A) (A) (A) (A)
                 (A) (A) (A) (A) (A) (A) (A) (A) (A) (A) (A) (A)
                 (A) (A) (A) (A) (A) (A) (A) (A) (A) (A) (A) (A)
                 (A) (A) (A) (A) (A) (A) (A) (A) (A) (A) (A) (A)
                 (A) (A) (A) (A) (A) (A) (A) (A) (A) (A) (A) (A)
                 (A) (A) (A) (A) (A) (A) (A) (A) (A) (A) (A) (A)
                 (A) (A) (A) (A) (A) (A) (A) (A) (A) (A) (A) (A)
                 (A) (A) (A) (A) (A) (A) (A) (A) (A) (A) (A) (A)
                 (A) (A) (A) (A) (A) (A) (A) (A) (A) (A) (A) (A)
                 (A) (A) (A) (A) (A) (A) (A) (A) (A) (A) (A) (A)
                 (A) (A) (A) (A) (A) (A) (A) (A) (A) (A) (A) (A)
                 (A) (A) (A) (A) (A) (A) (A) (A) (A) (A) (A) (A)
                 (A) (A) (A) (A) (A) (A) (A) (A) (A) (A) (A) (A)
                 (A) (A) (A) (A) (A) (A) (A) (A) (A) (A) (A) (A)
                 (A) (A) (A) (A) (A) (A) (A) (A) (A) (A) (A) (A)
                 (A) (A) (A) (A) (A) (A) (A) (A) (A) (A) (A) (A)
                 (A) (A) (A) (A) (A) (A) (A) (A) (A) (A) (A) (A)
                 (A) (A) (A) (A) (A) (A) (A) (A) (A) (A) (A) (A)
                 (A) (A) (A) (A) (A) (A) (A) (A) (A) (A) (A) (A)
                 (A) (A) (A) (A) (A) (A) (A) (A) (A) (A) (A) (A)
                 (A) (A) (A) (A) (A) (A) (A) (A) (A) (A) (A) (A)
                 (A) (A) (A) (A) (A) (A) (A) (A) (A) (A) (A) (A)
                 (A) (A) (A) (A) (A) (A) (A) (A) (A) (A) (A) (A)
                 (A) (A) (A) (A) (A) (A) (A) (A) (A) (A) (A) (A)
                 (A) (A) (A) (A) (A) (A) (A) (A) (A) (A) (A) (A)
                 (A) (A) (A) (A) (A) (A) (A) (A) (A) (A) (A) (A)
                 (A) (A) (A) (A) (A) (A) (A) (A) (A) (A) (A) (A)
                 (A) (A) (A) (A) (A) (A) (A) (A) (A) (A) (A) (A)
                 (A) (A) (A) (A) (A) (A) (A) (A) (A) (A) (A) (A)
                 (A) (A) (A) (A) (A) (A) (A) (A) (A) (A) (A) (A)
                 (A) (A) (A) (A) (A) (A) (A) (A) (A) (A) (A) (A)
                 (A) (A) (A) (A) (A) (A) (A) (A) (A) (A) (A) (A)
                 (A) (A) (A) (A) (A) (A) (A) (A) (A) (A) (A) (A)
                 (A) (A) (A) (A) (A) (A) (A) (A) (A) (A) (A) (A)
                 (A) (A) (A) (A) (A) (A) (A) (A) (A) (A) (A) (A)
                 (A) (A) (A) (A) (A) (A) (A) (A) (A) (A) (A) (A)
                 (A) (A) (A) (A) (A) (A) (A) (A) (A) (A) (A) (A)
                 (A) (A) (A) (A) (A) (A) (A) (A) (A) (A) (A) (A)
                 (A) (A) (A) (A) (A) (A) (A) (A) (A) (A) (A) (A)
                 (A) (A) (A) (A) (A) (A) (A) (A) (A) (A) (A) (A)
                 (A) (A) (A) (A) (A) (A) (A) (A) (A) (A) (A) (A)
                 (A) (A) (A) (A) (A) (A) (A) (A) (A) (A) (A) (A)
                 (A) (A) (A) (A) (A) (A) (A) (A) (A) (A) (A) (A)
                 (A) (A) (A) (A) (A) (A) (A) (A) (A) (A) (A) (A)
                 (A) (A) (A) (A) (A) (A) (A) (A) (A) (A) (A) (A)
                 (A) (A) (A) (A) (A) (A) (A) (A) (A) (A) (A) (A)
                 (A) (A) (A) (A) (A) (A) (A) (A) (A) (A) (A) (A)
                 (A) (A) (A) (A) (A) (A) (A) (A) (A) (A) (A) (A)
                 (A) (A) (A) (A) (A) (A) (A) (A) (A) (A) (A) (A)
                 (A) (A) (A) (A) (A) (A) (A) (A) (A) (A) (A) (A)
                 (A) (A) (A) (A) (A) (A) (A) (A) (A) (A) (A) (A)
                 (A) (A) (A) (A) (A) (A) (A) (A) (A) (A) (A) (A)
                 (A) (A) (A) (A) (A) (A) (A) (A) (A) (A) (A) (A)
                 (A) (A) (A) (A) (A) (A) (A) (A) (A) (A) (A) (A)
                 (A) (A) (A) (A) (A) (A) (A) (A) (A) (A) (A) (A)
                 (A) (A) (A) (A) (A) (A) (A) (A) (A) (A) (A) (A)
                 (A) (A) (A) (A) (A) (A) (A) (A) (A) (A) (A) (A)
                 (A) (A) (A) (A) (A) (A) (A) (A) (A) (A) (A) (A)
                 (A) (A) (A) (A) (A) (A) (A) (A) (A) (A) (A) (A)
                 (A) (A) (A) (A) (A) (A) (A) (A) (A) (A) (A) (A)
                 (A) (A) (A) (A) (A) (A) (A) (A) (A) (A) (A) (A)
                 (A) (A) (A) (A) (A) (A) (A) (A) (A) (A) (A) (A)
                 (A) (A) (A) (A) (A) (A) (A) (A) (A) (A) (A) (A)
                 (A) (A) (A) (A) (A)
 The electronic state is 1-A.
 Alpha  occ. eigenvalues -- -256.18800 -88.96478 -30.03749 -25.87935 -25.87544
 Alpha  occ. eigenvalues --  -25.87450 -19.17510 -14.34046 -14.34034 -14.33914
 Alpha  occ. eigenvalues --  -14.33526 -10.22048 -10.21540 -10.21513 -10.21487
 Alpha  occ. eigenvalues --  -10.21467 -10.21458 -10.21349 -10.21207 -10.21134
 Alpha  occ. eigenvalues --  -10.19961 -10.19826 -10.19533 -10.19462 -10.19404
 Alpha  occ. eigenvalues --  -10.19328 -10.19256 -10.19209 -10.19115 -10.19060
 Alpha  occ. eigenvalues --  -10.19048 -10.18954 -10.18886 -10.18848 -10.18845
 Alpha  occ. eigenvalues --  -10.18802 -10.18788 -10.18772 -10.18716 -10.18706
 Alpha  occ. eigenvalues --  -10.18553 -10.18443  -7.99227  -5.93796  -5.93513
 Alpha  occ. eigenvalues --   -5.93018  -3.41382  -2.18111  -2.17249  -2.17092
 Alpha  occ. eigenvalues --   -1.05375  -0.97556  -0.96701  -0.96454  -0.95545
 Alpha  occ. eigenvalues --   -0.82791  -0.82323  -0.82006  -0.81316  -0.80782
 Alpha  occ. eigenvalues --   -0.80396  -0.80094  -0.80052  -0.77173  -0.76121
 Alpha  occ. eigenvalues --   -0.74741  -0.74488  -0.73564  -0.71435  -0.70580
 Alpha  occ. eigenvalues --   -0.68788  -0.68364  -0.68214  -0.66509  -0.64667
 Alpha  occ. eigenvalues --   -0.64568  -0.61118  -0.60870  -0.60427  -0.58317
 Alpha  occ. eigenvalues --   -0.57178  -0.54990  -0.54110  -0.53780  -0.53096
 Alpha  occ. eigenvalues --   -0.51613  -0.51532  -0.51031  -0.49261  -0.48312
 Alpha  occ. eigenvalues --   -0.47749  -0.46794  -0.45789  -0.45379  -0.45178
 Alpha  occ. eigenvalues --   -0.44940  -0.44561  -0.44227  -0.43951  -0.43828
 Alpha  occ. eigenvalues --   -0.43547  -0.43376  -0.43142  -0.42809  -0.42284
 Alpha  occ. eigenvalues --   -0.41997  -0.41738  -0.41582  -0.40961  -0.40605
 Alpha  occ. eigenvalues --   -0.40563  -0.40325  -0.40034  -0.39847  -0.39728
 Alpha  occ. eigenvalues --   -0.39520  -0.39078  -0.38810  -0.38232  -0.37969
 Alpha  occ. eigenvalues --   -0.37669  -0.37481  -0.36746  -0.36508  -0.36383
 Alpha  occ. eigenvalues --   -0.35720  -0.34959  -0.34805  -0.34647  -0.34235
 Alpha  occ. eigenvalues --   -0.34168  -0.32351  -0.31823  -0.30698  -0.30243
 Alpha  occ. eigenvalues --   -0.29840  -0.29582  -0.28498  -0.27284  -0.26973
 Alpha  occ. eigenvalues --   -0.24848  -0.24134  -0.23139  -0.22633  -0.20358
 Alpha  occ. eigenvalues --   -0.19102  -0.18923  -0.18776  -0.18371
 Alpha virt. eigenvalues --   -0.07115  -0.07049  -0.02501  -0.00938   0.00188
 Alpha virt. eigenvalues --    0.01183   0.01813   0.03049   0.03925   0.03971
 Alpha virt. eigenvalues --    0.04695   0.05199   0.05481   0.05850   0.06059
 Alpha virt. eigenvalues --    0.06737   0.07379   0.07726   0.08129   0.08176
 Alpha virt. eigenvalues --    0.08594   0.09400   0.09857   0.09918   0.10054
 Alpha virt. eigenvalues --    0.10370   0.10642   0.10932   0.11275   0.11336
 Alpha virt. eigenvalues --    0.11616   0.11894   0.11978   0.12676   0.12872
 Alpha virt. eigenvalues --    0.12911   0.13135   0.13539   0.13667   0.14004
 Alpha virt. eigenvalues --    0.14250   0.14616   0.14748   0.14868   0.15217
 Alpha virt. eigenvalues --    0.15310   0.15608   0.15785   0.15988   0.16350
 Alpha virt. eigenvalues --    0.16426   0.16703   0.16982   0.17250   0.17341
 Alpha virt. eigenvalues --    0.17641   0.18053   0.18360   0.18944   0.19032
 Alpha virt. eigenvalues --    0.19310   0.19710   0.20020   0.20279   0.20333
 Alpha virt. eigenvalues --    0.20767   0.21142   0.21322   0.21865   0.22020
 Alpha virt. eigenvalues --    0.22116   0.22425   0.22789   0.23242   0.23607
 Alpha virt. eigenvalues --    0.24234   0.24370   0.24573   0.25020   0.25386
 Alpha virt. eigenvalues --    0.25759   0.25854   0.26077   0.26529   0.26607
 Alpha virt. eigenvalues --    0.26872   0.27099   0.27754   0.27792   0.28184
 Alpha virt. eigenvalues --    0.28379   0.28670   0.28829   0.29131   0.29237
 Alpha virt. eigenvalues --    0.29312   0.29653   0.29828   0.30145   0.30563
 Alpha virt. eigenvalues --    0.30706   0.31119   0.31298   0.32162   0.32390
 Alpha virt. eigenvalues --    0.32536   0.32592   0.32880   0.33244   0.33517
 Alpha virt. eigenvalues --    0.33859   0.34272   0.34981   0.35414   0.35554
 Alpha virt. eigenvalues --    0.36020   0.36283   0.36442   0.36739   0.37017
 Alpha virt. eigenvalues --    0.37379   0.37665   0.38009   0.38140   0.38475
 Alpha virt. eigenvalues --    0.38614   0.38911   0.39022   0.39332   0.39643
 Alpha virt. eigenvalues --    0.39911   0.40057   0.40153   0.40466   0.40579
 Alpha virt. eigenvalues --    0.40890   0.41092   0.41297   0.41525   0.41835
 Alpha virt. eigenvalues --    0.42023   0.42296   0.42755   0.42865   0.43114
 Alpha virt. eigenvalues --    0.43343   0.43606   0.43716   0.44056   0.44245
 Alpha virt. eigenvalues --    0.44512   0.44601   0.44929   0.45080   0.45332
 Alpha virt. eigenvalues --    0.45999   0.46186   0.46463   0.46506   0.46716
 Alpha virt. eigenvalues --    0.46924   0.47116   0.47245   0.47597   0.47849
 Alpha virt. eigenvalues --    0.48202   0.48458   0.48501   0.48918   0.49191
 Alpha virt. eigenvalues --    0.49466   0.49611   0.49739   0.50130   0.50511
 Alpha virt. eigenvalues --    0.50646   0.51049   0.51236   0.51326   0.51675
 Alpha virt. eigenvalues --    0.52010   0.52094   0.52451   0.52536   0.52716
 Alpha virt. eigenvalues --    0.53032   0.53083   0.53331   0.53763   0.54005
 Alpha virt. eigenvalues --    0.54137   0.54245   0.54763   0.55268   0.55596
 Alpha virt. eigenvalues --    0.55934   0.56139   0.56308   0.57003   0.57365
 Alpha virt. eigenvalues --    0.57530   0.57600   0.58012   0.58260   0.58560
 Alpha virt. eigenvalues --    0.58926   0.59227   0.59588   0.60064   0.60399
 Alpha virt. eigenvalues --    0.60716   0.60772   0.61603   0.61971   0.62208
 Alpha virt. eigenvalues --    0.62510   0.62805   0.63169   0.63379   0.63611
 Alpha virt. eigenvalues --    0.63845   0.64293   0.64590   0.65017   0.65236
 Alpha virt. eigenvalues --    0.65824   0.65983   0.66223   0.66585   0.66907
 Alpha virt. eigenvalues --    0.66976   0.67237   0.67545   0.68105   0.68253
 Alpha virt. eigenvalues --    0.68530   0.69362   0.69636   0.69997   0.70318
 Alpha virt. eigenvalues --    0.70680   0.71013   0.71642   0.71913   0.72261
 Alpha virt. eigenvalues --    0.72362   0.72727   0.72779   0.73187   0.73339
 Alpha virt. eigenvalues --    0.73629   0.74330   0.74372   0.74932   0.75033
 Alpha virt. eigenvalues --    0.75578   0.75771   0.75990   0.76586   0.76763
 Alpha virt. eigenvalues --    0.77340   0.77676   0.78416   0.78628   0.78757
 Alpha virt. eigenvalues --    0.79073   0.79243   0.79381   0.79690   0.80351
 Alpha virt. eigenvalues --    0.80541   0.81073   0.81706   0.81853   0.82180
 Alpha virt. eigenvalues --    0.82791   0.82962   0.83751   0.84234   0.85003
 Alpha virt. eigenvalues --    0.85348   0.85446   0.85804   0.86504   0.86602
 Alpha virt. eigenvalues --    0.86960   0.87538   0.88299   0.88480   0.89148
 Alpha virt. eigenvalues --    0.89330   0.89866   0.90242   0.90383   0.91001
 Alpha virt. eigenvalues --    0.91102   0.91807   0.92076   0.92287   0.92761
 Alpha virt. eigenvalues --    0.93286   0.93321   0.93579   0.94578   0.95235
 Alpha virt. eigenvalues --    0.95390   0.95791   0.96069   0.96267   0.96503
 Alpha virt. eigenvalues --    0.97417   0.97592   0.98150   0.98451   0.98659
 Alpha virt. eigenvalues --    0.99190   0.99420   0.99559   0.99946   1.00735
 Alpha virt. eigenvalues --    1.01076   1.01122   1.01485   1.01970   1.02261
 Alpha virt. eigenvalues --    1.02475   1.02676   1.03142   1.03437   1.03764
 Alpha virt. eigenvalues --    1.03886   1.04051   1.04539   1.05080   1.05412
 Alpha virt. eigenvalues --    1.05741   1.06559   1.06866   1.07027   1.07674
 Alpha virt. eigenvalues --    1.07865   1.08030   1.08921   1.09330   1.09723
 Alpha virt. eigenvalues --    1.09993   1.10719   1.11234   1.11525   1.12118
 Alpha virt. eigenvalues --    1.13034   1.13388   1.13748   1.14424   1.14856
 Alpha virt. eigenvalues --    1.15747   1.16012   1.16157   1.16892   1.17368
 Alpha virt. eigenvalues --    1.18116   1.18372   1.18602   1.18805   1.19398
 Alpha virt. eigenvalues --    1.19830   1.20347   1.20528   1.20873   1.21591
 Alpha virt. eigenvalues --    1.22231   1.22486   1.23405   1.23678   1.24614
 Alpha virt. eigenvalues --    1.24689   1.25162   1.25791   1.26190   1.26545
 Alpha virt. eigenvalues --    1.26799   1.27429   1.27546   1.28179   1.28314
 Alpha virt. eigenvalues --    1.28697   1.28982   1.29331   1.29588   1.29776
 Alpha virt. eigenvalues --    1.30321   1.31007   1.31318   1.32026   1.33324
 Alpha virt. eigenvalues --    1.33756   1.34513   1.35188   1.36522   1.36738
 Alpha virt. eigenvalues --    1.37344   1.37722   1.38286   1.38635   1.39161
 Alpha virt. eigenvalues --    1.40531   1.40933   1.41537   1.41881   1.42175
 Alpha virt. eigenvalues --    1.43063   1.43181   1.43628   1.44964   1.45070
 Alpha virt. eigenvalues --    1.45352   1.46341   1.46549   1.46731   1.46921
 Alpha virt. eigenvalues --    1.47501   1.48129   1.48298   1.48550   1.49135
 Alpha virt. eigenvalues --    1.49295   1.49405   1.49762   1.50435   1.50922
 Alpha virt. eigenvalues --    1.50964   1.51244   1.51733   1.51803   1.52315
 Alpha virt. eigenvalues --    1.52450   1.52585   1.52997   1.53261   1.54113
 Alpha virt. eigenvalues --    1.54265   1.54506   1.54561   1.55165   1.55304
 Alpha virt. eigenvalues --    1.55710   1.55728   1.56053   1.56346   1.56588
 Alpha virt. eigenvalues --    1.56832   1.57054   1.57266   1.57664   1.57704
 Alpha virt. eigenvalues --    1.58173   1.58535   1.58844   1.59328   1.59759
 Alpha virt. eigenvalues --    1.59868   1.60337   1.60623   1.61037   1.61540
 Alpha virt. eigenvalues --    1.61890   1.62155   1.62244   1.62557   1.62864
 Alpha virt. eigenvalues --    1.63335   1.63692   1.64116   1.64316   1.64813
 Alpha virt. eigenvalues --    1.65080   1.65603   1.65835   1.66173   1.66449
 Alpha virt. eigenvalues --    1.66581   1.66936   1.67430   1.67863   1.68065
 Alpha virt. eigenvalues --    1.68589   1.68759   1.68999   1.69339   1.69786
 Alpha virt. eigenvalues --    1.69972   1.70447   1.70555   1.71092   1.71482
 Alpha virt. eigenvalues --    1.72387   1.72509   1.72703   1.72930   1.73766
 Alpha virt. eigenvalues --    1.73994   1.74630   1.75141   1.75517   1.76414
 Alpha virt. eigenvalues --    1.76635   1.76874   1.77640   1.78172   1.78346
 Alpha virt. eigenvalues --    1.79256   1.80118   1.80437   1.80780   1.81618
 Alpha virt. eigenvalues --    1.82333   1.82635   1.82800   1.83381   1.83524
 Alpha virt. eigenvalues --    1.84064   1.84323   1.84977   1.85789   1.86293
 Alpha virt. eigenvalues --    1.86480   1.86970   1.87232   1.87918   1.88534
 Alpha virt. eigenvalues --    1.88901   1.89249   1.89326   1.89960   1.90307
 Alpha virt. eigenvalues --    1.91335   1.91774   1.92017   1.92626   1.93255
 Alpha virt. eigenvalues --    1.93899   1.94405   1.94824   1.95348   1.95633
 Alpha virt. eigenvalues --    1.96443   1.97022   1.97246   1.97646   1.98098
 Alpha virt. eigenvalues --    1.98381   1.99161   1.99593   2.00167   2.00512
 Alpha virt. eigenvalues --    2.00628   2.01081   2.01743   2.01970   2.02576
 Alpha virt. eigenvalues --    2.02921   2.03307   2.03662   2.04642   2.04898
 Alpha virt. eigenvalues --    2.06147   2.07155   2.07266   2.07297   2.08268
 Alpha virt. eigenvalues --    2.08722   2.09134   2.09542   2.09658   2.10144
 Alpha virt. eigenvalues --    2.10991   2.11216   2.11740   2.11880   2.12596
 Alpha virt. eigenvalues --    2.13500   2.13727   2.14007   2.14435   2.14777
 Alpha virt. eigenvalues --    2.15164   2.16155   2.16459   2.17155   2.17946
 Alpha virt. eigenvalues --    2.18707   2.19176   2.19738   2.19912   2.20524
 Alpha virt. eigenvalues --    2.21130   2.21333   2.21649   2.22238   2.22335
 Alpha virt. eigenvalues --    2.23828   2.24193   2.24613   2.24977   2.25328
 Alpha virt. eigenvalues --    2.26215   2.26614   2.27086   2.27379   2.27610
 Alpha virt. eigenvalues --    2.28118   2.28852   2.29000   2.29599   2.30047
 Alpha virt. eigenvalues --    2.30349   2.31205   2.31883   2.32356   2.32700
 Alpha virt. eigenvalues --    2.32781   2.33155   2.34224   2.34522   2.34773
 Alpha virt. eigenvalues --    2.35533   2.35971   2.36160   2.36644   2.36892
 Alpha virt. eigenvalues --    2.37451   2.37925   2.38166   2.38418   2.38780
 Alpha virt. eigenvalues --    2.39040   2.39980   2.40160   2.40376   2.40667
 Alpha virt. eigenvalues --    2.41411   2.41883   2.42374   2.43045   2.43858
 Alpha virt. eigenvalues --    2.44195   2.44829   2.45035   2.45399   2.45742
 Alpha virt. eigenvalues --    2.46327   2.46539   2.47443   2.47786   2.48438
 Alpha virt. eigenvalues --    2.48865   2.49312   2.49571   2.49999   2.50429
 Alpha virt. eigenvalues --    2.51043   2.51879   2.52682   2.52806   2.53294
 Alpha virt. eigenvalues --    2.54101   2.54566   2.54635   2.55026   2.55473
 Alpha virt. eigenvalues --    2.55909   2.56029   2.56386   2.56702   2.57432
 Alpha virt. eigenvalues --    2.57601   2.58002   2.58613   2.58862   2.59217
 Alpha virt. eigenvalues --    2.59352   2.59931   2.60395   2.60788   2.61066
 Alpha virt. eigenvalues --    2.61490   2.61788   2.62117   2.62453   2.62762
 Alpha virt. eigenvalues --    2.63400   2.64244   2.64494   2.64964   2.65190
 Alpha virt. eigenvalues --    2.65656   2.66240   2.66575   2.67152   2.67317
 Alpha virt. eigenvalues --    2.67736   2.68277   2.68660   2.69041   2.69447
 Alpha virt. eigenvalues --    2.69946   2.70261   2.71017   2.71287   2.71772
 Alpha virt. eigenvalues --    2.72295   2.72576   2.72945   2.73383   2.74432
 Alpha virt. eigenvalues --    2.74756   2.75420   2.75812   2.76178   2.76601
 Alpha virt. eigenvalues --    2.77099   2.77705   2.78112   2.78613   2.79066
 Alpha virt. eigenvalues --    2.79170   2.80053   2.80342   2.81423   2.81701
 Alpha virt. eigenvalues --    2.82071   2.82445   2.82631   2.83039   2.83242
 Alpha virt. eigenvalues --    2.83777   2.84136   2.84278   2.85059   2.85597
 Alpha virt. eigenvalues --    2.85887   2.86376   2.86448   2.87027   2.87745
 Alpha virt. eigenvalues --    2.87974   2.88541   2.88945   2.89620   2.90078
 Alpha virt. eigenvalues --    2.90393   2.90572   2.91079   2.91512   2.91891
 Alpha virt. eigenvalues --    2.92790   2.92886   2.93066   2.93701   2.94104
 Alpha virt. eigenvalues --    2.94606   2.94920   2.95952   2.96258   2.96614
 Alpha virt. eigenvalues --    2.96757   2.97355   2.97655   2.98000   2.98276
 Alpha virt. eigenvalues --    2.98675   2.99154   2.99424   2.99821   2.99999
 Alpha virt. eigenvalues --    3.00594   3.00936   3.01710   3.02923   3.03382
 Alpha virt. eigenvalues --    3.03480   3.03875   3.04834   3.05165   3.05433
 Alpha virt. eigenvalues --    3.05777   3.06037   3.06607   3.06896   3.07557
 Alpha virt. eigenvalues --    3.07882   3.08345   3.08367   3.09039   3.09318
 Alpha virt. eigenvalues --    3.09735   3.10034   3.10480   3.11182   3.11382
 Alpha virt. eigenvalues --    3.11685   3.12051   3.12292   3.12806   3.13102
 Alpha virt. eigenvalues --    3.13491   3.13574   3.14264   3.14638   3.15014
 Alpha virt. eigenvalues --    3.15755   3.15922   3.16039   3.16613   3.16785
 Alpha virt. eigenvalues --    3.17226   3.17304   3.17810   3.18657   3.19104
 Alpha virt. eigenvalues --    3.19299   3.19463   3.20029   3.20425   3.20523
 Alpha virt. eigenvalues --    3.20804   3.21044   3.21484   3.21849   3.22445
 Alpha virt. eigenvalues --    3.22818   3.22938   3.23445   3.23926   3.24334
 Alpha virt. eigenvalues --    3.24467   3.24684   3.25282   3.25463   3.25835
 Alpha virt. eigenvalues --    3.26015   3.26263   3.26447   3.26755   3.27068
 Alpha virt. eigenvalues --    3.27212   3.27479   3.27953   3.28117   3.28986
 Alpha virt. eigenvalues --    3.29416   3.29665   3.29916   3.30025   3.30278
 Alpha virt. eigenvalues --    3.30663   3.31016   3.31575   3.31742   3.32155
 Alpha virt. eigenvalues --    3.32432   3.32801   3.32891   3.33508   3.33614
 Alpha virt. eigenvalues --    3.34098   3.34211   3.34515   3.34876   3.35145
 Alpha virt. eigenvalues --    3.35390   3.35889   3.35992   3.36201   3.36545
 Alpha virt. eigenvalues --    3.36711   3.37045   3.37599   3.37823   3.38206
 Alpha virt. eigenvalues --    3.38326   3.38989   3.39365   3.39805   3.40032
 Alpha virt. eigenvalues --    3.40357   3.40528   3.40830   3.41118   3.41593
 Alpha virt. eigenvalues --    3.42071   3.42281   3.42941   3.43538   3.43651
 Alpha virt. eigenvalues --    3.44049   3.44424   3.44615   3.45115   3.45704
 Alpha virt. eigenvalues --    3.46253   3.46420   3.46878   3.47459   3.47981
 Alpha virt. eigenvalues --    3.48367   3.49390   3.49413   3.50008   3.50198
 Alpha virt. eigenvalues --    3.51020   3.51389   3.52004   3.52234   3.52761
 Alpha virt. eigenvalues --    3.53805   3.54625   3.55467   3.55880   3.56155
 Alpha virt. eigenvalues --    3.56742   3.57603   3.57895   3.58024   3.58409
 Alpha virt. eigenvalues --    3.59234   3.59534   3.59919   3.60331   3.61022
 Alpha virt. eigenvalues --    3.61252   3.61453   3.62198   3.62522   3.62903
 Alpha virt. eigenvalues --    3.64017   3.64683   3.65637   3.65948   3.66267
 Alpha virt. eigenvalues --    3.66600   3.67405   3.67855   3.68283   3.68887
 Alpha virt. eigenvalues --    3.69161   3.69607   3.70022   3.70791   3.71392
 Alpha virt. eigenvalues --    3.71858   3.72078   3.72640   3.73003   3.73496
 Alpha virt. eigenvalues --    3.74150   3.74376   3.74528   3.74758   3.75215
 Alpha virt. eigenvalues --    3.75406   3.75650   3.77274   3.77427   3.78458
 Alpha virt. eigenvalues --    3.78605   3.79362   3.80295   3.80605   3.80820
 Alpha virt. eigenvalues --    3.82093   3.82448   3.82919   3.84494   3.85003
 Alpha virt. eigenvalues --    3.85223   3.86036   3.86508   3.86793   3.87164
 Alpha virt. eigenvalues --    3.88378   3.88802   3.89150   3.89895   3.90182
 Alpha virt. eigenvalues --    3.90926   3.92126   3.93164   3.93572   3.94057
 Alpha virt. eigenvalues --    3.95674   3.96042   3.97045   3.97444   3.97997
 Alpha virt. eigenvalues --    3.99019   3.99471   4.00157   4.00517   4.00822
 Alpha virt. eigenvalues --    4.01017   4.02121   4.02513   4.02934   4.03598
 Alpha virt. eigenvalues --    4.04156   4.05262   4.05575   4.05722   4.06882
 Alpha virt. eigenvalues --    4.07645   4.08365   4.09398   4.09774   4.11576
 Alpha virt. eigenvalues --    4.12124   4.12822   4.13348   4.13684   4.14661
 Alpha virt. eigenvalues --    4.15017   4.15702   4.16094   4.16758   4.17064
 Alpha virt. eigenvalues --    4.17798   4.18314   4.18692   4.19095   4.19812
 Alpha virt. eigenvalues --    4.20212   4.21092   4.22558   4.22653   4.22787
 Alpha virt. eigenvalues --    4.23308   4.23671   4.24278   4.25106   4.26152
 Alpha virt. eigenvalues --    4.26521   4.27491   4.28427   4.28828   4.29279
 Alpha virt. eigenvalues --    4.29858   4.30588   4.31162   4.31667   4.32404
 Alpha virt. eigenvalues --    4.33090   4.33210   4.33730   4.34513   4.34606
 Alpha virt. eigenvalues --    4.35477   4.36056   4.37187   4.37612   4.38658
 Alpha virt. eigenvalues --    4.39750   4.39946   4.40172   4.40790   4.41355
 Alpha virt. eigenvalues --    4.42041   4.42703   4.43288   4.43801   4.44859
 Alpha virt. eigenvalues --    4.44999   4.45293   4.45830   4.46670   4.47100
 Alpha virt. eigenvalues --    4.47380   4.47633   4.48375   4.49568   4.51122
 Alpha virt. eigenvalues --    4.51482   4.52702   4.53509   4.53727   4.54770
 Alpha virt. eigenvalues --    4.55573   4.56247   4.56532   4.58013   4.58035
 Alpha virt. eigenvalues --    4.59473   4.61502   4.63082   4.64760   4.65455
 Alpha virt. eigenvalues --    4.66835   4.67624   4.68260   4.68465   4.69099
 Alpha virt. eigenvalues --    4.69194   4.71997   4.72212   4.74146   4.74630
 Alpha virt. eigenvalues --    4.75324   4.75786   4.77310   4.79983   4.80999
 Alpha virt. eigenvalues --    4.82029   4.82902   4.83419   4.83840   4.84186
 Alpha virt. eigenvalues --    4.84678   4.85140   4.86174   4.86475   4.88455
 Alpha virt. eigenvalues --    4.88963   4.90064   4.90576   4.92827   4.93954
 Alpha virt. eigenvalues --    4.94744   4.95565   4.96827   4.97237   4.98471
 Alpha virt. eigenvalues --    5.00228   5.01372   5.02549   5.03151   5.04109
 Alpha virt. eigenvalues --    5.04838   5.05274   5.05597   5.07213   5.07827
 Alpha virt. eigenvalues --    5.08947   5.09917   5.12935   5.13379   5.16280
 Alpha virt. eigenvalues --    5.16980   5.17436   5.19335   5.20244   5.21363
 Alpha virt. eigenvalues --    5.22371   5.23983   5.24279   5.25724   5.26099
 Alpha virt. eigenvalues --    5.27466   5.28766   5.29607   5.34812   5.36590
 Alpha virt. eigenvalues --    5.37227   5.37855   5.38674   5.39161   5.39242
 Alpha virt. eigenvalues --    5.39929   5.40168   5.42275   5.48028   5.48260
 Alpha virt. eigenvalues --    5.50173   5.50728   5.51391   5.51655   5.53318
 Alpha virt. eigenvalues --    5.55821   5.59376   5.60300   5.60626   5.61431
 Alpha virt. eigenvalues --    5.62773   5.64013   5.66635   5.66968   5.68322
 Alpha virt. eigenvalues --    5.70794   5.75491   5.76497   5.77872   5.78981
 Alpha virt. eigenvalues --    5.86974   5.87976   5.90362   5.92354   6.00364
 Alpha virt. eigenvalues --    6.01372   6.02124   6.09918   6.11316   6.12620
 Alpha virt. eigenvalues --    6.13496   6.17998   6.24116   6.25737   6.33751
 Alpha virt. eigenvalues --    6.34016   6.41072   6.46930   6.51840   6.52636
 Alpha virt. eigenvalues --    6.64551   6.96514   7.28146   9.07237   9.24612
 Alpha virt. eigenvalues --    9.40340  19.60631  22.33675  22.35597  22.36177
 Alpha virt. eigenvalues --   22.45760  22.46549  22.52683  22.53436  22.62128
 Alpha virt. eigenvalues --   22.62419  22.83888  22.86772  22.91964  22.93502
 Alpha virt. eigenvalues --   22.95138  22.95846  22.96899  23.03067  23.03838
 Alpha virt. eigenvalues --   23.14026  23.27015  23.30741  23.31327  23.40225
 Alpha virt. eigenvalues --   23.42055  23.50296  23.51072  23.55098  23.74398
 Alpha virt. eigenvalues --   23.79156  23.79589  23.88542  32.88557  32.89631
 Alpha virt. eigenvalues --   32.92665  33.04316  43.92299
          Condensed to atoms (all electrons):
 Mulliken charges:
               1
     1  Fe  -0.230565
     2  N   -0.102794
     3  N    0.064519
     4  N   -0.067189
     5  N    0.006957
     6  C    0.223712
     7  C   -0.047790
     8  C   -0.008686
     9  C    0.146061
    10  C    0.177491
    11  C   -0.013879
    12  C    0.008382
    13  C    0.229919
    14  C    0.226425
    15  C   -0.046484
    16  C    0.053818
    17  C    0.231804
    18  C    0.223682
    19  C   -0.021617
    20  C   -0.068425
    21  C    0.230491
    22  C   -0.428473
    23  H    0.141009
    24  C   -0.429997
    25  H    0.135337
    26  C   -0.440923
    27  H    0.117276
    28  C   -0.427865
    29  H    0.123236
    30  C   -0.411668
    31  H    0.121293
    32  H    0.135559
    33  H    0.136825
    34  C   -0.412842
    35  H    0.135430
    36  H    0.137522
    37  H    0.121145
    38  C   -0.453707
    39  H    0.141530
    40  H    0.131098
    41  H    0.158916
    42  C   -0.209929
    43  H    0.113187
    44  C   -0.286384
    45  H    0.138634
    46  H    0.123678
    47  C   -0.454514
    48  H    0.131427
    49  H    0.143560
    50  H    0.158607
    51  C   -0.212984
    52  H    0.112993
    53  C   -0.286236
    54  H    0.139490
    55  H    0.123228
    56  C   -0.418139
    57  H    0.138718
    58  H    0.136881
    59  H    0.120406
    60  C   -0.414026
    61  H    0.134369
    62  H    0.120356
    63  H    0.136785
    64  O   -0.567882
    65  H    0.359060
    66  H    0.324140
    67  C   -0.340648
    68  H    0.146583
    69  H    0.162191
    70  H    0.155592
    71  S   -0.044326
    72  H    0.168651
 Sum of Mulliken charges =  -0.00000
 Mulliken charges with hydrogens summed into heavy atoms:
               1
     1  Fe  -0.230565
     2  N   -0.102794
     3  N    0.064519
     4  N   -0.067189
     5  N    0.006957
     6  C    0.223712
     7  C   -0.047790
     8  C   -0.008686
     9  C    0.146061
    10  C    0.177491
    11  C   -0.013879
    12  C    0.008382
    13  C    0.229919
    14  C    0.226425
    15  C   -0.046484
    16  C    0.053818
    17  C    0.231804
    18  C    0.223682
    19  C   -0.021617
    20  C   -0.068425
    21  C    0.230491
    22  C   -0.287464
    24  C   -0.294660
    26  C   -0.323647
    28  C   -0.304628
    30  C   -0.017991
    34  C   -0.018746
    38  C   -0.022163
    42  C   -0.096742
    44  C   -0.024072
    47  C   -0.020921
    51  C   -0.099991
    53  C   -0.023519
    56  C   -0.022133
    60  C   -0.022516
    64  O    0.115318
    67  C    0.123719
    71  S    0.124326
 Electronic spatial extent (au):  <R**2>=          18290.5028
 Charge=             -0.0000 electrons
 Dipole moment (field-independent basis, Debye):
    X=             -1.6673    Y=             -1.1034    Z=             -0.1636  Tot=              2.0060
 Quadrupole moment (field-independent basis, Debye-Ang):
   XX=           -223.0326   YY=           -223.4766   ZZ=           -231.1028
   XY=              2.1593   XZ=             -3.8923   YZ=              1.7284
 Traceless Quadrupole moment (field-independent basis, Debye-Ang):
   XX=              2.8380   YY=              2.3941   ZZ=             -5.2321
   XY=              2.1593   XZ=             -3.8923   YZ=              1.7284
 Octapole moment (field-independent basis, Debye-Ang**2):
  XXX=            -22.0660  YYY=            -36.6302  ZZZ=            -21.8985  XYY=              9.9352
  XXY=            -25.5279  XXZ=              2.1865  XZZ=            -19.2045  YZZ=             -9.7198
  YYZ=             -3.2163  XYZ=             -4.4550
 Hexadecapole moment (field-independent basis, Debye-Ang**3):
 XXXX=         -11671.3792 YYYY=         -11408.5025 ZZZZ=          -1284.7441 XXXY=            -32.9441
 XXXZ=              9.9304 YYYX=             54.5440 YYYZ=            -29.3596 ZZZX=            -54.1971
 ZZZY=             30.7744 XXYY=          -3857.5847 XXZZ=          -2337.3648 YYZZ=          -2301.3600
 XXYZ=             11.6582 YYXZ=            -55.3205 ZZXY=             15.5818
 N-N= 5.418172763910D+03 E-N=-1.827192055014D+04  KE= 3.147464772562D+03
  Exact polarizability:     699.792       2.474     688.551      -4.539       0.405     260.962
 Approx polarizability:    1291.047      11.091    1273.169      -2.424      -3.999     442.959

 ----------------------------------------------------------------------

 Electric dipole moment (input orientation):
 (Debye = 10**-18 statcoulomb cm , SI units = C m)
                  (au)            (Debye)         (10**-30 SI)
   Tot        0.789231D+00      0.200602D+01      0.669138D+01
   x         -0.669174D+00     -0.170087D+01     -0.567349D+01
   y         -0.417496D+00     -0.106117D+01     -0.353968D+01
   z          0.280772D-01      0.713652D-01      0.238049D+00

 Dipole polarizability, Alpha (input orientation).
 (esu units = cm**3 , SI units = C**2 m**2 J**-1)
 Alpha(0;0):
               (au)            (10**-24 esu)      (10**-40 SI)
   iso        0.549768D+03      0.814672D+02      0.906445D+02
   aniso      0.433412D+03      0.642250D+02      0.714600D+02
   xx         0.617806D+03      0.915495D+02      0.101863D+03
   yx         0.165664D+03      0.245489D+02      0.273143D+02
   yy         0.361594D+03      0.535827D+02      0.596187D+02
   zx         0.426150D+02      0.631489D+01      0.702626D+01
   zy        -0.782239D+02     -0.115916D+02     -0.128974D+02
   zz         0.669905D+03      0.992696D+02      0.110452D+03

 First dipole hyperpolarizability, Beta (input orientation).
 ||, _|_  parallel and perpendicular components, (z) with respect to z axis,
 vector components x,y,z.  Values do not include the 1/n! factor of 1/2.
 (esu units = statvolt**-1 cm**4 , SI units = C**3 m**3 J**-2)
 Beta(0;0,0):
               (au)            (10**-30 esu)      (10**-50 SI)
   || (z)    -0.798142D+03     -0.689533D+01     -0.255913D+01
   _|_(z)    -0.266047D+03     -0.229844D+01     -0.853044D+00
   x          0.283438D+04      0.244868D+02      0.908805D+01
   y          0.234796D+04      0.202845D+02      0.752840D+01
   z         -0.399071D+04     -0.344766D+02     -0.127957D+02
   ||         0.108577D+04      0.938020D+01      0.348137D+01
   xxx        0.912282D+03      0.788141D+01      0.292511D+01
   xxy        0.569683D+03      0.492162D+01      0.182661D+01
   yxy        0.305262D+03      0.263722D+01      0.978779D+00
   yyy        0.210879D+03      0.182183D+01      0.676155D+00
   xxz        0.186141D+03      0.160811D+01      0.596835D+00
   yxz        0.129799D+03      0.112136D+01      0.416181D+00
   yyz        0.514493D+02      0.444482D+00      0.164965D+00
   zxz       -0.272751D+03     -0.235635D+01     -0.874538D+00
   zyz        0.208994D+01      0.180555D-01      0.670111D-02
   zzz       -0.156783D+04     -0.135448D+02     -0.502702D+01

 ----------------------------------------------------------------------

 Dipole orientation:
    26        -28.58353154         21.29039645        -34.76747245
     7        -28.26535878         21.50645955        -30.99401611
     7        -31.95084171         19.73775930        -34.45033925
     7        -28.58883376         20.70615050        -38.51422538
     7        -24.93701107         22.36370324        -35.04187645
     6        -26.42882903         22.69521903        -29.65380955
     6        -27.09310966         22.81727106        -27.00850735
     6        -29.38683541         21.67463956        -26.78274773
     6        -30.09625688         20.87683522        -29.29580362
     6        -33.18023700         19.10147765        -32.28139640
     6        -35.60317024         17.99322164        -32.83406511
     6        -35.83561766         17.99955215        -35.41252376
     6        -33.51269866         19.08397230        -36.38034209
     6        -30.71405025         20.25144808        -39.89833689
     6        -30.23151593         20.58082893        -42.55519271
     6        -27.72907086         21.21543825        -42.76186328
     6        -26.76196537         21.30788201        -40.20153298
     6        -23.47611397         22.40198474        -37.15327826
     6        -20.94944047         23.27690721        -36.57226747
     6        -20.94028100         23.83098054        -34.06641266
     6        -23.44563947         23.23631178        -33.14238212
     6        -24.15809578         23.51706613        -30.64698057
     1        -22.81312413         24.35592699        -29.36514965
     6        -32.32332139         19.63294124        -29.86392445
     1        -33.54273902         19.13951651        -28.30551227
     6        -32.99431667         19.42398660        -38.91694441
     1        -34.47553060         18.97369444        -40.24453869
     6        -24.28841607         21.86910813        -39.57463668
     1        -22.94164521         22.07882609        -41.09050926
     6        -30.95565105         21.26002029        -24.48178510
     1        -30.05110001         22.07129743        -22.82551424
     1        -31.23253728         19.24594299        -24.14602152
     1        -32.80977448         22.13063690        -24.70176205
     6        -25.47907435         23.99592371        -25.02577793
     1        -25.05743945         25.95392652        -25.50615125
     1        -23.69265882         22.98357489        -24.85245126
     1        -26.41968660         23.96271688        -23.19961674
     6        -37.37549757         16.95269474        -30.91341846
     1        -38.52813892         18.44904983        -30.08441315
     1        -36.33880164         16.03066719        -29.39349661
     1        -38.63078917         15.57737672        -31.78555649
     6        -37.88661430         17.07781845        -36.96604335
     1        -37.33833020         16.28617413        -38.77328756
     6        -40.32107018         17.14778723        -36.35333129
     1        -40.98015996         17.99089685        -34.62423097
     1        -41.75201910         16.40137923        -37.59411452
     6        -32.16598028         20.37987928        -44.58752600
     1        -33.99082949         21.06556986        -43.92885653
     1        -32.39851402         18.42164974        -45.19136348
     1        -31.59205098         21.49481006        -46.21724702
     6        -26.26294381         21.79667213        -44.99278762
     1        -24.75534280         23.15575808        -44.72375487
     6        -26.61452560         20.80567014        -47.27388704
     1        -28.02286999         19.38502145        -47.63591994
     1        -25.45949734         21.35276824        -48.85867476
     6        -18.87370447         23.50151588        -38.46041927
     1        -19.33363060         24.92880220        -39.87371489
     1        -18.58170734         21.70966076        -39.43253994
     1        -17.11308076         24.04071457        -37.54909797
     6        -18.85138300         24.82435762        -32.46142576
     1        -19.38566055         26.62401416        -31.61324976
     1        -17.15023442         25.11573928        -33.57552277
     1        -18.41470424         23.50473053        -30.94064864
     8        -27.06158920         17.37008273        -34.17854391
     1        -26.80774262         17.25740471        -32.39129337
     1        -26.67607265         16.19270213        -35.31469490
     6        -32.23707680         25.99422547        -32.55568964
     1        -30.99856552         26.44490784        -30.98592843
     1        -33.33351080         24.31972862        -32.11441407
     1        -33.44877826         27.59300986        -32.98295715
    16        -30.19269941         25.36303438        -35.26948375
     1        -32.09346323         24.84019881        -36.85566948

 Electric dipole moment (dipole orientation):
 (Debye = 10**-18 statcoulomb cm , SI units = C m)
                  (au)            (Debye)         (10**-30 SI)
   Tot        0.789231D+00      0.200602D+01      0.669138D+01
   x          0.000000D+00      0.000000D+00      0.000000D+00
   y          0.000000D+00      0.000000D+00      0.000000D+00
   z          0.789231D+00      0.200602D+01      0.669138D+01

 Dipole polarizability, Alpha (dipole orientation).
 (esu units = cm**3 , SI units = C**2 m**2 J**-1)
 Alpha(0;0):
               (au)            (10**-24 esu)      (10**-40 SI)
   iso        0.549768D+03      0.814672D+02      0.906445D+02
   aniso      0.433412D+03      0.642250D+02      0.714600D+02
   xx         0.642866D+03      0.952628D+02      0.105994D+03
   yx         0.133161D+03      0.197324D+02      0.219552D+02
   yy         0.311282D+03      0.461272D+02      0.513235D+02
   zx        -0.169739D+02     -0.251528D+01     -0.279862D+01
   zy         0.354275D+02      0.524981D+01      0.584121D+01
   zz         0.695157D+03      0.103012D+03      0.114616D+03

 First dipole hyperpolarizability, Beta (dipole orientation).
 ||, _|_  parallel and perpendicular components, (z) with respect to z axis,
 vector components x,y,z.  Values do not include the 1/n! factor of 1/2.
 (esu units = statvolt**-1 cm**4 , SI units = C**3 m**3 J**-2)
 Beta(0;0,0):
               (au)            (10**-30 esu)      (10**-50 SI)
   || (z)    -0.757448D+03     -0.654376D+01     -0.242865D+01
   _|_(z)    -0.252483D+03     -0.218125D+01     -0.809550D+00
   x         -0.353384D+04     -0.305297D+02     -0.113308D+02
   y         -0.162517D+04     -0.140402D+02     -0.521087D+01
   z         -0.378724D+04     -0.327188D+02     -0.121433D+02
   ||         0.108577D+04      0.938020D+01      0.348137D+01
   xxx       -0.116386D+04     -0.100548D+02     -0.373174D+01
   xxy       -0.556347D+03     -0.480641D+01     -0.178385D+01
   yxy       -0.311286D+03     -0.268927D+01     -0.998095D+00
   yyy       -0.132385D+03     -0.114370D+01     -0.424474D+00
   xxz        0.104119D+03      0.899508D+00      0.333843D+00
   yxz        0.684214D+02      0.591108D+00      0.219384D+00
   yyz        0.589353D+02      0.509155D+00      0.188968D+00
   zxz        0.297194D+03      0.256753D+01      0.952912D+00
   zyz        0.147010D+03      0.127005D+01      0.471367D+00
   zzz       -0.142547D+04     -0.123149D+02     -0.457056D+01

 ----------------------------------------------------------------------
 Unable to Open any file for archive entry.
 1\1\GINC-BGN1036\SP\RAPFD\def2TZVP\C31H34Fe1N4O1S1\BEBJONES\18-Nov-202
 4\0\\# polar def2tzvp apfd int=(grid=ultrafine)\\4ict_II_S\\0,1\Fe,0,6
 .0944482942,24.5056394422,-7.5195366483\N,0,4.4033425277,23.4598515671
 ,-7.2452584891\N,0,5.76311606,24.5890283114,-9.4590390614\N,0,7.908586
 5777,25.3300580459,-7.7559990744\N,0,6.5616500528,24.1611865766,-5.588
 1330082\C,0,3.8267492169,23.1228451063,-6.0632454058\C,0,2.5043896739,
 22.5817285258,-6.2773286457\C,0,2.2938108621,22.6029740553,-7.62208307
 6\C,0,3.4894208871,23.1609506288,-8.2110254972\C,0,4.7368480696,24.017
 9239734,-10.1479259306\C,0,4.8467470468,24.2999639749,-11.5556848288\C
 ,0,5.9645827857,25.0774728531,-11.7067484139\C,0,6.5261737407,25.23478
 08318,-10.3791604733\C,0,8.289922614,26.0290008149,-8.8628816902\C,0,9
 .4845902913,26.7893427052,-8.6041920432\C,0,9.8368146584,26.5187265699
 ,-7.3076409812\C,0,8.823356191,25.6160582146,-6.7996428618\C,0,7.73662
 00362,24.43218682,-4.9616911434\C,0,7.6842703666,24.0283268131,-3.5721
 696949\C,0,6.4344370061,23.5387369153,-3.3657836258\C,0,5.7507224553,2
 3.6246344027,-4.6389564877\C,0,4.4514508726,23.1978093426,-4.833051563
 6\H,0,3.9017005094,22.8546810248,-3.9706366289\C,0,3.6690356675,23.350
 0430725,-9.5691622095\H,0,2.8855728249,23.0027269174,-10.2250760089\C,
 0,7.6702498775,25.9573505205,-10.0991462431\H,0,8.1294290968,26.494574
 1171,-10.9147796635\C,0,8.8137194026,25.0903848365,-5.5209064164\H,0,9
 .6637276891,25.2870414021,-4.8864691219\C,0,1.1025798576,22.1583088216
 ,-8.3987254731\H,0,0.3198794511,21.8006527754,-7.7345905923\H,0,1.3687
 383469,21.3499755773,-9.0804388077\H,0,0.7017058335,22.9810586124,-8.9
 910616622\C,0,1.6058221348,22.1119517501,-5.1858774825\H,0,1.440822123
 7,22.9059350799,-4.4576377368\H,0,2.0491548833,21.2630443778,-4.664473
 7955\H,0,0.6418628173,21.8035126287,-5.5828275791\C,0,3.9366780448,23.
 7666891117,-12.6060089261\H,0,3.0352452939,24.3766715058,-12.688693607
 3\H,0,3.6338010908,22.7475407416,-12.3703546674\H,0,4.4400723517,23.76
 74069431,-13.5706441074\C,0,6.5409796645,25.6264675452,-12.9142555292\
 H,0,7.6220158764,25.700986521,-12.9238796411\C,0,5.8560898333,26.03993
 41301,-13.9754244937\H,0,4.7803891319,26.0325610378,-14.0025810216\H,0
 ,6.3523205261,26.426981194,-14.8497625465\C,0,10.1294788632,27.7240182
 867,-9.5666582711\H,0,9.3814953864,28.2226834906,-10.1810849664\H,0,10
 .811594075,27.1901099795,-10.230526745\H,0,10.698038587,28.4792533323,
 -9.0277258409\C,0,10.9418168659,27.031665388,-6.5291138402\H,0,10.7535
 722912,27.1356786386,-5.4671703757\C,0,12.1355379366,27.3680858946,-7.
 0072161091\H,0,12.3956812122,27.2435826735,-8.0436092434\H,0,12.908113
 8854,27.7582707846,-6.3656642247\C,0,8.8158604888,24.1678717801,-2.613
 5008598\H,0,9.0484267635,25.2201027384,-2.446925882\H,0,9.7099640249,2
 3.6810888706,-3.0023831176\H,0,8.5682914414,23.7174708056,-1.655451043
 6\C,0,5.8246607548,22.9943157014,-2.1202468919\H,0,4.9451749258,23.574
 3364501,-1.8402203455\H,0,6.5330290066,23.0288190898,-1.2963837794\H,0
 ,5.5154330343,21.9589017956,-2.2650919906\O,0,6.975,22.478,-7.923\H,0,
 6.24,21.876,-7.8070000001\H,0,7.817,22.253,-8.101\C,0,3.432763618,26.5
 404061112,-7.8004244773\H,0,2.8255656709,25.99116932,-7.0890185258\H,0
 ,3.4411325684,26.0215125982,-8.7528067912\H,0,3.0619613019,27.55515001
 39,-7.9045853807\S,0,5.1258720562,26.5877647731,-7.1109331596\H,0,5.64
 98111212,27.2655191525,-8.1399852155\\Version=ES64L-G16RevC.02\State=1
 -A\HF=-3157.193322\RMSD=1.700e-09\Dipole=-0.6691739,-0.4174964,0.02807
 72\Polar=617.8063379,165.6639682,361.5936551,42.6149731,-78.223863,669
 .9045127\HyperPolar=912.28241,569.6832639,305.2617271,210.8793733,186.
 1407765,129.7985957,51.4492765,-272.7507953,2.0899431,-1567.827063\Qua
 drupole=3.538671,-2.7748948,-0.7637763,1.4519474,0.5566857,-3.3403013\
 PG=C01 [X(C31H34Fe1N4O1S1)]\\@
 The archive entry for this job was punched.


 NOBODY LOSES ALL THE TIME
 I HAD AN UNCLE NAMED
 SOL WHO WAS A BORN FAILURE AND
 NEARLY EVERYBODY SAID HE SHOULD HAVE GONE
 INTO VAUDEVILLE PERHAPS BECAUSE MY UNCLE SOL COULD
 SING MCCANN HE WAS A DIVER ON XMAS EVE LIKE HELL ITSELF WHICH
 MAY OR MAY NOT ACCOUNT FOR THE FACT THAT MY UNCLE
 SOL INDULGED IN THAT POSSIBLY MOST INEXCUSABLE
 OF ALL TO USE A HIGHFALOOTIN PHRASE
 LUXURIES THAT IS OR TO
 WIT FARMING AND BE
 IT NEEDLESSLY
 ADDED
 MY UNCLE SOL'S FARM     
 FAILED BECAUSE THE CHICKENS
 ATE THE VEGETABLES SO
 MY UNCLE SOL HAD A
 CHICKEN FARM TILL THE
 SKUNKS ATE THE CHICKENS WHEN 
 MY UNCLE SOL
 HAD A SKUNK FARM BUT
 THE SKUNKS CAUGHT COLD AND
 DIED AND SO
 MY UNCLE SOL IMITATED THE
 SKUNKS IN A SUBTLE MANNER
 OR BY DROWNING HIMSELF IN THE WATERTANK
 BUT SOMEBODY WHO'D GIVEN MY UNCLE SOL A VICTOR     
 VICTROLA AND RECORDS WHILE HE LIVED PRESENTED TO
 HIM UPON THE AUSPICIOUS OCCASION OF HIS DECEASE A
 SCRUMPTIOUS NOT TO MENTION SPLENDIFEROUS FUNERAL WITH
 TALL BOYS IN BLACK GLOVES AND FLOWERS AND EVERYTHING AND
 I REMEMBER WE ALL CRIED LIKE THE MISSOURI
 WHEN MY UNCLE SOL'S COFFIN LURCHED BECAUSE     
 SOMEBODY PRESSED A BUTTON
 (AND DOWN WENT
 MY UNCLE
 SOL
 AND STARTED A WORM FARM)
           E. E. CUMMINGS
 Job cpu time:       1 days 17 hours 21 minutes 38.1 seconds.
 Elapsed time:       0 days  0 hours 35 minutes 48.5 seconds.
 File lengths (MBytes):  RWF=   1013 Int=      0 D2E=      0 Chk=    130 Scr=      1
 Normal termination of Gaussian 16 at Mon Nov 18 16:01:28 2024.
 Initial command:
 /sw/chem/gaussian/g16_C02/a100/g16/l1.exe "/local/bebjones_8087500/Gau-1729048.inp" -scrdir="/local/bebjones_8087500/"
 Entering Link 1 = /sw/chem/gaussian/g16_C02/a100/g16/l1.exe PID=   1730633.
  
 Copyright (c) 1988-2021, Gaussian, Inc.  All Rights Reserved.
  
 This is part of the Gaussian(R) 16 program.  It is based on
 the Gaussian(R) 09 system (copyright 2009, Gaussian, Inc.),
 the Gaussian(R) 03 system (copyright 2003, Gaussian, Inc.),
 the Gaussian(R) 98 system (copyright 1998, Gaussian, Inc.),
 the Gaussian(R) 94 system (copyright 1995, Gaussian, Inc.),
 the Gaussian 92(TM) system (copyright 1992, Gaussian, Inc.),
 the Gaussian 90(TM) system (copyright 1990, Gaussian, Inc.),
 the Gaussian 88(TM) system (copyright 1988, Gaussian, Inc.),
 the Gaussian 86(TM) system (copyright 1986, Carnegie Mellon
 University), and the Gaussian 82(TM) system (copyright 1983,
 Carnegie Mellon University). Gaussian is a federally registered
 trademark of Gaussian, Inc.
  
 This software contains proprietary and confidential information,
 including trade secrets, belonging to Gaussian, Inc.
  
 This software is provided under written license and may be
 used, copied, transmitted, or stored only in accord with that
 written license.
  
 The following legend is applicable only to US Government
 contracts under FAR:
  
                    RESTRICTED RIGHTS LEGEND
  
 Use, reproduction and disclosure by the US Government is
 subject to restrictions as set forth in subparagraphs (a)
 and (c) of the Commercial Computer Software - Restricted
 Rights clause in FAR 52.227-19.
  
 Gaussian, Inc.
 340 Quinnipiac St., Bldg. 40, Wallingford CT 06492
  
  
 ---------------------------------------------------------------
 Warning -- This program may not be used in any manner that
 competes with the business of Gaussian, Inc. or will provide
 assistance to any competitor of Gaussian, Inc.  The licensee
 of this program is prohibited from giving any competitor of
 Gaussian, Inc. access to this program.  By using this program,
 the user acknowledges that Gaussian, Inc. is engaged in the
 business of creating and licensing software in the field of
 computational chemistry and represents and warrants to the
 licensee that it is not a competitor of Gaussian, Inc. and that
 it will not use this program in any manner prohibited above.
 ---------------------------------------------------------------
  

 Cite this work as:
 Gaussian 16, Revision C.02,
 M. J. Frisch, G. W. Trucks, H. B. Schlegel, G. E. Scuseria, 
 M. A. Robb, J. R. Cheeseman, G. Scalmani, V. Barone, 
 G. A. Petersson, H. Nakatsuji, X. Li, M. Caricato, A. V. Marenich, 
 J. Bloino, B. G. Janesko, R. Gomperts, B. Mennucci, H. P. Hratchian, 
 J. V. Ortiz, A. F. Izmaylov, J. L. Sonnenberg, D. Williams-Young, 
 F. Ding, F. Lipparini, F. Egidi, J. Goings, B. Peng, A. Petrone, 
 T. Henderson, D. Ranasinghe, V. G. Zakrzewski, J. Gao, N. Rega, 
 G. Zheng, W. Liang, M. Hada, M. Ehara, K. Toyota, R. Fukuda, 
 J. Hasegawa, M. Ishida, T. Nakajima, Y. Honda, O. Kitao, H. Nakai, 
 T. Vreven, K. Throssell, J. A. Montgomery, Jr., J. E. Peralta, 
 F. Ogliaro, M. J. Bearpark, J. J. Heyd, E. N. Brothers, K. N. Kudin, 
 V. N. Staroverov, T. A. Keith, R. Kobayashi, J. Normand, 
 K. Raghavachari, A. P. Rendell, J. C. Burant, S. S. Iyengar, 
 J. Tomasi, M. Cossi, J. M. Millam, M. Klene, C. Adamo, R. Cammi, 
 J. W. Ochterski, R. L. Martin, K. Morokuma, O. Farkas, 
 J. B. Foresman, and D. J. Fox, Gaussian, Inc., Wallingford CT, 2019.
 
 ******************************************
 Gaussian 16:  ES64L-G16RevC.02  7-Dec-2021
                18-Nov-2024 
 ******************************************
 %mem=16GB
 %CPU=0-71
 SetSPE:  set environment variable "OMP_PROC_BIND" = "true"
 SetSPE:  set environment variable "OMP_PLACES" = "{0},{1},{2},{3},{4},{5},{6},{7},{8},{9},{10},{11},{12},{13},{14},{15},{16},{17},{18},{19},{20},{21},{22},{23},{24},{25},{26},{27},{28},{29},{30},{31},{32},{33},{34},{35},{36},{37},{38},{39},{40},{41},{42},{43},{44},{45},{46},{47},{48},{49},{50},{51},{52},{53},{54},{55},{56},{57},{58},{59},{60},{61},{62},{63},{64},{65},{66},{67},{68},{69},{70},{71}"
 Will use up to   72 processors via shared memory.
 %gpucpu=0,1,2,3=0,1,2,3
 Will use    4 GPUs:
 Thread  CPU   GPU
      0    0     0
      1    1     1
      2    2     2
      3    3     3
      4    4    -1
      5    5    -1
      6    6    -1
      7    7    -1
      8    8    -1
      9    9    -1
     10   10    -1
     11   11    -1
     12   12    -1
     13   13    -1
     14   14    -1
     15   15    -1
     16   16    -1
     17   17    -1
     18   18    -1
     19   19    -1
     20   20    -1
     21   21    -1
     22   22    -1
     23   23    -1
     24   24    -1
     25   25    -1
     26   26    -1
     27   27    -1
     28   28    -1
     29   29    -1
     30   30    -1
     31   31    -1
     32   32    -1
     33   33    -1
     34   34    -1
     35   35    -1
     36   36    -1
     37   37    -1
     38   38    -1
     39   39    -1
     40   40    -1
     41   41    -1
     42   42    -1
     43   43    -1
     44   44    -1
     45   45    -1
     46   46    -1
     47   47    -1
     48   48    -1
     49   49    -1
     50   50    -1
     51   51    -1
     52   52    -1
     53   53    -1
     54   54    -1
     55   55    -1
     56   56    -1
     57   57    -1
     58   58    -1
     59   59    -1
     60   60    -1
     61   61    -1
     62   62    -1
     63   63    -1
     64   64    -1
     65   65    -1
     66   66    -1
     67   67    -1
     68   68    -1
     69   69    -1
     70   70    -1
     71   71    -1
 SetGPE:  set environment variable "OMP_PROC_BIND" = "true"
 SetGPE:  set environment variable "OMP_PLACES" = "{0},{1},{2},{3},{4},{5},{6},{7},{8},{9},{10},{11},{12},{13},{14},{15},{16},{17},{18},{19},{20},{21},{22},{23},{24},{25},{26},{27},{28},{29},{30},{31},{32},{33},{34},{35},{36},{37},{38},{39},{40},{41},{42},{43},{44},{45},{46},{47},{48},{49},{50},{51},{52},{53},{54},{55},{56},{57},{58},{59},{60},{61},{62},{63},{64},{65},{66},{67},{68},{69},{70},{71}"
 %oldchk=4ict_II_O.chk
 %chk=4ict_II_Sn.chk
 Properties for Device   0
 Minimum vector length:                              32
[...]
  1143. RY*(  21) C  56                  0.00000     3.84207   
  1144. RY*(  22) C  56                  0.00000     3.65142   
  1145. RY*(  23) C  56                  0.00000     3.35632   
  1146. RY*(  24) C  56                  0.00000     3.42677   
  1147. RY*(  25) C  56                  0.00000     3.70983   
  1148. RY*(  26) C  56                  0.00000     3.87359   
  1149. RY*(   1) H  57                  0.00094     0.92483   
  1150. RY*(   2) H  57                  0.00017     1.82425   
  1151. RY*(   3) H  57                  0.00006     2.09972   
  1152. RY*(   4) H  57                  0.00005     2.03731   
  1153. RY*(   5) H  57                  0.00001     2.97329   
  1154. RY*(   1) H  58                  0.00084     0.90820   
  1155. RY*(   2) H  58                  0.00018     1.85144   
  1156. RY*(   3) H  58                  0.00007     2.15517   
  1157. RY*(   4) H  58                  0.00005     1.98549   
  1158. RY*(   5) H  58                  0.00001     2.96643   
  1159. RY*(   1) H  59                  0.00073     0.86532   
  1160. RY*(   2) H  59                  0.00013     1.69613   
  1161. RY*(   3) H  59                  0.00011     2.15834   
  1162. RY*(   4) H  59                  0.00007     2.08930   
  1163. RY*(   5) H  59                  0.00001     2.99434   
  1164. RY*(   1) C  60                  0.00145     1.29573   
  1165. RY*(   2) C  60                  0.00140     1.25581   
  1166. RY*(   3) C  60                  0.00074     1.38203   
  1167. RY*(   4) C  60                  0.00014     1.08082   
  1168. RY*(   5) C  60                  0.00005     1.94950   
  1169. RY*(   6) C  60                  0.00005     1.48357   
  1170. RY*(   7) C  60                  0.00003     2.00775   
  1171. RY*(   8) C  60                  0.00001     1.61371   
  1172. RY*(   9) C  60                  0.00001     1.76584   
  1173. RY*(  10) C  60                  0.00001     2.83909   
  1174. RY*(  11) C  60                  0.00001     3.97221   
  1175. RY*(  12) C  60                  0.00000     2.94420   
  1176. RY*(  13) C  60                  0.00000     2.26082   
  1177. RY*(  14) C  60                  0.00001     2.13310   
  1178. RY*(  15) C  60                  0.00000     2.52753   
  1179. RY*(  16) C  60                  0.00000    21.08544   
  1180. RY*(  17) C  60                  0.00000     2.49270   
  1181. RY*(  18) C  60                  0.00000     3.30383   
  1182. RY*(  19) C  60                  0.00001     2.50697   
  1183. RY*(  20) C  60                  0.00000     3.27494   
  1184. RY*(  21) C  60                  0.00000     3.64126   
  1185. RY*(  22) C  60                  0.00000     3.65361   
  1186. RY*(  23) C  60                  0.00000     3.32966   
  1187. RY*(  24) C  60                  0.00000     3.45299   
  1188. RY*(  25) C  60                  0.00000     3.78464   
  1189. RY*(  26) C  60                  0.00000     3.62205   
  1190. RY*(   1) H  61                  0.00090     0.90305   
  1191. RY*(   2) H  61                  0.00018     1.83427   
  1192. RY*(   3) H  61                  0.00006     2.07887   
  1193. RY*(   4) H  61                  0.00006     2.07023   
  1194. RY*(   5) H  61                  0.00001     2.96718   
  1195. RY*(   1) H  62                  0.00074     0.86226   
  1196. RY*(   2) H  62                  0.00013     1.69940   
  1197. RY*(   3) H  62                  0.00011     2.16163   
  1198. RY*(   4) H  62                  0.00007     2.08291   
  1199. RY*(   5) H  62                  0.00001     2.99712   
  1200. RY*(   1) H  63                  0.00092     0.90512   
  1201. RY*(   2) H  63                  0.00018     1.84126   
  1202. RY*(   3) H  63                  0.00006     2.07913   
  1203. RY*(   4) H  63                  0.00006     2.05473   
  1204. RY*(   5) H  63                  0.00001     2.97328   
  1316. BD*(   1) N   2 - C   6          0.02618     0.51358   
  1317. BD*(   1) N   2 - C   9          0.02739     0.50527   
  1318. BD*(   2) N   2 - C   9          0.64996     0.00400  1339(v),1332(v),1330(v)
                                                    365(g),181(g),143(r),732(v)
                                                    142(r),146(r),145(r),1315(r)
  1319. BD*(   1) N   3 - C  10          0.02753     0.50286   
  1320. BD*(   1) N   3 - C  13          0.02664     0.50739   
  1321. BD*(   2) N   3 - C  13          0.61375     0.01023  1348(v),1339(v),1341(v)
                                                    469(g),207(g),146(r),763(v)
                                                    1315(r),143(r)
  1322. BD*(   1) N   4 - C  14          0.02672     0.50541   
  1323. BD*(   1) N   4 - C  17          0.02517     0.52054   
  1324. BD*(   2) N   4 - C  17          0.60453     0.01216  1357(v),1348(v),1350(v)
                                                    573(g),143(r),142(r),233(g)
                                                    572(g),145(r),146(r),1315(r)
  1325. BD*(   1) N   5 - C  18          0.02582     0.51783   
  1326. BD*(   1) N   5 - C  21          0.02579     0.51671   
  1327. BD*(   2) N   5 - C  21          0.60412     0.01703  1330(v),1357(v),1359(v)
                                                    677(g),259(g),146(r),701(v)
                                                    1315(r),143(r)
  1328. BD*(   1) C   6 - C   7          0.03533     0.49101   
  1329. BD*(   1) C   6 - C  22          0.02131     0.57835   
  1330. BD*(   2) C   6 - C  22          0.42226     0.04609  1327(v),1332(v),1318(v)
                                                    701(g),1339(r),289(g)
                                                    1357(r)
  1331. BD*(   1) C   7 - C   8          0.02275     0.60315   
  1332. BD*(   2) C   7 - C   8          0.25537     0.06614  1330(v),1318(v),1372(v)
                                                    1369(v),1370(v),1371(v)
  1333. BD*(   1) C   7 - C  34          0.01723     0.41300   
  1334. BD*(   1) C   8 - C   9          0.03560     0.49162   
  1335. BD*(   1) C   8 - C  30          0.01732     0.41242   
  1336. BD*(   1) C   9 - C  24          0.02106     0.57363   
  1337. BD*(   1) C  10 - C  11          0.03411     0.49862   
  1338. BD*(   1) C  10 - C  24          0.02141     0.56833   
  1339. BD*(   2) C  10 - C  24          0.43684     0.04331  1318(v),1341(v),1321(v)
                                                    732(g),1348(r),1330(r)
                                                    391(g),393(g)
  1340. BD*(   1) C  11 - C  12          0.02487     0.59123   
  1341. BD*(   2) C  11 - C  12          0.28818     0.06459  1379(v),1339(v),1321(v)
                                                    1374(v),1375(v)
  1342. BD*(   1) C  11 - C  38          0.01647     0.41621   
  1343. BD*(   1) C  12 - C  13          0.03421     0.48759   
  1344. BD*(   1) C  12 - C  42          0.02664     0.49675   
  1345. BD*(   1) C  13 - C  26          0.02088     0.57671   
  1346. BD*(   1) C  14 - C  15          0.03455     0.49972   
  1347. BD*(   1) C  14 - C  26          0.02139     0.57233   
  1348. BD*(   2) C  14 - C  26          0.42346     0.04533  1321(v),1350(v),1324(v)
                                                    763(g),1339(r),495(g)
                                                    1357(r)
  1349. BD*(   1) C  15 - C  16          0.02487     0.59151   
  1350. BD*(   2) C  15 - C  16          0.29077     0.06511  1387(v),1348(v),1324(v)
                                                    1383(v),1382(v)
  1351. BD*(   1) C  15 - C  47          0.01645     0.41728   
  1352. BD*(   1) C  16 - C  17          0.03467     0.48929   
  1353. BD*(   1) C  16 - C  51          0.02663     0.49861   
  1354. BD*(   1) C  17 - C  28          0.02109     0.57856   
  1355. BD*(   1) C  18 - C  19          0.03522     0.49175   
  1356. BD*(   1) C  18 - C  28          0.02091     0.58069   
  1357. BD*(   2) C  18 - C  28          0.39811     0.05168  1324(v),1359(v),1327(v)
                                                    794(g),1387(r),601(g)
                                                    1330(r),1348(r)
  1358. BD*(   1) C  19 - C  20          0.02247     0.61287   
  1359. BD*(   2) C  19 - C  20          0.24046     0.07287  1357(v),1327(v),1390(v)
                                                    1395(v),1393(v),1391(v)
  1360. BD*(   1) C  19 - C  56          0.01719     0.41771   
  1361. BD*(   1) C  20 - C  21          0.03539     0.49183   
  1362. BD*(   1) C  20 - C  60          0.01729     0.41697   
  1363. BD*(   1) C  21 - C  22          0.02083     0.58023   
  1364. BD*(   1) C  22 - H  23          0.01261     0.43381   
  1365. BD*(   1) C  24 - H  25          0.01278     0.43407   
  1366. BD*(   1) C  26 - H  27          0.01319     0.43498   
  1367. BD*(   1) C  28 - H  29          0.01285     0.43505   
  1368. BD*(   1) C  30 - H  31          0.00668     0.38813   
  1369. BD*(   1) C  30 - H  32          0.01104     0.37639   
  1370. BD*(   1) C  30 - H  33          0.01063     0.37704   
  1371. BD*(   1) C  34 - H  35          0.01035     0.37797   
  1372. BD*(   1) C  34 - H  36          0.01122     0.37668   
  1373. BD*(   1) C  34 - H  37          0.00668     0.38814   
  1374. BD*(   1) C  38 - H  39          0.01267     0.37612   
  1375. BD*(   1) C  38 - H  40          0.00991     0.38510   
  1376. BD*(   1) C  38 - H  41          0.00819     0.39272   
  1377. BD*(   1) C  42 - H  43          0.02117     0.42371   
  1378. BD*(   1) C  42 - C  44          0.00780     0.63178   
  1379. BD*(   2) C  42 - C  44          0.07767     0.05808   
  1380. BD*(   1) C  44 - H  45          0.01105     0.43472   
  1381. BD*(   1) C  44 - H  46          0.00857     0.43548   
  1382. BD*(   1) C  47 - H  48          0.00972     0.38728   
  1383. BD*(   1) C  47 - H  49          0.01272     0.37792   
  1384. BD*(   1) C  47 - H  50          0.00819     0.39318   
  1385. BD*(   1) C  51 - H  52          0.02097     0.42532   
  1386. BD*(   1) C  51 - C  53          0.00776     0.63466   
  1387. BD*(   2) C  51 - C  53          0.07805     0.05755   
  1388. BD*(   1) C  53 - H  54          0.01105     0.43660   
  1389. BD*(   1) C  53 - H  55          0.00853     0.43643   
  1390. BD*(   1) C  56 - H  57          0.01144     0.38098   
  1391. BD*(   1) C  56 - H  58          0.01016     0.38301   
  1392. BD*(   1) C  56 - H  59          0.00673     0.39231   
  1393. BD*(   1) C  60 - H  61          0.01089     0.38087   
  1394. BD*(   1) C  60 - H  62          0.00673     0.39229   
  1395. BD*(   1) C  60 - H  63          0.01096     0.38084   
       -------------------------------
              Total Lewis  229.55157  ( 96.9906%)
        Valence non-Lewis    6.61615  (  2.7955%)
        Rydberg non-Lewis    0.50635  (  0.2139%)
       -------------------------------
            Total unit  2  236.67408  (100.0000%)
           Charge unit  2   -0.67408
 
 Molecular unit  3  (H2O)
    82. BD (   1) O  64 - H  65          1.99141    -0.81280  146(r),155(r),1237(v)
                                                    1238(v),145(r),158(r)
                                                    1315(r),143(r),185(r),163(r)
                                                    1286(r),235(r),233(r),260(r)
                                                    239(r),236(r),156(r),159(r)
                                                    237(r)
    83. BD (   1) O  64 - H  66          1.99475    -0.87430  146(r),155(r),1233(v),185(r)
                                                    1315(r),158(r),184(r),143(r)
                                                    156(r),208(r),161(r)
   132. CR (   1) O  64                  1.99980   -18.96872  146(r),1233(v),1237(v)
                                                    1238(v),143(r),1315(r)
                                                    158(r)
   151. LP (   1) O  64                  1.99229    -0.33537  144(r),1236(v),1232(v)
                                                    211(r),263(r),1321(r)
                                                    1327(r),217(r),162(r),267(r)
                                                    146(r)
   152. LP (   2) O  64                  1.83658    -0.50054  146(r),1237(v),1396(g)
                                                    1233(v),1397(g),1231(v)
                                                    1315(r),159(r),163(r),161(r)
                                                    158(r),145(r),143(r),233(r)
                                                    259(r),181(r),210(r),207(r)
                                                    262(r),209(r),184(r),261(r)
                                                    157(r),183(r),1289(r),235(r)
                                                    144(r),1320(r),1316(r)
                                                    1319(r),236(r)
  1205. RY*(   1) O  64                  0.00260     0.68071   
  1206. RY*(   2) O  64                  0.00233     1.09438   
  1207. RY*(   3) O  64                  0.00037     1.31426   
  1208. RY*(   4) O  64                  0.00027     1.08399   
  1209. RY*(   5) O  64                  0.00008     2.62519   
  1210. RY*(   6) O  64                  0.00003     4.13438   
  1211. RY*(   7) O  64                  0.00004     2.09960   
  1212. RY*(   8) O  64                  0.00000     3.24234   
  1213. RY*(   9) O  64                  0.00001     3.78973   
  1214. RY*(  10) O  64                  0.00001     3.14972   
  1215. RY*(  11) O  64                  0.00000     6.50011   
  1216. RY*(  12) O  64                  0.00000    41.76570   
  1217. RY*(  13) O  64                  0.00000     6.51586   
  1218. RY*(  14) O  64                  0.00000     3.03711   
  1219. RY*(  15) O  64                  0.00000     6.44121   
  1220. RY*(  16) O  64                  0.00001     2.17620   
  1221. RY*(  17) O  64                  0.00000     6.22193   
  1222. RY*(  18) O  64                  0.00001     2.73517   
  1223. RY*(  19) O  64                  0.00000     6.56487   
  1224. RY*(  20) O  64                  0.00000     5.28550   
  1225. RY*(  21) O  64                  0.00000     5.47281   
  1226. RY*(  22) O  64                  0.00000     5.32360   
  1227. RY*(  23) O  64                  0.00000     5.30606   
  1228. RY*(  24) O  64                  0.00000     5.70668   
  1229. RY*(  25) O  64                  0.00000     5.40741   
  1230. RY*(  26) O  64                  0.00000     5.57485   
  1231. RY*(   1) H  65                  0.00130     0.71905   
  1232. RY*(   2) H  65                  0.00081     2.00540   
  1233. RY*(   3) H  65                  0.00065     2.38420   
  1234. RY*(   4) H  65                  0.00018     2.08773   
  1235. RY*(   5) H  65                  0.00001     2.89056   
  1236. RY*(   1) H  66                  0.00096     2.01735   
  1237. RY*(   2) H  66                  0.00077     1.88381   
  1238. RY*(   3) H  66                  0.00048     1.85839   
  1239. RY*(   4) H  66                  0.00023     1.64628   
  1240. RY*(   5) H  66                  0.00001     3.00606   
  1396. BD*(   1) O  64 - H  65          0.00439     0.42931   
  1397. BD*(   1) O  64 - H  66          0.00240     0.60393   
       -------------------------------
              Total Lewis    9.81483  ( 99.8174%)
        Valence non-Lewis    0.00679  (  0.0691%)
        Rydberg non-Lewis    0.01116  (  0.1135%)
       -------------------------------
            Total unit  3    9.83278  (100.0000%)
           Charge unit  3    0.16722
 Unable to Open any file for archive entry.
 1\1\GINC-BGN1036\SP\RAPFD\def2TZVP\C31H34Fe1N4O1S1\BEBJONES\18-Nov-202
 4\0\\# apfd/def2TZVP int=(grid=ultrafine) geom=check guess=read pop=nb
 o scf=qc\\4ict_II_S_nbo\\0,1\Fe,0,6.0944482942,24.5056394422,-7.519536
 6483\N,0,4.4033425277,23.4598515671,-7.2452584891\N,0,5.76311606,24.58
 90283114,-9.4590390614\N,0,7.9085865777,25.3300580459,-7.7559990744\N,
 0,6.5616500528,24.1611865766,-5.5881330082\C,0,3.8267492169,23.1228451
 063,-6.0632454058\C,0,2.5043896739,22.5817285258,-6.2773286457\C,0,2.2
 938108621,22.6029740553,-7.622083076\C,0,3.4894208871,23.1609506288,-8
 .2110254972\C,0,4.7368480696,24.0179239734,-10.1479259306\C,0,4.846747
 0468,24.2999639749,-11.5556848288\C,0,5.9645827857,25.0774728531,-11.7
 067484139\C,0,6.5261737407,25.2347808318,-10.3791604733\C,0,8.28992261
 4,26.0290008149,-8.8628816902\C,0,9.4845902913,26.7893427052,-8.604192
 0432\C,0,9.8368146584,26.5187265699,-7.3076409812\C,0,8.823356191,25.6
 160582146,-6.7996428618\C,0,7.7366200362,24.43218682,-4.9616911434\C,0
 ,7.6842703666,24.0283268131,-3.5721696949\C,0,6.4344370061,23.53873691
 53,-3.3657836258\C,0,5.7507224553,23.6246344027,-4.6389564877\C,0,4.45
 14508726,23.1978093426,-4.8330515636\H,0,3.9017005094,22.8546810248,-3
 .9706366289\C,0,3.6690356675,23.3500430725,-9.5691622095\H,0,2.8855728
 249,23.0027269174,-10.2250760089\C,0,7.6702498775,25.9573505205,-10.09
 91462431\H,0,8.1294290968,26.4945741171,-10.9147796635\C,0,8.813719402
 6,25.0903848365,-5.5209064164\H,0,9.6637276891,25.2870414021,-4.886469
 1219\C,0,1.1025798576,22.1583088216,-8.3987254731\H,0,0.3198794511,21.
 8006527754,-7.7345905923\H,0,1.3687383469,21.3499755773,-9.0804388077\
 H,0,0.7017058335,22.9810586124,-8.9910616622\C,0,1.6058221348,22.11195
 17501,-5.1858774825\H,0,1.4408221237,22.9059350799,-4.4576377368\H,0,2
 .0491548833,21.2630443778,-4.6644737955\H,0,0.6418628173,21.8035126287
 ,-5.5828275791\C,0,3.9366780448,23.7666891117,-12.6060089261\H,0,3.035
 2452939,24.3766715058,-12.6886936073\H,0,3.6338010908,22.7475407416,-1
 2.3703546674\H,0,4.4400723517,23.7674069431,-13.5706441074\C,0,6.54097
 96645,25.6264675452,-12.9142555292\H,0,7.6220158764,25.700986521,-12.9
 238796411\C,0,5.8560898333,26.0399341301,-13.9754244937\H,0,4.78038913
 19,26.0325610378,-14.0025810216\H,0,6.3523205261,26.426981194,-14.8497
 625465\C,0,10.1294788632,27.7240182867,-9.5666582711\H,0,9.3814953864,
 28.2226834906,-10.1810849664\H,0,10.811594075,27.1901099795,-10.230526
 745\H,0,10.698038587,28.4792533323,-9.0277258409\C,0,10.9418168659,27.
 031665388,-6.5291138402\H,0,10.7535722912,27.1356786386,-5.4671703757\
 C,0,12.1355379366,27.3680858946,-7.0072161091\H,0,12.3956812122,27.243
 5826735,-8.0436092434\H,0,12.9081138854,27.7582707846,-6.3656642247\C,
 0,8.8158604888,24.1678717801,-2.6135008598\H,0,9.0484267635,25.2201027
 384,-2.446925882\H,0,9.7099640249,23.6810888706,-3.0023831176\H,0,8.56
 82914414,23.7174708056,-1.6554510436\C,0,5.8246607548,22.9943157014,-2
 .1202468919\H,0,4.9451749258,23.5743364501,-1.8402203455\H,0,6.5330290
 066,23.0288190898,-1.2963837794\H,0,5.5154330343,21.9589017956,-2.2650
 919906\O,0,6.975,22.478,-7.923\H,0,6.24,21.876,-7.8070000001\H,0,7.817
 ,22.253,-8.101\C,0,3.432763618,26.5404061112,-7.8004244773\H,0,2.82556
 56709,25.99116932,-7.0890185258\H,0,3.4411325684,26.0215125982,-8.7528
 067912\H,0,3.0619613019,27.5551500139,-7.9045853807\S,0,5.1258720562,2
 6.5877647731,-7.1109331596\H,0,5.6498111212,27.2655191525,-8.139985215
 5\\Version=ES64L-G16RevC.02\State=1-A\HF=-3157.193322\RMSD=1.258e-09\D
 ipole=-0.6691739,-0.4174964,0.0280772\Quadrupole=3.538671,-2.7748948,-
 0.7637763,1.4519474,0.5566857,-3.3403013\PG=C01 [X(C31H34Fe1N4O1S1)]\\
 @
 The archive entry for this job was punched.


 I DON'T PRETEND TO UNDERSTAND THE UNIVERSE --
 IT'S A GREAT DEAL BIGGER THAN I AM.
       -- ATTR. TO WILLIAM ALLINGHAM (1828-89)
 Job cpu time:       0 days  0 hours 39 minutes 45.4 seconds.
 Elapsed time:       0 days  0 hours  0 minutes 48.0 seconds.
 File lengths (MBytes):  RWF=    664 Int=      0 D2E=      0 Chk=    156 Scr=      1
 Normal termination of Gaussian 16 at Mon Nov 18 16:02:18 2024.
