 Entering Gaussian System, Link 0=g16
 Input=4ips01.com
 Output=4ips01.log
 Initial command:
 /sw/chem/gaussian/g16_C02/a100/g16/l1.exe "/local/bebjones_8087542/Gau-1698574.inp" -scrdir="/local/bebjones_8087542/"
 Entering Link 1 = /sw/chem/gaussian/g16_C02/a100/g16/l1.exe PID=   1698575.
  
 Copyright (c) 1988-2021, Gaussian, Inc.  All Rights Reserved.
  
 This is part of the Gaussian(R) 16 program.  It is based on
 the Gaussian(R) 09 system (copyright 2009, Gaussian, Inc.),
 the Gaussian(R) 03 system (copyright 2003, Gaussian, Inc.),
 the Gaussian(R) 98 system (copyright 1998, Gaussian, Inc.),
 the Gaussian(R) 94 system (copyright 1995, Gaussian, Inc.),
 the Gaussian 92(TM) system (copyright 1992, Gaussian, Inc.),
 the Gaussian 90(TM) system (copyright 1990, Gaussian, Inc.),
 the Gaussian 88(TM) system (copyright 1988, Gaussian, Inc.),
 the Gaussian 86(TM) system (copyright 1986, Carnegie Mellon
 University), and the Gaussian 82(TM) system (copyright 1983,
 Carnegie Mellon University). Gaussian is a federally registered
 trademark of Gaussian, Inc.
  
 This software contains proprietary and confidential information,
 including trade secrets, belonging to Gaussian, Inc.
  
 This software is provided under written license and may be
 used, copied, transmitted, or stored only in accord with that
 written license.
  
 The following legend is applicable only to US Government
 contracts under FAR:
  
                    RESTRICTED RIGHTS LEGEND
  
 Use, reproduction and disclosure by the US Government is
 subject to restrictions as set forth in subparagraphs (a)
 and (c) of the Commercial Computer Software - Restricted
 Rights clause in FAR 52.227-19.
  
 Gaussian, Inc.
 340 Quinnipiac St., Bldg. 40, Wallingford CT 06492
  
  
 ---------------------------------------------------------------
 Warning -- This program may not be used in any manner that
 competes with the business of Gaussian, Inc. or will provide
 assistance to any competitor of Gaussian, Inc.  The licensee
 of this program is prohibited from giving any competitor of
 Gaussian, Inc. access to this program.  By using this program,
 the user acknowledges that Gaussian, Inc. is engaged in the
 business of creating and licensing software in the field of
 computational chemistry and represents and warrants to the
 licensee that it is not a competitor of Gaussian, Inc. and that
 it will not use this program in any manner prohibited above.
 ---------------------------------------------------------------
  

 Cite this work as:
 Gaussian 16, Revision C.02,
 M. J. Frisch, G. W. Trucks, H. B. Schlegel, G. E. Scuseria, 
 M. A. Robb, J. R. Cheeseman, G. Scalmani, V. Barone, 
 G. A. Petersson, H. Nakatsuji, X. Li, M. Caricato, A. V. Marenich, 
 J. Bloino, B. G. Janesko, R. Gomperts, B. Mennucci, H. P. Hratchian, 
 J. V. Ortiz, A. F. Izmaylov, J. L. Sonnenberg, D. Williams-Young, 
 F. Ding, F. Lipparini, F. Egidi, J. Goings, B. Peng, A. Petrone, 
 T. Henderson, D. Ranasinghe, V. G. Zakrzewski, J. Gao, N. Rega, 
 G. Zheng, W. Liang, M. Hada, M. Ehara, K. Toyota, R. Fukuda, 
 J. Hasegawa, M. Ishida, T. Nakajima, Y. Honda, O. Kitao, H. Nakai, 
 T. Vreven, K. Throssell, J. A. Montgomery, Jr., J. E. Peralta, 
 F. Ogliaro, M. J. Bearpark, J. J. Heyd, E. N. Brothers, K. N. Kudin, 
 V. N. Staroverov, T. A. Keith, R. Kobayashi, J. Normand, 
 K. Raghavachari, A. P. Rendell, J. C. Burant, S. S. Iyengar, 
 J. Tomasi, M. Cossi, J. M. Millam, M. Klene, C. Adamo, R. Cammi, 
 J. W. Ochterski, R. L. Martin, K. Morokuma, O. Farkas, 
 J. B. Foresman, and D. J. Fox, Gaussian, Inc., Wallingford CT, 2019.
 
 ******************************************
 Gaussian 16:  ES64L-G16RevC.02  7-Dec-2021
                18-Nov-2024 
 ******************************************
 %mem=16GB
 %CPU=0-71
 SetSPE:  set environment variable "OMP_PROC_BIND" = "true"
 SetSPE:  set environment variable "OMP_PLACES" = "{0},{1},{2},{3},{4},{5},{6},{7},{8},{9},{10},{11},{12},{13},{14},{15},{16},{17},{18},{19},{20},{21},{22},{23},{24},{25},{26},{27},{28},{29},{30},{31},{32},{33},{34},{35},{36},{37},{38},{39},{40},{41},{42},{43},{44},{45},{46},{47},{48},{49},{50},{51},{52},{53},{54},{55},{56},{57},{58},{59},{60},{61},{62},{63},{64},{65},{66},{67},{68},{69},{70},{71}"
 Will use up to   72 processors via shared memory.
 %gpucpu=0,1,2,3=0,1,2,3
 Will use    4 GPUs:
 Thread  CPU   GPU
      0    0     0
      1    1     1
      2    2     2
      3    3     3
      4    4    -1
      5    5    -1
      6    6    -1
      7    7    -1
      8    8    -1
      9    9    -1
     10   10    -1
     11   11    -1
     12   12    -1
     13   13    -1
     14   14    -1
     15   15    -1
     16   16    -1
     17   17    -1
     18   18    -1
     19   19    -1
     20   20    -1
     21   21    -1
     22   22    -1
     23   23    -1
     24   24    -1
     25   25    -1
     26   26    -1
     27   27    -1
     28   28    -1
     29   29    -1
     30   30    -1
     31   31    -1
     32   32    -1
     33   33    -1
     34   34    -1
     35   35    -1
     36   36    -1
     37   37    -1
     38   38    -1
     39   39    -1
     40   40    -1
     41   41    -1
     42   42    -1
     43   43    -1
     44   44    -1
     45   45    -1
     46   46    -1
     47   47    -1
     48   48    -1
     49   49    -1
     50   50    -1
     51   51    -1
     52   52    -1
     53   53    -1
     54   54    -1
     55   55    -1
     56   56    -1
     57   57    -1
     58   58    -1
     59   59    -1
     60   60    -1
     61   61    -1
     62   62    -1
     63   63    -1
     64   64    -1
     65   65    -1
     66   66    -1
     67   67    -1
     68   68    -1
     69   69    -1
     70   70    -1
     71   71    -1
 SetGPE:  set environment variable "OMP_PROC_BIND" = "true"
 SetGPE:  set environment variable "OMP_PLACES" = "{0},{1},{2},{3},{4},{5},{6},{7},{8},{9},{10},{11},{12},{13},{14},{15},{16},{17},{18},{19},{20},{21},{22},{23},{24},{25},{26},{27},{28},{29},{30},{31},{32},{33},{34},{35},{36},{37},{38},{39},{40},{41},{42},{43},{44},{45},{46},{47},{48},{49},{50},{51},{52},{53},{54},{55},{56},{57},{58},{59},{60},{61},{62},{63},{64},{65},{66},{67},{68},{69},{70},{71}"
 %chk=4ips_II_O.chk
 Properties for Device   0
 Minimum vector length:                              32
 Maximum vector length:                            1024
 Number of SMPs:                                    108
 Maximum number of threads per SMP:                2048
 Number of ASync Engines:                             5
 Memory:                                           9207742464
 Properties for Device   1
 Minimum vector length:                              32
 Maximum vector length:                            1024
 Number of SMPs:                                    108
 Maximum number of threads per SMP:                2048
 Number of ASync Engines:                             5
 Memory:                                           9207742464
 Properties for Device   2
 Minimum vector length:                              32
 Maximum vector length:                            1024
 Number of SMPs:                                    108
 Maximum number of threads per SMP:                2048
 Number of ASync Engines:                             5
 Memory:                                           9207742464
 Properties for Device   3
 Minimum vector length:                              32
 Maximum vector length:                            1024
 Number of SMPs:                                    108
 Maximum number of threads per SMP:                2048
 Number of ASync Engines:                             5
 Memory:                                           9207742464
   8286968217 words of memory will be used on each GPU.
 ------------------------------------------
 # polar def2tzvp apfd int=(grid=ultrafine)
 ------------------------------------------
 1/38=1,172=1/1;
 2/12=2,17=6,18=5,40=1/2;
 3/5=44,7=101,11=2,25=1,30=1,74=-44,75=-5/1,2,3;
 4//1;
 5/5=2,38=5,98=1/2;
 8/6=4,10=90,11=11/1;
 10/6=1,13=10/2;
 6/7=2,8=2,9=2,10=2,28=1/1;
 99/5=1,9=1/99;
 ---------
 4ips_II_S
 ---------
 Symbolic Z-matrix:
 Charge =  0 Multiplicity = 1
 Fe                    6.06729   24.743   -7.36246 
 N                     4.38793   23.69579  -7.14093 
 N                     5.79524   24.74995  -9.35407 
 N                     7.85883   25.60818  -7.61928 
 N                     6.5528    24.37226  -5.46459 
 C                     3.8327    23.31684  -5.96217 
 C                     2.51717   22.75297  -6.17751 
 C                     2.32475   22.7366  -7.52354 
 C                     3.50315   23.33882  -8.10899 
 C                     4.73851   24.22451  -10.03819 
 C                     4.80842   24.56969  -11.43292 
 C                     5.92487   25.35204  -11.5814 
 C                     6.52534   25.44495  -10.26702 
 C                     8.27446   26.25201  -8.74471 
 C                     9.47175   27.01152  -8.48634 
 C                     9.836     26.7223  -7.19795 
 C                     8.7946    25.86064  -6.67237 
 C                     7.72222   24.65363  -4.83379 
 C                     7.67527   24.22831  -3.4517 
 C                     6.41481   23.76479  -3.24068 
 C                     5.73621   23.84307  -4.51629 
 C                     4.44141   23.40791  -4.72545 
 H                     3.88795   23.05548  -3.86902 
 C                     3.67456   23.54599  -9.46342 
 H                     2.89344   23.19863  -10.12189 
 C                     7.6574    26.18478  -9.98092 
 H                     8.11127   26.73255  -10.79213 
 C                     8.78066   25.34637  -5.38924 
 H                     9.63449   25.54178  -4.75936 
 C                     1.15807   22.24054  -8.30625 
 H                     0.71704   23.04668  -8.89334 
 H                     0.39331   21.83848  -7.64655 
 H                     1.46642   21.4521  -8.99313 
 C                     1.62538   22.26517  -5.08847 
 H                     1.46427   23.0476  -4.34717 
 H                     2.07145   21.40782  -4.58322 
 H                     0.65919   21.9632  -5.48513 
 C                     3.86404   24.0941  -12.48066 
 H                     2.97074   24.72025  -12.51539 
 H                     3.55053   23.07068  -12.28034 
 H                     4.34336   24.12774  -13.45701 
 C                     6.46684   25.95645  -12.778 
 H                     7.54728   26.03386  -12.81385 
 C                     5.75342   26.41669  -13.80042 
 H                     4.67745   26.40887  -13.79936 
 H                     6.22621   26.84423  -14.66882 
 C                     10.13633   27.92071  -9.4593 
 H                     9.39682   28.45047  -10.05819 
 H                     10.78404   27.36262  -10.13757 
 H                     10.74411   28.65098  -8.92905 
 C                     10.9653   27.20489  -6.43395 
 H                     10.79053   27.33416  -5.37243 
 C                     12.1675   27.4809  -6.92843 
 H                     12.41046   27.32671  -7.96518 
 H                     12.96292   27.84867  -6.30179 
 C                     8.80916   24.35605  -2.49399 
 H                     9.02482   25.40609  -2.2935 
 H                     9.70927   23.89822  -2.90334 
 H                     8.57442   23.86974  -1.55033 
 C                     5.80185   23.2268  -1.99391 
 H                     6.5048    23.27505  -1.16611 
 H                     5.50015   22.18784  -2.12993 
 H                     4.91676   23.8036  -1.72579 
 O                     7.082     22.794   -7.795 
 H                     7.191     22.682   -8.739 
 H                     7.334     22.22    -7.165 
 C                     3.41239   26.76327  -7.77785 
 H                     2.76747   26.22474  -7.09146 
 H                     3.46887   26.2318  -8.72166 
 H                     3.05071   27.77744  -7.91521 
 S                     5.06862   26.81614  -7.00367 
 H                     5.64678   27.48248  -8.01144 
 
 Stoichiometry    C31H34FeN4OS
 Framework group  C1[X(C31H34FeN4OS)]
 Deg. of freedom   210
 Full point group                 C1      NOp   1
 Largest Abelian subgroup         C1      NOp   1
 Largest concise Abelian subgroup C1      NOp   1
                         Standard orientation:                         
 ---------------------------------------------------------------------
 Center     Atomic      Atomic             Coordinates (Angstroms)
 Number     Number       Type             X           Y           Z
 ---------------------------------------------------------------------
      1         26           0        0.011905   -0.207815   -0.048503
      2          7           0       -1.447198   -1.557438   -0.173144
      3          7           0       -1.325485    1.260461   -0.358545
      4          7           0        1.492756    1.142333   -0.139473
      5          7           0        1.371246   -1.661276   -0.169716
      6          6           0       -1.313078   -2.896738   -0.000935
      7          6           0       -2.610596   -3.536833    0.039690
      8          6           0       -3.526546   -2.557097   -0.184437
      9          6           0       -2.779486   -1.323791   -0.306562
     10          6           0       -2.675100    1.122370   -0.500904
     11          6           0       -3.320717    2.407374   -0.536224
     12          6           0       -2.329464    3.341799   -0.378591
     13          6           0       -1.091720    2.597546   -0.274269
     14          6           0        1.346635    2.489625   -0.007888
     15          6           0        2.625470    3.126125    0.183308
     16          6           0        3.565929    2.138774    0.053074
     17          6           0        2.826517    0.903829   -0.124142
     18          6           0        2.717052   -1.534182   -0.301190
     19          6           0        3.353145   -2.832804   -0.348522
     20          6           0        2.365356   -3.745800   -0.151433
     21          6           0        1.131774   -2.994531   -0.063798
     22          6           0       -0.113231   -3.576388    0.081164
     23          1           0       -0.153164   -4.647383    0.205149
     24          6           0       -3.357791   -0.084548   -0.497923
     25          1           0       -4.431318   -0.047845   -0.600839
     26          6           0        0.146592    3.175244   -0.065444
     27          1           0        0.183636    4.248912    0.034415
     28          6           0        3.409959   -0.339063   -0.285121
     29          1           0        4.485721   -0.385154   -0.352796
     30          6           0       -5.010683   -2.652419   -0.274400
     31          1           0       -5.483483   -2.039082    0.493280
     32          1           0       -5.340254   -3.680050   -0.143709
     33          1           0       -5.357555   -2.302921   -1.247049
     34          6           0       -2.818998   -4.997465    0.245545
     35          1           0       -2.327353   -5.328493    1.160083
     36          1           0       -2.401531   -5.565034   -0.586854
     37          1           0       -3.878221   -5.230725    0.320887
     38          6           0       -4.775001    2.628513   -0.764163
     39          1           0       -5.336311    2.529383    0.166617
     40          1           0       -5.168204    1.902054   -1.473708
     41          1           0       -4.942145    3.628501   -1.159422
     42          6           0       -2.426696    4.784281   -0.352500
     43          1           0       -1.579412    5.317036   -0.768333
     44          6           0       -3.447311    5.479540    0.138514
     45          1           0       -4.293042    5.005667    0.605370
     46          1           0       -3.458339    6.556412    0.112818
     47          6           0        2.828403    4.572389    0.469826
     48          1           0        2.044393    4.948613    1.125548
     49          1           0        2.811307    5.160030   -0.449646
     50          1           0        3.790860    4.722982    0.954444
     51          6           0        5.006729    2.226996    0.143654
     52          1           0        5.502456    1.360712    0.565420
     53          6           0        5.740875    3.261194   -0.253132
     54          1           0        5.306327    4.127069   -0.721192
     55          1           0        6.812822    3.264635   -0.145702
     56          6           0        4.816757   -3.045838   -0.526622
     57          1           0        5.366485   -2.669712    0.336868
     58          1           0        5.175235   -2.519746   -1.410986
     59          1           0        5.042168   -4.103350   -0.640381
     60          6           0        2.452143   -5.231255   -0.077457
     61          1           0        3.483923   -5.562519   -0.163597
     62          1           0        1.874152   -5.691572   -0.879330
     63          1           0        2.055902   -5.588441    0.873005
     64          8           0        0.067778   -0.240148   -2.287061
     65          1           0       -0.408740    0.511210   -2.639132
     66          1           0        0.475556   -0.872546   -2.759998
     67          6           0       -1.792205   -0.187138    2.788284
     68          1           0       -2.047367   -1.241047    2.753224
     69          1           0       -2.416558    0.364792    2.094031
     70          1           0       -1.895608    0.190583    3.800634
     71         16           0       -0.041485   -0.057620    2.274987
     72          1           0        0.012160    1.276498    2.380406
 ---------------------------------------------------------------------
 Rotational constants (GHZ):           0.1091813           0.1072321           0.0597841
 Standard basis: def2TZVP (5D, 7F)
 There are  1594 symmetry adapted cartesian basis functions of A   symmetry.
 There are  1402 symmetry adapted basis functions of A   symmetry.
  1402 basis functions,  2279 primitive gaussians,  1594 cartesian basis functions
   149 alpha electrons      149 beta electrons
       nuclear repulsion energy      5417.4131883602 Hartrees.
 NAtoms=   72 NActive=   72 NUniq=   72 SFac= 1.00D+00 NAtFMM=   60 NAOKFM=T Big=T
 Integral buffers will be    131072 words long.
 Raffenetti 2 integral format.
 Two-electron integral symmetry is turned on.
 R6APFD:  NTU= -4 IXU= 1 FactS= 1.050
 Nuclear repulsion after empirical dispersion term =     5417.2610253904 Hartrees.
 One-electron integrals computed using PRISM.
   1 Symmetry operations used in ECPInt.
 ECPInt:  NShTT=  157080 NPrTT=  488567 LenC2=  124750 LenP2D=  258900.
 LDataN:  DoStor=T MaxTD1= 6 Len=  172
 Number of processors reduced to  25 by ecpmxn.
 NBasis=  1402 RedAO= T EigKep=  3.44D-06  NBF=  1402
 NBsUse=  1402 1.00D-06 EigRej= -1.00D+00 NBFU=  1402
 ExpMin= 4.20D-02 ExpMax= 3.01D+05 ExpMxC= 2.91D+03 IAcc=3 IRadAn=         5 AccDes= 0.00D+00
 Harris functional with IExCor= 3731 and IRadAn=       5 diagonalized for initial guess.
 HarFok:  IExCor= 3731 AccDes= 0.00D+00 IRadAn=         5 IDoV= 1 UseB2=F ITyADJ=14
 ICtDFT=  3500011 ScaDFX=  1.000000  1.000000  1.000000  1.000000
 FoFCou: FMM=F IPFlag=           0 FMFlag=      100000 FMFlg1=        2001
         NFxFlg=           0 DoJE=T BraDBF=F KetDBF=T FulRan=T
         wScrn=  0.000000 ICntrl=       500 IOpCl=  0 I1Cent=   200000004 NGrid=           0
         NMat0=    1 NMatS0=      1 NMatT0=    0 NMatD0=    1 NMtDS0=    0 NMtDT0=    0
 Petite list used in FoFCou.
 Requested convergence on RMS density matrix=1.00D-08 within 128 cycles.
 Requested convergence on MAX density matrix=1.00D-06.
 Requested convergence on             energy=1.00D-06.
 No special actions if energy rises.
 EnCoef did     3 forward-backward iterations
 EnCoef did   100 forward-backward iterations
 EnCoef did   100 forward-backward iterations
 EnCoef did   100 forward-backward iterations
 Restarting incremental Fock formation.
 SCF Done:  E(RAPFD) =  -3157.19305702     A.U. after   24 cycles
            NFock= 24  Conv=0.52D-08     -V/T= 2.0031
 DoSCS=F DFT=T ScalE2(SS,OS)=  1.000000  1.000000
 Range of M.O.s used for correlation:     1  1402
 NBasis=  1402 NAE=   149 NBE=   149 NFC=     0 NFV=     0
 NROrb=   1402 NOA=   149 NOB=   149 NVA=  1253 NVB=  1253

 **** Warning!!: The largest alpha MO coefficient is  0.68718985D+02

          Differentiating once with respect to electric field.
                with respect to dipole field.
          Electric field/nuclear overlap derivatives assumed to be zero.
          There are     3 degrees of freedom in the 1st order CPHF.  IDoFFX=0 NUNeed=     3.
      3 vectors produced by pass  0 Test12= 6.22D-12 3.33D-08 XBig12= 1.83D+03 2.90D+01.
 AX will form     3 AO Fock derivatives at one time.
      3 vectors produced by pass  1 Test12= 6.22D-12 3.33D-08 XBig12= 1.17D+03 7.72D+00.
      3 vectors produced by pass  2 Test12= 6.22D-12 3.33D-08 XBig12= 4.30D+02 4.15D+00.
      3 vectors produced by pass  3 Test12= 6.22D-12 3.33D-08 XBig12= 2.86D+02 4.11D+00.
      3 vectors produced by pass  4 Test12= 6.22D-12 3.33D-08 XBig12= 1.65D+02 3.28D+00.
      3 vectors produced by pass  5 Test12= 6.22D-12 3.33D-08 XBig12= 7.87D+01 2.74D+00.
      3 vectors produced by pass  6 Test12= 6.22D-12 3.33D-08 XBig12= 6.06D+01 2.92D+00.
      3 vectors produced by pass  7 Test12= 6.22D-12 3.33D-08 XBig12= 4.80D+01 2.50D+00.
      3 vectors produced by pass  8 Test12= 6.22D-12 3.33D-08 XBig12= 2.22D+01 1.47D+00.
      3 vectors produced by pass  9 Test12= 6.22D-12 3.33D-08 XBig12= 1.30D+01 9.47D-01.
      3 vectors produced by pass 10 Test12= 6.22D-12 3.33D-08 XBig12= 5.48D+00 5.31D-01.
      3 vectors produced by pass 11 Test12= 6.22D-12 3.33D-08 XBig12= 2.27D+00 2.90D-01.
      3 vectors produced by pass 12 Test12= 6.22D-12 3.33D-08 XBig12= 5.42D-01 1.00D-01.
      3 vectors produced by pass 13 Test12= 6.22D-12 3.33D-08 XBig12= 1.01D-01 7.06D-02.
      3 vectors produced by pass 14 Test12= 6.22D-12 3.33D-08 XBig12= 2.77D-02 4.62D-02.
      3 vectors produced by pass 15 Test12= 6.22D-12 3.33D-08 XBig12= 1.02D-02 2.45D-02.
      3 vectors produced by pass 16 Test12= 6.22D-12 3.33D-08 XBig12= 3.31D-03 1.01D-02.
      3 vectors produced by pass 17 Test12= 6.22D-12 3.33D-08 XBig12= 5.66D-04 4.15D-03.
      3 vectors produced by pass 18 Test12= 6.22D-12 3.33D-08 XBig12= 1.08D-04 1.83D-03.
      3 vectors produced by pass 19 Test12= 6.22D-12 3.33D-08 XBig12= 2.21D-05 1.21D-03.
      3 vectors produced by pass 20 Test12= 6.22D-12 3.33D-08 XBig12= 4.97D-06 5.92D-04.
      3 vectors produced by pass 21 Test12= 6.22D-12 3.33D-08 XBig12= 1.03D-06 2.60D-04.
      3 vectors produced by pass 22 Test12= 6.22D-12 3.33D-08 XBig12= 2.56D-07 1.11D-04.
      3 vectors produced by pass 23 Test12= 6.22D-12 3.33D-08 XBig12= 4.89D-08 4.83D-05.
      3 vectors produced by pass 24 Test12= 6.22D-12 3.33D-08 XBig12= 8.22D-09 1.83D-05.
      3 vectors produced by pass 25 Test12= 6.22D-12 3.33D-08 XBig12= 1.38D-09 8.22D-06.
      3 vectors produced by pass 26 Test12= 6.22D-12 3.33D-08 XBig12= 2.02D-10 2.42D-06.
      3 vectors produced by pass 27 Test12= 6.22D-12 3.33D-08 XBig12= 3.63D-11 9.63D-07.
      3 vectors produced by pass 28 Test12= 6.22D-12 3.33D-08 XBig12= 8.73D-12 5.64D-07.
      3 vectors produced by pass 29 Test12= 6.22D-12 3.33D-08 XBig12= 9.90D-13 2.49D-07.
      2 vectors produced by pass 30 Test12= 6.22D-12 3.33D-08 XBig12= 1.14D-13 7.55D-08.
 InvSVY:  IOpt=1 It=  1 EMax= 2.84D-14
 Solved reduced A of dimension    92 with     3 vectors.
 Isotropic polarizability for W=    0.000000      549.47 Bohr**3.
 End of Minotr F.D. properties file   721 does not exist.
 End of Minotr F.D. properties file   722 does not exist.
 End of Minotr F.D. properties file   788 does not exist.

 **********************************************************************

            Population analysis using the SCF Density.

 **********************************************************************

 Orbital symmetries:
       Occupied  (A) (A) (A) (A) (A) (A) (A) (A) (A) (A) (A) (A)
                 (A) (A) (A) (A) (A) (A) (A) (A) (A) (A) (A) (A)
                 (A) (A) (A) (A) (A) (A) (A) (A) (A) (A) (A) (A)
                 (A) (A) (A) (A) (A) (A) (A) (A) (A) (A) (A) (A)
                 (A) (A) (A) (A) (A) (A) (A) (A) (A) (A) (A) (A)
                 (A) (A) (A) (A) (A) (A) (A) (A) (A) (A) (A) (A)
                 (A) (A) (A) (A) (A) (A) (A) (A) (A) (A) (A) (A)
                 (A) (A) (A) (A) (A) (A) (A) (A) (A) (A) (A) (A)
                 (A) (A) (A) (A) (A) (A) (A) (A) (A) (A) (A) (A)
                 (A) (A) (A) (A) (A) (A) (A) (A) (A) (A) (A) (A)
                 (A) (A) (A) (A) (A) (A) (A) (A) (A) (A) (A) (A)
                 (A) (A) (A) (A) (A) (A) (A) (A) (A) (A) (A) (A)
                 (A) (A) (A) (A) (A)
       Virtual   (A) (A) (A) (A) (A) (A) (A) (A) (A) (A) (A) (A)
                 (A) (A) (A) (A) (A) (A) (A) (A) (A) (A) (A) (A)
                 (A) (A) (A) (A) (A) (A) (A) (A) (A) (A) (A) (A)
                 (A) (A) (A) (A) (A) (A) (A) (A) (A) (A) (A) (A)
                 (A) (A) (A) (A) (A) (A) (A) (A) (A) (A) (A) (A)
                 (A) (A) (A) (A) (A) (A) (A) (A) (A) (A) (A) (A)
                 (A) (A) (A) (A) (A) (A) (A) (A) (A) (A) (A) (A)
                 (A) (A) (A) (A) (A) (A) (A) (A) (A) (A) (A) (A)
                 (A) (A) (A) (A) (A) (A) (A) (A) (A) (A) (A) (A)
                 (A) (A) (A) (A) (A) (A) (A) (A) (A) (A) (A) (A)
                 (A) (A) (A) (A) (A) (A) (A) (A) (A) (A) (A) (A)
                 (A) (A) (A) (A) (A) (A) (A) (A) (A) (A) (A) (A)
                 (A) (A) (A) (A) (A) (A) (A) (A) (A) (A) (A) (A)
                 (A) (A) (A) (A) (A) (A) (A) (A) (A) (A) (A) (A)
                 (A) (A) (A) (A) (A) (A) (A) (A) (A) (A) (A) (A)
                 (A) (A) (A) (A) (A) (A) (A) (A) (A) (A) (A) (A)
                 (A) (A) (A) (A) (A) (A) (A) (A) (A) (A) (A) (A)
                 (A) (A) (A) (A) (A) (A) (A) (A) (A) (A) (A) (A)
                 (A) (A) (A) (A) (A) (A) (A) (A) (A) (A) (A) (A)
                 (A) (A) (A) (A) (A) (A) (A) (A) (A) (A) (A) (A)
                 (A) (A) (A) (A) (A) (A) (A) (A) (A) (A) (A) (A)
                 (A) (A) (A) (A) (A) (A) (A) (A) (A) (A) (A) (A)
                 (A) (A) (A) (A) (A) (A) (A) (A) (A) (A) (A) (A)
                 (A) (A) (A) (A) (A) (A) (A) (A) (A) (A) (A) (A)
                 (A) (A) (A) (A) (A) (A) (A) (A) (A) (A) (A) (A)
                 (A) (A) (A) (A) (A) (A) (A) (A) (A) (A) (A) (A)
                 (A) (A) (A) (A) (A) (A) (A) (A) (A) (A) (A) (A)
                 (A) (A) (A) (A) (A) (A) (A) (A) (A) (A) (A) (A)
                 (A) (A) (A) (A) (A) (A) (A) (A) (A) (A) (A) (A)
                 (A) (A) (A) (A) (A) (A) (A) (A) (A) (A) (A) (A)
                 (A) (A) (A) (A) (A) (A) (A) (A) (A) (A) (A) (A)
                 (A) (A) (A) (A) (A) (A) (A) (A) (A) (A) (A) (A)
                 (A) (A) (A) (A) (A) (A) (A) (A) (A) (A) (A) (A)
                 (A) (A) (A) (A) (A) (A) (A) (A) (A) (A) (A) (A)
                 (A) (A) (A) (A) (A) (A) (A) (A) (A) (A) (A) (A)
                 (A) (A) (A) (A) (A) (A) (A) (A) (A) (A) (A) (A)
                 (A) (A) (A) (A) (A) (A) (A) (A) (A) (A) (A) (A)
                 (A) (A) (A) (A) (A) (A) (A) (A) (A) (A) (A) (A)
                 (A) (A) (A) (A) (A) (A) (A) (A) (A) (A) (A) (A)
                 (A) (A) (A) (A) (A) (A) (A) (A) (A) (A) (A) (A)
                 (A) (A) (A) (A) (A) (A) (A) (A) (A) (A) (A) (A)
                 (A) (A) (A) (A) (A) (A) (A) (A) (A) (A) (A) (A)
                 (A) (A) (A) (A) (A) (A) (A) (A) (A) (A) (A) (A)
                 (A) (A) (A) (A) (A) (A) (A) (A) (A) (A) (A) (A)
                 (A) (A) (A) (A) (A) (A) (A) (A) (A) (A) (A) (A)
                 (A) (A) (A) (A) (A) (A) (A) (A) (A) (A) (A) (A)
                 (A) (A) (A) (A) (A) (A) (A) (A) (A) (A) (A) (A)
                 (A) (A) (A) (A) (A) (A) (A) (A) (A) (A) (A) (A)
                 (A) (A) (A) (A) (A) (A) (A) (A) (A) (A) (A) (A)
                 (A) (A) (A) (A) (A) (A) (A) (A) (A) (A) (A) (A)
                 (A) (A) (A) (A) (A) (A) (A) (A) (A) (A) (A) (A)
                 (A) (A) (A) (A) (A) (A) (A) (A) (A) (A) (A) (A)
                 (A) (A) (A) (A) (A) (A) (A) (A) (A) (A) (A) (A)
                 (A) (A) (A) (A) (A) (A) (A) (A) (A) (A) (A) (A)
                 (A) (A) (A) (A) (A) (A) (A) (A) (A) (A) (A) (A)
                 (A) (A) (A) (A) (A) (A) (A) (A) (A) (A) (A) (A)
                 (A) (A) (A) (A) (A) (A) (A) (A) (A) (A) (A) (A)
                 (A) (A) (A) (A) (A) (A) (A) (A) (A) (A) (A) (A)
                 (A) (A) (A) (A) (A) (A) (A) (A) (A) (A) (A) (A)
                 (A) (A) (A) (A) (A) (A) (A) (A) (A) (A) (A) (A)
                 (A) (A) (A) (A) (A) (A) (A) (A) (A) (A) (A) (A)
                 (A) (A) (A) (A) (A) (A) (A) (A) (A) (A) (A) (A)
                 (A) (A) (A) (A) (A) (A) (A) (A) (A) (A) (A) (A)
                 (A) (A) (A) (A) (A) (A) (A) (A) (A) (A) (A) (A)
                 (A) (A) (A) (A) (A) (A) (A) (A) (A) (A) (A) (A)
                 (A) (A) (A) (A) (A) (A) (A) (A) (A) (A) (A) (A)
                 (A) (A) (A) (A) (A) (A) (A) (A) (A) (A) (A) (A)
                 (A) (A) (A) (A) (A) (A) (A) (A) (A) (A) (A) (A)
                 (A) (A) (A) (A) (A) (A) (A) (A) (A) (A) (A) (A)
                 (A) (A) (A) (A) (A) (A) (A) (A) (A) (A) (A) (A)
                 (A) (A) (A) (A) (A) (A) (A) (A) (A) (A) (A) (A)
                 (A) (A) (A) (A) (A) (A) (A) (A) (A) (A) (A) (A)
                 (A) (A) (A) (A) (A) (A) (A) (A) (A) (A) (A) (A)
                 (A) (A) (A) (A) (A) (A) (A) (A) (A) (A) (A) (A)
                 (A) (A) (A) (A) (A) (A) (A) (A) (A) (A) (A) (A)
                 (A) (A) (A) (A) (A) (A) (A) (A) (A) (A) (A) (A)
                 (A) (A) (A) (A) (A) (A) (A) (A) (A) (A) (A) (A)
                 (A) (A) (A) (A) (A) (A) (A) (A) (A) (A) (A) (A)
                 (A) (A) (A) (A) (A) (A) (A) (A) (A) (A) (A) (A)
                 (A) (A) (A) (A) (A) (A) (A) (A) (A) (A) (A) (A)
                 (A) (A) (A) (A) (A) (A) (A) (A) (A) (A) (A) (A)
                 (A) (A) (A) (A) (A) (A) (A) (A) (A) (A) (A) (A)
                 (A) (A) (A) (A) (A) (A) (A) (A) (A) (A) (A) (A)
                 (A) (A) (A) (A) (A) (A) (A) (A) (A) (A) (A) (A)
                 (A) (A) (A) (A) (A) (A) (A) (A) (A) (A) (A) (A)
                 (A) (A) (A) (A) (A) (A) (A) (A) (A) (A) (A) (A)
                 (A) (A) (A) (A) (A) (A) (A) (A) (A) (A) (A) (A)
                 (A) (A) (A) (A) (A) (A) (A) (A) (A) (A) (A) (A)
                 (A) (A) (A) (A) (A) (A) (A) (A) (A) (A) (A) (A)
                 (A) (A) (A) (A) (A) (A) (A) (A) (A) (A) (A) (A)
                 (A) (A) (A) (A) (A) (A) (A) (A) (A) (A) (A) (A)
                 (A) (A) (A) (A) (A) (A) (A) (A) (A) (A) (A) (A)
                 (A) (A) (A) (A) (A) (A) (A) (A) (A) (A) (A) (A)
                 (A) (A) (A) (A) (A) (A) (A) (A) (A) (A) (A) (A)
                 (A) (A) (A) (A) (A) (A) (A) (A) (A) (A) (A) (A)
                 (A) (A) (A) (A) (A) (A) (A) (A) (A) (A) (A) (A)
                 (A) (A) (A) (A) (A) (A) (A) (A) (A) (A) (A) (A)
                 (A) (A) (A) (A) (A) (A) (A) (A) (A) (A) (A) (A)
                 (A) (A) (A) (A) (A) (A) (A) (A) (A) (A) (A) (A)
                 (A) (A) (A) (A) (A) (A) (A) (A) (A) (A) (A) (A)
                 (A) (A) (A) (A) (A) (A) (A) (A) (A) (A) (A) (A)
                 (A) (A) (A) (A) (A) (A) (A) (A) (A) (A) (A) (A)
                 (A) (A) (A) (A) (A) (A) (A) (A) (A) (A) (A) (A)
                 (A) (A) (A) (A) (A) (A) (A) (A) (A) (A) (A) (A)
                 (A) (A) (A) (A) (A)
 The electronic state is 1-A.
 Alpha  occ. eigenvalues -- -256.18783 -88.96489 -30.03746 -25.87931 -25.87535
 Alpha  occ. eigenvalues --  -25.87450 -19.17524 -14.34176 -14.33815 -14.33733
 Alpha  occ. eigenvalues --  -14.33729 -10.22027 -10.21706 -10.21601 -10.21416
 Alpha  occ. eigenvalues --  -10.21368 -10.21309 -10.21268 -10.21249 -10.21223
 Alpha  occ. eigenvalues --  -10.20098 -10.19805 -10.19690 -10.19408 -10.19209
 Alpha  occ. eigenvalues --  -10.19164 -10.19097 -10.19078 -10.19063 -10.19042
 Alpha  occ. eigenvalues --  -10.19040 -10.19020 -10.18966 -10.18943 -10.18906
 Alpha  occ. eigenvalues --  -10.18905 -10.18865 -10.18772 -10.18749 -10.18696
 Alpha  occ. eigenvalues --  -10.18680 -10.18431  -7.99234  -5.93803  -5.93519
 Alpha  occ. eigenvalues --   -5.93026  -3.41369  -2.18091  -2.17215  -2.17097
 Alpha  occ. eigenvalues --   -1.05418  -0.97542  -0.96616  -0.96531  -0.95585
 Alpha  occ. eigenvalues --   -0.82791  -0.82413  -0.81999  -0.81170  -0.80835
 Alpha  occ. eigenvalues --   -0.80369  -0.80110  -0.80039  -0.77201  -0.76162
 Alpha  occ. eigenvalues --   -0.74708  -0.74484  -0.73540  -0.71489  -0.70612
 Alpha  occ. eigenvalues --   -0.68635  -0.68357  -0.68278  -0.66495  -0.64654
 Alpha  occ. eigenvalues --   -0.64592  -0.61167  -0.60927  -0.60367  -0.58319
 Alpha  occ. eigenvalues --   -0.57180  -0.54928  -0.54156  -0.53794  -0.53105
 Alpha  occ. eigenvalues --   -0.51575  -0.51547  -0.51042  -0.49257  -0.48339
 Alpha  occ. eigenvalues --   -0.47767  -0.46730  -0.45801  -0.45435  -0.45149
 Alpha  occ. eigenvalues --   -0.44925  -0.44683  -0.44157  -0.43885  -0.43839
 Alpha  occ. eigenvalues --   -0.43548  -0.43365  -0.43202  -0.42831  -0.42323
 Alpha  occ. eigenvalues --   -0.41866  -0.41829  -0.41647  -0.41004  -0.40678
 Alpha  occ. eigenvalues --   -0.40546  -0.40366  -0.39960  -0.39839  -0.39710
 Alpha  occ. eigenvalues --   -0.39455  -0.39070  -0.38803  -0.38206  -0.37889
 Alpha  occ. eigenvalues --   -0.37688  -0.37489  -0.36780  -0.36475  -0.36310
 Alpha  occ. eigenvalues --   -0.35762  -0.34971  -0.34882  -0.34634  -0.34308
 Alpha  occ. eigenvalues --   -0.34054  -0.32404  -0.31856  -0.30803  -0.30385
 Alpha  occ. eigenvalues --   -0.29915  -0.29194  -0.28653  -0.27265  -0.27014
 Alpha  occ. eigenvalues --   -0.24581  -0.24309  -0.23174  -0.22590  -0.20351
 Alpha  occ. eigenvalues --   -0.19057  -0.18897  -0.18745  -0.18385
 Alpha virt. eigenvalues --   -0.07100  -0.07028  -0.02458  -0.00856   0.00147
 Alpha virt. eigenvalues --    0.01205   0.01746   0.03131   0.03758   0.04076
 Alpha virt. eigenvalues --    0.04590   0.05268   0.05498   0.05959   0.06022
 Alpha virt. eigenvalues --    0.06689   0.07426   0.07693   0.08067   0.08120
 Alpha virt. eigenvalues --    0.08558   0.09146   0.09497   0.09935   0.10113
 Alpha virt. eigenvalues --    0.10483   0.10657   0.11125   0.11175   0.11545
 Alpha virt. eigenvalues --    0.11835   0.11930   0.12140   0.12755   0.12818
 Alpha virt. eigenvalues --    0.12923   0.13210   0.13525   0.13588   0.14077
 Alpha virt. eigenvalues --    0.14250   0.14662   0.14745   0.14818   0.15121
 Alpha virt. eigenvalues --    0.15245   0.15633   0.15729   0.15781   0.16242
 Alpha virt. eigenvalues --    0.16527   0.16680   0.16881   0.17024   0.17325
 Alpha virt. eigenvalues --    0.17556   0.18263   0.18414   0.18587   0.18785
 Alpha virt. eigenvalues --    0.19188   0.19675   0.20108   0.20193   0.20492
 Alpha virt. eigenvalues --    0.20743   0.21006   0.21588   0.21860   0.21952
 Alpha virt. eigenvalues --    0.22116   0.22457   0.22714   0.23128   0.23453
 Alpha virt. eigenvalues --    0.23884   0.24263   0.24719   0.24802   0.25304
 Alpha virt. eigenvalues --    0.25440   0.25684   0.26184   0.26385   0.26676
 Alpha virt. eigenvalues --    0.26707   0.27009   0.27720   0.27937   0.28317
 Alpha virt. eigenvalues --    0.28629   0.28891   0.29014   0.29055   0.29296
 Alpha virt. eigenvalues --    0.29341   0.29666   0.29951   0.30198   0.30569
 Alpha virt. eigenvalues --    0.30691   0.31073   0.31437   0.32104   0.32267
 Alpha virt. eigenvalues --    0.32397   0.32706   0.32884   0.33188   0.33410
 Alpha virt. eigenvalues --    0.33897   0.34342   0.34565   0.34893   0.35698
 Alpha virt. eigenvalues --    0.35789   0.36198   0.36437   0.36863   0.37161
 Alpha virt. eigenvalues --    0.37358   0.37465   0.37866   0.38055   0.38385
 Alpha virt. eigenvalues --    0.38810   0.38996   0.39246   0.39517   0.39839
 Alpha virt. eigenvalues --    0.39941   0.40224   0.40358   0.40449   0.40600
 Alpha virt. eigenvalues --    0.40766   0.41280   0.41336   0.41588   0.41937
 Alpha virt. eigenvalues --    0.42038   0.42243   0.42441   0.42721   0.43082
 Alpha virt. eigenvalues --    0.43350   0.43586   0.43844   0.43961   0.44260
 Alpha virt. eigenvalues --    0.44501   0.44795   0.45128   0.45270   0.45702
 Alpha virt. eigenvalues --    0.45989   0.46108   0.46431   0.46554   0.46777
 Alpha virt. eigenvalues --    0.46924   0.47126   0.47373   0.47429   0.47940
 Alpha virt. eigenvalues --    0.48147   0.48222   0.48392   0.48725   0.48953
 Alpha virt. eigenvalues --    0.49366   0.49514   0.49821   0.50251   0.50370
 Alpha virt. eigenvalues --    0.50789   0.50945   0.51042   0.51438   0.51599
 Alpha virt. eigenvalues --    0.51720   0.52025   0.52129   0.52506   0.52639
 Alpha virt. eigenvalues --    0.52763   0.52923   0.53518   0.53757   0.53991
 Alpha virt. eigenvalues --    0.54166   0.54331   0.54478   0.54963   0.55608
 Alpha virt. eigenvalues --    0.55731   0.56256   0.56456   0.56626   0.57216
 Alpha virt. eigenvalues --    0.57407   0.57843   0.57924   0.58403   0.58929
 Alpha virt. eigenvalues --    0.58998   0.59307   0.59485   0.60212   0.60450
 Alpha virt. eigenvalues --    0.60508   0.61330   0.61517   0.62019   0.62214
 Alpha virt. eigenvalues --    0.62378   0.62525   0.62903   0.63161   0.63425
 Alpha virt. eigenvalues --    0.64338   0.64389   0.64799   0.65291   0.65536
 Alpha virt. eigenvalues --    0.65972   0.66201   0.66339   0.66453   0.66773
 Alpha virt. eigenvalues --    0.67066   0.67339   0.67555   0.67883   0.68668
 Alpha virt. eigenvalues --    0.68818   0.69183   0.69407   0.69926   0.70205
 Alpha virt. eigenvalues --    0.70565   0.70831   0.71412   0.71808   0.72028
 Alpha virt. eigenvalues --    0.72621   0.72692   0.72969   0.73050   0.73341
 Alpha virt. eigenvalues --    0.73655   0.74170   0.74363   0.74632   0.75017
 Alpha virt. eigenvalues --    0.75476   0.75804   0.76066   0.76446   0.76699
 Alpha virt. eigenvalues --    0.77117   0.77272   0.78204   0.78418   0.78644
 Alpha virt. eigenvalues --    0.78868   0.79285   0.79503   0.79753   0.80053
 Alpha virt. eigenvalues --    0.80295   0.80854   0.81052   0.82125   0.82207
 Alpha virt. eigenvalues --    0.82602   0.82796   0.83135   0.83803   0.84643
 Alpha virt. eigenvalues --    0.85207   0.85502   0.85965   0.86410   0.86747
 Alpha virt. eigenvalues --    0.86979   0.87393   0.88314   0.88620   0.89018
 Alpha virt. eigenvalues --    0.89592   0.89731   0.90370   0.90504   0.90910
 Alpha virt. eigenvalues --    0.91136   0.91723   0.91870   0.92134   0.92640
 Alpha virt. eigenvalues --    0.93374   0.93544   0.94244   0.94778   0.94973
 Alpha virt. eigenvalues --    0.95246   0.95684   0.95726   0.96515   0.97273
 Alpha virt. eigenvalues --    0.97611   0.97738   0.98017   0.98760   0.98981
 Alpha virt. eigenvalues --    0.99170   0.99306   1.00084   1.00267   1.00591
 Alpha virt. eigenvalues --    1.01116   1.01266   1.01665   1.01812   1.02277
 Alpha virt. eigenvalues --    1.02310   1.02543   1.02907   1.03099   1.03469
 Alpha virt. eigenvalues --    1.04080   1.04239   1.04556   1.05099   1.05414
 Alpha virt. eigenvalues --    1.05513   1.06290   1.06626   1.07130   1.07261
 Alpha virt. eigenvalues --    1.07850   1.08421   1.09197   1.09707   1.09918
 Alpha virt. eigenvalues --    1.10113   1.10484   1.11345   1.11686   1.11892
 Alpha virt. eigenvalues --    1.12772   1.13542   1.13827   1.14353   1.14730
 Alpha virt. eigenvalues --    1.15603   1.16187   1.16429   1.16879   1.17532
 Alpha virt. eigenvalues --    1.17871   1.18110   1.18777   1.19197   1.19380
 Alpha virt. eigenvalues --    1.20125   1.20207   1.20489   1.21252   1.21817
 Alpha virt. eigenvalues --    1.22040   1.22433   1.22718   1.23229   1.24374
 Alpha virt. eigenvalues --    1.24787   1.25242   1.25685   1.26031   1.26198
 Alpha virt. eigenvalues --    1.26725   1.26996   1.27531   1.27933   1.28095
 Alpha virt. eigenvalues --    1.28380   1.28750   1.29141   1.29383   1.29960
 Alpha virt. eigenvalues --    1.30403   1.30643   1.31654   1.32211   1.32708
 Alpha virt. eigenvalues --    1.33706   1.34569   1.34950   1.35852   1.36741
 Alpha virt. eigenvalues --    1.37180   1.37793   1.38527   1.38834   1.39085
 Alpha virt. eigenvalues --    1.40063   1.40643   1.41275   1.41433   1.42294
 Alpha virt. eigenvalues --    1.42551   1.42866   1.43417   1.44221   1.44977
 Alpha virt. eigenvalues --    1.45416   1.45920   1.46315   1.46414   1.46826
 Alpha virt. eigenvalues --    1.47765   1.48107   1.48219   1.48545   1.48898
 Alpha virt. eigenvalues --    1.49014   1.49267   1.49705   1.50298   1.50803
 Alpha virt. eigenvalues --    1.51146   1.51716   1.51891   1.52273   1.52462
 Alpha virt. eigenvalues --    1.52705   1.52896   1.53224   1.53517   1.54030
 Alpha virt. eigenvalues --    1.54241   1.54690   1.54802   1.54960   1.55493
 Alpha virt. eigenvalues --    1.55670   1.55944   1.56176   1.56358   1.56578
 Alpha virt. eigenvalues --    1.56668   1.57141   1.57431   1.57702   1.57942
 Alpha virt. eigenvalues --    1.58581   1.58767   1.59225   1.59583   1.59715
 Alpha virt. eigenvalues --    1.60062   1.60555   1.60796   1.60964   1.61407
 Alpha virt. eigenvalues --    1.61863   1.62274   1.62477   1.62765   1.62963
 Alpha virt. eigenvalues --    1.63361   1.63721   1.63965   1.64208   1.64674
 Alpha virt. eigenvalues --    1.64775   1.65449   1.65779   1.65782   1.66498
 Alpha virt. eigenvalues --    1.66818   1.67039   1.67418   1.67641   1.68149
 Alpha virt. eigenvalues --    1.68300   1.68711   1.69218   1.69345   1.69624
 Alpha virt. eigenvalues --    1.69986   1.70460   1.70519   1.71017   1.71828
 Alpha virt. eigenvalues --    1.72438   1.72595   1.72799   1.73448   1.73569
 Alpha virt. eigenvalues --    1.74156   1.74578   1.75015   1.75997   1.76078
 Alpha virt. eigenvalues --    1.76592   1.76828   1.77450   1.78077   1.78921
 Alpha virt. eigenvalues --    1.79042   1.79972   1.80314   1.80482   1.80930
 Alpha virt. eigenvalues --    1.81592   1.82381   1.82753   1.83421   1.83955
 Alpha virt. eigenvalues --    1.84217   1.84649   1.85049   1.85610   1.85951
 Alpha virt. eigenvalues --    1.86193   1.86326   1.86542   1.87512   1.88220
 Alpha virt. eigenvalues --    1.88514   1.88720   1.89284   1.89616   1.90054
 Alpha virt. eigenvalues --    1.90571   1.91473   1.92373   1.92629   1.93013
 Alpha virt. eigenvalues --    1.94031   1.94403   1.94972   1.95263   1.95775
 Alpha virt. eigenvalues --    1.95927   1.96661   1.97238   1.97419   1.98019
 Alpha virt. eigenvalues --    1.98335   1.98867   1.99580   2.00191   2.00776
 Alpha virt. eigenvalues --    2.00855   2.01006   2.01579   2.02190   2.02229
 Alpha virt. eigenvalues --    2.02990   2.03266   2.03952   2.04068   2.05655
 Alpha virt. eigenvalues --    2.06154   2.06774   2.07450   2.07922   2.08417
 Alpha virt. eigenvalues --    2.08760   2.09047   2.09474   2.09757   2.10144
 Alpha virt. eigenvalues --    2.10464   2.11351   2.11708   2.12279   2.12383
 Alpha virt. eigenvalues --    2.13150   2.13717   2.13926   2.14212   2.14628
 Alpha virt. eigenvalues --    2.15100   2.16300   2.16374   2.17281   2.17797
 Alpha virt. eigenvalues --    2.18568   2.19054   2.19333   2.19738   2.20328
 Alpha virt. eigenvalues --    2.20360   2.20894   2.21295   2.21703   2.22712
 Alpha virt. eigenvalues --    2.23262   2.23837   2.24372   2.24922   2.25533
 Alpha virt. eigenvalues --    2.26114   2.26882   2.27160   2.27442   2.27885
 Alpha virt. eigenvalues --    2.28424   2.28530   2.29204   2.29321   2.29652
 Alpha virt. eigenvalues --    2.29894   2.30808   2.30987   2.31819   2.32522
 Alpha virt. eigenvalues --    2.32658   2.32921   2.34021   2.34753   2.35199
 Alpha virt. eigenvalues --    2.35569   2.35907   2.36068   2.36334   2.36832
 Alpha virt. eigenvalues --    2.37123   2.37581   2.37825   2.37874   2.38468
 Alpha virt. eigenvalues --    2.39061   2.39771   2.40171   2.40539   2.40651
 Alpha virt. eigenvalues --    2.41177   2.41754   2.42311   2.43298   2.43641
 Alpha virt. eigenvalues --    2.44372   2.44620   2.44954   2.45417   2.45838
 Alpha virt. eigenvalues --    2.46481   2.46701   2.47071   2.47510   2.48164
 Alpha virt. eigenvalues --    2.48527   2.48797   2.49601   2.50370   2.50935
 Alpha virt. eigenvalues --    2.51236   2.52486   2.52859   2.53098   2.53602
 Alpha virt. eigenvalues --    2.54112   2.54316   2.54660   2.54698   2.55513
 Alpha virt. eigenvalues --    2.55718   2.56056   2.56117   2.56868   2.57088
 Alpha virt. eigenvalues --    2.57658   2.57934   2.57980   2.59007   2.59293
 Alpha virt. eigenvalues --    2.59374   2.59942   2.60369   2.60642   2.61208
 Alpha virt. eigenvalues --    2.61305   2.61846   2.62313   2.62664   2.63116
 Alpha virt. eigenvalues --    2.63713   2.64387   2.65088   2.65285   2.65416
 Alpha virt. eigenvalues --    2.65827   2.66049   2.66365   2.66658   2.67150
 Alpha virt. eigenvalues --    2.67911   2.68434   2.68838   2.69267   2.69675
 Alpha virt. eigenvalues --    2.69736   2.70274   2.70917   2.70992   2.72071
 Alpha virt. eigenvalues --    2.72251   2.72692   2.72956   2.73226   2.73799
 Alpha virt. eigenvalues --    2.74920   2.75222   2.75281   2.75856   2.76652
 Alpha virt. eigenvalues --    2.77326   2.77473   2.77717   2.78538   2.79056
 Alpha virt. eigenvalues --    2.79126   2.79610   2.80207   2.80876   2.81472
 Alpha virt. eigenvalues --    2.81941   2.82207   2.82691   2.82880   2.83090
 Alpha virt. eigenvalues --    2.84048   2.84553   2.84936   2.85266   2.85678
 Alpha virt. eigenvalues --    2.85783   2.86225   2.86670   2.87063   2.87722
 Alpha virt. eigenvalues --    2.88221   2.88695   2.89281   2.89462   2.89795
 Alpha virt. eigenvalues --    2.89956   2.90876   2.91030   2.91403   2.92061
 Alpha virt. eigenvalues --    2.92223   2.92743   2.93254   2.93518   2.93730
 Alpha virt. eigenvalues --    2.94115   2.94722   2.95266   2.96086   2.96571
 Alpha virt. eigenvalues --    2.96841   2.97435   2.97688   2.98213   2.98346
 Alpha virt. eigenvalues --    2.98633   2.98820   2.99612   2.99931   2.99972
 Alpha virt. eigenvalues --    3.00456   3.01253   3.01672   3.02571   3.03056
 Alpha virt. eigenvalues --    3.03381   3.03926   3.04444   3.04835   3.05242
 Alpha virt. eigenvalues --    3.05361   3.05745   3.06209   3.06821   3.07436
 Alpha virt. eigenvalues --    3.07722   3.08049   3.08479   3.08936   3.09171
 Alpha virt. eigenvalues --    3.09674   3.09938   3.10296   3.10776   3.11488
 Alpha virt. eigenvalues --    3.11567   3.11760   3.12301   3.12679   3.13304
 Alpha virt. eigenvalues --    3.13562   3.13841   3.14073   3.14477   3.14799
 Alpha virt. eigenvalues --    3.15064   3.15576   3.16025   3.16550   3.17038
 Alpha virt. eigenvalues --    3.17542   3.17630   3.18121   3.18591   3.19056
 Alpha virt. eigenvalues --    3.19400   3.19501   3.19861   3.20429   3.20662
 Alpha virt. eigenvalues --    3.21096   3.21318   3.21414   3.21792   3.22246
 Alpha virt. eigenvalues --    3.22882   3.23111   3.23420   3.23834   3.24489
 Alpha virt. eigenvalues --    3.24857   3.25091   3.25267   3.25477   3.25835
 Alpha virt. eigenvalues --    3.26111   3.26303   3.26529   3.26801   3.27039
 Alpha virt. eigenvalues --    3.27252   3.27550   3.28185   3.28542   3.28587
 Alpha virt. eigenvalues --    3.29091   3.29585   3.30061   3.30212   3.30460
 Alpha virt. eigenvalues --    3.30674   3.30982   3.31001   3.31701   3.32204
 Alpha virt. eigenvalues --    3.32252   3.32789   3.32934   3.33160   3.33793
 Alpha virt. eigenvalues --    3.33928   3.34200   3.34350   3.34748   3.35098
 Alpha virt. eigenvalues --    3.35292   3.35694   3.36050   3.36286   3.36541
 Alpha virt. eigenvalues --    3.36694   3.37118   3.37354   3.37866   3.38269
 Alpha virt. eigenvalues --    3.38546   3.38626   3.38961   3.39903   3.40039
 Alpha virt. eigenvalues --    3.40330   3.40403   3.40889   3.41368   3.41641
 Alpha virt. eigenvalues --    3.42090   3.42588   3.42870   3.43475   3.43492
 Alpha virt. eigenvalues --    3.43840   3.44146   3.44888   3.44918   3.45624
 Alpha virt. eigenvalues --    3.46136   3.46333   3.46983   3.47204   3.48165
 Alpha virt. eigenvalues --    3.48446   3.48717   3.49338   3.49693   3.50560
 Alpha virt. eigenvalues --    3.51113   3.51450   3.51681   3.52037   3.53416
 Alpha virt. eigenvalues --    3.53935   3.55078   3.55387   3.55772   3.56039
 Alpha virt. eigenvalues --    3.56452   3.57072   3.57812   3.58112   3.58715
 Alpha virt. eigenvalues --    3.58825   3.59458   3.59766   3.60328   3.60829
 Alpha virt. eigenvalues --    3.60898   3.61335   3.61952   3.62352   3.62889
 Alpha virt. eigenvalues --    3.64282   3.64741   3.65544   3.65944   3.66688
 Alpha virt. eigenvalues --    3.66990   3.67420   3.67536   3.68333   3.68812
 Alpha virt. eigenvalues --    3.69208   3.69608   3.70362   3.71176   3.71320
 Alpha virt. eigenvalues --    3.71799   3.72555   3.72898   3.73017   3.73991
 Alpha virt. eigenvalues --    3.74266   3.74347   3.74630   3.75003   3.75219
 Alpha virt. eigenvalues --    3.75361   3.75656   3.76635   3.77607   3.78132
 Alpha virt. eigenvalues --    3.78708   3.79574   3.80082   3.80836   3.81124
 Alpha virt. eigenvalues --    3.82240   3.82518   3.82954   3.84589   3.85027
 Alpha virt. eigenvalues --    3.85270   3.85548   3.86238   3.86748   3.86828
 Alpha virt. eigenvalues --    3.88403   3.88772   3.89447   3.89770   3.90642
 Alpha virt. eigenvalues --    3.91067   3.92314   3.92522   3.93156   3.93708
 Alpha virt. eigenvalues --    3.95340   3.96100   3.96699   3.97314   3.97728
 Alpha virt. eigenvalues --    3.98969   3.99316   4.00091   4.00373   4.00683
 Alpha virt. eigenvalues --    4.01102   4.01627   4.02059   4.03200   4.03348
 Alpha virt. eigenvalues --    4.04151   4.04609   4.05281   4.06019   4.06572
 Alpha virt. eigenvalues --    4.07323   4.08882   4.09120   4.09752   4.10293
 Alpha virt. eigenvalues --    4.12043   4.12884   4.13210   4.14433   4.14492
 Alpha virt. eigenvalues --    4.15062   4.16034   4.16340   4.16983   4.17135
 Alpha virt. eigenvalues --    4.18233   4.18620   4.19062   4.19541   4.19685
 Alpha virt. eigenvalues --    4.19910   4.21013   4.21750   4.22486   4.22874
 Alpha virt. eigenvalues --    4.23481   4.24233   4.24542   4.25220   4.25752
 Alpha virt. eigenvalues --    4.26191   4.27531   4.27989   4.28902   4.29126
 Alpha virt. eigenvalues --    4.29808   4.30069   4.30546   4.31382   4.32180
 Alpha virt. eigenvalues --    4.32609   4.33020   4.33812   4.33921   4.34538
 Alpha virt. eigenvalues --    4.35086   4.35683   4.36900   4.38091   4.38599
 Alpha virt. eigenvalues --    4.39337   4.40052   4.40779   4.41193   4.41792
 Alpha virt. eigenvalues --    4.42337   4.42637   4.43666   4.43888   4.44347
 Alpha virt. eigenvalues --    4.45150   4.45555   4.45693   4.46138   4.47143
 Alpha virt. eigenvalues --    4.47633   4.48201   4.48435   4.49546   4.50989
 Alpha virt. eigenvalues --    4.51360   4.53106   4.53475   4.54207   4.55095
 Alpha virt. eigenvalues --    4.55508   4.56115   4.56671   4.57875   4.58323
 Alpha virt. eigenvalues --    4.59831   4.60709   4.63058   4.64651   4.65608
 Alpha virt. eigenvalues --    4.66717   4.67548   4.68143   4.68739   4.68861
 Alpha virt. eigenvalues --    4.69521   4.71960   4.72511   4.74105   4.74536
 Alpha virt. eigenvalues --    4.75419   4.76300   4.77182   4.80018   4.81032
 Alpha virt. eigenvalues --    4.81924   4.82801   4.83354   4.83571   4.83846
 Alpha virt. eigenvalues --    4.84356   4.84791   4.85422   4.86663   4.88197
 Alpha virt. eigenvalues --    4.88916   4.89662   4.90716   4.92348   4.93633
 Alpha virt. eigenvalues --    4.95281   4.95759   4.96522   4.97051   4.99003
 Alpha virt. eigenvalues --    5.00798   5.01202   5.02688   5.03527   5.04080
 Alpha virt. eigenvalues --    5.04486   5.05619   5.06763   5.07757   5.08072
 Alpha virt. eigenvalues --    5.08967   5.09944   5.12478   5.13435   5.16513
 Alpha virt. eigenvalues --    5.16730   5.17616   5.19359   5.21118   5.21459
 Alpha virt. eigenvalues --    5.22598   5.23008   5.24204   5.25926   5.26981
 Alpha virt. eigenvalues --    5.27532   5.28274   5.29913   5.34283   5.35973
 Alpha virt. eigenvalues --    5.36807   5.37760   5.37970   5.38946   5.39255
 Alpha virt. eigenvalues --    5.39635   5.40302   5.41648   5.48180   5.48395
 Alpha virt. eigenvalues --    5.49776   5.50601   5.51526   5.51827   5.52812
 Alpha virt. eigenvalues --    5.56490   5.59651   5.60272   5.60847   5.61668
 Alpha virt. eigenvalues --    5.62310   5.63217   5.66389   5.66775   5.67840
 Alpha virt. eigenvalues --    5.69617   5.75899   5.76523   5.77563   5.78772
 Alpha virt. eigenvalues --    5.86587   5.88062   5.89987   5.91857   6.00414
 Alpha virt. eigenvalues --    6.01322   6.02289   6.10304   6.11680   6.12674
 Alpha virt. eigenvalues --    6.13562   6.17703   6.24023   6.26330   6.33725
 Alpha virt. eigenvalues --    6.34453   6.41285   6.47534   6.50315   6.51862
 Alpha virt. eigenvalues --    6.67159   6.96652   7.28438   9.07661   9.24304
 Alpha virt. eigenvalues --    9.40205  19.59721  22.33344  22.35290  22.36083
 Alpha virt. eigenvalues --   22.45798  22.46525  22.52788  22.53601  22.61672
 Alpha virt. eigenvalues --   22.62157  22.84353  22.86877  22.91044  22.94000
 Alpha virt. eigenvalues --   22.94779  22.95709  22.97132  23.02849  23.03696
 Alpha virt. eigenvalues --   23.13663  23.26821  23.30653  23.31470  23.40009
 Alpha virt. eigenvalues --   23.41886  23.50247  23.50675  23.54922  23.73824
 Alpha virt. eigenvalues --   23.78675  23.79094  23.88202  32.88147  32.90336
 Alpha virt. eigenvalues --   32.90777  33.05076  43.91998
          Condensed to atoms (all electrons):
 Mulliken charges:
               1
     1  Fe  -0.220006
     2  N    0.028293
     3  N   -0.081278
     4  N    0.001161
     5  N   -0.051271
     6  C    0.218188
     7  C   -0.055451
     8  C   -0.021162
     9  C    0.173610
    10  C    0.146541
    11  C    0.014771
    12  C    0.018515
    13  C    0.222228
    14  C    0.200245
    15  C   -0.042912
    16  C    0.044607
    17  C    0.246872
    18  C    0.195280
    19  C   -0.027331
    20  C   -0.064175
    21  C    0.232667
    22  C   -0.418774
    23  H    0.140123
    24  C   -0.426945
    25  H    0.132802
    26  C   -0.432765
    27  H    0.116638
    28  C   -0.421915
    29  H    0.122576
    30  C   -0.411124
    31  H    0.134178
    32  H    0.121091
    33  H    0.136890
    34  C   -0.414889
    35  H    0.135127
    36  H    0.137504
    37  H    0.121347
    38  C   -0.451646
    39  H    0.142458
    40  H    0.131339
    41  H    0.158820
    42  C   -0.211008
    43  H    0.113830
    44  C   -0.286325
    45  H    0.138952
    46  H    0.124138
    47  C   -0.449817
    48  H    0.131554
    49  H    0.142257
    50  H    0.158932
    51  C   -0.216319
    52  H    0.112008
    53  C   -0.282283
    54  H    0.139047
    55  H    0.122979
    56  C   -0.413409
    57  H    0.138452
    58  H    0.136911
    59  H    0.121818
    60  C   -0.410992
    61  H    0.121032
    62  H    0.136090
    63  H    0.135746
    64  O   -0.565171
    65  H    0.358715
    66  H    0.326519
    67  C   -0.339797
    68  H    0.146661
    69  H    0.162359
    70  H    0.154683
    71  S   -0.048717
    72  H    0.168928
 Sum of Mulliken charges =  -0.00000
 Mulliken charges with hydrogens summed into heavy atoms:
               1
     1  Fe  -0.220006
     2  N    0.028293
     3  N   -0.081278
     4  N    0.001161
     5  N   -0.051271
     6  C    0.218188
     7  C   -0.055451
     8  C   -0.021162
     9  C    0.173610
    10  C    0.146541
    11  C    0.014771
    12  C    0.018515
    13  C    0.222228
    14  C    0.200245
    15  C   -0.042912
    16  C    0.044607
    17  C    0.246872
    18  C    0.195280
    19  C   -0.027331
    20  C   -0.064175
    21  C    0.232667
    22  C   -0.278652
    24  C   -0.294143
    26  C   -0.316127
    28  C   -0.299339
    30  C   -0.018965
    34  C   -0.020911
    38  C   -0.019029
    42  C   -0.097179
    44  C   -0.023235
    47  C   -0.017074
    51  C   -0.104311
    53  C   -0.020257
    56  C   -0.016228
    60  C   -0.018125
    64  O    0.120063
    67  C    0.123907
    71  S    0.120211
 Electronic spatial extent (au):  <R**2>=          18296.7639
 Charge=             -0.0000 electrons
 Dipole moment (field-independent basis, Debye):
    X=             -1.4445    Y=             -0.9619    Z=             -0.2270  Tot=              1.7503
 Quadrupole moment (field-independent basis, Debye-Ang):
   XX=           -223.6237   YY=           -222.5780   ZZ=           -231.4263
   XY=             -0.5350   XZ=             -4.3394   YZ=              1.1213
 Traceless Quadrupole moment (field-independent basis, Debye-Ang):
   XX=              2.2523   YY=              3.2980   ZZ=             -5.5503
   XY=             -0.5350   XZ=             -4.3394   YZ=              1.1213
 Octapole moment (field-independent basis, Debye-Ang**2):
  XXX=            -12.6947  YYY=            -35.5843  ZZZ=            -20.6858  XYY=             10.2005
  XXY=            -28.1713  XXZ=              4.9883  XZZ=            -18.2061  YZZ=            -10.1587
  YYZ=             -4.9252  XYZ=              0.1949
 Hexadecapole moment (field-independent basis, Debye-Ang**3):
 XXXX=         -11662.9117 YYYY=         -11402.0207 ZZZZ=          -1288.8400 XXXY=            -30.4015
 XXXZ=              1.3290 YYYX=             36.5120 YYYZ=            -36.8993 ZZZX=            -54.8952
 ZZZY=             29.5607 XXYY=          -3877.6259 XXZZ=          -2339.6240 YYZZ=          -2290.6990
 XXYZ=             20.6708 YYXZ=            -59.1632 ZZXY=             -6.7890
 N-N= 5.417261025390D+03 E-N=-1.827010053755D+04  KE= 3.147469821945D+03
  Exact polarizability:     698.299      -1.170     688.838      -4.359      -0.347     261.285
 Approx polarizability:    1285.409      -2.331    1274.555       3.852      -7.571     444.331

 ----------------------------------------------------------------------

 Electric dipole moment (input orientation):
 (Debye = 10**-18 statcoulomb cm , SI units = C m)
                  (au)            (Debye)         (10**-30 SI)
   Tot        0.688614D+00      0.175028D+01      0.583831D+01
   x         -0.571911D+00     -0.145365D+01     -0.484886D+01
   y         -0.381481D+00     -0.969627D+00     -0.323433D+01
   z         -0.397373D-01     -0.101002D+00     -0.336906D+00

 Dipole polarizability, Alpha (input orientation).
 (esu units = cm**3 , SI units = C**2 m**2 J**-1)
 Alpha(0;0):
               (au)            (10**-24 esu)      (10**-40 SI)
   iso        0.549474D+03      0.814237D+02      0.905960D+02
   aniso      0.432433D+03      0.640799D+02      0.712985D+02
   xx         0.614230D+03      0.910196D+02      0.101273D+03
   yx         0.162658D+03      0.241034D+02      0.268187D+02
   yy         0.362709D+03      0.537479D+02      0.598026D+02
   zx         0.459842D+02      0.681416D+01      0.758177D+01
   zy        -0.823419D+02     -0.122018D+02     -0.135763D+02
   zz         0.671483D+03      0.995035D+02      0.110713D+03

 First dipole hyperpolarizability, Beta (input orientation).
 ||, _|_  parallel and perpendicular components, (z) with respect to z axis,
 vector components x,y,z.  Values do not include the 1/n! factor of 1/2.
 (esu units = statvolt**-1 cm**4 , SI units = C**3 m**3 J**-2)
 Beta(0;0,0):
               (au)            (10**-30 esu)      (10**-50 SI)
   || (z)    -0.776598D+03     -0.670921D+01     -0.249006D+01
   _|_(z)    -0.258866D+03     -0.223640D+01     -0.830018D+00
   x          0.276995D+04      0.239302D+02      0.888147D+01
   y          0.242768D+04      0.209733D+02      0.778403D+01
   z         -0.388299D+04     -0.335460D+02     -0.124503D+02
   ||         0.107040D+04      0.924743D+01      0.343209D+01
   xxx        0.929094D+03      0.802665D+01      0.297901D+01
   xxy        0.554909D+03      0.479398D+01      0.177924D+01
   yxy        0.270304D+03      0.233521D+01      0.866691D+00
   yyy        0.189127D+03      0.163391D+01      0.606410D+00
   xxz        0.160423D+03      0.138593D+01      0.514373D+00
   yxz        0.130658D+03      0.112878D+01      0.418936D+00
   yyz        0.322657D+02      0.278750D+00      0.103455D+00
   zxz       -0.276080D+03     -0.238512D+01     -0.885212D+00
   zyz        0.651921D+02      0.563209D+00      0.209030D+00
   zzz       -0.148702D+04     -0.128467D+02     -0.476792D+01

 ----------------------------------------------------------------------

 Dipole orientation:
    26        -31.31297201         18.22304473        -34.62241565
     7        -30.84950146         18.67009235        -30.91456069
     7        -34.58292588         16.39796176        -33.98553016
     7        -31.60709167         17.40359214        -38.31189898
     7        -27.74639368         19.28949271        -35.20324424
     6        -28.93099519         19.93355691        -29.77498302
     6        -29.41489401         20.20344038        -27.09652795
     6        -31.60977579         18.95100804        -26.63059973
     6        -32.48752119         18.01817467        -29.04666988
     6        -35.70695228         15.98726353        -31.70234998
     6        -38.17903138         14.90250981        -32.02134388
     6        -38.56855715         14.71382434        -34.57640611
     6        -36.28731026         15.65416002        -35.75941757
     6        -33.75699911         16.66230894        -39.51550364
     6        -33.44595995         16.79585207        -42.21789140
     6        -30.97254407         17.44000594        -42.62730292
     6        -29.87999913         17.85314775        -40.14810593
     6        -26.42377287         19.22935732        -37.40196161
     6        -23.88596725         20.17759661        -37.03371914
     6        -23.76540720         20.97089131        -34.59323570
     6        -26.18332087         20.36138076        -33.47103968
     6        -26.76577583         20.78263622        -30.96053696
     1        -25.37673156         21.74080086        -29.81633914
     6        -34.71760654         16.70609041        -29.38488174
     1        -35.82612970         16.29486264        -27.72349187
     6        -35.94763470         15.85183832        -38.34185664
     1        -37.49638022         15.28182530        -39.53917589
     6        -27.39870697         18.55398613        -39.72777778
     1        -26.15803853         18.67455697        -41.34110073
     6        -32.97132266         18.57599309        -24.19487382
     1        -34.85992366         19.39555466        -24.28259523
     1        -31.95225661         19.45994109        -22.64563141
     1        -33.16570780         16.56772861        -23.77852282
     6        -27.70720273         21.54480306        -25.30498067
     1        -27.34729867         23.46652457        -25.95206364
     1        -25.89725226         20.56967031        -25.16263640
     1        -28.54041794         21.63627597        -23.42920631
     6        -39.86285073         14.07101254        -29.92703441
     1        -40.94749354         15.65676740        -29.17673578
     1        -38.76290522         13.26589878        -28.38544262
     1        -41.18349339         12.64947579        -30.60805218
     6        -40.72980217         13.73123546        -35.92926893
     1        -40.31033923         12.79540178        -37.70210936
     6        -43.12041130         13.90562049        -35.17989478
     1        -43.65642156         14.88957154        -33.48313225
     1        -44.63839758         13.10506533        -36.27480294
     6        -35.47534880         16.32261348        -44.10663998
     1        -37.27860207         17.05304807        -43.43530120
     1        -35.69690494         14.30375187        -44.46497085
     1        -35.00917599         17.24747661        -45.88285582
     6        -29.64686211         17.81275024        -44.98821647
     1        -28.18862661         19.25001486        -44.96501576
     6        -30.06879662         16.53753231        -47.11005493
     1        -31.43061378         15.03151592        -47.21690118
     1        -29.02182465         16.92824024        -48.81177811
     6        -21.92650116         20.29673209        -39.05149635
     1        -22.47150502         21.64565601        -40.51108483
     1        -21.69069479         18.45425948        -39.94025916
     1        -20.11562734         20.88154104        -38.27687835
     6        -21.62265719         22.15615103        -33.20397389
     1        -20.01197607         22.43562964        -34.44800603
     1        -21.03026147         20.96823706        -31.62796716
     1        -22.18228003         23.98850898        -32.44793265
     8        -29.67962163         14.35042847        -34.12743161
     1        -31.00265445         13.11888512        -34.07831099
     1        -28.03360873         14.04601596        -33.99073032
     6        -35.17353184         22.81221996        -32.52530900
     1        -33.92596482         23.43962336        -31.02420739
     1        -36.13581022         21.09481384        -31.95465179
     1        -36.50805308         24.29445533        -33.00439770
    16        -33.16851902         22.16185077        -35.26449007
     1        -35.07221828         21.42245941        -36.75955905

 Electric dipole moment (dipole orientation):
 (Debye = 10**-18 statcoulomb cm , SI units = C m)
                  (au)            (Debye)         (10**-30 SI)
   Tot        0.688614D+00      0.175028D+01      0.583831D+01
   x          0.000000D+00      0.000000D+00      0.000000D+00
   y          0.000000D+00      0.000000D+00      0.000000D+00
   z          0.688614D+00      0.175028D+01      0.583831D+01

 Dipole polarizability, Alpha (dipole orientation).
 (esu units = cm**3 , SI units = C**2 m**2 J**-1)
 Alpha(0;0):
               (au)            (10**-24 esu)      (10**-40 SI)
   iso        0.549474D+03      0.814237D+02      0.905960D+02
   aniso      0.432433D+03      0.640799D+02      0.712985D+02
   xx         0.638441D+03      0.946072D+02      0.105265D+03
   yx         0.141665D+03      0.209926D+02      0.233574D+02
   yy         0.323932D+03      0.480017D+02      0.534091D+02
   zx        -0.258304D+02     -0.382767D+01     -0.425886D+01
   zy         0.536449D+02      0.794936D+01      0.884486D+01
   zz         0.686050D+03      0.101662D+03      0.113114D+03

 First dipole hyperpolarizability, Beta (dipole orientation).
 ||, _|_  parallel and perpendicular components, (z) with respect to z axis,
 vector components x,y,z.  Values do not include the 1/n! factor of 1/2.
 (esu units = statvolt**-1 cm**4 , SI units = C**3 m**3 J**-2)
 Beta(0;0,0):
               (au)            (10**-30 esu)      (10**-50 SI)
   || (z)    -0.684268D+03     -0.591155D+01     -0.219401D+01
   _|_(z)    -0.228089D+03     -0.197052D+01     -0.731337D+00
   x         -0.366799D+04     -0.316886D+02     -0.117609D+02
   y         -0.186660D+04     -0.161260D+02     -0.598500D+01
   z         -0.342134D+04     -0.295577D+02     -0.109701D+02
   ||         0.107040D+04      0.924743D+01      0.343209D+01
   xxx       -0.111887D+04     -0.966614D+01     -0.358749D+01
   xxy       -0.495704D+03     -0.428249D+01     -0.158941D+01
   yxy       -0.274164D+03     -0.236856D+01     -0.879068D+00
   yyy       -0.105853D+03     -0.914484D+00     -0.339402D+00
   xxz        0.218227D+03      0.188531D+01      0.699714D+00
   yxz        0.131791D+03      0.113857D+01      0.422569D+00
   yyz        0.880232D+02      0.760452D+00      0.282234D+00
   zxz        0.170368D+03      0.147184D+01      0.546260D+00
   zyz       -0.206444D+02     -0.178352D+00     -0.661936D-01
   zzz       -0.144670D+04     -0.124983D+02     -0.463863D+01

 ----------------------------------------------------------------------
 Unable to Open any file for archive entry.
 1\1\GINC-BGN1018\SP\RAPFD\def2TZVP\C31H34Fe1N4O1S1\BEBJONES\18-Nov-202
 4\0\\# polar def2tzvp apfd int=(grid=ultrafine)\\4ips_II_S\\0,1\Fe,0,6
 .0672949233,24.7429971275,-7.3624558629\N,0,4.3879269296,23.6957856391
 ,-7.140934408\N,0,5.7952390472,24.7499507926,-9.3540659089\N,0,7.85882
 7892,25.6081807673,-7.6192819743\N,0,6.5527975996,24.3722647721,-5.464
 5905669\C,0,3.8326972576,23.3168423071,-5.9621679083\C,0,2.5171733434,
 22.752972196,-6.1775126974\C,0,2.3247471467,22.7366002213,-7.523537724
 6\C,0,3.5031518276,23.3388175765,-8.1089886266\C,0,4.7385096663,24.224
 5050601,-10.0381894032\C,0,4.8084176125,24.5696929041,-11.4329163939\C
 ,0,5.924868654,25.3520418281,-11.5814018125\C,0,6.5253375943,25.444950
 3718,-10.2670151407\C,0,8.2744586924,26.2520132863,-8.7447126856\C,0,9
 .471748625,27.0115175121,-8.4863413542\C,0,9.8360045031,26.7223017183,
 -7.1979479176\C,0,8.794596671,25.8606370746,-6.6723717537\C,0,7.722224
 6091,24.6536294956,-4.8337924527\C,0,7.6752660213,24.2283093086,-3.451
 7028128\C,0,6.4148082922,23.7647877631,-3.2406831771\C,0,5.7362067506,
 23.8430678034,-4.5162939439\C,0,4.4414086284,23.4079129112,-4.72544942
 9\H,0,3.8879487471,23.0554796243,-3.8690202814\C,0,3.6745620168,23.545
 9941371,-9.4634168706\H,0,2.8934417943,23.1986348555,-10.1218945205\C,
 0,7.6574001972,26.1847770729,-9.9809195293\H,0,8.1112672255,26.7325508
 456,-10.7921256867\C,0,8.7806566548,25.3463701607,-5.3892369453\H,0,9.
 6344923898,25.5417795815,-4.7593575561\C,0,1.1580714438,22.2405390168,
 -8.3062478088\H,0,0.7170371944,23.04668083,-8.8933410416\H,0,0.3933054
 307,21.838478314,-7.6465480446\H,0,1.4664230904,21.4521035787,-8.99312
 67322\C,0,1.6253825577,22.2651677827,-5.088471157\H,0,1.4642703122,23.
 0475952382,-4.3471722031\H,0,2.0714537282,21.4078227619,-4.5832189838\
 H,0,0.6591939207,21.963203433,-5.4851295086\C,0,3.8640380565,24.094103
 7505,-12.4806581427\H,0,2.9707375043,24.7202455981,-12.5153924422\H,0,
 3.5505294974,23.0706827877,-12.2803362102\H,0,4.3433603717,24.12773514
 74,-13.4570091862\C,0,6.4668392373,25.9564549077,-12.7779975306\H,0,7.
 5472825952,26.0338584158,-12.8138534662\C,0,5.7534176592,26.4166908518
 ,-13.8004200809\H,0,4.6774496243,26.4088735156,-13.7993570777\H,0,6.22
 62057895,26.8442306059,-14.6688196815\C,0,10.136329548,27.9207096072,-
 9.4593039134\H,0,9.3968243332,28.4504733553,-10.0581945602\H,0,10.7840
 350206,27.3626155201,-10.1375746635\H,0,10.7441074069,28.6509830232,-8
 .9290546928\C,0,10.9653011618,27.2048879409,-6.4339504657\H,0,10.79053
 4722,27.3341596277,-5.3724297099\C,0,12.1674983856,27.480903228,-6.928
 4314986\H,0,12.4104642299,27.3267072106,-7.9651775521\H,0,12.962918187
 ,27.8486681744,-6.301789144\C,0,8.8091624465,24.3560491913,-2.49398543
 38\H,0,9.0248168908,25.4060896828,-2.2934964656\H,0,9.7092736852,23.89
 82198561,-2.9033405228\H,0,8.5744204642,23.8697426041,-1.550329726\C,0
 ,5.8018509506,23.2268016342,-1.9939133747\H,0,6.5047983254,23.27504916
 4,-1.1661075153\H,0,5.5001497138,22.1878401583,-2.1299279564\H,0,4.916
 7625798,23.8035985895,-1.7257863123\O,0,7.082,22.794,-7.795\H,0,7.191,
 22.682,-8.739\H,0,7.334,22.22,-7.165\C,0,3.4123867297,26.7632711884,-7
 .7778503536\H,0,2.7674693928,26.2247399887,-7.0914629046\H,0,3.4688721
 101,26.2317973608,-8.721659901\H,0,3.0507078166,27.7774402952,-7.91521
 07468\S,0,5.0686228521,26.8161448863,-7.0036704968\H,0,5.6467772484,27
 .482480723,-8.0114389343\\Version=ES64L-G16RevC.02\State=1-A\HF=-3157.
 193057\RMSD=5.214e-09\Dipole=-0.571911,-0.3814805,-0.0397373\Polar=614
 .2304613,162.6579395,362.7090382,45.9842095,-82.3419091,671.482828\Hyp
 erPolar=929.094381,554.9089955,270.3036469,189.1271147,160.422601,130.
 6578302,32.265651,-276.0799488,65.1921219,-1487.0189424\Quadrupole=2.3
 346777,-3.4927442,1.1580665,0.5093586,1.0584368,-3.6481031\PG=C01 [X(C
 31H34Fe1N4O1S1)]\\@
 The archive entry for this job was punched.


 MEN HAVE BECOME THE TOOLS OF THEIR TOOLS... THOREAU   
 Job cpu time:       1 days 15 hours 30 minutes 52.8 seconds.
 Elapsed time:       0 days  0 hours 34 minutes 16.6 seconds.
 File lengths (MBytes):  RWF=   1013 Int=      0 D2E=      0 Chk=    130 Scr=      1
 Normal termination of Gaussian 16 at Mon Nov 18 17:37:02 2024.
 Initial command:
 /sw/chem/gaussian/g16_C02/a100/g16/l1.exe "/local/bebjones_8087542/Gau-1698574.inp" -scrdir="/local/bebjones_8087542/"
 Entering Link 1 = /sw/chem/gaussian/g16_C02/a100/g16/l1.exe PID=   1700109.
  
 Copyright (c) 1988-2021, Gaussian, Inc.  All Rights Reserved.
  
 This is part of the Gaussian(R) 16 program.  It is based on
 the Gaussian(R) 09 system (copyright 2009, Gaussian, Inc.),
 the Gaussian(R) 03 system (copyright 2003, Gaussian, Inc.),
 the Gaussian(R) 98 system (copyright 1998, Gaussian, Inc.),
 the Gaussian(R) 94 system (copyright 1995, Gaussian, Inc.),
 the Gaussian 92(TM) system (copyright 1992, Gaussian, Inc.),
 the Gaussian 90(TM) system (copyright 1990, Gaussian, Inc.),
 the Gaussian 88(TM) system (copyright 1988, Gaussian, Inc.),
 the Gaussian 86(TM) system (copyright 1986, Carnegie Mellon
 University), and the Gaussian 82(TM) system (copyright 1983,
 Carnegie Mellon University). Gaussian is a federally registered
 trademark of Gaussian, Inc.
  
 This software contains proprietary and confidential information,
 including trade secrets, belonging to Gaussian, Inc.
  
 This software is provided under written license and may be
 used, copied, transmitted, or stored only in accord with that
 written license.
  
 The following legend is applicable only to US Government
 contracts under FAR:
  
                    RESTRICTED RIGHTS LEGEND
  
 Use, reproduction and disclosure by the US Government is
 subject to restrictions as set forth in subparagraphs (a)
 and (c) of the Commercial Computer Software - Restricted
 Rights clause in FAR 52.227-19.
  
 Gaussian, Inc.
 340 Quinnipiac St., Bldg. 40, Wallingford CT 06492
  
  
 ---------------------------------------------------------------
 Warning -- This program may not be used in any manner that
 competes with the business of Gaussian, Inc. or will provide
 assistance to any competitor of Gaussian, Inc.  The licensee
 of this program is prohibited from giving any competitor of
 Gaussian, Inc. access to this program.  By using this program,
 the user acknowledges that Gaussian, Inc. is engaged in the
 business of creating and licensing software in the field of
 computational chemistry and represents and warrants to the
 licensee that it is not a competitor of Gaussian, Inc. and that
 it will not use this program in any manner prohibited above.
 ---------------------------------------------------------------
  

 Cite this work as:
 Gaussian 16, Revision C.02,
 M. J. Frisch, G. W. Trucks, H. B. Schlegel, G. E. Scuseria, 
 M. A. Robb, J. R. Cheeseman, G. Scalmani, V. Barone, 
 G. A. Petersson, H. Nakatsuji, X. Li, M. Caricato, A. V. Marenich, 
 J. Bloino, B. G. Janesko, R. Gomperts, B. Mennucci, H. P. Hratchian, 
 J. V. Ortiz, A. F. Izmaylov, J. L. Sonnenberg, D. Williams-Young, 
 F. Ding, F. Lipparini, F. Egidi, J. Goings, B. Peng, A. Petrone, 
 T. Henderson, D. Ranasinghe, V. G. Zakrzewski, J. Gao, N. Rega, 
 G. Zheng, W. Liang, M. Hada, M. Ehara, K. Toyota, R. Fukuda, 
 J. Hasegawa, M. Ishida, T. Nakajima, Y. Honda, O. Kitao, H. Nakai, 
 T. Vreven, K. Throssell, J. A. Montgomery, Jr., J. E. Peralta, 
 F. Ogliaro, M. J. Bearpark, J. J. Heyd, E. N. Brothers, K. N. Kudin, 
 V. N. Staroverov, T. A. Keith, R. Kobayashi, J. Normand, 
 K. Raghavachari, A. P. Rendell, J. C. Burant, S. S. Iyengar, 
 J. Tomasi, M. Cossi, J. M. Millam, M. Klene, C. Adamo, R. Cammi, 
 J. W. Ochterski, R. L. Martin, K. Morokuma, O. Farkas, 
 J. B. Foresman, and D. J. Fox, Gaussian, Inc., Wallingford CT, 2019.
 
 ******************************************
 Gaussian 16:  ES64L-G16RevC.02  7-Dec-2021
                18-Nov-2024 
 ******************************************
 %mem=16GB
 %CPU=0-71
 SetSPE:  set environment variable "OMP_PROC_BIND" = "true"
 SetSPE:  set environment variable "OMP_PLACES" = "{0},{1},{2},{3},{4},{5},{6},{7},{8},{9},{10},{11},{12},{13},{14},{15},{16},{17},{18},{19},{20},{21},{22},{23},{24},{25},{26},{27},{28},{29},{30},{31},{32},{33},{34},{35},{36},{37},{38},{39},{40},{41},{42},{43},{44},{45},{46},{47},{48},{49},{50},{51},{52},{53},{54},{55},{56},{57},{58},{59},{60},{61},{62},{63},{64},{65},{66},{67},{68},{69},{70},{71}"
 Will use up to   72 processors via shared memory.
 %gpucpu=0,1,2,3=0,1,2,3
 Will use    4 GPUs:
 Thread  CPU   GPU
      0    0     0
      1    1     1
      2    2     2
      3    3     3
      4    4    -1
      5    5    -1
      6    6    -1
      7    7    -1
      8    8    -1
      9    9    -1
     10   10    -1
     11   11    -1
     12   12    -1
     13   13    -1
     14   14    -1
     15   15    -1
     16   16    -1
     17   17    -1
     18   18    -1
     19   19    -1
     20   20    -1
     21   21    -1
     22   22    -1
     23   23    -1
     24   24    -1
     25   25    -1
     26   26    -1
     27   27    -1
     28   28    -1
     29   29    -1
     30   30    -1
     31   31    -1
     32   32    -1
     33   33    -1
     34   34    -1
     35   35    -1
     36   36    -1
     37   37    -1
     38   38    -1
     39   39    -1
     40   40    -1
     41   41    -1
     42   42    -1
     43   43    -1
     44   44    -1
     45   45    -1
     46   46    -1
     47   47    -1
     48   48    -1
     49   49    -1
     50   50    -1
     51   51    -1
     52   52    -1
     53   53    -1
     54   54    -1
     55   55    -1
     56   56    -1
     57   57    -1
     58   58    -1
     59   59    -1
     60   60    -1
     61   61    -1
     62   62    -1
     63   63    -1
     64   64    -1
     65   65    -1
     66   66    -1
     67   67    -1
     68   68    -1
     69   69    -1
     70   70    -1
     71   71    -1
 SetGPE:  set environment variable "OMP_PROC_BIND" = "true"
 SetGPE:  set environment variable "OMP_PLACES" = "{0},{1},{2},{3},{4},{5},{6},{7},{8},{9},{10},{11},{12},{13},{14},{15},{16},{17},{18},{19},{20},{21},{22},{23},{24},{25},{26},{27},{28},{29},{30},{31},{32},{33},{34},{35},{36},{37},{38},{39},{40},{41},{42},{43},{44},{45},{46},{47},{48},{49},{50},{51},{52},{53},{54},{55},{56},{57},{58},{59},{60},{61},{62},{63},{64},{65},{66},{67},{68},{69},{70},{71}"
 %oldchk=4ips_II_O.chk
 %chk=4ips_II_Sn.chk
 Properties for Device   0
 Minimum vector length:                              32
 Maximum vector length:                            1024
 Number of SMPs:                                    108
 Maximum number of threads per SMP:                2048
 Number of ASync Engines:                             5
 Memory:                                           9207742464
 Properties for Device   1
 Minimum vector length:                              32
 Maximum vector length:                            1024
 Number of SMPs:                                    108
 Maximum number of threads per SMP:                2048
 Number of ASync Engines:                             5
 Memory:                                           9207742464
 Properties for Device   2
 Minimum vector length:                              32
 Maximum vector length:                            1024
 Number of SMPs:                                    108
 Maximum number of threads per SMP:                2048
 Number of ASync Engines:                             5
 Memory:                                           9207742464
 Properties for Device   3
 Minimum vector length:                              32
 Maximum vector length:                            1024
 Number of SMPs:                                    108
 Maximum number of threads per SMP:                2048
[...]
  1141. RY*(  18) C  56                  0.00000     3.34979   
  1142. RY*(  19) C  56                  0.00000     3.00904   
  1143. RY*(  20) C  56                  0.00000     3.27034   
  1144. RY*(  21) C  56                  0.00000     3.80701   
  1145. RY*(  22) C  56                  0.00000     3.62274   
  1146. RY*(  23) C  56                  0.00000     3.36274   
  1147. RY*(  24) C  56                  0.00000     3.43367   
  1148. RY*(  25) C  56                  0.00000     3.67203   
  1149. RY*(  26) C  56                  0.00000     3.94693   
  1150. RY*(   1) H  57                  0.00097     0.92513   
  1151. RY*(   2) H  57                  0.00017     1.80496   
  1152. RY*(   3) H  57                  0.00006     2.08349   
  1153. RY*(   4) H  57                  0.00006     2.05643   
  1154. RY*(   5) H  57                  0.00001     2.96708   
  1155. RY*(   1) H  58                  0.00081     0.90373   
  1156. RY*(   2) H  58                  0.00018     1.86195   
  1157. RY*(   3) H  58                  0.00006     2.13708   
  1158. RY*(   4) H  58                  0.00006     1.99425   
  1159. RY*(   5) H  58                  0.00001     2.96556   
  1160. RY*(   1) H  59                  0.00072     0.86761   
  1161. RY*(   2) H  59                  0.00013     1.68572   
  1162. RY*(   3) H  59                  0.00011     2.15686   
  1163. RY*(   4) H  59                  0.00007     2.09509   
  1164. RY*(   5) H  59                  0.00001     2.98940   
  1165. RY*(   1) C  60                  0.00146     1.34566   
  1166. RY*(   2) C  60                  0.00142     1.18088   
  1167. RY*(   3) C  60                  0.00074     1.38051   
  1168. RY*(   4) C  60                  0.00014     1.08591   
  1169. RY*(   5) C  60                  0.00005     1.91325   
  1170. RY*(   6) C  60                  0.00005     1.50871   
  1171. RY*(   7) C  60                  0.00003     1.97209   
  1172. RY*(   8) C  60                  0.00002     2.40792   
  1173. RY*(   9) C  60                  0.00001     1.73513   
  1174. RY*(  10) C  60                  0.00001     2.71843   
  1175. RY*(  11) C  60                  0.00001     2.12061   
  1176. RY*(  12) C  60                  0.00000     2.83694   
  1177. RY*(  13) C  60                  0.00000     2.28505   
  1178. RY*(  14) C  60                  0.00001     2.43490   
  1179. RY*(  15) C  60                  0.00000     2.47374   
  1180. RY*(  16) C  60                  0.00000    21.17275   
  1181. RY*(  17) C  60                  0.00000     2.90844   
  1182. RY*(  18) C  60                  0.00000     3.37510   
  1183. RY*(  19) C  60                  0.00000     2.83136   
  1184. RY*(  20) C  60                  0.00000     3.26827   
  1185. RY*(  21) C  60                  0.00000     3.63461   
  1186. RY*(  22) C  60                  0.00000     3.78488   
  1187. RY*(  23) C  60                  0.00000     3.32627   
  1188. RY*(  24) C  60                  0.00000     3.48553   
  1189. RY*(  25) C  60                  0.00000     3.78948   
  1190. RY*(  26) C  60                  0.00000     3.63662   
  1191. RY*(   1) H  61                  0.00073     0.86215   
  1192. RY*(   2) H  61                  0.00013     1.69312   
  1193. RY*(   3) H  61                  0.00011     2.16346   
  1194. RY*(   4) H  61                  0.00007     2.08579   
  1195. RY*(   5) H  61                  0.00001     2.99273   
  1196. RY*(   1) H  62                  0.00093     0.91064   
  1197. RY*(   2) H  62                  0.00018     1.83014   
  1198. RY*(   3) H  62                  0.00006     2.07082   
  1199. RY*(   4) H  62                  0.00006     2.05704   
  1200. RY*(   5) H  62                  0.00001     2.97163   
  1201. RY*(   1) H  63                  0.00088     0.90248   
  1202. RY*(   2) H  63                  0.00018     1.83633   
  1203. RY*(   3) H  63                  0.00006     2.06263   
  1204. RY*(   4) H  63                  0.00006     2.08476   
  1205. RY*(   5) H  63                  0.00001     2.96748   
  1317. BD*(   1) N   2 - C   6          0.02623     0.51685   
  1318. BD*(   1) N   2 - C   9          0.02679     0.51359   
  1319. BD*(   2) N   2 - C   9          0.62709     0.01215  1339(v),1330(v),1332(v)
                                                    366(g),182(g),733(v),145(r)
                                                    142(r),141(r),1316(r),144(r)
                                                    143(r)
  1320. BD*(   1) N   3 - C  10          0.02722     0.49786   
  1321. BD*(   1) N   3 - C  13          0.02654     0.50349   
  1322. BD*(   2) N   3 - C  13          0.62799     0.00600  1348(v),1339(v),1341(v)
                                                    470(g),208(g),764(v),145(r)
                                                    142(r),141(r),1316(r),143(r)
  1323. BD*(   1) N   4 - C  14          0.02674     0.50442   
  1324. BD*(   1) N   4 - C  17          0.02528     0.51519   
  1325. BD*(   1) N   5 - C  18          0.02634     0.51615   
  1326. BD*(   1) N   5 - C  21          0.02641     0.51425   
  1327. BD*(   2) N   5 - C  21          0.61485     0.01439  1330(v),1359(v),151(v)
                                                    678(g),260(g),145(r),702(v)
                                                    142(r),1316(r),141(r),143(r)
  1328. BD*(   1) C   6 - C   7          0.03543     0.49056   
  1329. BD*(   1) C   6 - C  22          0.02110     0.57949   
  1330. BD*(   2) C   6 - C  22          0.41712     0.04839  1327(v),1332(v),1319(v)
                                                    702(g),1339(r),290(g)
  1331. BD*(   1) C   7 - C   8          0.02256     0.60781   
  1332. BD*(   2) C   7 - C   8          0.24731     0.06918  1330(v),1319(v),1372(v)
                                                    1368(v),1370(v),1371(v)
  1333. BD*(   1) C   7 - C  34          0.01727     0.41516   
  1334. BD*(   1) C   8 - C   9          0.03536     0.49132   
  1335. BD*(   1) C   8 - C  30          0.01733     0.41451   
  1336. BD*(   1) C   9 - C  24          0.02104     0.57790   
  1337. BD*(   1) C  10 - C  11          0.03437     0.49873   
  1338. BD*(   1) C  10 - C  24          0.02153     0.56767   
  1339. BD*(   2) C  10 - C  24          0.43976     0.04207  1319(v),1341(v),1322(v)
                                                    733(g),1348(r),1330(r)
                                                    392(g),394(g)
  1340. BD*(   1) C  11 - C  12          0.02504     0.58790   
  1341. BD*(   2) C  11 - C  12          0.29647     0.06179  1379(v),1339(v),1322(v)
                                                    1374(v),1375(v)
  1342. BD*(   1) C  11 - C  38          0.01649     0.41483   
  1343. BD*(   1) C  12 - C  13          0.03433     0.48823   
  1344. BD*(   1) C  12 - C  42          0.02670     0.49551   
  1345. BD*(   1) C  13 - C  26          0.02111     0.57526   
  1346. BD*(   1) C  14 - C  15          0.03483     0.49772   
  1347. BD*(   1) C  14 - C  26          0.02151     0.57440   
  1348. BD*(   2) C  14 - C  26          0.42280     0.04571  1322(v),1350(v),149(v)
                                                    1355(r),764(g),1339(r)
                                                    496(g),1379(r),498(g)
  1349. BD*(   1) C  15 - C  16          0.02484     0.59268   
  1350. BD*(   2) C  15 - C  16          0.28495     0.06596  1387(v),1355(v),1348(v)
                                                    1383(v),1382(v)
  1351. BD*(   1) C  15 - C  47          0.01643     0.41792   
  1352. BD*(   1) C  16 - C  17          0.03421     0.48845   
  1353. BD*(   1) C  16 - C  51          0.02662     0.49813   
  1354. BD*(   1) C  17 - C  28          0.02095     0.57911   
  1355. BD*(   2) C  17 - C  28          0.41549     0.04896  1350(v),151(v),149(v)
                                                    1348(r),795(g),1387(r)
                                                    574(g),576(g)
  1356. BD*(   1) C  18 - C  19          0.03499     0.49166   
  1357. BD*(   1) C  18 - C  28          0.02095     0.57950   
  1358. BD*(   1) C  19 - C  20          0.02251     0.60945   
  1359. BD*(   2) C  19 - C  20          0.24552     0.07090  1327(v),151(v),1390(v)
                                                    1394(v),1395(v),1391(v)
  1360. BD*(   1) C  19 - C  56          0.01713     0.41653   
  1361. BD*(   1) C  20 - C  21          0.03516     0.49165   
  1362. BD*(   1) C  20 - C  60          0.01723     0.41613   
  1363. BD*(   1) C  21 - C  22          0.02088     0.57929   
  1364. BD*(   1) C  22 - H  23          0.01254     0.43434   
  1365. BD*(   1) C  24 - H  25          0.01277     0.43437   
  1366. BD*(   1) C  26 - H  27          0.01308     0.43478   
  1367. BD*(   1) C  28 - H  29          0.01271     0.43485   
  1368. BD*(   1) C  30 - H  31          0.01104     0.37795   
  1369. BD*(   1) C  30 - H  32          0.00667     0.38967   
  1370. BD*(   1) C  30 - H  33          0.01086     0.37859   
  1371. BD*(   1) C  34 - H  35          0.01020     0.37966   
  1372. BD*(   1) C  34 - H  36          0.01157     0.37828   
  1373. BD*(   1) C  34 - H  37          0.00672     0.38954   
  1374. BD*(   1) C  38 - H  39          0.01263     0.37522   
  1375. BD*(   1) C  38 - H  40          0.00975     0.38422   
  1376. BD*(   1) C  38 - H  41          0.00826     0.39115   
  1377. BD*(   1) C  42 - H  43          0.02111     0.42207   
  1378. BD*(   1) C  42 - C  44          0.00781     0.63047   
  1379. BD*(   2) C  42 - C  44          0.07765     0.05676   
  1380. BD*(   1) C  44 - H  45          0.01103     0.43360   
  1381. BD*(   1) C  44 - H  46          0.00851     0.43438   
  1382. BD*(   1) C  47 - H  48          0.00999     0.38663   
  1383. BD*(   1) C  47 - H  49          0.01280     0.37841   
  1384. BD*(   1) C  47 - H  50          0.00800     0.39382   
  1385. BD*(   1) C  51 - H  52          0.02122     0.42536   
  1386. BD*(   1) C  51 - C  53          0.00775     0.63450   
  1387. BD*(   2) C  51 - C  53          0.07614     0.05823   
  1388. BD*(   1) C  53 - H  54          0.01103     0.43651   
  1389. BD*(   1) C  53 - H  55          0.00856     0.43657   
  1390. BD*(   1) C  56 - H  57          0.01166     0.38011   
  1391. BD*(   1) C  56 - H  58          0.00979     0.38234   
  1392. BD*(   1) C  56 - H  59          0.00666     0.39108   
  1393. BD*(   1) C  60 - H  61          0.00666     0.39133   
  1394. BD*(   1) C  60 - H  62          0.01109     0.37999   
  1395. BD*(   1) C  60 - H  63          0.01060     0.38061   
       -------------------------------
              Total Lewis  230.14074  ( 97.2384%)
        Valence non-Lewis    6.02567  (  2.5460%)
        Rydberg non-Lewis    0.51035  (  0.2156%)
       -------------------------------
            Total unit  2  236.67676  (100.0000%)
           Charge unit  2   -0.67676
 
 Molecular unit  3  (H2O)
    81. BD (   1) O  64 - H  65          1.99308    -0.81226  145(r),156(r),1238(v),159(r)
                                                    1316(r),264(r),212(r),142(r)
                                                    235(r),262(r),183(r),268(r)
                                                    263(r),164(r)
    82. BD (   1) O  64 - H  66          1.99399    -0.87481  145(r),156(r),1234(v),212(r)
                                                    142(r),161(r),1316(r),211(r)
                                                    159(r),235(r),183(r),232(r)
                                                    164(r),218(r),264(r)
   131. CR (   1) O  64                  1.99980   -18.96808  145(r),1234(v),1238(v)
                                                    1239(v),142(r),1316(r)
                                                    159(r)
   152. LP (   1) O  64                  1.99202    -0.33505  1237(v),144(r),1233(v)
                                                    143(r),149(r),186(r),238(r)
                                                    157(r),245(r),162(r),1319(r)
                                                    190(r)
   153. LP (   2) O  64                  1.83342    -0.50194  145(r),1238(v),1396(g)
                                                    1234(v),160(r),1397(g)
                                                    164(r),1232(v),1316(r)
                                                    234(r),142(r),182(r),260(r)
                                                    208(r),185(r),184(r),237(r)
                                                    236(r),210(r),211(r),1289(r)
                                                    262(r),165(r),263(r),1321(r)
                                                    157(r),1326(r),1320(r)
                                                    1325(r),1317(r)
  1206. RY*(   1) O  64                  0.00310     0.96954   
  1207. RY*(   2) O  64                  0.00284     0.81767   
  1208. RY*(   3) O  64                  0.00040     1.30119   
  1209. RY*(   4) O  64                  0.00023     1.24309   
  1210. RY*(   5) O  64                  0.00010     2.76948   
  1211. RY*(   6) O  64                  0.00004     2.10932   
  1212. RY*(   7) O  64                  0.00004     3.87538   
  1213. RY*(   8) O  64                  0.00002     3.44007   
  1214. RY*(   9) O  64                  0.00001     3.78468   
  1215. RY*(  10) O  64                  0.00001     2.61269   
  1216. RY*(  11) O  64                  0.00001     2.52831   
  1217. RY*(  12) O  64                  0.00000    41.65415   
  1218. RY*(  13) O  64                  0.00000     6.46835   
  1219. RY*(  14) O  64                  0.00000     3.00106   
  1220. RY*(  15) O  64                  0.00000     6.54618   
  1221. RY*(  16) O  64                  0.00000     6.37088   
  1222. RY*(  17) O  64                  0.00000     6.14071   
  1223. RY*(  18) O  64                  0.00000     3.39574   
  1224. RY*(  19) O  64                  0.00001     6.43530   
  1225. RY*(  20) O  64                  0.00000     5.07212   
  1226. RY*(  21) O  64                  0.00000     5.23434   
  1227. RY*(  22) O  64                  0.00000     5.36363   
  1228. RY*(  23) O  64                  0.00000     5.38138   
  1229. RY*(  24) O  64                  0.00000     5.70832   
  1230. RY*(  25) O  64                  0.00000     5.65937   
  1231. RY*(  26) O  64                  0.00000     5.36282   
  1232. RY*(   1) H  65                  0.00125     0.63140   
  1233. RY*(   2) H  65                  0.00082     1.97758   
  1234. RY*(   3) H  65                  0.00062     2.37145   
  1235. RY*(   4) H  65                  0.00020     2.10248   
  1236. RY*(   5) H  65                  0.00001     2.87910   
  1237. RY*(   1) H  66                  0.00095     2.00562   
  1238. RY*(   2) H  66                  0.00073     1.89093   
  1239. RY*(   3) H  66                  0.00056     1.73360   
  1240. RY*(   4) H  66                  0.00020     1.73816   
  1241. RY*(   5) H  66                  0.00001     3.01285   
  1396. BD*(   1) O  64 - H  65          0.00388     0.43089   
  1397. BD*(   1) O  64 - H  66          0.00253     0.60501   
       -------------------------------
              Total Lewis    9.81230  ( 99.8109%)
        Valence non-Lewis    0.00640  (  0.0651%)
        Rydberg non-Lewis    0.01218  (  0.1239%)
       -------------------------------
            Total unit  3    9.83089  (100.0000%)
           Charge unit  3    0.16911
 Unable to Open any file for archive entry.
 1\1\GINC-BGN1018\SP\RAPFD\def2TZVP\C31H34Fe1N4O1S1\BEBJONES\18-Nov-202
 4\0\\# apfd/def2TZVP int=(grid=ultrafine) geom=check guess=read pop=nb
 o scf=qc\\4ips_II_S_nbo\\0,1\Fe,0,6.0672949233,24.7429971275,-7.362455
 8629\N,0,4.3879269296,23.6957856391,-7.140934408\N,0,5.7952390472,24.7
 499507926,-9.3540659089\N,0,7.858827892,25.6081807673,-7.6192819743\N,
 0,6.5527975996,24.3722647721,-5.4645905669\C,0,3.8326972576,23.3168423
 071,-5.9621679083\C,0,2.5171733434,22.752972196,-6.1775126974\C,0,2.32
 47471467,22.7366002213,-7.5235377246\C,0,3.5031518276,23.3388175765,-8
 .1089886266\C,0,4.7385096663,24.2245050601,-10.0381894032\C,0,4.808417
 6125,24.5696929041,-11.4329163939\C,0,5.924868654,25.3520418281,-11.58
 14018125\C,0,6.5253375943,25.4449503718,-10.2670151407\C,0,8.274458692
 4,26.2520132863,-8.7447126856\C,0,9.471748625,27.0115175121,-8.4863413
 542\C,0,9.8360045031,26.7223017183,-7.1979479176\C,0,8.794596671,25.86
 06370746,-6.6723717537\C,0,7.7222246091,24.6536294956,-4.8337924527\C,
 0,7.6752660213,24.2283093086,-3.4517028128\C,0,6.4148082922,23.7647877
 631,-3.2406831771\C,0,5.7362067506,23.8430678034,-4.5162939439\C,0,4.4
 414086284,23.4079129112,-4.725449429\H,0,3.8879487471,23.0554796243,-3
 .8690202814\C,0,3.6745620168,23.5459941371,-9.4634168706\H,0,2.8934417
 943,23.1986348555,-10.1218945205\C,0,7.6574001972,26.1847770729,-9.980
 9195293\H,0,8.1112672255,26.7325508456,-10.7921256867\C,0,8.7806566548
 ,25.3463701607,-5.3892369453\H,0,9.6344923898,25.5417795815,-4.7593575
 561\C,0,1.1580714438,22.2405390168,-8.3062478088\H,0,0.7170371944,23.0
 4668083,-8.8933410416\H,0,0.3933054307,21.838478314,-7.6465480446\H,0,
 1.4664230904,21.4521035787,-8.9931267322\C,0,1.6253825577,22.265167782
 7,-5.088471157\H,0,1.4642703122,23.0475952382,-4.3471722031\H,0,2.0714
 537282,21.4078227619,-4.5832189838\H,0,0.6591939207,21.963203433,-5.48
 51295086\C,0,3.8640380565,24.0941037505,-12.4806581427\H,0,2.970737504
 3,24.7202455981,-12.5153924422\H,0,3.5505294974,23.0706827877,-12.2803
 362102\H,0,4.3433603717,24.1277351474,-13.4570091862\C,0,6.4668392373,
 25.9564549077,-12.7779975306\H,0,7.5472825952,26.0338584158,-12.813853
 4662\C,0,5.7534176592,26.4166908518,-13.8004200809\H,0,4.6774496243,26
 .4088735156,-13.7993570777\H,0,6.2262057895,26.8442306059,-14.66881968
 15\C,0,10.136329548,27.9207096072,-9.4593039134\H,0,9.3968243332,28.45
 04733553,-10.0581945602\H,0,10.7840350206,27.3626155201,-10.1375746635
 \H,0,10.7441074069,28.6509830232,-8.9290546928\C,0,10.9653011618,27.20
 48879409,-6.4339504657\H,0,10.790534722,27.3341596277,-5.3724297099\C,
 0,12.1674983856,27.480903228,-6.9284314986\H,0,12.4104642299,27.326707
 2106,-7.9651775521\H,0,12.962918187,27.8486681744,-6.301789144\C,0,8.8
 091624465,24.3560491913,-2.4939854338\H,0,9.0248168908,25.4060896828,-
 2.2934964656\H,0,9.7092736852,23.8982198561,-2.9033405228\H,0,8.574420
 4642,23.8697426041,-1.550329726\C,0,5.8018509506,23.2268016342,-1.9939
 133747\H,0,6.5047983254,23.275049164,-1.1661075153\H,0,5.5001497138,22
 .1878401583,-2.1299279564\H,0,4.9167625798,23.8035985895,-1.7257863123
 \O,0,7.082,22.794,-7.795\H,0,7.191,22.682,-8.739\H,0,7.334,22.22,-7.16
 5\C,0,3.4123867297,26.7632711884,-7.7778503536\H,0,2.7674693928,26.224
 7399887,-7.0914629046\H,0,3.4688721101,26.2317973608,-8.721659901\H,0,
 3.0507078166,27.7774402952,-7.9152107468\S,0,5.0686228521,26.816144886
 3,-7.0036704968\H,0,5.6467772484,27.482480723,-8.0114389343\\Version=E
 S64L-G16RevC.02\State=1-A\HF=-3157.193057\RMSD=3.251e-09\Dipole=-0.571
 911,-0.3814805,-0.0397373\Quadrupole=2.3346777,-3.4927442,1.1580665,0.
 5093586,1.0584368,-3.6481031\PG=C01 [X(C31H34Fe1N4O1S1)]\\@
 The archive entry for this job was punched.


 The number of Unix installations has grown to 10,
  with more expected.
                  -- The Unix Programmer's Manual,
                     2nd Edition, June, 1972.
 Job cpu time:       0 days  0 hours 35 minutes 57.7 seconds.
 Elapsed time:       0 days  0 hours  0 minutes 44.0 seconds.
 File lengths (MBytes):  RWF=    664 Int=      0 D2E=      0 Chk=    156 Scr=      1
 Normal termination of Gaussian 16 at Mon Nov 18 17:37:49 2024.
