 Entering Gaussian System, Link 0=g16
 Input=4jpt01.com
 Output=4jpt01.log
 Initial command:
 /sw/chem/gaussian/g16_C02/a100/g16/l1.exe "/local/bebjones_8087523/Gau-1695721.inp" -scrdir="/local/bebjones_8087523/"
 Entering Link 1 = /sw/chem/gaussian/g16_C02/a100/g16/l1.exe PID=   1695722.
  
 Copyright (c) 1988-2021, Gaussian, Inc.  All Rights Reserved.
  
 This is part of the Gaussian(R) 16 program.  It is based on
 the Gaussian(R) 09 system (copyright 2009, Gaussian, Inc.),
 the Gaussian(R) 03 system (copyright 2003, Gaussian, Inc.),
 the Gaussian(R) 98 system (copyright 1998, Gaussian, Inc.),
 the Gaussian(R) 94 system (copyright 1995, Gaussian, Inc.),
 the Gaussian 92(TM) system (copyright 1992, Gaussian, Inc.),
 the Gaussian 90(TM) system (copyright 1990, Gaussian, Inc.),
 the Gaussian 88(TM) system (copyright 1988, Gaussian, Inc.),
 the Gaussian 86(TM) system (copyright 1986, Carnegie Mellon
 University), and the Gaussian 82(TM) system (copyright 1983,
 Carnegie Mellon University). Gaussian is a federally registered
 trademark of Gaussian, Inc.
  
 This software contains proprietary and confidential information,
 including trade secrets, belonging to Gaussian, Inc.
  
 This software is provided under written license and may be
 used, copied, transmitted, or stored only in accord with that
 written license.
  
 The following legend is applicable only to US Government
 contracts under FAR:
  
                    RESTRICTED RIGHTS LEGEND
  
 Use, reproduction and disclosure by the US Government is
 subject to restrictions as set forth in subparagraphs (a)
 and (c) of the Commercial Computer Software - Restricted
 Rights clause in FAR 52.227-19.
  
 Gaussian, Inc.
 340 Quinnipiac St., Bldg. 40, Wallingford CT 06492
  
  
 ---------------------------------------------------------------
 Warning -- This program may not be used in any manner that
 competes with the business of Gaussian, Inc. or will provide
 assistance to any competitor of Gaussian, Inc.  The licensee
 of this program is prohibited from giving any competitor of
 Gaussian, Inc. access to this program.  By using this program,
 the user acknowledges that Gaussian, Inc. is engaged in the
 business of creating and licensing software in the field of
 computational chemistry and represents and warrants to the
 licensee that it is not a competitor of Gaussian, Inc. and that
 it will not use this program in any manner prohibited above.
 ---------------------------------------------------------------
  

 Cite this work as:
 Gaussian 16, Revision C.02,
 M. J. Frisch, G. W. Trucks, H. B. Schlegel, G. E. Scuseria, 
 M. A. Robb, J. R. Cheeseman, G. Scalmani, V. Barone, 
 G. A. Petersson, H. Nakatsuji, X. Li, M. Caricato, A. V. Marenich, 
 J. Bloino, B. G. Janesko, R. Gomperts, B. Mennucci, H. P. Hratchian, 
 J. V. Ortiz, A. F. Izmaylov, J. L. Sonnenberg, D. Williams-Young, 
 F. Ding, F. Lipparini, F. Egidi, J. Goings, B. Peng, A. Petrone, 
 T. Henderson, D. Ranasinghe, V. G. Zakrzewski, J. Gao, N. Rega, 
 G. Zheng, W. Liang, M. Hada, M. Ehara, K. Toyota, R. Fukuda, 
 J. Hasegawa, M. Ishida, T. Nakajima, Y. Honda, O. Kitao, H. Nakai, 
 T. Vreven, K. Throssell, J. A. Montgomery, Jr., J. E. Peralta, 
 F. Ogliaro, M. J. Bearpark, J. J. Heyd, E. N. Brothers, K. N. Kudin, 
 V. N. Staroverov, T. A. Keith, R. Kobayashi, J. Normand, 
 K. Raghavachari, A. P. Rendell, J. C. Burant, S. S. Iyengar, 
 J. Tomasi, M. Cossi, J. M. Millam, M. Klene, C. Adamo, R. Cammi, 
 J. W. Ochterski, R. L. Martin, K. Morokuma, O. Farkas, 
 J. B. Foresman, and D. J. Fox, Gaussian, Inc., Wallingford CT, 2019.
 
 ******************************************
 Gaussian 16:  ES64L-G16RevC.02  7-Dec-2021
                18-Nov-2024 
 ******************************************
 %mem=16GB
 %CPU=0-71
 SetSPE:  set environment variable "OMP_PROC_BIND" = "true"
 SetSPE:  set environment variable "OMP_PLACES" = "{0},{1},{2},{3},{4},{5},{6},{7},{8},{9},{10},{11},{12},{13},{14},{15},{16},{17},{18},{19},{20},{21},{22},{23},{24},{25},{26},{27},{28},{29},{30},{31},{32},{33},{34},{35},{36},{37},{38},{39},{40},{41},{42},{43},{44},{45},{46},{47},{48},{49},{50},{51},{52},{53},{54},{55},{56},{57},{58},{59},{60},{61},{62},{63},{64},{65},{66},{67},{68},{69},{70},{71}"
 Will use up to   72 processors via shared memory.
 %gpucpu=0,1,2,3=0,1,2,3
 Will use    4 GPUs:
 Thread  CPU   GPU
      0    0     0
      1    1     1
      2    2     2
      3    3     3
      4    4    -1
      5    5    -1
      6    6    -1
      7    7    -1
      8    8    -1
      9    9    -1
     10   10    -1
     11   11    -1
     12   12    -1
     13   13    -1
     14   14    -1
     15   15    -1
     16   16    -1
     17   17    -1
     18   18    -1
     19   19    -1
     20   20    -1
     21   21    -1
     22   22    -1
     23   23    -1
     24   24    -1
     25   25    -1
     26   26    -1
     27   27    -1
     28   28    -1
     29   29    -1
     30   30    -1
     31   31    -1
     32   32    -1
     33   33    -1
     34   34    -1
     35   35    -1
     36   36    -1
     37   37    -1
     38   38    -1
     39   39    -1
     40   40    -1
     41   41    -1
     42   42    -1
     43   43    -1
     44   44    -1
     45   45    -1
     46   46    -1
     47   47    -1
     48   48    -1
     49   49    -1
     50   50    -1
     51   51    -1
     52   52    -1
     53   53    -1
     54   54    -1
     55   55    -1
     56   56    -1
     57   57    -1
     58   58    -1
     59   59    -1
     60   60    -1
     61   61    -1
     62   62    -1
     63   63    -1
     64   64    -1
     65   65    -1
     66   66    -1
     67   67    -1
     68   68    -1
     69   69    -1
     70   70    -1
     71   71    -1
 SetGPE:  set environment variable "OMP_PROC_BIND" = "true"
 SetGPE:  set environment variable "OMP_PLACES" = "{0},{1},{2},{3},{4},{5},{6},{7},{8},{9},{10},{11},{12},{13},{14},{15},{16},{17},{18},{19},{20},{21},{22},{23},{24},{25},{26},{27},{28},{29},{30},{31},{32},{33},{34},{35},{36},{37},{38},{39},{40},{41},{42},{43},{44},{45},{46},{47},{48},{49},{50},{51},{52},{53},{54},{55},{56},{57},{58},{59},{60},{61},{62},{63},{64},{65},{66},{67},{68},{69},{70},{71}"
 %chk=4jpt_II_O.chk
 Properties for Device   0
 Minimum vector length:                              32
 Maximum vector length:                            1024
 Number of SMPs:                                    108
 Maximum number of threads per SMP:                2048
 Number of ASync Engines:                             5
 Memory:                                           9207742464
 Properties for Device   1
 Minimum vector length:                              32
 Maximum vector length:                            1024
 Number of SMPs:                                    108
 Maximum number of threads per SMP:                2048
 Number of ASync Engines:                             5
 Memory:                                           9207742464
 Properties for Device   2
 Minimum vector length:                              32
 Maximum vector length:                            1024
 Number of SMPs:                                    108
 Maximum number of threads per SMP:                2048
 Number of ASync Engines:                             5
 Memory:                                           9207742464
 Properties for Device   3
 Minimum vector length:                              32
 Maximum vector length:                            1024
 Number of SMPs:                                    108
 Maximum number of threads per SMP:                2048
 Number of ASync Engines:                             5
 Memory:                                           9207742464
   8286968217 words of memory will be used on each GPU.
 ------------------------------------------
 # polar def2tzvp apfd int=(grid=ultrafine)
 ------------------------------------------
 1/38=1,172=1/1;
 2/12=2,17=6,18=5,40=1/2;
 3/5=44,7=101,11=2,25=1,30=1,74=-44,75=-5/1,2,3;
 4//1;
 5/5=2,38=5,98=1/2;
 8/6=4,10=90,11=11/1;
 10/6=1,13=10/2;
 6/7=2,8=2,9=2,10=2,28=1/1;
 99/5=1,9=1/99;
 ---------
 4jpt_II_S
 ---------
 Symbolic Z-matrix:
 Charge =  0 Multiplicity = 1
 Fe                    11.86171  -2.20946   1.31986 
 N                     12.41346  -0.494     2.19654 
 N                     10.21469  -2.27303   2.45132 
 N                     11.19866  -3.77841   0.27091 
 N                     13.44028  -2.06774   0.08505 
 C                     13.53868   0.23004   1.95107 
 C                     13.58498   1.40113   2.79667 
 C                     12.48163   1.34456   3.59161 
 C                     11.76563   0.14873   3.20799 
 C                     9.84909  -1.37756   3.40934 
 C                     8.6271   -1.78543   4.05419 
 C                     8.23495  -2.9436    3.43641 
 C                     9.22305  -3.19899   2.40482 
 C                     10.03017  -4.45099   0.45742 
 C                     9.84532  -5.45734  -0.55667 
 C                     10.94485  -5.38764  -1.3702 
 C                     11.7718  -4.32435  -0.83222 
 C                     13.82042  -2.98362  -0.84335 
 C                     15.18791  -2.76103  -1.25828 
 C                     15.61263  -1.65737  -0.58678 
 C                     14.50529  -1.23787   0.24393 
 C                     14.52655  -0.11181   1.04584 
 H                     15.4023   0.51769   1.00255 
 C                     10.56878  -0.25009   3.77136 
 H                     10.16774   0.36356   4.56388 
 C                     9.14488  -4.23832   1.49983 
 H                     8.29766  -4.90295   1.57286 
 C                     13.01886  -3.99781  -1.33241 
 H                     13.40843  -4.59723  -2.14137 
 C                     12.03204   2.29103   4.65196 
 H                     12.73637   3.11194   4.76157 
 H                     11.9482   1.78115   5.61205 
 H                     11.05501   2.70807   4.40579 
 C                     14.66992   2.42228   2.75808 
 H                     14.76592   2.84118   1.75635 
 H                     15.62683   1.97511   3.02925 
 H                     14.46338   3.23432   3.45097 
 C                     7.92121  -1.0199    5.11907 
 H                     7.98881   0.05111   4.93295 
 H                     8.35738  -1.2197    6.09967 
 H                     6.87074  -1.30226   5.14746 
 C                     7.06605  -3.75722   3.68374 
 H                     6.6389   -4.24261   2.81397 
 C                     6.50093  -3.95488   4.87072 
 H                     6.90796  -3.53911   5.77603 
 H                     5.6204   -4.56599   4.98069 
 C                     8.6433   -6.3248   -0.69761 
 H                     7.7401   -5.7785   -0.43081 
 H                     8.71456  -7.19801  -0.04715 
 H                     8.55114  -6.66983  -1.72559 
 C                     11.25947  -6.15524  -2.55462 
 H                     11.80977  -5.62518  -3.32358 
 C                     10.93863  -7.42967  -2.75514 
 H                     10.43512  -8.01767  -2.00792 
 H                     11.19478  -7.93821  -3.67 
 C                     15.91446  -3.60522  -2.24848 
 H                     15.42791  -3.55656  -3.22323 
 H                     15.92603  -4.64758  -1.92962 
 H                     16.94225  -3.26946  -2.36327 
 C                     16.93465  -0.97104  -0.63429 
 H                     16.81978   0.05672  -0.98009 
 H                     17.61381  -1.4846   -1.31059 
 H                     17.38908  -0.94477   0.35652 
 O                     10.74    -0.802    -0.079 
 H                     10.992    0.044     0.291 
 H                     10.239   -0.931    -0.802 
 C                     15.13807  -5.99685   3.7694 
 H                     15.44428  -6.45033   2.83261 
 H                     14.64744  -6.75513   4.37919 
 H                     16.02613  -5.65582   4.30035 
 N                     13.73044  -4.05656   4.49054 
 H                     13.93421  -4.14314   5.4726 
 C                     14.21863  -4.86329   3.49651 
 C                     12.92803  -3.13379   3.91266 
 H                     12.40638  -2.3685    4.44973 
 N                     12.87914  -3.30721   2.61381 
 C                     13.6764  -4.38004   2.34006 
 H                     13.80481  -4.72836   1.33616 
 
 Stoichiometry    C34H36FeN6O
 Framework group  C1[X(C34H36FeN6O)]
 Deg. of freedom   228
 Full point group                 C1      NOp   1
 Largest Abelian subgroup         C1      NOp   1
 Largest concise Abelian subgroup C1      NOp   1
                         Standard orientation:                         
 ---------------------------------------------------------------------
 Center     Atomic      Atomic             Coordinates (Angstroms)
 Number     Number       Type             X           Y           Z
 ---------------------------------------------------------------------
      1         26           0        0.071450   -0.152671   -0.378928
      2          7           0        1.412375   -1.634593   -0.525830
      3          7           0        1.547976    1.192756   -0.297475
      4          7           0       -1.268993    1.328451   -0.484076
      5          7           0       -1.409388   -1.491313   -0.606696
      6          6           0        1.157854   -2.968054   -0.613735
      7          6           0        2.391054   -3.717620   -0.691235
      8          6           0        3.399526   -2.807808   -0.603270
      9          6           0        2.768700   -1.511847   -0.491974
     10          6           0        2.885043    0.937750   -0.321234
     11          6           0        3.642718    2.155510   -0.185531
     12          6           0        2.726719    3.171610   -0.112798
     13          6           0        1.424343    2.543139   -0.233553
     14          6           0       -1.011428    2.664925   -0.485489
     15          6           0       -2.220120    3.424195   -0.680076
     16          6           0       -3.233411    2.509437   -0.790058
     17          6           0       -2.608389    1.206079   -0.669804
     18          6           0       -2.742018   -1.235429   -0.544408
     19          6           0       -3.493499   -2.455918   -0.351003
     20          6           0       -2.581561   -3.464703   -0.340972
     21          6           0       -1.286669   -2.841461   -0.505559
     22          6           0       -0.099341   -3.543744   -0.598053
     23          1           0       -0.153912   -4.621742   -0.603430
     24          6           0        3.461438   -0.319532   -0.406159
     25          1           0        4.539558   -0.374885   -0.396018
     26          6           0        0.232760    3.237819   -0.287041
     27          1           0        0.278024    4.314545   -0.228332
     28          6           0       -3.315300    0.017895   -0.648294
     29          1           0       -4.392877    0.073688   -0.683002
     30          6           0        4.873875   -3.027225   -0.623670
     31          1           0        5.106191   -4.085709   -0.711011
     32          1           0        5.331340   -2.650531    0.291542
     33          1           0        5.328441   -2.505723   -1.466603
     34          6           0        2.465504   -5.199958   -0.827116
     35          1           0        1.923197   -5.530917   -1.712852
     36          1           0        2.021185   -5.687160    0.041433
     37          1           0        3.497740   -5.530357   -0.913690
     38          6           0        5.128906    2.249586   -0.211828
     39          1           0        5.547078    1.544178   -0.928628
     40          1           0        5.553017    2.024941    0.768678
     41          1           0        5.434094    3.254964   -0.494857
     42          6           0        2.952135    4.594243    0.008815
     43          1           0        2.232701    5.228712   -0.495592
     44          6           0        3.945223    5.162773    0.685498
     45          1           0        4.661119    4.586644    1.245583
     46          1           0        4.060373    6.233369    0.723793
     47          6           0       -2.293070    4.905931   -0.807933
     48          1           0       -1.425274    5.290107   -1.341537
     49          1           0       -2.323304    5.380710    0.174077
     50          1           0       -3.191168    5.189189   -1.353330
     51          6           0       -4.644706    2.727101   -1.017900
     52          1           0       -5.146402    1.967978   -1.607071
     53          6           0       -5.349561    3.757309   -0.560555
     54          1           0       -4.914701    4.514580    0.067969
     55          1           0       -6.399298    3.863686   -0.779501
     56          6           0       -4.976625   -2.518526   -0.218906
     57          1           0       -5.457594   -2.161931   -1.130348
     58          1           0       -5.315511   -1.893402    0.607341
     59          1           0       -5.306299   -3.538389   -0.035990
     60          6           0       -2.794374   -4.931391   -0.184249
     61          1           0       -2.439986   -5.465668   -1.066303
     62          1           0       -3.849367   -5.157659   -0.049355
     63          1           0       -2.247595   -5.308115    0.680634
     64          8           0        0.284593   -0.118944   -2.648162
     65          1           0        0.908841   -0.833818   -2.772218
     66          1           0       -0.103455    0.357209   -3.290865
     67          6           0       -1.567594   -0.447856    4.941365
     68          1           0       -2.624262   -0.414715    4.697753
     69          1           0       -1.330767    0.402837    5.579938
     70          1           0       -1.365628   -1.360149    5.501540
     71          7           0        0.599021   -0.511845    3.689217
     72          1           0        1.182601   -0.620986    4.502222
     73          6           0       -0.767168   -0.408119    3.691346
     74          6           0        1.013888   -0.436635    2.404095
     75          1           0        2.038543   -0.488529    2.098120
     76          7           0       -0.006370   -0.292106    1.593136
     77          6           0       -1.121175   -0.271784    2.379477
     78          1           0       -2.095474   -0.161550    1.950264
 ---------------------------------------------------------------------
 Rotational constants (GHZ):           0.0933237           0.0915349           0.0593966
 Standard basis: def2TZVP (5D, 7F)
 There are  1744 symmetry adapted cartesian basis functions of A   symmetry.
 There are  1532 symmetry adapted basis functions of A   symmetry.
  1532 basis functions,  2481 primitive gaussians,  1744 cartesian basis functions
   158 alpha electrons      158 beta electrons
       nuclear repulsion energy      5969.5701617897 Hartrees.
 NAtoms=   78 NActive=   78 NUniq=   78 SFac= 1.00D+00 NAtFMM=   60 NAOKFM=T Big=T
 Integral buffers will be    131072 words long.
 Raffenetti 2 integral format.
 Two-electron integral symmetry is turned on.
 R6APFD:  NTU= -4 IXU= 1 FactS= 1.050
 Nuclear repulsion after empirical dispersion term =     5969.4171086486 Hartrees.
 One-electron integrals computed using PRISM.
   1 Symmetry operations used in ECPInt.
 ECPInt:  NShTT=  186355 NPrTT=  576197 LenC2=  147320 LenP2D=  301504.
 LDataN:  DoStor=T MaxTD1= 6 Len=  172
 Number of processors reduced to  23 by ecpmxn.
 NBasis=  1532 RedAO= T EigKep=  3.17D-06  NBF=  1532
 NBsUse=  1532 1.00D-06 EigRej= -1.00D+00 NBFU=  1532
 ExpMin= 4.20D-02 ExpMax= 3.01D+05 ExpMxC= 2.91D+03 IAcc=3 IRadAn=         5 AccDes= 0.00D+00
 Harris functional with IExCor= 3731 and IRadAn=       5 diagonalized for initial guess.
 HarFok:  IExCor= 3731 AccDes= 0.00D+00 IRadAn=         5 IDoV= 1 UseB2=F ITyADJ=14
 ICtDFT=  3500011 ScaDFX=  1.000000  1.000000  1.000000  1.000000
 FoFCou: FMM=F IPFlag=           0 FMFlag=      100000 FMFlg1=        2001
         NFxFlg=           0 DoJE=T BraDBF=F KetDBF=T FulRan=T
         wScrn=  0.000000 ICntrl=       500 IOpCl=  0 I1Cent=   200000004 NGrid=           0
         NMat0=    1 NMatS0=      1 NMatT0=    0 NMatD0=    1 NMtDS0=    0 NMtDT0=    0
 Petite list used in FoFCou.
 Requested convergence on RMS density matrix=1.00D-08 within 128 cycles.
 Requested convergence on MAX density matrix=1.00D-06.
 Requested convergence on             energy=1.00D-06.
 No special actions if energy rises.
 EnCoef did     3 forward-backward iterations
 EnCoef did   100 forward-backward iterations
 EnCoef did   100 forward-backward iterations
 EnCoef did     6 forward-backward iterations
 EnCoef did     5 forward-backward iterations
 EnCoef did     7 forward-backward iterations
 Restarting incremental Fock formation.
 SCF Done:  E(RAPFD) =  -2984.02443906     A.U. after   27 cycles
            NFock= 27  Conv=0.36D-08     -V/T= 2.0034
 DoSCS=F DFT=T ScalE2(SS,OS)=  1.000000  1.000000
 Range of M.O.s used for correlation:     1  1532
 NBasis=  1532 NAE=   158 NBE=   158 NFC=     0 NFV=     0
 NROrb=   1532 NOA=   158 NOB=   158 NVA=  1374 NVB=  1374

 **** Warning!!: The largest alpha MO coefficient is  0.53100412D+02

          Differentiating once with respect to electric field.
                with respect to dipole field.
          Electric field/nuclear overlap derivatives assumed to be zero.
          There are     3 degrees of freedom in the 1st order CPHF.  IDoFFX=0 NUNeed=     3.
      3 vectors produced by pass  0 Test12= 7.24D-12 3.33D-08 XBig12= 1.85D+03 2.84D+01.
 AX will form     3 AO Fock derivatives at one time.
      3 vectors produced by pass  1 Test12= 7.24D-12 3.33D-08 XBig12= 1.23D+03 9.99D+00.
      3 vectors produced by pass  2 Test12= 7.24D-12 3.33D-08 XBig12= 4.09D+02 6.03D+00.
      3 vectors produced by pass  3 Test12= 7.24D-12 3.33D-08 XBig12= 3.01D+02 3.76D+00.
      3 vectors produced by pass  4 Test12= 7.24D-12 3.33D-08 XBig12= 1.71D+02 2.55D+00.
      3 vectors produced by pass  5 Test12= 7.24D-12 3.33D-08 XBig12= 6.39D+01 1.93D+00.
      3 vectors produced by pass  6 Test12= 7.24D-12 3.33D-08 XBig12= 5.05D+01 1.91D+00.
      3 vectors produced by pass  7 Test12= 7.24D-12 3.33D-08 XBig12= 2.46D+01 1.17D+00.
      3 vectors produced by pass  8 Test12= 7.24D-12 3.33D-08 XBig12= 1.54D+01 7.09D-01.
      3 vectors produced by pass  9 Test12= 7.24D-12 3.33D-08 XBig12= 8.27D+00 5.67D-01.
      3 vectors produced by pass 10 Test12= 7.24D-12 3.33D-08 XBig12= 4.41D+00 2.84D-01.
      3 vectors produced by pass 11 Test12= 7.24D-12 3.33D-08 XBig12= 1.47D+00 1.61D-01.
      3 vectors produced by pass 12 Test12= 7.24D-12 3.33D-08 XBig12= 5.40D-01 1.14D-01.
      3 vectors produced by pass 13 Test12= 7.24D-12 3.33D-08 XBig12= 1.19D-01 3.78D-02.
      3 vectors produced by pass 14 Test12= 7.24D-12 3.33D-08 XBig12= 6.62D-02 4.31D-02.
      3 vectors produced by pass 15 Test12= 7.24D-12 3.33D-08 XBig12= 1.84D-02 4.62D-02.
      3 vectors produced by pass 16 Test12= 7.24D-12 3.33D-08 XBig12= 9.72D-03 3.68D-02.
      3 vectors produced by pass 17 Test12= 7.24D-12 3.33D-08 XBig12= 3.62D-03 1.43D-02.
      3 vectors produced by pass 18 Test12= 7.24D-12 3.33D-08 XBig12= 6.82D-04 3.70D-03.
      3 vectors produced by pass 19 Test12= 7.24D-12 3.33D-08 XBig12= 1.66D-04 3.39D-03.
      3 vectors produced by pass 20 Test12= 7.24D-12 3.33D-08 XBig12= 2.73D-05 1.71D-03.
      3 vectors produced by pass 21 Test12= 7.24D-12 3.33D-08 XBig12= 7.32D-06 9.61D-04.
      3 vectors produced by pass 22 Test12= 7.24D-12 3.33D-08 XBig12= 1.71D-06 4.06D-04.
      3 vectors produced by pass 23 Test12= 7.24D-12 3.33D-08 XBig12= 3.42D-07 1.30D-04.
      3 vectors produced by pass 24 Test12= 7.24D-12 3.33D-08 XBig12= 6.03D-08 3.91D-05.
      3 vectors produced by pass 25 Test12= 7.24D-12 3.33D-08 XBig12= 8.38D-09 1.43D-05.
      3 vectors produced by pass 26 Test12= 7.24D-12 3.33D-08 XBig12= 2.59D-09 7.17D-06.
      3 vectors produced by pass 27 Test12= 7.24D-12 3.33D-08 XBig12= 3.33D-10 2.58D-06.
      3 vectors produced by pass 28 Test12= 7.24D-12 3.33D-08 XBig12= 4.32D-11 1.35D-06.
      3 vectors produced by pass 29 Test12= 7.24D-12 3.33D-08 XBig12= 4.74D-12 5.64D-07.
      3 vectors produced by pass 30 Test12= 7.24D-12 3.33D-08 XBig12= 8.08D-13 2.64D-07.
      2 vectors produced by pass 31 Test12= 7.24D-12 3.33D-08 XBig12= 1.10D-13 1.09D-07.
 InvSVY:  IOpt=1 It=  1 EMax= 2.84D-14
 Solved reduced A of dimension    95 with     3 vectors.
 Isotropic polarizability for W=    0.000000      575.13 Bohr**3.
 End of Minotr F.D. properties file   721 does not exist.
 End of Minotr F.D. properties file   722 does not exist.
 End of Minotr F.D. properties file   788 does not exist.

 **********************************************************************

            Population analysis using the SCF Density.

 **********************************************************************

 Orbital symmetries:
       Occupied  (A) (A) (A) (A) (A) (A) (A) (A) (A) (A) (A) (A)
                 (A) (A) (A) (A) (A) (A) (A) (A) (A) (A) (A) (A)
                 (A) (A) (A) (A) (A) (A) (A) (A) (A) (A) (A) (A)
                 (A) (A) (A) (A) (A) (A) (A) (A) (A) (A) (A) (A)
                 (A) (A) (A) (A) (A) (A) (A) (A) (A) (A) (A) (A)
                 (A) (A) (A) (A) (A) (A) (A) (A) (A) (A) (A) (A)
                 (A) (A) (A) (A) (A) (A) (A) (A) (A) (A) (A) (A)
                 (A) (A) (A) (A) (A) (A) (A) (A) (A) (A) (A) (A)
                 (A) (A) (A) (A) (A) (A) (A) (A) (A) (A) (A) (A)
                 (A) (A) (A) (A) (A) (A) (A) (A) (A) (A) (A) (A)
                 (A) (A) (A) (A) (A) (A) (A) (A) (A) (A) (A) (A)
                 (A) (A) (A) (A) (A) (A) (A) (A) (A) (A) (A) (A)
                 (A) (A) (A) (A) (A) (A) (A) (A) (A) (A) (A) (A)
                 (A) (A)
       Virtual   (A) (A) (A) (A) (A) (A) (A) (A) (A) (A) (A) (A)
                 (A) (A) (A) (A) (A) (A) (A) (A) (A) (A) (A) (A)
                 (A) (A) (A) (A) (A) (A) (A) (A) (A) (A) (A) (A)
                 (A) (A) (A) (A) (A) (A) (A) (A) (A) (A) (A) (A)
                 (A) (A) (A) (A) (A) (A) (A) (A) (A) (A) (A) (A)
                 (A) (A) (A) (A) (A) (A) (A) (A) (A) (A) (A) (A)
                 (A) (A) (A) (A) (A) (A) (A) (A) (A) (A) (A) (A)
                 (A) (A) (A) (A) (A) (A) (A) (A) (A) (A) (A) (A)
                 (A) (A) (A) (A) (A) (A) (A) (A) (A) (A) (A) (A)
                 (A) (A) (A) (A) (A) (A) (A) (A) (A) (A) (A) (A)
                 (A) (A) (A) (A) (A) (A) (A) (A) (A) (A) (A) (A)
                 (A) (A) (A) (A) (A) (A) (A) (A) (A) (A) (A) (A)
                 (A) (A) (A) (A) (A) (A) (A) (A) (A) (A) (A) (A)
                 (A) (A) (A) (A) (A) (A) (A) (A) (A) (A) (A) (A)
                 (A) (A) (A) (A) (A) (A) (A) (A) (A) (A) (A) (A)
                 (A) (A) (A) (A) (A) (A) (A) (A) (A) (A) (A) (A)
                 (A) (A) (A) (A) (A) (A) (A) (A) (A) (A) (A) (A)
                 (A) (A) (A) (A) (A) (A) (A) (A) (A) (A) (A) (A)
                 (A) (A) (A) (A) (A) (A) (A) (A) (A) (A) (A) (A)
                 (A) (A) (A) (A) (A) (A) (A) (A) (A) (A) (A) (A)
                 (A) (A) (A) (A) (A) (A) (A) (A) (A) (A) (A) (A)
                 (A) (A) (A) (A) (A) (A) (A) (A) (A) (A) (A) (A)
                 (A) (A) (A) (A) (A) (A) (A) (A) (A) (A) (A) (A)
                 (A) (A) (A) (A) (A) (A) (A) (A) (A) (A) (A) (A)
                 (A) (A) (A) (A) (A) (A) (A) (A) (A) (A) (A) (A)
                 (A) (A) (A) (A) (A) (A) (A) (A) (A) (A) (A) (A)
                 (A) (A) (A) (A) (A) (A) (A) (A) (A) (A) (A) (A)
                 (A) (A) (A) (A) (A) (A) (A) (A) (A) (A) (A) (A)
                 (A) (A) (A) (A) (A) (A) (A) (A) (A) (A) (A) (A)
                 (A) (A) (A) (A) (A) (A) (A) (A) (A) (A) (A) (A)
                 (A) (A) (A) (A) (A) (A) (A) (A) (A) (A) (A) (A)
                 (A) (A) (A) (A) (A) (A) (A) (A) (A) (A) (A) (A)
                 (A) (A) (A) (A) (A) (A) (A) (A) (A) (A) (A) (A)
                 (A) (A) (A) (A) (A) (A) (A) (A) (A) (A) (A) (A)
                 (A) (A) (A) (A) (A) (A) (A) (A) (A) (A) (A) (A)
                 (A) (A) (A) (A) (A) (A) (A) (A) (A) (A) (A) (A)
                 (A) (A) (A) (A) (A) (A) (A) (A) (A) (A) (A) (A)
                 (A) (A) (A) (A) (A) (A) (A) (A) (A) (A) (A) (A)
                 (A) (A) (A) (A) (A) (A) (A) (A) (A) (A) (A) (A)
                 (A) (A) (A) (A) (A) (A) (A) (A) (A) (A) (A) (A)
                 (A) (A) (A) (A) (A) (A) (A) (A) (A) (A) (A) (A)
                 (A) (A) (A) (A) (A) (A) (A) (A) (A) (A) (A) (A)
                 (A) (A) (A) (A) (A) (A) (A) (A) (A) (A) (A) (A)
                 (A) (A) (A) (A) (A) (A) (A) (A) (A) (A) (A) (A)
                 (A) (A) (A) (A) (A) (A) (A) (A) (A) (A) (A) (A)
                 (A) (A) (A) (A) (A) (A) (A) (A) (A) (A) (A) (A)
                 (A) (A) (A) (A) (A) (A) (A) (A) (A) (A) (A) (A)
                 (A) (A) (A) (A) (A) (A) (A) (A) (A) (A) (A) (A)
                 (A) (A) (A) (A) (A) (A) (A) (A) (A) (A) (A) (A)
                 (A) (A) (A) (A) (A) (A) (A) (A) (A) (A) (A) (A)
                 (A) (A) (A) (A) (A) (A) (A) (A) (A) (A) (A) (A)
                 (A) (A) (A) (A) (A) (A) (A) (A) (A) (A) (A) (A)
                 (A) (A) (A) (A) (A) (A) (A) (A) (A) (A) (A) (A)
                 (A) (A) (A) (A) (A) (A) (A) (A) (A) (A) (A) (A)
                 (A) (A) (A) (A) (A) (A) (A) (A) (A) (A) (A) (A)
                 (A) (A) (A) (A) (A) (A) (A) (A) (A) (A) (A) (A)
                 (A) (A) (A) (A) (A) (A) (A) (A) (A) (A) (A) (A)
                 (A) (A) (A) (A) (A) (A) (A) (A) (A) (A) (A) (A)
                 (A) (A) (A) (A) (A) (A) (A) (A) (A) (A) (A) (A)
                 (A) (A) (A) (A) (A) (A) (A) (A) (A) (A) (A) (A)
                 (A) (A) (A) (A) (A) (A) (A) (A) (A) (A) (A) (A)
                 (A) (A) (A) (A) (A) (A) (A) (A) (A) (A) (A) (A)
                 (A) (A) (A) (A) (A) (A) (A) (A) (A) (A) (A) (A)
                 (A) (A) (A) (A) (A) (A) (A) (A) (A) (A) (A) (A)
                 (A) (A) (A) (A) (A) (A) (A) (A) (A) (A) (A) (A)
                 (A) (A) (A) (A) (A) (A) (A) (A) (A) (A) (A) (A)
                 (A) (A) (A) (A) (A) (A) (A) (A) (A) (A) (A) (A)
                 (A) (A) (A) (A) (A) (A) (A) (A) (A) (A) (A) (A)
                 (A) (A) (A) (A) (A) (A) (A) (A) (A) (A) (A) (A)
                 (A) (A) (A) (A) (A) (A) (A) (A) (A) (A) (A) (A)
                 (A) (A) (A) (A) (A) (A) (A) (A) (A) (A) (A) (A)
                 (A) (A) (A) (A) (A) (A) (A) (A) (A) (A) (A) (A)
                 (A) (A) (A) (A) (A) (A) (A) (A) (A) (A) (A) (A)
                 (A) (A) (A) (A) (A) (A) (A) (A) (A) (A) (A) (A)
                 (A) (A) (A) (A) (A) (A) (A) (A) (A) (A) (A) (A)
                 (A) (A) (A) (A) (A) (A) (A) (A) (A) (A) (A) (A)
                 (A) (A) (A) (A) (A) (A) (A) (A) (A) (A) (A) (A)
                 (A) (A) (A) (A) (A) (A) (A) (A) (A) (A) (A) (A)
                 (A) (A) (A) (A) (A) (A) (A) (A) (A) (A) (A) (A)
                 (A) (A) (A) (A) (A) (A) (A) (A) (A) (A) (A) (A)
                 (A) (A) (A) (A) (A) (A) (A) (A) (A) (A) (A) (A)
                 (A) (A) (A) (A) (A) (A) (A) (A) (A) (A) (A) (A)
                 (A) (A) (A) (A) (A) (A) (A) (A) (A) (A) (A) (A)
                 (A) (A) (A) (A) (A) (A) (A) (A) (A) (A) (A) (A)
                 (A) (A) (A) (A) (A) (A) (A) (A) (A) (A) (A) (A)
                 (A) (A) (A) (A) (A) (A) (A) (A) (A) (A) (A) (A)
                 (A) (A) (A) (A) (A) (A) (A) (A) (A) (A) (A) (A)
                 (A) (A) (A) (A) (A) (A) (A) (A) (A) (A) (A) (A)
                 (A) (A) (A) (A) (A) (A) (A) (A) (A) (A) (A) (A)
                 (A) (A) (A) (A) (A) (A) (A) (A) (A) (A) (A) (A)
                 (A) (A) (A) (A) (A) (A) (A) (A) (A) (A) (A) (A)
                 (A) (A) (A) (A) (A) (A) (A) (A) (A) (A) (A) (A)
                 (A) (A) (A) (A) (A) (A) (A) (A) (A) (A) (A) (A)
                 (A) (A) (A) (A) (A) (A) (A) (A) (A) (A) (A) (A)
                 (A) (A) (A) (A) (A) (A) (A) (A) (A) (A) (A) (A)
                 (A) (A) (A) (A) (A) (A) (A) (A) (A) (A) (A) (A)
                 (A) (A) (A) (A) (A) (A) (A) (A) (A) (A) (A) (A)
                 (A) (A) (A) (A) (A) (A) (A) (A) (A) (A) (A) (A)
                 (A) (A) (A) (A) (A) (A) (A) (A) (A) (A) (A) (A)
                 (A) (A) (A) (A) (A) (A) (A) (A) (A) (A) (A) (A)
                 (A) (A) (A) (A) (A) (A) (A) (A) (A) (A) (A) (A)
                 (A) (A) (A) (A) (A) (A) (A) (A) (A) (A) (A) (A)
                 (A) (A) (A) (A) (A) (A) (A) (A) (A) (A) (A) (A)
                 (A) (A) (A) (A) (A) (A) (A) (A) (A) (A) (A) (A)
                 (A) (A) (A) (A) (A) (A) (A) (A) (A) (A) (A) (A)
                 (A) (A) (A) (A) (A) (A) (A) (A) (A) (A) (A) (A)
                 (A) (A) (A) (A) (A) (A) (A) (A) (A) (A) (A) (A)
                 (A) (A) (A) (A) (A) (A) (A) (A) (A) (A) (A) (A)
                 (A) (A) (A) (A) (A) (A) (A) (A) (A) (A) (A) (A)
                 (A) (A) (A) (A) (A) (A) (A) (A) (A) (A) (A) (A)
                 (A) (A) (A) (A) (A) (A) (A) (A) (A) (A) (A) (A)
                 (A) (A) (A) (A) (A) (A) (A) (A) (A) (A) (A) (A)
                 (A) (A) (A) (A) (A) (A) (A) (A) (A) (A) (A) (A)
                 (A) (A) (A) (A) (A) (A) (A) (A) (A) (A) (A) (A)
                 (A) (A) (A) (A) (A) (A)
 The electronic state is 1-A.
 Alpha  occ. eigenvalues -- -256.17497 -30.02470 -25.86639 -25.86249 -25.86197
 Alpha  occ. eigenvalues --  -19.16587 -14.41724 -14.36486 -14.33233 -14.33114
 Alpha  occ. eigenvalues --  -14.33046 -14.32658 -10.25426 -10.23712 -10.21076
 Alpha  occ. eigenvalues --  -10.20823 -10.20800 -10.20736 -10.20732 -10.20721
 Alpha  occ. eigenvalues --  -10.20699 -10.20513 -10.20454 -10.20403 -10.19418
 Alpha  occ. eigenvalues --  -10.19386 -10.18808 -10.18804 -10.18736 -10.18723
 Alpha  occ. eigenvalues --  -10.18706 -10.18635 -10.18469 -10.18459 -10.18389
 Alpha  occ. eigenvalues --  -10.18368 -10.18337 -10.18322 -10.18290 -10.18229
 Alpha  occ. eigenvalues --  -10.18157 -10.18128 -10.18117 -10.18112 -10.17992
 Alpha  occ. eigenvalues --  -10.17966  -3.40071  -2.16715  -2.15948  -2.15847
 Alpha  occ. eigenvalues --   -1.05319  -1.04471  -0.96713  -0.95852  -0.95644
 Alpha  occ. eigenvalues --   -0.94763  -0.90928  -0.82047  -0.81653  -0.81355
 Alpha  occ. eigenvalues --   -0.80648  -0.80282  -0.80190  -0.79398  -0.79317
 Alpha  occ. eigenvalues --   -0.76562  -0.75487  -0.74173  -0.73756  -0.73058
 Alpha  occ. eigenvalues --   -0.71830  -0.70787  -0.69918  -0.68200  -0.67750
 Alpha  occ. eigenvalues --   -0.67645  -0.64559  -0.63962  -0.63868  -0.61291
 Alpha  occ. eigenvalues --   -0.60447  -0.60077  -0.59806  -0.57629  -0.56422
 Alpha  occ. eigenvalues --   -0.55923  -0.54359  -0.53462  -0.53102  -0.52409
 Alpha  occ. eigenvalues --   -0.50934  -0.50839  -0.50349  -0.48608  -0.47796
 Alpha  occ. eigenvalues --   -0.47701  -0.47483  -0.47103  -0.44850  -0.44624
 Alpha  occ. eigenvalues --   -0.44443  -0.44335  -0.44013  -0.43430  -0.43305
 Alpha  occ. eigenvalues --   -0.43282  -0.43115  -0.42942  -0.42757  -0.42477
 Alpha  occ. eigenvalues --   -0.42430  -0.42238  -0.41704  -0.41567  -0.41500
 Alpha  occ. eigenvalues --   -0.41192  -0.40740  -0.40120  -0.40053  -0.39927
 Alpha  occ. eigenvalues --   -0.39422  -0.39219  -0.39091  -0.38819  -0.38445
 Alpha  occ. eigenvalues --   -0.38158  -0.37662  -0.37375  -0.37004  -0.36817
 Alpha  occ. eigenvalues --   -0.36219  -0.35813  -0.35348  -0.35185  -0.34280
 Alpha  occ. eigenvalues --   -0.33963  -0.33750  -0.33540  -0.33409  -0.31782
 Alpha  occ. eigenvalues --   -0.31636  -0.30574  -0.30258  -0.29534  -0.28739
 Alpha  occ. eigenvalues --   -0.28572  -0.26558  -0.26448  -0.24397  -0.23711
 Alpha  occ. eigenvalues --   -0.23200  -0.22469  -0.21839  -0.19090  -0.18302
 Alpha  occ. eigenvalues --   -0.17803  -0.17660  -0.17534
 Alpha virt. eigenvalues --   -0.06381  -0.06299  -0.01879   0.00742   0.01266
 Alpha virt. eigenvalues --    0.01515   0.02432   0.02979   0.03734   0.04636
 Alpha virt. eigenvalues --    0.04909   0.05055   0.05413   0.05832   0.06109
 Alpha virt. eigenvalues --    0.06308   0.06557   0.07112   0.08026   0.08204
 Alpha virt. eigenvalues --    0.08400   0.08897   0.09238   0.09467   0.09797
 Alpha virt. eigenvalues --    0.09938   0.10221   0.10617   0.11298   0.11551
 Alpha virt. eigenvalues --    0.11662   0.11897   0.11928   0.12273   0.12349
 Alpha virt. eigenvalues --    0.12554   0.12973   0.13309   0.13500   0.13615
 Alpha virt. eigenvalues --    0.13739   0.14419   0.14434   0.14649   0.14759
 Alpha virt. eigenvalues --    0.14998   0.15036   0.15391   0.15525   0.15719
 Alpha virt. eigenvalues --    0.15970   0.16118   0.16221   0.16388   0.16676
 Alpha virt. eigenvalues --    0.17099   0.17330   0.17445   0.17777   0.18003
 Alpha virt. eigenvalues --    0.18278   0.18785   0.19332   0.19496   0.19824
 Alpha virt. eigenvalues --    0.20155   0.20208   0.20504   0.20624   0.21011
 Alpha virt. eigenvalues --    0.21173   0.21402   0.21793   0.21883   0.22325
 Alpha virt. eigenvalues --    0.22548   0.22847   0.23318   0.23408   0.23998
 Alpha virt. eigenvalues --    0.24336   0.24543   0.25025   0.25329   0.25503
 Alpha virt. eigenvalues --    0.25801   0.26047   0.26446   0.26557   0.26962
 Alpha virt. eigenvalues --    0.27207   0.27347   0.27552   0.27904   0.28246
 Alpha virt. eigenvalues --    0.28312   0.28805   0.29092   0.29207   0.29530
 Alpha virt. eigenvalues --    0.29614   0.30128   0.30338   0.30521   0.30673
 Alpha virt. eigenvalues --    0.31020   0.31343   0.31478   0.31662   0.32160
 Alpha virt. eigenvalues --    0.32376   0.32472   0.32874   0.33273   0.33597
 Alpha virt. eigenvalues --    0.33750   0.34088   0.34676   0.34728   0.35133
 Alpha virt. eigenvalues --    0.35411   0.35457   0.35920   0.36219   0.36327
 Alpha virt. eigenvalues --    0.36787   0.36991   0.37191   0.37515   0.37606
 Alpha virt. eigenvalues --    0.37824   0.38066   0.38538   0.38660   0.38822
 Alpha virt. eigenvalues --    0.39299   0.39616   0.39724   0.39925   0.40167
 Alpha virt. eigenvalues --    0.40389   0.40558   0.40725   0.40927   0.41254
 Alpha virt. eigenvalues --    0.41512   0.41634   0.41871   0.42169   0.42241
 Alpha virt. eigenvalues --    0.42292   0.42525   0.42747   0.43271   0.43480
 Alpha virt. eigenvalues --    0.43551   0.43766   0.44017   0.44051   0.44178
 Alpha virt. eigenvalues --    0.44734   0.44937   0.45157   0.45260   0.45711
 Alpha virt. eigenvalues --    0.45944   0.46117   0.46497   0.46767   0.46940
 Alpha virt. eigenvalues --    0.47080   0.47227   0.47364   0.47536   0.47752
 Alpha virt. eigenvalues --    0.48058   0.48216   0.48319   0.48713   0.48867
 Alpha virt. eigenvalues --    0.49234   0.49317   0.49538   0.49622   0.49881
 Alpha virt. eigenvalues --    0.50068   0.50458   0.50700   0.50888   0.51073
 Alpha virt. eigenvalues --    0.51091   0.51557   0.51692   0.51842   0.52157
 Alpha virt. eigenvalues --    0.52578   0.52629   0.52751   0.53023   0.53143
 Alpha virt. eigenvalues --    0.53678   0.53830   0.54175   0.54316   0.54637
 Alpha virt. eigenvalues --    0.54722   0.55101   0.55694   0.55867   0.56148
 Alpha virt. eigenvalues --    0.56244   0.56451   0.56680   0.57068   0.57304
 Alpha virt. eigenvalues --    0.57665   0.57856   0.58125   0.58334   0.58620
 Alpha virt. eigenvalues --    0.58666   0.59167   0.59466   0.59549   0.60053
 Alpha virt. eigenvalues --    0.60432   0.60926   0.61507   0.61686   0.62154
 Alpha virt. eigenvalues --    0.62354   0.62545   0.62608   0.63001   0.63324
 Alpha virt. eigenvalues --    0.63580   0.63839   0.64384   0.64727   0.64869
 Alpha virt. eigenvalues --    0.65133   0.65335   0.65891   0.66174   0.66430
 Alpha virt. eigenvalues --    0.66471   0.66665   0.66965   0.67133   0.67612
 Alpha virt. eigenvalues --    0.67841   0.68221   0.68761   0.68918   0.69686
 Alpha virt. eigenvalues --    0.69918   0.70178   0.70698   0.70956   0.71276
 Alpha virt. eigenvalues --    0.71483   0.71722   0.71897   0.72406   0.72642
 Alpha virt. eigenvalues --    0.72960   0.73625   0.73792   0.74001   0.74258
 Alpha virt. eigenvalues --    0.74594   0.74934   0.75355   0.75538   0.75912
 Alpha virt. eigenvalues --    0.76222   0.76912   0.77023   0.77373   0.77499
 Alpha virt. eigenvalues --    0.77808   0.78007   0.78439   0.78857   0.78912
 Alpha virt. eigenvalues --    0.79920   0.79969   0.80210   0.80266   0.80514
 Alpha virt. eigenvalues --    0.81004   0.81170   0.81678   0.81825   0.82618
 Alpha virt. eigenvalues --    0.83068   0.83452   0.83972   0.84454   0.84634
 Alpha virt. eigenvalues --    0.85110   0.85638   0.86064   0.86533   0.86723
 Alpha virt. eigenvalues --    0.87069   0.87450   0.87901   0.88251   0.88667
 Alpha virt. eigenvalues --    0.88941   0.89223   0.89647   0.90439   0.90855
 Alpha virt. eigenvalues --    0.91077   0.91526   0.91673   0.92029   0.92426
 Alpha virt. eigenvalues --    0.92721   0.93137   0.93440   0.93720   0.94650
 Alpha virt. eigenvalues --    0.94864   0.95325   0.95613   0.95882   0.96188
 Alpha virt. eigenvalues --    0.96489   0.97135   0.97341   0.97585   0.97770
 Alpha virt. eigenvalues --    0.98444   0.98874   0.99079   0.99126   0.99431
 Alpha virt. eigenvalues --    1.00151   1.00441   1.00612   1.00962   1.01532
 Alpha virt. eigenvalues --    1.01981   1.02078   1.02455   1.02714   1.02929
 Alpha virt. eigenvalues --    1.03015   1.03211   1.03518   1.03824   1.04198
 Alpha virt. eigenvalues --    1.04366   1.04978   1.05187   1.05601   1.05799
 Alpha virt. eigenvalues --    1.06332   1.06524   1.07008   1.07459   1.08206
 Alpha virt. eigenvalues --    1.08532   1.08976   1.09125   1.09626   1.09716
 Alpha virt. eigenvalues --    1.10010   1.10393   1.11477   1.11835   1.12213
 Alpha virt. eigenvalues --    1.12708   1.13266   1.13499   1.13850   1.14094
 Alpha virt. eigenvalues --    1.14665   1.15240   1.16126   1.16495   1.16680
 Alpha virt. eigenvalues --    1.16831   1.17468   1.17871   1.18419   1.18690
 Alpha virt. eigenvalues --    1.19110   1.19443   1.19685   1.20212   1.20326
 Alpha virt. eigenvalues --    1.20601   1.21206   1.21510   1.21786   1.22550
 Alpha virt. eigenvalues --    1.22751   1.23223   1.23698   1.23943   1.24596
 Alpha virt. eigenvalues --    1.24769   1.25240   1.25843   1.26601   1.26987
 Alpha virt. eigenvalues --    1.27291   1.27622   1.27958   1.28511   1.29061
 Alpha virt. eigenvalues --    1.29197   1.29601   1.29751   1.30118   1.30699
 Alpha virt. eigenvalues --    1.30788   1.31137   1.31508   1.31791   1.32237
 Alpha virt. eigenvalues --    1.32520   1.33194   1.33472   1.34321   1.34527
 Alpha virt. eigenvalues --    1.35329   1.36341   1.36733   1.37182   1.37640
 Alpha virt. eigenvalues --    1.38256   1.38510   1.39390   1.39936   1.40364
 Alpha virt. eigenvalues --    1.41308   1.41845   1.42297   1.42750   1.43187
 Alpha virt. eigenvalues --    1.43610   1.44458   1.44776   1.45214   1.45629
 Alpha virt. eigenvalues --    1.45797   1.46505   1.47097   1.47290   1.47802
 Alpha virt. eigenvalues --    1.48009   1.48266   1.48620   1.48769   1.49158
 Alpha virt. eigenvalues --    1.49473   1.49967   1.50182   1.50483   1.50853
 Alpha virt. eigenvalues --    1.50881   1.51298   1.51722   1.51997   1.52201
 Alpha virt. eigenvalues --    1.52401   1.52485   1.52821   1.53116   1.53281
 Alpha virt. eigenvalues --    1.53505   1.54075   1.54422   1.54871   1.54991
 Alpha virt. eigenvalues --    1.55260   1.55347   1.55450   1.55851   1.56190
 Alpha virt. eigenvalues --    1.56361   1.56447   1.56694   1.56866   1.57275
 Alpha virt. eigenvalues --    1.57796   1.58108   1.58332   1.58578   1.58806
 Alpha virt. eigenvalues --    1.59064   1.59271   1.59533   1.59787   1.60230
 Alpha virt. eigenvalues --    1.60502   1.61401   1.61662   1.62252   1.62421
 Alpha virt. eigenvalues --    1.62522   1.62760   1.63000   1.63240   1.63379
 Alpha virt. eigenvalues --    1.64012   1.64055   1.64298   1.64471   1.65086
 Alpha virt. eigenvalues --    1.65313   1.65714   1.66091   1.66235   1.66570
 Alpha virt. eigenvalues --    1.66702   1.67146   1.67901   1.68577   1.68752
 Alpha virt. eigenvalues --    1.68837   1.69437   1.69590   1.69874   1.70495
 Alpha virt. eigenvalues --    1.70802   1.70970   1.71110   1.71658   1.71920
 Alpha virt. eigenvalues --    1.72614   1.73201   1.73338   1.73555   1.74022
 Alpha virt. eigenvalues --    1.74702   1.74906   1.75541   1.76075   1.76770
 Alpha virt. eigenvalues --    1.77301   1.77856   1.78649   1.78720   1.79846
 Alpha virt. eigenvalues --    1.80267   1.81053   1.81352   1.81716   1.82048
 Alpha virt. eigenvalues --    1.83038   1.83162   1.83372   1.84421   1.84502
 Alpha virt. eigenvalues --    1.84980   1.85613   1.85781   1.86035   1.86420
 Alpha virt. eigenvalues --    1.86640   1.87254   1.87410   1.87670   1.88295
 Alpha virt. eigenvalues --    1.88404   1.88781   1.89482   1.89885   1.91015
 Alpha virt. eigenvalues --    1.91264   1.91343   1.91832   1.92574   1.93338
 Alpha virt. eigenvalues --    1.93630   1.94035   1.94515   1.95136   1.95381
 Alpha virt. eigenvalues --    1.95866   1.96770   1.96934   1.97403   1.97723
 Alpha virt. eigenvalues --    1.98671   1.99052   1.99275   1.99632   2.00024
 Alpha virt. eigenvalues --    2.00218   2.00646   2.01224   2.01522   2.01829
 Alpha virt. eigenvalues --    2.02603   2.02924   2.03305   2.03915   2.04580
 Alpha virt. eigenvalues --    2.04974   2.05518   2.05715   2.06588   2.06870
 Alpha virt. eigenvalues --    2.07524   2.08131   2.08720   2.09135   2.09573
 Alpha virt. eigenvalues --    2.09689   2.10144   2.10259   2.11131   2.11552
 Alpha virt. eigenvalues --    2.11776   2.12420   2.12872   2.13284   2.13992
 Alpha virt. eigenvalues --    2.14186   2.14619   2.15193   2.15564   2.16140
 Alpha virt. eigenvalues --    2.16267   2.16962   2.17162   2.18283   2.18485
 Alpha virt. eigenvalues --    2.18673   2.19154   2.19704   2.19960   2.20168
 Alpha virt. eigenvalues --    2.20805   2.21582   2.21633   2.21947   2.22337
 Alpha virt. eigenvalues --    2.22845   2.24142   2.24394   2.24503   2.25349
 Alpha virt. eigenvalues --    2.25638   2.25837   2.27119   2.27516   2.27993
 Alpha virt. eigenvalues --    2.28481   2.28768   2.29188   2.29550   2.29936
 Alpha virt. eigenvalues --    2.30598   2.31064   2.31378   2.31493   2.31608
 Alpha virt. eigenvalues --    2.32370   2.32553   2.33002   2.33905   2.34241
 Alpha virt. eigenvalues --    2.34931   2.35417   2.35516   2.35756   2.36017
 Alpha virt. eigenvalues --    2.36405   2.36746   2.37020   2.37503   2.37748
 Alpha virt. eigenvalues --    2.38261   2.38605   2.39369   2.39773   2.40094
 Alpha virt. eigenvalues --    2.40652   2.40724   2.41838   2.42463   2.42680
 Alpha virt. eigenvalues --    2.42936   2.44018   2.44193   2.44536   2.44862
 Alpha virt. eigenvalues --    2.45457   2.45801   2.46006   2.46732   2.46947
 Alpha virt. eigenvalues --    2.47267   2.47645   2.47936   2.48147   2.49232
 Alpha virt. eigenvalues --    2.49429   2.49713   2.50442   2.51043   2.51376
 Alpha virt. eigenvalues --    2.51808   2.52475   2.52605   2.52826   2.53138
 Alpha virt. eigenvalues --    2.53470   2.54445   2.54664   2.55118   2.55554
 Alpha virt. eigenvalues --    2.56069   2.56402   2.56831   2.57136   2.57423
 Alpha virt. eigenvalues --    2.57710   2.58182   2.58292   2.58660   2.59576
 Alpha virt. eigenvalues --    2.59836   2.59970   2.60456   2.60982   2.61128
 Alpha virt. eigenvalues --    2.61332   2.61627   2.62084   2.62260   2.63007
 Alpha virt. eigenvalues --    2.63426   2.63768   2.64280   2.64861   2.65299
 Alpha virt. eigenvalues --    2.65560   2.65619   2.66163   2.66489   2.67029
 Alpha virt. eigenvalues --    2.67596   2.68015   2.68367   2.68752   2.69035
 Alpha virt. eigenvalues --    2.69225   2.70018   2.70258   2.70665   2.71093
 Alpha virt. eigenvalues --    2.71439   2.71852   2.72379   2.72648   2.73002
 Alpha virt. eigenvalues --    2.73291   2.73534   2.74524   2.74678   2.75413
 Alpha virt. eigenvalues --    2.75709   2.76034   2.76605   2.76787   2.77747
 Alpha virt. eigenvalues --    2.78003   2.78524   2.78867   2.79325   2.79571
 Alpha virt. eigenvalues --    2.80525   2.80649   2.80879   2.81251   2.81751
 Alpha virt. eigenvalues --    2.82330   2.82781   2.83151   2.83681   2.84009
 Alpha virt. eigenvalues --    2.84205   2.84508   2.84985   2.85367   2.85920
 Alpha virt. eigenvalues --    2.86376   2.86610   2.87361   2.87484   2.88009
 Alpha virt. eigenvalues --    2.88229   2.88604   2.89145   2.89797   2.90074
 Alpha virt. eigenvalues --    2.90155   2.90507   2.90886   2.91021   2.92012
 Alpha virt. eigenvalues --    2.92347   2.92696   2.92921   2.93281   2.93975
 Alpha virt. eigenvalues --    2.94232   2.94386   2.94525   2.95019   2.95543
 Alpha virt. eigenvalues --    2.95744   2.96520   2.96774   2.97203   2.97450
 Alpha virt. eigenvalues --    2.97661   2.98012   2.98063   2.98755   2.98923
 Alpha virt. eigenvalues --    2.99667   2.99779   3.00152   3.00480   3.00824
 Alpha virt. eigenvalues --    3.01038   3.01816   3.02229   3.02310   3.02980
 Alpha virt. eigenvalues --    3.03304   3.03729   3.04219   3.04621   3.05170
 Alpha virt. eigenvalues --    3.05558   3.06144   3.06324   3.06822   3.07028
 Alpha virt. eigenvalues --    3.07237   3.07398   3.07801   3.08016   3.08392
 Alpha virt. eigenvalues --    3.08637   3.09155   3.09418   3.10039   3.10416
 Alpha virt. eigenvalues --    3.10766   3.11047   3.11365   3.11588   3.11985
 Alpha virt. eigenvalues --    3.12328   3.12942   3.13034   3.13351   3.13908
 Alpha virt. eigenvalues --    3.14152   3.14394   3.14731   3.15061   3.15240
 Alpha virt. eigenvalues --    3.15633   3.16296   3.16424   3.16812   3.17213
 Alpha virt. eigenvalues --    3.17676   3.17869   3.17976   3.18479   3.18890
 Alpha virt. eigenvalues --    3.19043   3.19507   3.20390   3.20468   3.20656
 Alpha virt. eigenvalues --    3.20876   3.21164   3.21471   3.21485   3.21882
 Alpha virt. eigenvalues --    3.22426   3.22657   3.22897   3.23083   3.23695
 Alpha virt. eigenvalues --    3.23975   3.24451   3.24785   3.25090   3.25384
 Alpha virt. eigenvalues --    3.25720   3.25781   3.25963   3.26226   3.26541
 Alpha virt. eigenvalues --    3.26716   3.26955   3.27411   3.27525   3.28090
 Alpha virt. eigenvalues --    3.28177   3.28677   3.28916   3.29411   3.29603
 Alpha virt. eigenvalues --    3.29628   3.29916   3.30158   3.30733   3.30841
 Alpha virt. eigenvalues --    3.30985   3.31476   3.31657   3.31863   3.32035
 Alpha virt. eigenvalues --    3.32682   3.33183   3.33380   3.33507   3.33675
 Alpha virt. eigenvalues --    3.34293   3.34522   3.34586   3.35275   3.35364
 Alpha virt. eigenvalues --    3.35727   3.35920   3.36314   3.36487   3.36815
 Alpha virt. eigenvalues --    3.37064   3.37223   3.37294   3.37943   3.38141
 Alpha virt. eigenvalues --    3.38654   3.38865   3.38898   3.39294   3.39640
 Alpha virt. eigenvalues --    3.39729   3.40250   3.40335   3.40926   3.41221
 Alpha virt. eigenvalues --    3.41835   3.41980   3.42272   3.42863   3.43247
 Alpha virt. eigenvalues --    3.43432   3.44361   3.44510   3.44783   3.44873
 Alpha virt. eigenvalues --    3.45567   3.45740   3.46282   3.46617   3.47112
 Alpha virt. eigenvalues --    3.47789   3.47904   3.48164   3.48469   3.48928
 Alpha virt. eigenvalues --    3.49316   3.50217   3.50696   3.50776   3.52074
 Alpha virt. eigenvalues --    3.52276   3.53028   3.53169   3.53945   3.54278
 Alpha virt. eigenvalues --    3.54578   3.55234   3.55334   3.55751   3.55986
 Alpha virt. eigenvalues --    3.56520   3.56894   3.57420   3.58134   3.58357
 Alpha virt. eigenvalues --    3.58565   3.59096   3.59539   3.59850   3.60944
 Alpha virt. eigenvalues --    3.61109   3.61465   3.61764   3.62936   3.63069
 Alpha virt. eigenvalues --    3.63679   3.64311   3.64974   3.65406   3.65781
 Alpha virt. eigenvalues --    3.65863   3.66247   3.66503   3.66825   3.67788
 Alpha virt. eigenvalues --    3.68392   3.68639   3.69416   3.70076   3.70478
 Alpha virt. eigenvalues --    3.70677   3.70907   3.71358   3.71583   3.71754
 Alpha virt. eigenvalues --    3.72141   3.72749   3.73353   3.73602   3.74139
 Alpha virt. eigenvalues --    3.74563   3.74841   3.75184   3.75324   3.75761
 Alpha virt. eigenvalues --    3.76060   3.76428   3.77397   3.77978   3.78266
 Alpha virt. eigenvalues --    3.79536   3.79888   3.80199   3.80868   3.81118
 Alpha virt. eigenvalues --    3.81358   3.82170   3.82349   3.83459   3.84018
 Alpha virt. eigenvalues --    3.84699   3.85537   3.86022   3.86428   3.87097
 Alpha virt. eigenvalues --    3.87508   3.87777   3.88902   3.89955   3.90372
 Alpha virt. eigenvalues --    3.90822   3.91234   3.91458   3.91950   3.92150
 Alpha virt. eigenvalues --    3.92422   3.93078   3.93914   3.94800   3.95334
 Alpha virt. eigenvalues --    3.96794   3.96918   3.97792   3.98492   3.99114
 Alpha virt. eigenvalues --    3.99573   3.99969   4.00190   4.00802   4.01317
 Alpha virt. eigenvalues --    4.01747   4.02008   4.03715   4.04278   4.04543
 Alpha virt. eigenvalues --    4.05069   4.05796   4.05945   4.06183   4.06527
 Alpha virt. eigenvalues --    4.07332   4.08840   4.09178   4.10051   4.10925
 Alpha virt. eigenvalues --    4.11901   4.12364   4.12884   4.14110   4.14791
 Alpha virt. eigenvalues --    4.15286   4.16263   4.16665   4.16829   4.17592
 Alpha virt. eigenvalues --    4.17961   4.18325   4.18458   4.18819   4.19304
 Alpha virt. eigenvalues --    4.20048   4.20444   4.20834   4.20865   4.21544
 Alpha virt. eigenvalues --    4.22211   4.22923   4.23363   4.24479   4.25255
 Alpha virt. eigenvalues --    4.25456   4.26584   4.26640   4.27354   4.28038
 Alpha virt. eigenvalues --    4.28849   4.29706   4.30126   4.30436   4.30832
 Alpha virt. eigenvalues --    4.31557   4.32333   4.32756   4.33292   4.33545
 Alpha virt. eigenvalues --    4.34573   4.34971   4.35180   4.35393   4.36180
 Alpha virt. eigenvalues --    4.37182   4.38546   4.39100   4.39455   4.40311
 Alpha virt. eigenvalues --    4.40996   4.41241   4.41485   4.42018   4.42109
 Alpha virt. eigenvalues --    4.42673   4.43266   4.43811   4.44178   4.44881
 Alpha virt. eigenvalues --    4.45336   4.45844   4.46506   4.46903   4.47232
 Alpha virt. eigenvalues --    4.47968   4.48481   4.48765   4.49203   4.49929
 Alpha virt. eigenvalues --    4.51585   4.52047   4.52460   4.53675   4.54267
 Alpha virt. eigenvalues --    4.55001   4.55960   4.56559   4.57070   4.58029
 Alpha virt. eigenvalues --    4.59004   4.59290   4.59881   4.61897   4.63831
 Alpha virt. eigenvalues --    4.64485   4.65409   4.66098   4.67123   4.68505
 Alpha virt. eigenvalues --    4.68974   4.69505   4.69711   4.70082   4.71789
 Alpha virt. eigenvalues --    4.72379   4.73275   4.73930   4.74250   4.75113
 Alpha virt. eigenvalues --    4.75909   4.76288   4.76581   4.78055   4.80356
 Alpha virt. eigenvalues --    4.80742   4.81247   4.82373   4.83500   4.83898
 Alpha virt. eigenvalues --    4.84170   4.84562   4.85097   4.85506   4.86265
 Alpha virt. eigenvalues --    4.86839   4.87582   4.88317   4.89441   4.90612
 Alpha virt. eigenvalues --    4.91563   4.92372   4.93866   4.94165   4.95212
 Alpha virt. eigenvalues --    4.95665   4.95812   4.96930   4.97532   4.98031
 Alpha virt. eigenvalues --    4.98434   4.99342   5.01204   5.02186   5.02399
 Alpha virt. eigenvalues --    5.02705   5.03880   5.04974   5.05781   5.07381
 Alpha virt. eigenvalues --    5.07453   5.08428   5.08748   5.09840   5.10376
 Alpha virt. eigenvalues --    5.10496   5.11482   5.14222   5.14935   5.16753
 Alpha virt. eigenvalues --    5.17457   5.19110   5.19985   5.20456   5.21233
 Alpha virt. eigenvalues --    5.21836   5.22870   5.24210   5.25158   5.26292
 Alpha virt. eigenvalues --    5.26438   5.27430   5.29467   5.30623   5.32770
 Alpha virt. eigenvalues --    5.33554   5.35664   5.36481   5.37342   5.38165
 Alpha virt. eigenvalues --    5.38696   5.39124   5.40171   5.40692   5.41195
 Alpha virt. eigenvalues --    5.41959   5.43404   5.43475   5.45325   5.47461
 Alpha virt. eigenvalues --    5.49148   5.50253   5.50653   5.52143   5.52360
 Alpha virt. eigenvalues --    5.52803   5.53926   5.57098   5.57287   5.59843
 Alpha virt. eigenvalues --    5.62040   5.62907   5.62961   5.64328   5.64546
 Alpha virt. eigenvalues --    5.65970   5.67499   5.68360   5.68721   5.69163
 Alpha virt. eigenvalues --    5.70536   5.73998   5.77012   5.78047   5.79008
 Alpha virt. eigenvalues --    5.81297   5.82115   5.89857   5.92545   5.93957
 Alpha virt. eigenvalues --    5.95283   5.98244   6.01880   6.02760   6.03330
 Alpha virt. eigenvalues --    6.08789   6.12598   6.13392   6.14332   6.15027
 Alpha virt. eigenvalues --    6.17890   6.19219   6.24855   6.28090   6.34964
 Alpha virt. eigenvalues --    6.35495   6.41891   6.48217   6.54217   6.54888
 Alpha virt. eigenvalues --    6.65595   6.98065   7.29789  22.36231  22.36731
 Alpha virt. eigenvalues --   22.44235  22.46108  22.46863  22.52805  22.54255
 Alpha virt. eigenvalues --   22.62285  22.62854  22.78309  22.85981  22.87540
 Alpha virt. eigenvalues --   22.93280  22.95003  22.95394  22.96538  22.98174
 Alpha virt. eigenvalues --   23.04236  23.05024  23.08819  23.15884  23.28077
 Alpha virt. eigenvalues --   23.28778  23.31113  23.32176  23.42035  23.42745
 Alpha virt. eigenvalues --   23.51423  23.51934  23.56323  23.75237  23.80079
 Alpha virt. eigenvalues --   23.81210  23.90156  32.40766  32.74573  32.89944
 Alpha virt. eigenvalues --   32.97806  33.00735  33.12331  44.04910
          Condensed to atoms (all electrons):
 Mulliken charges:
               1
     1  Fe  -0.262227
     2  N   -0.100103
     3  N    0.012259
     4  N   -0.030083
     5  N   -0.036444
     6  C    0.226395
     7  C   -0.035847
     8  C   -0.043183
     9  C    0.193606
    10  C    0.230942
    11  C   -0.046431
    12  C    0.039953
    13  C    0.233761
    14  C    0.236359
    15  C   -0.055520
    16  C    0.052841
    17  C    0.232646
    18  C    0.175408
    19  C   -0.029187
    20  C   -0.051892
    21  C    0.263462
    22  C   -0.449329
    23  H    0.136431
    24  C   -0.480884
    25  H    0.130415
    26  C   -0.428445
    27  H    0.112642
    28  C   -0.455363
    29  H    0.123262
    30  C   -0.411962
    31  H    0.120424
    32  H    0.130591
    33  H    0.136254
    34  C   -0.414156
    35  H    0.136463
    36  H    0.133413
    37  H    0.119553
    38  C   -0.447955
    39  H    0.128022
    40  H    0.136985
    41  H    0.157529
    42  C   -0.204399
    43  H    0.105943
    44  C   -0.290138
    45  H    0.135725
    46  H    0.121371
    47  C   -0.450617
    48  H    0.127718
    49  H    0.141111
    50  H    0.156512
    51  C   -0.215328
    52  H    0.113196
    53  C   -0.285827
    54  H    0.138842
    55  H    0.121354
    56  C   -0.416079
    57  H    0.134559
    58  H    0.136091
    59  H    0.118973
    60  C   -0.419837
    61  H    0.133901
    62  H    0.118958
    63  H    0.135467
    64  O   -0.567716
    65  H    0.357440
    66  H    0.320570
    67  C   -0.392902
    68  H    0.146628
    69  H    0.137535
    70  H    0.132872
    71  N   -0.232017
    72  H    0.235133
    73  C    0.178755
    74  C    0.005243
    75  H    0.179237
    76  N    0.082510
    77  C   -0.224603
    78  H    0.163211
 Sum of Mulliken charges =  -0.00000
 Mulliken charges with hydrogens summed into heavy atoms:
               1
     1  Fe  -0.262227
     2  N   -0.100103
     3  N    0.012259
     4  N   -0.030083
     5  N   -0.036444
     6  C    0.226395
     7  C   -0.035847
     8  C   -0.043183
     9  C    0.193606
    10  C    0.230942
    11  C   -0.046431
    12  C    0.039953
    13  C    0.233761
    14  C    0.236359
    15  C   -0.055520
    16  C    0.052841
    17  C    0.232646
    18  C    0.175408
    19  C   -0.029187
    20  C   -0.051892
    21  C    0.263462
    22  C   -0.312898
    24  C   -0.350469
    26  C   -0.315803
    28  C   -0.332101
    30  C   -0.024693
    34  C   -0.024727
    38  C   -0.025419
    42  C   -0.098456
    44  C   -0.033042
    47  C   -0.025275
    51  C   -0.102132
    53  C   -0.025631
    56  C   -0.026455
    60  C   -0.031512
    64  O    0.110294
    67  C    0.024133
    71  N    0.003117
    73  C    0.178755
    74  C    0.184481
    76  N    0.082510
    77  C   -0.061392
 Electronic spatial extent (au):  <R**2>=          19962.6912
 Charge=             -0.0000 electrons
 Dipole moment (field-independent basis, Debye):
    X=              1.0277    Y=             -2.1469    Z=              3.5581  Tot=              4.2808
 Quadrupole moment (field-independent basis, Debye-Ang):
   XX=           -240.7579   YY=           -245.6544   ZZ=           -223.2681
   XY=             -2.8084   XZ=              2.7645   YZ=             -2.5138
 Traceless Quadrupole moment (field-independent basis, Debye-Ang):
   XX=             -4.1978   YY=             -9.0942   ZZ=             13.2920
   XY=             -2.8084   XZ=              2.7645   YZ=             -2.5138
 Octapole moment (field-independent basis, Debye-Ang**2):
  XXX=             10.3769  YYY=            -31.0885  ZZZ=             88.8023  XYY=             -4.0305
  XXY=            -36.4565  XXZ=             12.6395  XZZ=             19.3767  YZZ=            -28.7025
  YYZ=             -8.7029  XYZ=              4.1730
 Hexadecapole moment (field-independent basis, Debye-Ang**3):
 XXXX=         -11965.5216 YYYY=         -11599.7737 ZZZZ=          -2714.9308 XXXY=            -21.5433
 XXXZ=             79.4832 YYYX=            -34.3602 YYYZ=             43.5297 ZZZX=             36.5718
 ZZZY=            -86.0813 XXYY=          -4010.2967 XXZZ=          -2611.8520 YYZZ=          -2660.1407
 XXYZ=             47.0017 YYXZ=            -25.8958 ZZXY=            -23.9862
 N-N= 5.969417108649D+03 E-N=-1.895309619563D+04  KE= 2.973872294704D+03
  Exact polarizability:     713.708      -2.565     699.957      11.919      15.222     311.735
 Approx polarizability:    1327.228      -9.096    1289.957      38.561      38.367     499.147

 ----------------------------------------------------------------------

 Electric dipole moment (input orientation):
 (Debye = 10**-18 statcoulomb cm , SI units = C m)
                  (au)            (Debye)         (10**-30 SI)
   Tot        0.168420D+01      0.428081D+01      0.142793D+02
   x          0.112232D+01      0.285264D+01      0.951540D+01
   y         -0.756837D-01     -0.192369D+00     -0.641673D+00
   z          0.125348D+01      0.318603D+01      0.106274D+02

 Dipole polarizability, Alpha (input orientation).
 (esu units = cm**3 , SI units = C**2 m**2 J**-1)
 Alpha(0;0):
               (au)            (10**-24 esu)      (10**-40 SI)
   iso        0.575133D+03      0.852259D+02      0.948266D+02
   aniso      0.396718D+03      0.587875D+02      0.654099D+02
   xx         0.609219D+03      0.902770D+02      0.100447D+03
   yx         0.105491D+03      0.156321D+02      0.173931D+02
   yy         0.579131D+03      0.858183D+02      0.954858D+02
   zx        -0.128405D+03     -0.190276D+02     -0.211711D+02
   zy         0.153399D+03      0.227314D+02      0.252921D+02
   zz         0.537049D+03      0.795824D+02      0.885474D+02

 First dipole hyperpolarizability, Beta (input orientation).
 ||, _|_  parallel and perpendicular components, (z) with respect to z axis,
 vector components x,y,z.  Values do not include the 1/n! factor of 1/2.
 (esu units = statvolt**-1 cm**4 , SI units = C**3 m**3 J**-2)
 Beta(0;0,0):
               (au)            (10**-30 esu)      (10**-50 SI)
   || (z)     0.908334D+02      0.784730D+00      0.291245D+00
   _|_(z)     0.302778D+02      0.261577D+00      0.970816D-01
   x         -0.410910D+04     -0.354994D+02     -0.131753D+02
   y         -0.405417D+04     -0.350249D+02     -0.129991D+02
   z          0.454167D+03      0.392365D+01      0.145622D+01
   ||         0.115805D+04      0.100047D+02      0.371314D+01
   xxx       -0.677184D+03     -0.585034D+01     -0.217130D+01
   xxy       -0.171549D+03     -0.148205D+01     -0.550047D+00
   yxy       -0.410390D+02     -0.354545D+00     -0.131586D+00
   yyy       -0.389090D+03     -0.336143D+01     -0.124756D+01
   xxz        0.694243D+03      0.599772D+01      0.222600D+01
   yxz       -0.105929D+03     -0.915145D+00     -0.339647D+00
   yyz       -0.481541D+03     -0.416014D+01     -0.154399D+01
   zxz       -0.651477D+03     -0.562826D+01     -0.208887D+01
   zyz       -0.790751D+03     -0.683147D+01     -0.253543D+01
   zzz       -0.613135D+02     -0.529701D+00     -0.196593D+00

 ----------------------------------------------------------------------

 Dipole orientation:
    26         14.97503383         -3.67352399         16.98108177
     7         14.70391444         -0.34319566         18.76319273
     7         11.22810139         -3.75088145         16.50376059
     7         15.31104307         -6.74558022         14.80406203
     7         18.75821842         -3.45968550         17.22020320
     6         16.62153832          1.03912966         19.77343953
     6         15.65990591          3.32291307         20.92159248
     6         13.10281118          3.24784483         20.65500739
     6         12.53851015          0.93485580         19.31537525
     6          9.53574344         -1.99114888         17.31472807
     6          6.98914981         -2.74589613         16.71748298
     6          7.17713927         -4.99718213         15.45314109
     6          9.85977463         -5.53478748         15.26824522
     6         13.40839149         -8.03716858         13.65205215
     6         14.39237961        -10.02879595         12.07846044
     6         16.96791787         -9.93066122         12.31296648
     6         17.48982736         -7.85114628         14.02066383
     6         20.43309019         -5.25494200         16.47093473
     6         22.88910086         -4.82566839         17.59049630
     6         22.67758679         -2.67166481         18.97605695
     6         20.08526972         -1.84521887         18.71433495
     6         19.14193191          0.34904175         19.77331459
     1         20.45047348          1.56199339         20.76178468
     6         10.13023366          0.19108307         18.63442669
     1          8.58721368          1.40367297         19.19193892
     6         10.85555871         -7.57594552         13.98525162
     1          9.54861654         -8.85173897         13.07753159
     6         19.88693473         -7.23680007         14.85983886
     1         21.43495405         -8.42429363         14.26356923
     6         11.16495095          5.10979722         21.49980219
     1         12.04568155          6.69146392         22.47119397
     1          9.82128222          4.22618755         22.78783120
     1         10.11218755          5.84438654         19.88780492
     6         17.26991994          5.28229213         22.14683002
     1         18.68018354          5.99103469         20.82326330
     1         18.26185977          4.49232404         23.77120273
     1         16.13277058          6.86718206         22.79229343
     6          4.67866192         -1.23340675         17.26127336
     1          5.04300802          0.77455076         16.99368279
     1          4.05173779         -1.51311153         19.20664404
     1          3.15402584         -1.79804267         16.00233817
     6          5.19273220         -6.54984082         14.39812262
     1          5.67056067         -7.55374557         12.67815255
     6          2.89554190         -6.84045427         15.37268882
     1          2.34233385         -5.96559836         17.12321287
     1          1.49687778         -8.01318850         14.47042155
     6         12.84851585        -11.71713306         10.44022631
     1         11.25798253        -10.69262184          9.63171108
     1         12.10145166        -13.30779681         11.51895343
     1         14.00200383        -12.45867078          8.90768042
     6         18.87771706        -11.46989954         11.10853097
     1         20.63841235        -10.51684519         10.67498665
     6         18.63692763        -13.90286753         10.53071222
     1         16.96763561        -14.96562668         10.99749917
     1         20.13330356        -14.93214934          9.60975483
     6         25.13208841         -6.47962529         17.18444803
     1         25.67577764         -6.48632924         15.19670310
     1         24.71304221         -8.41965543         17.73600227
     1         26.73531099         -5.82227212         18.28875766
     6         24.62191038         -1.33732700         20.51572253
     1         24.92890664          0.56951703         19.79744515
     1         26.41359555         -2.34209865         20.46341136
     1         24.01519324         -1.18886152         22.47927236
     8         15.20216261         -1.17207911         13.48159671
     1         15.11865295          0.46437410         14.24747590
     1         15.40270820         -1.49322215         11.84479657
     6         16.38269594        -10.50807309         24.87367100
     1         17.97900320        -11.43365287         23.98023708
     1         14.89908903        -11.90348308         25.17785927
     1         16.97609494         -9.79046103         26.70977601
     7         13.55470420         -6.83012863         23.95055522
     1         12.60225163         -6.90354893         25.59571761
     6         15.46797421         -8.42142399         23.23578020
     6         13.18204826         -5.16346828         22.04898903
     1         11.79574735         -3.69026849         22.08245218
     7         14.74315296         -5.60268991         20.17539033
     6         16.17613027         -7.62508055         20.88544707
     1         17.60990092         -8.36362727         19.66479957

 Electric dipole moment (dipole orientation):
 (Debye = 10**-18 statcoulomb cm , SI units = C m)
                  (au)            (Debye)         (10**-30 SI)
   Tot        0.168420D+01      0.428081D+01      0.142793D+02
   x          0.000000D+00      0.000000D+00      0.000000D+00
   y          0.000000D+00      0.000000D+00      0.000000D+00
   z          0.168420D+01      0.428081D+01      0.142793D+02

 Dipole polarizability, Alpha (dipole orientation).
 (esu units = cm**3 , SI units = C**2 m**2 J**-1)
 Alpha(0;0):
               (au)            (10**-24 esu)      (10**-40 SI)
   iso        0.575133D+03      0.852259D+02      0.948266D+02
   aniso      0.396718D+03      0.587875D+02      0.654099D+02
   xx         0.703917D+03      0.104310D+03      0.116060D+03
   yx        -0.245979D+02     -0.364503D+01     -0.405565D+01
   yy         0.596245D+03      0.883544D+02      0.983075D+02
   zx         0.258267D+02      0.382712D+01      0.425824D+01
   zy         0.177312D+03      0.262749D+02      0.292348D+02
   zz         0.425236D+03      0.630135D+02      0.701120D+02

 First dipole hyperpolarizability, Beta (dipole orientation).
 ||, _|_  parallel and perpendicular components, (z) with respect to z axis,
 vector components x,y,z.  Values do not include the 1/n! factor of 1/2.
 (esu units = statvolt**-1 cm**4 , SI units = C**3 m**3 J**-2)
 Beta(0;0,0):
               (au)            (10**-30 esu)      (10**-50 SI)
   || (z)    -0.443603D+03     -0.383239D+01     -0.142235D+01
   _|_(z)    -0.147868D+03     -0.127746D+01     -0.474118D+00
   x         -0.343524D+04     -0.296778D+02     -0.110146D+02
   y         -0.409961D+04     -0.354175D+02     -0.131448D+02
   z         -0.221802D+04     -0.191619D+02     -0.711176D+01
   ||         0.115805D+04      0.100047D+02      0.371314D+01
   xxx       -0.169776D+04     -0.146674D+02     -0.544365D+01
   xxy       -0.308410D+03     -0.266442D+01     -0.988874D+00
   yxy        0.320700D+03      0.277060D+01      0.102828D+01
   yyy       -0.460092D+03     -0.397483D+01     -0.147522D+01
   xxz       -0.129679D+03     -0.112032D+01     -0.415797D+00
   yxz        0.288856D+03      0.249549D+01      0.926175D+00
   yyz       -0.432091D+03     -0.373293D+01     -0.138544D+01
   zxz        0.231986D+03      0.200418D+01      0.743831D+00
   zyz       -0.598035D+03     -0.516656D+01     -0.191752D+01
   zzz       -0.177569D+03     -0.153406D+01     -0.569350D+00

 ----------------------------------------------------------------------
 Unable to Open any file for archive entry.
 1\1\GINC-BGN1018\SP\RAPFD\def2TZVP\C34H36Fe1N6O1\BEBJONES\18-Nov-2024\
 0\\# polar def2tzvp apfd int=(grid=ultrafine)\\4jpt_II_S\\0,1\Fe,0,11.
 8617145256,-2.2094558747,1.3198611019\N,0,12.413455677,-0.494003778,2.
 1965355914\N,0,10.2146893542,-2.2730341534,2.4513217653\N,0,11.1986583
 015,-3.7784140916,0.2709134556\N,0,13.4402825368,-2.067744851,0.085048
 6481\C,0,13.5386798814,0.2300422924,1.9510703808\C,0,13.584981401,1.40
 11300222,2.7966748227\C,0,12.4816291409,1.344560023,3.5916115894\C,0,1
 1.7656255028,0.1487256371,3.2079934967\C,0,9.8490876039,-1.377561466,3
 .4093434051\C,0,8.6271012716,-1.7854272564,4.0541859229\C,0,8.23495417
 56,-2.9436035164,3.4364056223\C,0,9.2230538356,-3.1989943853,2.4048166
 495\C,0,10.030174083,-4.4509926855,0.4574240874\C,0,9.8453215702,-5.45
 73371108,-0.5566728924\C,0,10.944846448,-5.3876445853,-1.3701990827\C,
 0,11.7717991425,-4.3243539959,-0.8322239589\C,0,13.8204210925,-2.98362
 02795,-0.8433517512\C,0,15.1879052571,-2.761031882,-1.2582801326\C,0,1
 5.6126347914,-1.6573719428,-0.5867763382\C,0,14.5052938834,-1.23786912
 3,0.2439341641\C,0,14.5265531126,-0.1118132338,1.0458380993\H,0,15.402
 3026738,0.5176923025,1.0025508325\C,0,10.5687824553,-0.250092355,3.771
 355724\H,0,10.1677407891,0.3635639505,4.5638830493\C,0,9.1448787002,-4
 .2383221852,1.4998325994\H,0,8.297664228,-4.9029493724,1.572864445\C,0
 ,13.0188564354,-3.9978103514,-1.3324087464\H,0,13.4084310038,-4.597234
 5629,-2.141366602\C,0,12.0320445928,2.2910277079,4.6519588003\H,0,12.7
 36368528,3.111942464,4.7615734223\H,0,11.948198654,1.7811466879,5.6120
 50884\H,0,11.0550057237,2.7080744325,4.4057900218\C,0,14.6699219878,2.
 4222791962,2.7580779955\H,0,14.7659163271,2.8411817486,1.7563477562\H,
 0,15.6268294522,1.9751143541,3.0292522447\H,0,14.4633755497,3.23431593
 46,3.450974437\C,0,7.921212373,-1.0199007724,5.1190747371\H,0,7.988812
 1463,0.0511077381,4.9329543875\H,0,8.3573777922,-1.2196990132,6.099670
 3536\H,0,6.8707379206,-1.3022611628,5.1474597\C,0,7.066051471,-3.75722
 38222,3.6837371915\H,0,6.6388963725,-4.2426106184,2.8139662322\C,0,6.5
 009324735,-3.9548765956,4.8707178782\H,0,6.9079555095,-3.5391118343,5.
 7760348785\H,0,5.6203967467,-4.5659932802,4.9806921391\C,0,8.643300758
 5,-6.3248011381,-0.6976138004\H,0,7.7401026725,-5.7785042554,-0.430806
 2916\H,0,8.7145594219,-7.1980086275,-0.0471499164\H,0,8.5511396674,-6.
 6698286364,-1.7255893192\C,0,11.2594729236,-6.1552397756,-2.5546193917
 \H,0,11.8097678968,-5.6251836486,-3.3235833356\C,0,10.9386308886,-7.42
 96675431,-2.7551354617\H,0,10.4351163381,-8.0176698547,-2.0079196325\H
 ,0,11.1947762192,-7.9382147656,-3.6699963295\C,0,15.9144553203,-3.6052
 218071,-2.2484812643\H,0,15.4279127796,-3.5565575965,-3.2232251612\H,0
 ,15.9260306617,-4.6475758781,-1.929619117\H,0,16.9422450776,-3.2694634
 361,-2.363271977\C,0,16.9346452253,-0.9710373173,-0.6342893228\H,0,16.
 8197775048,0.0567224425,-0.9800911292\H,0,17.6138129494,-1.4846027818,
 -1.3105916657\H,0,17.3890818746,-0.9447686535,0.3565222408\O,0,10.74,-
 0.802,-0.079\H,0,10.992,0.044,0.291\H,0,10.239,-0.931,-0.802\C,0,15.13
 80694251,-5.9968526455,3.7693999335\H,0,15.4442811569,-6.4503332922,2.
 8326060055\H,0,14.6474399641,-6.755128901,4.379188191\H,0,16.026129625
 2,-5.6558197044,4.3003522732\N,0,13.7304416021,-4.056561963,4.49053911
 57\H,0,13.9342109368,-4.1431440194,5.4725967672\C,0,14.2186344687,-4.8
 632851902,3.4965069516\C,0,12.9280321564,-3.1337909022,3.912661763\H,0
 ,12.4063802499,-2.3684998433,4.4497283873\N,0,12.8791384819,-3.3072114
 794,2.6138146552\C,0,13.6764022011,-4.3800421198,2.340059769\H,0,13.80
 4813257,-4.7283592465,1.3361579716\\Version=ES64L-G16RevC.02\State=1-A
 \HF=-2984.0244391\RMSD=3.564e-09\Dipole=1.1223167,-0.0756837,1.2534803
 \Polar=609.2194997,105.4907958,579.1306832,-128.4049173,153.3994238,53
 7.0487568\HyperPolar=-677.1836912,-171.5487668,-41.0390304,-389.089985
 8,694.2434515,-105.9290589,-481.5408462,-651.4773233,-790.7510498,-61.
 3135455\Quadrupole=-3.6832065,-1.3474935,5.0307,-4.0836692,6.2480531,-
 3.5461719\PG=C01 [X(C34H36Fe1N6O1)]\\@
 The archive entry for this job was punched.


 BE LIKE A POSTAGE STAMP.  STICK TO ONE THING UNTIL
 YOU GET THERE -- JOSH BILLINGS
 Job cpu time:       2 days  5 hours 36 minutes 54.5 seconds.
 Elapsed time:       0 days  0 hours 46 minutes 26.2 seconds.
 File lengths (MBytes):  RWF=   1208 Int=      0 D2E=      0 Chk=    155 Scr=      1
 Normal termination of Gaussian 16 at Mon Nov 18 17:01:21 2024.
 Initial command:
 /sw/chem/gaussian/g16_C02/a100/g16/l1.exe "/local/bebjones_8087523/Gau-1695721.inp" -scrdir="/local/bebjones_8087523/"
 Entering Link 1 = /sw/chem/gaussian/g16_C02/a100/g16/l1.exe PID=   1697503.
  
 Copyright (c) 1988-2021, Gaussian, Inc.  All Rights Reserved.
  
 This is part of the Gaussian(R) 16 program.  It is based on
 the Gaussian(R) 09 system (copyright 2009, Gaussian, Inc.),
 the Gaussian(R) 03 system (copyright 2003, Gaussian, Inc.),
 the Gaussian(R) 98 system (copyright 1998, Gaussian, Inc.),
 the Gaussian(R) 94 system (copyright 1995, Gaussian, Inc.),
 the Gaussian 92(TM) system (copyright 1992, Gaussian, Inc.),
 the Gaussian 90(TM) system (copyright 1990, Gaussian, Inc.),
 the Gaussian 88(TM) system (copyright 1988, Gaussian, Inc.),
 the Gaussian 86(TM) system (copyright 1986, Carnegie Mellon
 University), and the Gaussian 82(TM) system (copyright 1983,
 Carnegie Mellon University). Gaussian is a federally registered
 trademark of Gaussian, Inc.
  
 This software contains proprietary and confidential information,
 including trade secrets, belonging to Gaussian, Inc.
  
 This software is provided under written license and may be
 used, copied, transmitted, or stored only in accord with that
 written license.
  
 The following legend is applicable only to US Government
 contracts under FAR:
  
                    RESTRICTED RIGHTS LEGEND
  
 Use, reproduction and disclosure by the US Government is
 subject to restrictions as set forth in subparagraphs (a)
 and (c) of the Commercial Computer Software - Restricted
 Rights clause in FAR 52.227-19.
  
 Gaussian, Inc.
 340 Quinnipiac St., Bldg. 40, Wallingford CT 06492
  
  
 ---------------------------------------------------------------
 Warning -- This program may not be used in any manner that
 competes with the business of Gaussian, Inc. or will provide
 assistance to any competitor of Gaussian, Inc.  The licensee
 of this program is prohibited from giving any competitor of
 Gaussian, Inc. access to this program.  By using this program,
 the user acknowledges that Gaussian, Inc. is engaged in the
 business of creating and licensing software in the field of
 computational chemistry and represents and warrants to the
 licensee that it is not a competitor of Gaussian, Inc. and that
 it will not use this program in any manner prohibited above.
 ---------------------------------------------------------------
  

 Cite this work as:
 Gaussian 16, Revision C.02,
 M. J. Frisch, G. W. Trucks, H. B. Schlegel, G. E. Scuseria, 
 M. A. Robb, J. R. Cheeseman, G. Scalmani, V. Barone, 
 G. A. Petersson, H. Nakatsuji, X. Li, M. Caricato, A. V. Marenich, 
 J. Bloino, B. G. Janesko, R. Gomperts, B. Mennucci, H. P. Hratchian, 
 J. V. Ortiz, A. F. Izmaylov, J. L. Sonnenberg, D. Williams-Young, 
 F. Ding, F. Lipparini, F. Egidi, J. Goings, B. Peng, A. Petrone, 
 T. Henderson, D. Ranasinghe, V. G. Zakrzewski, J. Gao, N. Rega, 
[...]
   140. CR (   1) C  67                  1.99940   -10.05945  1526(v),1332(v),1324(v)
                                                    1524(v)
   141. CR (   1) N  71                  1.99938   -14.22158  1352(v),1326(v),1320(v)
                                                    1327(v),1522(v)
   142. CR (   1) C  73                  1.99915   -10.08958  1409(v),1526(g),1532(v)
                                                    1254(v)
   143. CR (   1) C  74                  1.99935   -10.12187  1382(v),1523(v),1531(v)
                                                    151(r),150(r),154(r)
   144. CR (   1) N  76                  1.99932   -14.15326  150(r),151(r),154(r),1350(v)
                                                    1407(v),1528(v),172(r)
                                                    168(r),175(r)
   145. CR (   1) C  77                  1.99898   -10.05967  1522(v),1324(v),1526(g)
                                                    1383(v),1434(v),1327(v)
                                                    150(r),151(r)
   163. LP (   1) N  71                  1.57887    -0.28450  1530(v),1527(v),1353(v)
                                                    1325(v),1319(v),1351(v)
                                                    169(r)
   164. LP (   1) N  76                  1.60998    -0.36529  150(r),151(r),154(r),1525(v)
                                                    1526(v),1350(v),1528(v)
                                                    1532(v),1529(g),1384(g)
                                                    1407(v),1531(g),170(r)
                                                    1383(g),183(r),247(r)
                                                    1447(r),273(r),221(r),195(r)
                                                    246(r),194(r),220(r),1441(r)
                                                    1440(r),1446(r),1445(r)
                                                    1438(r),244(r),1442(r)
                                                    1444(r),272(r),1448(r)
                                                    174(r),182(r),171(r),218(r)
                                                    192(r),278(r),252(r),158(r)
  1252. RY*(   1) C  67                  0.00118     1.15765   
  1253. RY*(   2) C  67                  0.00078     2.00322   
  1254. RY*(   3) C  67                  0.00051     1.33116   
  1255. RY*(   4) C  67                  0.00012     1.27331   
  1256. RY*(   5) C  67                  0.00008     2.22395   
  1257. RY*(   6) C  67                  0.00007     1.27318   
  1258. RY*(   7) C  67                  0.00001     1.67590   
  1259. RY*(   8) C  67                  0.00001     1.87021   
  1260. RY*(   9) C  67                  0.00001     1.42758   
  1261. RY*(  10) C  67                  0.00001     2.29972   
  1262. RY*(  11) C  67                  0.00001     1.39842   
  1263. RY*(  12) C  67                  0.00000     3.24887   
  1264. RY*(  13) C  67                  0.00000     2.57060   
  1265. RY*(  14) C  67                  0.00000     2.77445   
  1266. RY*(  15) C  67                  0.00000     2.31397   
  1267. RY*(  16) C  67                  0.00000     3.17437   
  1268. RY*(  17) C  67                  0.00000     2.49823   
  1269. RY*(  18) C  67                  0.00000    21.60058   
  1270. RY*(  19) C  67                  0.00001     2.70675   
  1271. RY*(  20) C  67                  0.00000     3.68042   
  1272. RY*(  21) C  67                  0.00001     3.44747   
  1273. RY*(  22) C  67                  0.00000     3.34548   
  1274. RY*(  23) C  67                  0.00000     3.75383   
  1275. RY*(  24) C  67                  0.00000     3.34141   
  1276. RY*(  25) C  67                  0.00000     3.34893   
  1277. RY*(  26) C  67                  0.00000     3.23852   
  1278. RY*(   1) H  68                  0.00024     1.38852   
  1279. RY*(   2) H  68                  0.00012     1.74631   
  1280. RY*(   3) H  68                  0.00008     2.05409   
  1281. RY*(   4) H  68                  0.00002     1.58795   
  1282. RY*(   5) H  68                  0.00001     2.86674   
  1283. RY*(   1) H  69                  0.00075     1.00648   
  1284. RY*(   2) H  69                  0.00015     1.69492   
  1285. RY*(   3) H  69                  0.00008     1.95143   
  1286. RY*(   4) H  69                  0.00006     2.01361   
  1287. RY*(   5) H  69                  0.00000     2.88221   
  1288. RY*(   1) H  70                  0.00072     0.99698   
  1289. RY*(   2) H  70                  0.00015     1.69007   
  1290. RY*(   3) H  70                  0.00008     1.97361   
  1291. RY*(   4) H  70                  0.00006     2.00708   
  1292. RY*(   5) H  70                  0.00000     2.88026   
  1293. RY*(   1) N  71                  0.00281     0.67019   
  1294. RY*(   2) N  71                  0.00224     1.77809   
  1295. RY*(   3) N  71                  0.00099     2.07601   
  1296. RY*(   4) N  71                  0.00078     2.16619   
  1297. RY*(   5) N  71                  0.00053     1.15112   
  1298. RY*(   6) N  71                  0.00027     2.04009   
  1299. RY*(   7) N  71                  0.00020     1.71999   
  1300. RY*(   8) N  71                  0.00006     2.38063   
  1301. RY*(   9) N  71                  0.00006     2.32404   
  1302. RY*(  10) N  71                  0.00006     3.84907   
  1303. RY*(  11) N  71                  0.00004     2.89590   
  1304. RY*(  12) N  71                  0.00000     2.12746   
  1305. RY*(  13) N  71                  0.00001     4.32540   
  1306. RY*(  14) N  71                  0.00001     2.64480   
  1307. RY*(  15) N  71                  0.00001     3.17543   
  1308. RY*(  16) N  71                  0.00001     3.60555   
  1309. RY*(  17) N  71                  0.00000     4.68271   
  1310. RY*(  18) N  71                  0.00000    30.58263   
  1311. RY*(  19) N  71                  0.00000     4.06811   
  1312. RY*(  20) N  71                  0.00000     4.61529   
  1313. RY*(  21) N  71                  0.00000     4.84774   
  1314. RY*(  22) N  71                  0.00000     4.36054   
  1315. RY*(  23) N  71                  0.00000     4.55212   
  1316. RY*(  24) N  71                  0.00000     4.31337   
  1317. RY*(  25) N  71                  0.00000     4.49106   
  1318. RY*(  26) N  71                  0.00000     4.39819   
  1319. RY*(   1) H  72                  0.00057     2.15026   
  1320. RY*(   2) H  72                  0.00039     2.13011   
  1321. RY*(   3) H  72                  0.00029     1.05446   
  1322. RY*(   4) H  72                  0.00021     2.50849   
  1323. RY*(   5) H  72                  0.00001     3.08212   
  1324. RY*(   1) C  73                  0.00406     1.69299   
  1325. RY*(   2) C  73                  0.00261     0.99013   
  1326. RY*(   3) C  73                  0.00190     1.48823   
  1327. RY*(   4) C  73                  0.00163     2.03270   
  1328. RY*(   5) C  73                  0.00123     1.75018   
  1329. RY*(   6) C  73                  0.00109     1.72100   
  1330. RY*(   7) C  73                  0.00037     2.85257   
  1331. RY*(   8) C  73                  0.00019     2.73190   
  1332. RY*(   9) C  73                  0.00016     2.53392   
  1333. RY*(  10) C  73                  0.00007     3.64046   
  1334. RY*(  11) C  73                  0.00003     2.68728   
  1335. RY*(  12) C  73                  0.00002     2.00330   
  1336. RY*(  13) C  73                  0.00001     1.33072   
  1337. RY*(  14) C  73                  0.00001     1.96638   
  1338. RY*(  15) C  73                  0.00001     2.85015   
  1339. RY*(  16) C  73                  0.00000     1.07631   
  1340. RY*(  17) C  73                  0.00000     3.35069   
  1341. RY*(  18) C  73                  0.00001     1.57590   
  1342. RY*(  19) C  73                  0.00000    21.24908   
  1343. RY*(  20) C  73                  0.00000     4.05865   
  1344. RY*(  21) C  73                  0.00000     3.68957   
  1345. RY*(  22) C  73                  0.00000     3.55771   
  1346. RY*(  23) C  73                  0.00000     3.82825   
  1347. RY*(  24) C  73                  0.00000     3.39386   
  1348. RY*(  25) C  73                  0.00000     3.55419   
  1349. RY*(  26) C  73                  0.00000     3.51932   
  1350. RY*(   1) C  74                  0.00407     1.58943   
  1351. RY*(   2) C  74                  0.00328     0.66434   
  1352. RY*(   3) C  74                  0.00199     1.33957   
  1353. RY*(   4) C  74                  0.00127     2.57862   
  1354. RY*(   5) C  74                  0.00080     1.63629   
  1355. RY*(   6) C  74                  0.00040     1.69282   
  1356. RY*(   7) C  74                  0.00025     1.87329   
  1357. RY*(   8) C  74                  0.00009     2.80510   
  1358. RY*(   9) C  74                  0.00005     1.99698   
  1359. RY*(  10) C  74                  0.00005     2.46508   
  1360. RY*(  11) C  74                  0.00004     3.42125   
  1361. RY*(  12) C  74                  0.00003     1.63128   
  1362. RY*(  13) C  74                  0.00001     2.61279   
  1363. RY*(  14) C  74                  0.00001     2.25025   
  1364. RY*(  15) C  74                  0.00002     2.91892   
  1365. RY*(  16) C  74                  0.00000     3.73174   
  1366. RY*(  17) C  74                  0.00001     2.77199   
  1367. RY*(  18) C  74                  0.00001     3.96774   
  1368. RY*(  19) C  74                  0.00000    21.35654   
  1369. RY*(  20) C  74                  0.00000     3.22692   
  1370. RY*(  21) C  74                  0.00001     4.07869   
  1371. RY*(  22) C  74                  0.00000     3.52289   
  1372. RY*(  23) C  74                  0.00000     3.80836   
  1373. RY*(  24) C  74                  0.00000     3.52171   
  1374. RY*(  25) C  74                  0.00000     3.50455   
  1375. RY*(  26) C  74                  0.00000     3.32787   
  1376. RY*(   1) H  75                  0.00057     0.84415   
  1377. RY*(   2) H  75                  0.00029     2.35934   
  1378. RY*(   3) H  75                  0.00021     2.11100   
  1379. RY*(   4) H  75                  0.00012     2.40030   
  1380. RY*(   5) H  75                  0.00002     3.14968   
  1381. RY*(   1) N  76                  0.00756     0.86357   
  1382. RY*(   2) N  76                  0.00716     1.31024   
  1383. RY*(   3) N  76                  0.00588     1.43040   
  1384. RY*(   4) N  76                  0.00081     1.56857   
  1385. RY*(   5) N  76                  0.00073     1.72934   
  1386. RY*(   6) N  76                  0.00054     1.96223   
  1387. RY*(   7) N  76                  0.00037     3.43180   
  1388. RY*(   8) N  76                  0.00033     3.19044   
  1389. RY*(   9) N  76                  0.00011     2.87902   
  1390. RY*(  10) N  76                  0.00009     2.44965   
  1391. RY*(  11) N  76                  0.00009     3.26630   
  1392. RY*(  12) N  76                  0.00007     3.38973   
  1393. RY*(  13) N  76                  0.00006     3.03443   
  1394. RY*(  14) N  76                  0.00004     3.67119   
  1395. RY*(  15) N  76                  0.00002     4.85661   
  1396. RY*(  16) N  76                  0.00001     4.13221   
  1397. RY*(  17) N  76                  0.00001     4.49304   
  1398. RY*(  18) N  76                  0.00000    31.58829   
  1399. RY*(  19) N  76                  0.00000     4.80449   
  1400. RY*(  20) N  76                  0.00000     4.42544   
  1401. RY*(  21) N  76                  0.00001     4.27736   
  1402. RY*(  22) N  76                  0.00000     4.15450   
  1403. RY*(  23) N  76                  0.00000     4.80099   
  1404. RY*(  24) N  76                  0.00000     4.66007   
  1405. RY*(  25) N  76                  0.00000     4.79916   
  1406. RY*(  26) N  76                  0.00000     4.51988   
  1407. RY*(   1) C  77                  0.00401     1.49393   
  1408. RY*(   2) C  77                  0.00256     0.72039   
  1409. RY*(   3) C  77                  0.00169     1.85402   
  1410. RY*(   4) C  77                  0.00069     1.90158   
  1411. RY*(   5) C  77                  0.00059     1.65784   
  1412. RY*(   6) C  77                  0.00048     1.72701   
  1413. RY*(   7) C  77                  0.00043     2.17192   
  1414. RY*(   8) C  77                  0.00024     1.44287   
  1415. RY*(   9) C  77                  0.00020     1.81822   
  1416. RY*(  10) C  77                  0.00018     1.77992   
  1417. RY*(  11) C  77                  0.00011     1.22275   
  1418. RY*(  12) C  77                  0.00005     2.26172   
  1419. RY*(  13) C  77                  0.00006     2.25911   
  1420. RY*(  14) C  77                  0.00003     1.65243   
  1421. RY*(  15) C  77                  0.00003     3.37784   
  1422. RY*(  16) C  77                  0.00003     2.60517   
  1423. RY*(  17) C  77                  0.00001     3.57211   
  1424. RY*(  18) C  77                  0.00000     3.25192   
  1425. RY*(  19) C  77                  0.00000    21.52812   
  1426. RY*(  20) C  77                  0.00001     3.93138   
  1427. RY*(  21) C  77                  0.00001     4.07477   
  1428. RY*(  22) C  77                  0.00000     3.47722   
  1429. RY*(  23) C  77                  0.00000     3.75749   
  1430. RY*(  24) C  77                  0.00000     3.37378   
  1431. RY*(  25) C  77                  0.00000     3.70510   
  1432. RY*(  26) C  77                  0.00000     3.43143   
  1433. RY*(   1) H  78                  0.00051     0.75120   
  1434. RY*(   2) H  78                  0.00033     2.30576   
  1435. RY*(   3) H  78                  0.00025     2.29129   
  1436. RY*(   4) H  78                  0.00008     2.74609   
  1437. RY*(   5) H  78                  0.00001     3.12010   
  1519. BD*(   1) C  67 - H  68          0.00346     0.37312   
  1520. BD*(   1) C  67 - H  69          0.01236     0.35960   
  1521. BD*(   1) C  67 - H  70          0.01128     0.35906   
  1522. BD*(   1) C  67 - C  73          0.01368     0.38861   
  1523. BD*(   1) N  71 - H  72          0.01416     0.36638   
  1524. BD*(   1) N  71 - C  73          0.02716     0.42957   
  1525. BD*(   1) N  71 - C  74          0.02237     0.44654   
  1526. BD*(   1) C  73 - C  77          0.02099     0.56516   
  1527. BD*(   2) C  73 - C  77          0.30008     0.03424  1530(v),1520(v),1521(v)
                                                    1413(g),1328(g)
  1528. BD*(   1) C  74 - H  75          0.01787     0.39064   
  1529. BD*(   1) C  74 - N  76          0.01628     0.53510   
  1530. BD*(   2) C  74 - N  76          0.42116    -0.00675  1527(v),1351(g),1381(g)
                                                    1408(v),153(r),1447(r)
  1531. BD*(   1) N  76 - C  77          0.01654     0.47988   
  1532. BD*(   1) C  77 - H  78          0.01450     0.43170   
       -------------------------------
              Total Lewis   42.68780  ( 97.7327%)
        Valence non-Lewis    0.91189  (  2.0877%)
        Rydberg non-Lewis    0.07843  (  0.1796%)
       -------------------------------
            Total unit  4   43.67812  (100.0000%)
           Charge unit  4    0.32188
 Unable to Open any file for archive entry.
 1\1\GINC-BGN1018\SP\RAPFD\def2TZVP\C34H36Fe1N6O1\BEBJONES\18-Nov-2024\
 0\\# apfd/def2TZVP int=(grid=ultrafine) geom=check guess=read pop=nbo 
 scf=qc\\4jpt_II_S_nbo\\0,1\Fe,0,11.8617145256,-2.2094558747,1.31986110
 19\N,0,12.413455677,-0.494003778,2.1965355914\N,0,10.2146893542,-2.273
 0341534,2.4513217653\N,0,11.1986583015,-3.7784140916,0.2709134556\N,0,
 13.4402825368,-2.067744851,0.0850486481\C,0,13.5386798814,0.2300422924
 ,1.9510703808\C,0,13.584981401,1.4011300222,2.7966748227\C,0,12.481629
 1409,1.344560023,3.5916115894\C,0,11.7656255028,0.1487256371,3.2079934
 967\C,0,9.8490876039,-1.377561466,3.4093434051\C,0,8.6271012716,-1.785
 4272564,4.0541859229\C,0,8.2349541756,-2.9436035164,3.4364056223\C,0,9
 .2230538356,-3.1989943853,2.4048166495\C,0,10.030174083,-4.4509926855,
 0.4574240874\C,0,9.8453215702,-5.4573371108,-0.5566728924\C,0,10.94484
 6448,-5.3876445853,-1.3701990827\C,0,11.7717991425,-4.3243539959,-0.83
 22239589\C,0,13.8204210925,-2.9836202795,-0.8433517512\C,0,15.18790525
 71,-2.761031882,-1.2582801326\C,0,15.6126347914,-1.6573719428,-0.58677
 63382\C,0,14.5052938834,-1.237869123,0.2439341641\C,0,14.5265531126,-0
 .1118132338,1.0458380993\H,0,15.4023026738,0.5176923025,1.0025508325\C
 ,0,10.5687824553,-0.250092355,3.771355724\H,0,10.1677407891,0.36356395
 05,4.5638830493\C,0,9.1448787002,-4.2383221852,1.4998325994\H,0,8.2976
 64228,-4.9029493724,1.572864445\C,0,13.0188564354,-3.9978103514,-1.332
 4087464\H,0,13.4084310038,-4.5972345629,-2.141366602\C,0,12.0320445928
 ,2.2910277079,4.6519588003\H,0,12.736368528,3.111942464,4.7615734223\H
 ,0,11.948198654,1.7811466879,5.612050884\H,0,11.0550057237,2.708074432
 5,4.4057900218\C,0,14.6699219878,2.4222791962,2.7580779955\H,0,14.7659
 163271,2.8411817486,1.7563477562\H,0,15.6268294522,1.9751143541,3.0292
 522447\H,0,14.4633755497,3.2343159346,3.450974437\C,0,7.921212373,-1.0
 199007724,5.1190747371\H,0,7.9888121463,0.0511077381,4.9329543875\H,0,
 8.3573777922,-1.2196990132,6.0996703536\H,0,6.8707379206,-1.3022611628
 ,5.1474597\C,0,7.066051471,-3.7572238222,3.6837371915\H,0,6.6388963725
 ,-4.2426106184,2.8139662322\C,0,6.5009324735,-3.9548765956,4.870717878
 2\H,0,6.9079555095,-3.5391118343,5.7760348785\H,0,5.6203967467,-4.5659
 932802,4.9806921391\C,0,8.6433007585,-6.3248011381,-0.6976138004\H,0,7
 .7401026725,-5.7785042554,-0.4308062916\H,0,8.7145594219,-7.1980086275
 ,-0.0471499164\H,0,8.5511396674,-6.6698286364,-1.7255893192\C,0,11.259
 4729236,-6.1552397756,-2.5546193917\H,0,11.8097678968,-5.6251836486,-3
 .3235833356\C,0,10.9386308886,-7.4296675431,-2.7551354617\H,0,10.43511
 63381,-8.0176698547,-2.0079196325\H,0,11.1947762192,-7.9382147656,-3.6
 699963295\C,0,15.9144553203,-3.6052218071,-2.2484812643\H,0,15.4279127
 796,-3.5565575965,-3.2232251612\H,0,15.9260306617,-4.6475758781,-1.929
 619117\H,0,16.9422450776,-3.2694634361,-2.363271977\C,0,16.9346452253,
 -0.9710373173,-0.6342893228\H,0,16.8197775048,0.0567224425,-0.98009112
 92\H,0,17.6138129494,-1.4846027818,-1.3105916657\H,0,17.3890818746,-0.
 9447686535,0.3565222408\O,0,10.74,-0.802,-0.079\H,0,10.992,0.044,0.291
 \H,0,10.239,-0.931,-0.802\C,0,15.1380694251,-5.9968526455,3.7693999335
 \H,0,15.4442811569,-6.4503332922,2.8326060055\H,0,14.6474399641,-6.755
 128901,4.379188191\H,0,16.0261296252,-5.6558197044,4.3003522732\N,0,13
 .7304416021,-4.056561963,4.4905391157\H,0,13.9342109368,-4.1431440194,
 5.4725967672\C,0,14.2186344687,-4.8632851902,3.4965069516\C,0,12.92803
 21564,-3.1337909022,3.912661763\H,0,12.4063802499,-2.3684998433,4.4497
 283873\N,0,12.8791384819,-3.3072114794,2.6138146552\C,0,13.6764022011,
 -4.3800421198,2.340059769\H,0,13.804813257,-4.7283592465,1.3361579716\
 \Version=ES64L-G16RevC.02\State=1-A\HF=-2984.0244391\RMSD=1.738e-09\Di
 pole=1.1223167,-0.0756837,1.2534803\Quadrupole=-3.6832065,-1.3474935,5
 .0307,-4.0836692,6.2480531,-3.5461719\PG=C01 [X(C34H36Fe1N6O1)]\\@
 The archive entry for this job was punched.


 LAW OF COMPENSATION:
      NO CALCULATION IS EVER A COMPLETE FAILURE; IT 
      CAN ALWAYS SERVE AS A BAD EXAMPLE.

                                           -- ANON
 Job cpu time:       0 days  0 hours 45 minutes 21.1 seconds.
 Elapsed time:       0 days  0 hours  0 minutes 55.1 seconds.
 File lengths (MBytes):  RWF=    792 Int=      0 D2E=      0 Chk=    155 Scr=      1
 Normal termination of Gaussian 16 at Mon Nov 18 17:02:19 2024.
