 Entering Gaussian System, Link 0=g16
 Input=4ksz01.com
 Output=4ksz01.log
 Initial command:
 /sw/chem/gaussian/g16_C02/a100/g16/l1.exe "/local/bebjones_8087530/Gau-1650101.inp" -scrdir="/local/bebjones_8087530/"
 Entering Link 1 = /sw/chem/gaussian/g16_C02/a100/g16/l1.exe PID=   1650102.
  
 Copyright (c) 1988-2021, Gaussian, Inc.  All Rights Reserved.
  
 This is part of the Gaussian(R) 16 program.  It is based on
 the Gaussian(R) 09 system (copyright 2009, Gaussian, Inc.),
 the Gaussian(R) 03 system (copyright 2003, Gaussian, Inc.),
 the Gaussian(R) 98 system (copyright 1998, Gaussian, Inc.),
 the Gaussian(R) 94 system (copyright 1995, Gaussian, Inc.),
 the Gaussian 92(TM) system (copyright 1992, Gaussian, Inc.),
 the Gaussian 90(TM) system (copyright 1990, Gaussian, Inc.),
 the Gaussian 88(TM) system (copyright 1988, Gaussian, Inc.),
 the Gaussian 86(TM) system (copyright 1986, Carnegie Mellon
 University), and the Gaussian 82(TM) system (copyright 1983,
 Carnegie Mellon University). Gaussian is a federally registered
 trademark of Gaussian, Inc.
  
 This software contains proprietary and confidential information,
 including trade secrets, belonging to Gaussian, Inc.
  
 This software is provided under written license and may be
 used, copied, transmitted, or stored only in accord with that
 written license.
  
 The following legend is applicable only to US Government
 contracts under FAR:
  
                    RESTRICTED RIGHTS LEGEND
  
 Use, reproduction and disclosure by the US Government is
 subject to restrictions as set forth in subparagraphs (a)
 and (c) of the Commercial Computer Software - Restricted
 Rights clause in FAR 52.227-19.
  
 Gaussian, Inc.
 340 Quinnipiac St., Bldg. 40, Wallingford CT 06492
  
  
 ---------------------------------------------------------------
 Warning -- This program may not be used in any manner that
 competes with the business of Gaussian, Inc. or will provide
 assistance to any competitor of Gaussian, Inc.  The licensee
 of this program is prohibited from giving any competitor of
 Gaussian, Inc. access to this program.  By using this program,
 the user acknowledges that Gaussian, Inc. is engaged in the
 business of creating and licensing software in the field of
 computational chemistry and represents and warrants to the
 licensee that it is not a competitor of Gaussian, Inc. and that
 it will not use this program in any manner prohibited above.
 ---------------------------------------------------------------
  

 Cite this work as:
 Gaussian 16, Revision C.02,
 M. J. Frisch, G. W. Trucks, H. B. Schlegel, G. E. Scuseria, 
 M. A. Robb, J. R. Cheeseman, G. Scalmani, V. Barone, 
 G. A. Petersson, H. Nakatsuji, X. Li, M. Caricato, A. V. Marenich, 
 J. Bloino, B. G. Janesko, R. Gomperts, B. Mennucci, H. P. Hratchian, 
 J. V. Ortiz, A. F. Izmaylov, J. L. Sonnenberg, D. Williams-Young, 
 F. Ding, F. Lipparini, F. Egidi, J. Goings, B. Peng, A. Petrone, 
 T. Henderson, D. Ranasinghe, V. G. Zakrzewski, J. Gao, N. Rega, 
 G. Zheng, W. Liang, M. Hada, M. Ehara, K. Toyota, R. Fukuda, 
 J. Hasegawa, M. Ishida, T. Nakajima, Y. Honda, O. Kitao, H. Nakai, 
 T. Vreven, K. Throssell, J. A. Montgomery, Jr., J. E. Peralta, 
 F. Ogliaro, M. J. Bearpark, J. J. Heyd, E. N. Brothers, K. N. Kudin, 
 V. N. Staroverov, T. A. Keith, R. Kobayashi, J. Normand, 
 K. Raghavachari, A. P. Rendell, J. C. Burant, S. S. Iyengar, 
 J. Tomasi, M. Cossi, J. M. Millam, M. Klene, C. Adamo, R. Cammi, 
 J. W. Ochterski, R. L. Martin, K. Morokuma, O. Farkas, 
 J. B. Foresman, and D. J. Fox, Gaussian, Inc., Wallingford CT, 2019.
 
 ******************************************
 Gaussian 16:  ES64L-G16RevC.02  7-Dec-2021
                18-Nov-2024 
 ******************************************
 %mem=16GB
 %CPU=0-71
 SetSPE:  set environment variable "OMP_PROC_BIND" = "true"
 SetSPE:  set environment variable "OMP_PLACES" = "{0},{1},{2},{3},{4},{5},{6},{7},{8},{9},{10},{11},{12},{13},{14},{15},{16},{17},{18},{19},{20},{21},{22},{23},{24},{25},{26},{27},{28},{29},{30},{31},{32},{33},{34},{35},{36},{37},{38},{39},{40},{41},{42},{43},{44},{45},{46},{47},{48},{49},{50},{51},{52},{53},{54},{55},{56},{57},{58},{59},{60},{61},{62},{63},{64},{65},{66},{67},{68},{69},{70},{71}"
 Will use up to   72 processors via shared memory.
 %gpucpu=0,1,2,3=0,1,2,3
 Will use    4 GPUs:
 Thread  CPU   GPU
      0    0     0
      1    1     1
      2    2     2
      3    3     3
      4    4    -1
      5    5    -1
      6    6    -1
      7    7    -1
      8    8    -1
      9    9    -1
     10   10    -1
     11   11    -1
     12   12    -1
     13   13    -1
     14   14    -1
     15   15    -1
     16   16    -1
     17   17    -1
     18   18    -1
     19   19    -1
     20   20    -1
     21   21    -1
     22   22    -1
     23   23    -1
     24   24    -1
     25   25    -1
     26   26    -1
     27   27    -1
     28   28    -1
     29   29    -1
     30   30    -1
     31   31    -1
     32   32    -1
     33   33    -1
     34   34    -1
     35   35    -1
     36   36    -1
     37   37    -1
     38   38    -1
     39   39    -1
     40   40    -1
     41   41    -1
     42   42    -1
     43   43    -1
     44   44    -1
     45   45    -1
     46   46    -1
     47   47    -1
     48   48    -1
     49   49    -1
     50   50    -1
     51   51    -1
     52   52    -1
     53   53    -1
     54   54    -1
     55   55    -1
     56   56    -1
     57   57    -1
     58   58    -1
     59   59    -1
     60   60    -1
     61   61    -1
     62   62    -1
     63   63    -1
     64   64    -1
     65   65    -1
     66   66    -1
     67   67    -1
     68   68    -1
     69   69    -1
     70   70    -1
     71   71    -1
 SetGPE:  set environment variable "OMP_PROC_BIND" = "true"
 SetGPE:  set environment variable "OMP_PLACES" = "{0},{1},{2},{3},{4},{5},{6},{7},{8},{9},{10},{11},{12},{13},{14},{15},{16},{17},{18},{19},{20},{21},{22},{23},{24},{25},{26},{27},{28},{29},{30},{31},{32},{33},{34},{35},{36},{37},{38},{39},{40},{41},{42},{43},{44},{45},{46},{47},{48},{49},{50},{51},{52},{53},{54},{55},{56},{57},{58},{59},{60},{61},{62},{63},{64},{65},{66},{67},{68},{69},{70},{71}"
 %chk=4ksz_II_O.chk
 Properties for Device   0
 Minimum vector length:                              32
 Maximum vector length:                            1024
 Number of SMPs:                                    108
 Maximum number of threads per SMP:                2048
 Number of ASync Engines:                             5
 Memory:                                           9207742464
 Properties for Device   1
 Minimum vector length:                              32
 Maximum vector length:                            1024
 Number of SMPs:                                    108
 Maximum number of threads per SMP:                2048
 Number of ASync Engines:                             5
 Memory:                                           9207742464
 Properties for Device   2
 Minimum vector length:                              32
 Maximum vector length:                            1024
 Number of SMPs:                                    108
 Maximum number of threads per SMP:                2048
 Number of ASync Engines:                             5
 Memory:                                           9207742464
 Properties for Device   3
 Minimum vector length:                              32
 Maximum vector length:                            1024
 Number of SMPs:                                    108
 Maximum number of threads per SMP:                2048
 Number of ASync Engines:                             5
 Memory:                                           9207742464
   8286968217 words of memory will be used on each GPU.
 ------------------------------------------
 # polar def2tzvp apfd int=(grid=ultrafine)
 ------------------------------------------
 1/38=1,172=1/1;
 2/12=2,17=6,18=5,40=1/2;
 3/5=44,7=101,11=2,25=1,30=1,74=-44,75=-5/1,2,3;
 4//1;
 5/5=2,38=5,98=1/2;
 8/6=4,10=90,11=11/1;
 10/6=1,13=10/2;
 6/7=2,8=2,9=2,10=2,28=1/1;
 99/5=1,9=1/99;
 ---------
 4ksz_II_S
 ---------
 Symbolic Z-matrix:
 Charge =  0 Multiplicity = 1
 Fe                    10.09     2.418     26.452 
 N                     9.347     2.519     28.324 
 N                     10.252    4.583     26.447 
 N                     10.83     2.359     24.645 
 N                     9.958     0.23      26.495 
 C                     8.95      1.455     29.05 
 C                     8.462     1.975     30.329 
 C                     8.51      3.304     30.32 
 C                     9.043     3.678     29.046 
 C                     9.744     5.397     27.398 
 C                     9.846     6.738     26.845 
 C                     10.388    6.648     25.581 
 C                     10.677    5.264     25.348 
 C                     11.316    3.393     23.912 
 C                     11.926    2.858     22.717 
 C                     11.803    1.554     22.725 
 C                     11.118    1.203     23.938 
 C                     10.257   -0.565     25.418 
 C                     9.801    -1.864     25.671 
 C                     9.288    -1.825     27.03 
 C                     9.417    -0.435     27.49 
 C                     9.092     0.104     28.706 
 H                     8.922    -0.61      29.511 
 C                     9.241     4.977     28.628 
 H                     8.975     5.761     29.337 
 C                     11.251    4.753     24.183 
 H                     11.665    5.451     23.456 
 C                     10.8     -0.108     24.259 
 H                     11.009   -0.857     23.495 
 C                     8.06      4.284     31.449 
 H                     8.018     3.74      32.417 
 H                     7.05      4.685     31.217 
 H                     8.789     5.117     31.535 
 C                     7.926     1.154     31.539 
 H                     8.653     1.211     32.377 
 H                     7.798     0.091     31.244 
 H                     6.954     1.574     31.876 
 C                     9.338     8.023     27.538 
 H                     10.192    8.548     28.018 
 H                     8.593     7.759     28.319 
 H                     8.877     8.698     26.786 
 C                     10.732    7.72      24.509 
 H                     10.671    7.473     23.439 
 C                     11.11     8.967     24.856 
 H                     11.183    9.254     25.915 
 H                     11.35     9.713     24.084 
 C                     12.585    3.766     21.62 
 H                     12.99     4.686     22.094 
 H                     11.823    4.055     20.865 
 H                     13.417    3.218     21.129 
 C                     12.254    0.515     21.672 
 H                     12.018   -0.54      21.87 
 C                     12.913    0.752     20.522 
 H                     13.324   -0.081     19.932 
 H                     13.049    1.781     20.158 
 C                     9.874    -3.155     24.811 
 H                     10.885   -3.606     24.904 
 H                     9.687    -2.907     23.744 
 H                     9.119    -3.887     25.168 
 C                     8.621    -2.991     27.838 
 H                     9.161    -3.94      27.634 
 H                     7.561    -3.105     27.526 
 H                     8.675    -2.773     28.926 
 O                     7.501     2.478     25.816 
 H                     7.027     2.528     26.646 
 H                     7.139     2.457     25.004 
 C                     16.009    3.166     27.111 
 H                     16.777    2.368     27.023 
 H                     16.269    3.823     27.968 
 H                     15.993    3.757     26.17 
 N                     14.418    1.784     28.432 
 H                     15.055    1.603     29.181 
 C                     14.695    2.557     27.335 
 C                     13.178    1.328     28.325 
 H                     12.683    0.718     29.08 
 N                     12.669    1.73      27.183 
 C                     13.595    2.515     26.533 
 H                     13.386    2.965     25.571 
 
 Stoichiometry    C34H36FeN6O
 Framework group  C1[X(C34H36FeN6O)]
 Deg. of freedom   228
 Full point group                 C1      NOp   1
 Largest Abelian subgroup         C1      NOp   1
 Largest concise Abelian subgroup C1      NOp   1
                         Standard orientation:                         
 ---------------------------------------------------------------------
 Center     Atomic      Atomic             Coordinates (Angstroms)
 Number     Number       Type             X           Y           Z
 ---------------------------------------------------------------------
      1         26           0        0.219051   -0.212339   -0.421312
      2          7           0        0.998136   -2.056501   -0.178975
      3          7           0       -1.763597   -1.096938   -0.412035
      4          7           0       -0.573376    1.560120   -0.637596
      5          7           0        2.228237    0.664273   -0.384710
      6          6           0        2.316445   -2.329659   -0.113961
      7          6           0        2.439770   -3.780503    0.041695
      8          6           0        1.233926   -4.339777   -0.000480
      9          6           0        0.300141   -3.268798   -0.168076
     10          6           0       -2.016897   -2.423412   -0.449008
     11          6           0       -3.444117   -2.531100   -0.705795
     12          6           0       -3.961113   -1.259826   -0.832830
     13          6           0       -2.881006   -0.345305   -0.608589
     14          6           0       -1.890465    1.888431   -0.626277
     15          6           0       -2.001686    3.328542   -0.633935
     16          6           0       -0.799112    3.846979   -0.659381
     17          6           0        0.131510    2.752574   -0.655477
     18          6           0        2.473268    1.997776   -0.592278
     19          6           0        3.846399    2.182249   -0.791845
     20          6           0        4.435867    0.869366   -0.590759
     21          6           0        3.323859   -0.058633   -0.340564
     22          6           0        3.365065   -1.400965   -0.073639
     23          1           0        4.339541   -1.798958    0.206931
     24          6           0       -1.065612   -3.426690   -0.273514
     25          1           0       -1.442362   -4.447719   -0.213065
     26          6           0       -2.993526    1.045549   -0.634794
     27          1           0       -3.988858    1.487844   -0.663416
     28          6           0        1.504120    2.944313   -0.700904
     29          1           0        1.844454    3.970604   -0.839745
     30          6           0        0.881239   -5.858061    0.088782
     31          1           0        1.729143   -6.409065    0.549409
     32          1           0        0.700622   -6.261704   -0.930617
     33          1           0       -0.022976   -5.996581    0.718014
     34          6           0        3.751495   -4.604432    0.202804
     35          1           0        3.814487   -5.002666    1.237919
     36          1           0        4.630045   -3.952114    0.013043
     37          1           0        3.749634   -5.455762   -0.511329
     38          6           0       -4.212442   -3.859048   -0.894926
     39          1           0       -4.730915   -4.125661    0.051354
     40          1           0       -3.500273   -4.670997   -1.156145
     41          1           0       -4.968950   -3.743779   -1.699947
     42          6           0       -5.397867   -0.735260   -1.110809
     43          1           0       -5.547539    0.204048   -1.663011
     44          6           0       -6.487329   -1.408240   -0.688348
     45          1           0       -6.380569   -2.351497   -0.133328
     46          1           0       -7.496715   -1.022164   -0.893737
     47          6           0       -3.382427    4.073987   -0.638379
     48          1           0       -4.140174    3.454713   -0.111671
     49          1           0       -3.716177    4.239012   -1.685072
     50          1           0       -3.285236    5.047716   -0.113007
     51          6           0       -0.366383    5.330939   -0.707738
     52          1           0        0.711228    5.541575   -0.755831
     53          6           0       -1.165396    6.414645   -0.697302
     54          1           0       -0.739420    7.421346   -0.570779
     55          1           0       -2.253744    6.307347   -0.814853
     56          6           0        4.672724    3.468776   -1.063225
     57          1           0        4.847622    4.005983   -0.106673
     58          1           0        4.113588    4.135972   -1.754005
     59          1           0        5.653350    3.198040   -1.508616
     60          6           0        5.945279    0.465435   -0.716549
     61          1           0        6.581132    1.267402   -0.284857
     62          1           0        6.209920    0.332435   -1.787164
     63          1           0        6.129245   -0.478330   -0.160089
     64          8           0        0.607903   -0.787184   -2.996068
     65          1           0        0.986207   -1.666153   -3.015460
     66          1           0        0.427268   -0.276624   -3.701425
     67          6           0       -1.749952    1.347028    5.030270
     68          1           0       -1.266616    2.082747    5.708115
     69          1           0       -2.096102    0.478402    5.629743
     70          1           0       -2.615123    1.832050    4.529020
     71          7           0        0.378280    0.251139    4.355064
     72          1           0        0.645612   -0.007737    5.282991
     73          6           0       -0.782352    0.900193    4.024416
     74          6           0        1.070022    0.031619    3.245881
     75          1           0        2.017707   -0.504926    3.211766
     76          7           0        0.429505    0.559422    2.228035
     77          6           0       -0.748888    1.110788    2.679240
     78          1           0       -1.445254    1.595997    2.007473
 ---------------------------------------------------------------------
 Rotational constants (GHZ):           0.0858105           0.0841734           0.0571366
 Standard basis: def2TZVP (5D, 7F)
 There are  1744 symmetry adapted cartesian basis functions of A   symmetry.
 There are  1532 symmetry adapted basis functions of A   symmetry.
  1532 basis functions,  2481 primitive gaussians,  1744 cartesian basis functions
   158 alpha electrons      158 beta electrons
       nuclear repulsion energy      5764.6647785783 Hartrees.
 NAtoms=   78 NActive=   78 NUniq=   78 SFac= 1.00D+00 NAtFMM=   60 NAOKFM=T Big=T
 Integral buffers will be    131072 words long.
 Raffenetti 2 integral format.
 Two-electron integral symmetry is turned on.
 R6APFD:  NTU= -4 IXU= 1 FactS= 1.050
 Nuclear repulsion after empirical dispersion term =     5764.5223462415 Hartrees.
 One-electron integrals computed using PRISM.
   1 Symmetry operations used in ECPInt.
 ECPInt:  NShTT=  186355 NPrTT=  576197 LenC2=  144235 LenP2D=  292988.
 LDataN:  DoStor=T MaxTD1= 6 Len=  172
 Number of processors reduced to  23 by ecpmxn.
 NBasis=  1532 RedAO= T EigKep=  4.03D-06  NBF=  1532
 NBsUse=  1532 1.00D-06 EigRej= -1.00D+00 NBFU=  1532
 ExpMin= 4.20D-02 ExpMax= 3.01D+05 ExpMxC= 2.91D+03 IAcc=3 IRadAn=         5 AccDes= 0.00D+00
 Harris functional with IExCor= 3731 and IRadAn=       5 diagonalized for initial guess.
 HarFok:  IExCor= 3731 AccDes= 0.00D+00 IRadAn=         5 IDoV= 1 UseB2=F ITyADJ=14
 ICtDFT=  3500011 ScaDFX=  1.000000  1.000000  1.000000  1.000000
 FoFCou: FMM=F IPFlag=           0 FMFlag=      100000 FMFlg1=        2001
         NFxFlg=           0 DoJE=T BraDBF=F KetDBF=T FulRan=T
         wScrn=  0.000000 ICntrl=       500 IOpCl=  0 I1Cent=   200000004 NGrid=           0
         NMat0=    1 NMatS0=      1 NMatT0=    0 NMatD0=    1 NMtDS0=    0 NMtDT0=    0
 Petite list used in FoFCou.
 Requested convergence on RMS density matrix=1.00D-08 within 128 cycles.
 Requested convergence on MAX density matrix=1.00D-06.
 Requested convergence on             energy=1.00D-06.
 No special actions if energy rises.
 EnCoef did     3 forward-backward iterations
 EnCoef did   100 forward-backward iterations
 EnCoef did   100 forward-backward iterations
 EnCoef did   100 forward-backward iterations
 EnCoef did   100 forward-backward iterations
 EnCoef did    34 forward-backward iterations
 EnCoef did     5 forward-backward iterations
 EnCoef did     5 forward-backward iterations
 Restarting incremental Fock formation.
 SCF Done:  E(RAPFD) =  -2983.87537036     A.U. after   37 cycles
            NFock= 37  Conv=0.17D-08     -V/T= 2.0041
 DoSCS=F DFT=T ScalE2(SS,OS)=  1.000000  1.000000
 Range of M.O.s used for correlation:     1  1532
 NBasis=  1532 NAE=   158 NBE=   158 NFC=     0 NFV=     0
 NROrb=   1532 NOA=   158 NOB=   158 NVA=  1374 NVB=  1374

 **** Warning!!: The largest alpha MO coefficient is  0.50134058D+02

          Differentiating once with respect to electric field.
                with respect to dipole field.
          Electric field/nuclear overlap derivatives assumed to be zero.
          There are     3 degrees of freedom in the 1st order CPHF.  IDoFFX=0 NUNeed=     3.
      3 vectors produced by pass  0 Test12= 7.24D-12 3.33D-08 XBig12= 1.98D+03 2.36D+01.
 AX will form     3 AO Fock derivatives at one time.
      3 vectors produced by pass  1 Test12= 7.24D-12 3.33D-08 XBig12= 1.34D+03 8.48D+00.
      3 vectors produced by pass  2 Test12= 7.24D-12 3.33D-08 XBig12= 3.54D+02 3.70D+00.
      3 vectors produced by pass  3 Test12= 7.24D-12 3.33D-08 XBig12= 2.12D+02 3.31D+00.
      3 vectors produced by pass  4 Test12= 7.24D-12 3.33D-08 XBig12= 7.73D+01 1.82D+00.
      3 vectors produced by pass  5 Test12= 7.24D-12 3.33D-08 XBig12= 4.21D+01 1.51D+00.
      3 vectors produced by pass  6 Test12= 7.24D-12 3.33D-08 XBig12= 3.11D+01 1.40D+00.
      3 vectors produced by pass  7 Test12= 7.24D-12 3.33D-08 XBig12= 1.74D+01 1.25D+00.
      3 vectors produced by pass  8 Test12= 7.24D-12 3.33D-08 XBig12= 9.06D+00 9.16D-01.
      3 vectors produced by pass  9 Test12= 7.24D-12 3.33D-08 XBig12= 4.58D+00 7.38D-01.
      3 vectors produced by pass 10 Test12= 7.24D-12 3.33D-08 XBig12= 2.16D+00 4.05D-01.
      3 vectors produced by pass 11 Test12= 7.24D-12 3.33D-08 XBig12= 1.54D+00 4.59D-01.
      3 vectors produced by pass 12 Test12= 7.24D-12 3.33D-08 XBig12= 8.54D-01 3.51D-01.
      3 vectors produced by pass 13 Test12= 7.24D-12 3.33D-08 XBig12= 3.03D-01 1.25D-01.
      3 vectors produced by pass 14 Test12= 7.24D-12 3.33D-08 XBig12= 9.38D-02 6.50D-02.
      3 vectors produced by pass 15 Test12= 7.24D-12 3.33D-08 XBig12= 2.82D-02 4.60D-02.
      3 vectors produced by pass 16 Test12= 7.24D-12 3.33D-08 XBig12= 1.13D-02 3.01D-02.
      3 vectors produced by pass 17 Test12= 7.24D-12 3.33D-08 XBig12= 2.92D-03 1.39D-02.
      3 vectors produced by pass 18 Test12= 7.24D-12 3.33D-08 XBig12= 9.14D-04 8.50D-03.
      3 vectors produced by pass 19 Test12= 7.24D-12 3.33D-08 XBig12= 1.99D-04 2.32D-03.
      3 vectors produced by pass 20 Test12= 7.24D-12 3.33D-08 XBig12= 7.68D-05 1.38D-03.
      3 vectors produced by pass 21 Test12= 7.24D-12 3.33D-08 XBig12= 1.29D-05 8.82D-04.
      3 vectors produced by pass 22 Test12= 7.24D-12 3.33D-08 XBig12= 3.81D-06 2.89D-04.
      3 vectors produced by pass 23 Test12= 7.24D-12 3.33D-08 XBig12= 8.43D-07 2.17D-04.
      3 vectors produced by pass 24 Test12= 7.24D-12 3.33D-08 XBig12= 1.24D-07 6.64D-05.
      3 vectors produced by pass 25 Test12= 7.24D-12 3.33D-08 XBig12= 3.06D-08 2.66D-05.
      3 vectors produced by pass 26 Test12= 7.24D-12 3.33D-08 XBig12= 3.70D-09 9.46D-06.
      3 vectors produced by pass 27 Test12= 7.24D-12 3.33D-08 XBig12= 5.56D-10 4.45D-06.
      3 vectors produced by pass 28 Test12= 7.24D-12 3.33D-08 XBig12= 9.56D-11 1.86D-06.
      3 vectors produced by pass 29 Test12= 7.24D-12 3.33D-08 XBig12= 1.68D-11 9.02D-07.
      3 vectors produced by pass 30 Test12= 7.24D-12 3.33D-08 XBig12= 2.58D-12 3.20D-07.
      2 vectors produced by pass 31 Test12= 7.24D-12 3.33D-08 XBig12= 3.89D-13 1.11D-07.
      1 vectors produced by pass 32 Test12= 7.24D-12 3.33D-08 XBig12= 6.08D-14 3.67D-08.
 InvSVY:  IOpt=1 It=  1 EMax= 2.13D-14
 Solved reduced A of dimension    96 with     3 vectors.
 Isotropic polarizability for W=    0.000000      591.22 Bohr**3.
 End of Minotr F.D. properties file   721 does not exist.
 End of Minotr F.D. properties file   722 does not exist.
 End of Minotr F.D. properties file   788 does not exist.

 **********************************************************************

            Population analysis using the SCF Density.

 **********************************************************************

 Orbital symmetries:
       Occupied  (A) (A) (A) (A) (A) (A) (A) (A) (A) (A) (A) (A)
                 (A) (A) (A) (A) (A) (A) (A) (A) (A) (A) (A) (A)
                 (A) (A) (A) (A) (A) (A) (A) (A) (A) (A) (A) (A)
                 (A) (A) (A) (A) (A) (A) (A) (A) (A) (A) (A) (A)
                 (A) (A) (A) (A) (A) (A) (A) (A) (A) (A) (A) (A)
                 (A) (A) (A) (A) (A) (A) (A) (A) (A) (A) (A) (A)
                 (A) (A) (A) (A) (A) (A) (A) (A) (A) (A) (A) (A)
                 (A) (A) (A) (A) (A) (A) (A) (A) (A) (A) (A) (A)
                 (A) (A) (A) (A) (A) (A) (A) (A) (A) (A) (A) (A)
                 (A) (A) (A) (A) (A) (A) (A) (A) (A) (A) (A) (A)
                 (A) (A) (A) (A) (A) (A) (A) (A) (A) (A) (A) (A)
                 (A) (A) (A) (A) (A) (A) (A) (A) (A) (A) (A) (A)
                 (A) (A) (A) (A) (A) (A) (A) (A) (A) (A) (A) (A)
                 (A) (A)
       Virtual   (A) (A) (A) (A) (A) (A) (A) (A) (A) (A) (A) (A)
                 (A) (A) (A) (A) (A) (A) (A) (A) (A) (A) (A) (A)
                 (A) (A) (A) (A) (A) (A) (A) (A) (A) (A) (A) (A)
                 (A) (A) (A) (A) (A) (A) (A) (A) (A) (A) (A) (A)
                 (A) (A) (A) (A) (A) (A) (A) (A) (A) (A) (A) (A)
                 (A) (A) (A) (A) (A) (A) (A) (A) (A) (A) (A) (A)
                 (A) (A) (A) (A) (A) (A) (A) (A) (A) (A) (A) (A)
                 (A) (A) (A) (A) (A) (A) (A) (A) (A) (A) (A) (A)
                 (A) (A) (A) (A) (A) (A) (A) (A) (A) (A) (A) (A)
                 (A) (A) (A) (A) (A) (A) (A) (A) (A) (A) (A) (A)
                 (A) (A) (A) (A) (A) (A) (A) (A) (A) (A) (A) (A)
                 (A) (A) (A) (A) (A) (A) (A) (A) (A) (A) (A) (A)
                 (A) (A) (A) (A) (A) (A) (A) (A) (A) (A) (A) (A)
                 (A) (A) (A) (A) (A) (A) (A) (A) (A) (A) (A) (A)
                 (A) (A) (A) (A) (A) (A) (A) (A) (A) (A) (A) (A)
                 (A) (A) (A) (A) (A) (A) (A) (A) (A) (A) (A) (A)
                 (A) (A) (A) (A) (A) (A) (A) (A) (A) (A) (A) (A)
                 (A) (A) (A) (A) (A) (A) (A) (A) (A) (A) (A) (A)
                 (A) (A) (A) (A) (A) (A) (A) (A) (A) (A) (A) (A)
                 (A) (A) (A) (A) (A) (A) (A) (A) (A) (A) (A) (A)
                 (A) (A) (A) (A) (A) (A) (A) (A) (A) (A) (A) (A)
                 (A) (A) (A) (A) (A) (A) (A) (A) (A) (A) (A) (A)
                 (A) (A) (A) (A) (A) (A) (A) (A) (A) (A) (A) (A)
                 (A) (A) (A) (A) (A) (A) (A) (A) (A) (A) (A) (A)
                 (A) (A) (A) (A) (A) (A) (A) (A) (A) (A) (A) (A)
                 (A) (A) (A) (A) (A) (A) (A) (A) (A) (A) (A) (A)
                 (A) (A) (A) (A) (A) (A) (A) (A) (A) (A) (A) (A)
                 (A) (A) (A) (A) (A) (A) (A) (A) (A) (A) (A) (A)
                 (A) (A) (A) (A) (A) (A) (A) (A) (A) (A) (A) (A)
                 (A) (A) (A) (A) (A) (A) (A) (A) (A) (A) (A) (A)
                 (A) (A) (A) (A) (A) (A) (A) (A) (A) (A) (A) (A)
                 (A) (A) (A) (A) (A) (A) (A) (A) (A) (A) (A) (A)
                 (A) (A) (A) (A) (A) (A) (A) (A) (A) (A) (A) (A)
                 (A) (A) (A) (A) (A) (A) (A) (A) (A) (A) (A) (A)
                 (A) (A) (A) (A) (A) (A) (A) (A) (A) (A) (A) (A)
                 (A) (A) (A) (A) (A) (A) (A) (A) (A) (A) (A) (A)
                 (A) (A) (A) (A) (A) (A) (A) (A) (A) (A) (A) (A)
                 (A) (A) (A) (A) (A) (A) (A) (A) (A) (A) (A) (A)
                 (A) (A) (A) (A) (A) (A) (A) (A) (A) (A) (A) (A)
                 (A) (A) (A) (A) (A) (A) (A) (A) (A) (A) (A) (A)
                 (A) (A) (A) (A) (A) (A) (A) (A) (A) (A) (A) (A)
                 (A) (A) (A) (A) (A) (A) (A) (A) (A) (A) (A) (A)
                 (A) (A) (A) (A) (A) (A) (A) (A) (A) (A) (A) (A)
                 (A) (A) (A) (A) (A) (A) (A) (A) (A) (A) (A) (A)
                 (A) (A) (A) (A) (A) (A) (A) (A) (A) (A) (A) (A)
                 (A) (A) (A) (A) (A) (A) (A) (A) (A) (A) (A) (A)
                 (A) (A) (A) (A) (A) (A) (A) (A) (A) (A) (A) (A)
                 (A) (A) (A) (A) (A) (A) (A) (A) (A) (A) (A) (A)
                 (A) (A) (A) (A) (A) (A) (A) (A) (A) (A) (A) (A)
                 (A) (A) (A) (A) (A) (A) (A) (A) (A) (A) (A) (A)
                 (A) (A) (A) (A) (A) (A) (A) (A) (A) (A) (A) (A)
                 (A) (A) (A) (A) (A) (A) (A) (A) (A) (A) (A) (A)
                 (A) (A) (A) (A) (A) (A) (A) (A) (A) (A) (A) (A)
                 (A) (A) (A) (A) (A) (A) (A) (A) (A) (A) (A) (A)
                 (A) (A) (A) (A) (A) (A) (A) (A) (A) (A) (A) (A)
                 (A) (A) (A) (A) (A) (A) (A) (A) (A) (A) (A) (A)
                 (A) (A) (A) (A) (A) (A) (A) (A) (A) (A) (A) (A)
                 (A) (A) (A) (A) (A) (A) (A) (A) (A) (A) (A) (A)
                 (A) (A) (A) (A) (A) (A) (A) (A) (A) (A) (A) (A)
                 (A) (A) (A) (A) (A) (A) (A) (A) (A) (A) (A) (A)
                 (A) (A) (A) (A) (A) (A) (A) (A) (A) (A) (A) (A)
                 (A) (A) (A) (A) (A) (A) (A) (A) (A) (A) (A) (A)
                 (A) (A) (A) (A) (A) (A) (A) (A) (A) (A) (A) (A)
                 (A) (A) (A) (A) (A) (A) (A) (A) (A) (A) (A) (A)
                 (A) (A) (A) (A) (A) (A) (A) (A) (A) (A) (A) (A)
                 (A) (A) (A) (A) (A) (A) (A) (A) (A) (A) (A) (A)
                 (A) (A) (A) (A) (A) (A) (A) (A) (A) (A) (A) (A)
                 (A) (A) (A) (A) (A) (A) (A) (A) (A) (A) (A) (A)
                 (A) (A) (A) (A) (A) (A) (A) (A) (A) (A) (A) (A)
                 (A) (A) (A) (A) (A) (A) (A) (A) (A) (A) (A) (A)
                 (A) (A) (A) (A) (A) (A) (A) (A) (A) (A) (A) (A)
                 (A) (A) (A) (A) (A) (A) (A) (A) (A) (A) (A) (A)
                 (A) (A) (A) (A) (A) (A) (A) (A) (A) (A) (A) (A)
                 (A) (A) (A) (A) (A) (A) (A) (A) (A) (A) (A) (A)
                 (A) (A) (A) (A) (A) (A) (A) (A) (A) (A) (A) (A)
                 (A) (A) (A) (A) (A) (A) (A) (A) (A) (A) (A) (A)
                 (A) (A) (A) (A) (A) (A) (A) (A) (A) (A) (A) (A)
                 (A) (A) (A) (A) (A) (A) (A) (A) (A) (A) (A) (A)
                 (A) (A) (A) (A) (A) (A) (A) (A) (A) (A) (A) (A)
                 (A) (A) (A) (A) (A) (A) (A) (A) (A) (A) (A) (A)
                 (A) (A) (A) (A) (A) (A) (A) (A) (A) (A) (A) (A)
                 (A) (A) (A) (A) (A) (A) (A) (A) (A) (A) (A) (A)
                 (A) (A) (A) (A) (A) (A) (A) (A) (A) (A) (A) (A)
                 (A) (A) (A) (A) (A) (A) (A) (A) (A) (A) (A) (A)
                 (A) (A) (A) (A) (A) (A) (A) (A) (A) (A) (A) (A)
                 (A) (A) (A) (A) (A) (A) (A) (A) (A) (A) (A) (A)
                 (A) (A) (A) (A) (A) (A) (A) (A) (A) (A) (A) (A)
                 (A) (A) (A) (A) (A) (A) (A) (A) (A) (A) (A) (A)
                 (A) (A) (A) (A) (A) (A) (A) (A) (A) (A) (A) (A)
                 (A) (A) (A) (A) (A) (A) (A) (A) (A) (A) (A) (A)
                 (A) (A) (A) (A) (A) (A) (A) (A) (A) (A) (A) (A)
                 (A) (A) (A) (A) (A) (A) (A) (A) (A) (A) (A) (A)
                 (A) (A) (A) (A) (A) (A) (A) (A) (A) (A) (A) (A)
                 (A) (A) (A) (A) (A) (A) (A) (A) (A) (A) (A) (A)
                 (A) (A) (A) (A) (A) (A) (A) (A) (A) (A) (A) (A)
                 (A) (A) (A) (A) (A) (A) (A) (A) (A) (A) (A) (A)
                 (A) (A) (A) (A) (A) (A) (A) (A) (A) (A) (A) (A)
                 (A) (A) (A) (A) (A) (A) (A) (A) (A) (A) (A) (A)
                 (A) (A) (A) (A) (A) (A) (A) (A) (A) (A) (A) (A)
                 (A) (A) (A) (A) (A) (A) (A) (A) (A) (A) (A) (A)
                 (A) (A) (A) (A) (A) (A) (A) (A) (A) (A) (A) (A)
                 (A) (A) (A) (A) (A) (A) (A) (A) (A) (A) (A) (A)
                 (A) (A) (A) (A) (A) (A) (A) (A) (A) (A) (A) (A)
                 (A) (A) (A) (A) (A) (A) (A) (A) (A) (A) (A) (A)
                 (A) (A) (A) (A) (A) (A) (A) (A) (A) (A) (A) (A)
                 (A) (A) (A) (A) (A) (A) (A) (A) (A) (A) (A) (A)
                 (A) (A) (A) (A) (A) (A) (A) (A) (A) (A) (A) (A)
                 (A) (A) (A) (A) (A) (A) (A) (A) (A) (A) (A) (A)
                 (A) (A) (A) (A) (A) (A) (A) (A) (A) (A) (A) (A)
                 (A) (A) (A) (A) (A) (A) (A) (A) (A) (A) (A) (A)
                 (A) (A) (A) (A) (A) (A) (A) (A) (A) (A) (A) (A)
                 (A) (A) (A) (A) (A) (A) (A) (A) (A) (A) (A) (A)
                 (A) (A) (A) (A) (A) (A) (A) (A) (A) (A) (A) (A)
                 (A) (A) (A) (A) (A) (A) (A) (A) (A) (A) (A) (A)
                 (A) (A) (A) (A) (A) (A)
 The electronic state is 1-A.
 Alpha  occ. eigenvalues -- -256.19572 -30.04066 -25.88373 -25.87847 -25.87787
 Alpha  occ. eigenvalues --  -19.16352 -14.40726 -14.34336 -14.33866 -14.33174
 Alpha  occ. eigenvalues --  -14.33064 -14.31922 -10.24526 -10.22539 -10.22051
 Alpha  occ. eigenvalues --  -10.21765 -10.21722 -10.21623 -10.21557 -10.21200
 Alpha  occ. eigenvalues --  -10.20991 -10.20967 -10.20868 -10.20794 -10.20488
 Alpha  occ. eigenvalues --  -10.20288 -10.20015 -10.19974 -10.19819 -10.19807
 Alpha  occ. eigenvalues --  -10.19749 -10.19729 -10.19645 -10.19480 -10.19464
 Alpha  occ. eigenvalues --  -10.19378 -10.19332 -10.19305 -10.19250 -10.19151
 Alpha  occ. eigenvalues --  -10.19112 -10.19056 -10.19049 -10.19042 -10.18947
 Alpha  occ. eigenvalues --  -10.18795  -3.42120  -2.19102  -2.17838  -2.17676
 Alpha  occ. eigenvalues --   -1.04581  -1.04100  -0.96853  -0.96110  -0.95711
 Alpha  occ. eigenvalues --   -0.95021  -0.88606  -0.82309  -0.81027  -0.80371
 Alpha  occ. eigenvalues --   -0.80068  -0.79870  -0.79382  -0.79184  -0.77727
 Alpha  occ. eigenvalues --   -0.75891  -0.75126  -0.74349  -0.73468  -0.71834
 Alpha  occ. eigenvalues --   -0.70781  -0.70352  -0.69453  -0.68109  -0.67849
 Alpha  occ. eigenvalues --   -0.66504  -0.64702  -0.64306  -0.62913  -0.60634
 Alpha  occ. eigenvalues --   -0.59758  -0.59561  -0.58823  -0.57999  -0.57241
 Alpha  occ. eigenvalues --   -0.54545  -0.54407  -0.53499  -0.53306  -0.52134
 Alpha  occ. eigenvalues --   -0.51561  -0.50650  -0.50134  -0.48326  -0.47970
 Alpha  occ. eigenvalues --   -0.46879  -0.46805  -0.46480  -0.44684  -0.44555
 Alpha  occ. eigenvalues --   -0.44102  -0.43766  -0.43763  -0.43106  -0.42894
 Alpha  occ. eigenvalues --   -0.42724  -0.42235  -0.42190  -0.42002  -0.41931
 Alpha  occ. eigenvalues --   -0.41882  -0.41358  -0.41323  -0.41097  -0.40841
 Alpha  occ. eigenvalues --   -0.40475  -0.40287  -0.40019  -0.39967  -0.39706
 Alpha  occ. eigenvalues --   -0.39446  -0.39403  -0.39131  -0.38712  -0.38507
 Alpha  occ. eigenvalues --   -0.38347  -0.37812  -0.37337  -0.36777  -0.36338
 Alpha  occ. eigenvalues --   -0.35759  -0.35183  -0.34890  -0.34817  -0.33743
 Alpha  occ. eigenvalues --   -0.33675  -0.33236  -0.33014  -0.32001  -0.30273
 Alpha  occ. eigenvalues --   -0.30108  -0.29760  -0.29293  -0.28830  -0.28137
 Alpha  occ. eigenvalues --   -0.27288  -0.26898  -0.26553  -0.25185  -0.23529
 Alpha  occ. eigenvalues --   -0.23190  -0.23118  -0.21598  -0.20852  -0.19865
 Alpha  occ. eigenvalues --   -0.19432  -0.18673  -0.18377
 Alpha virt. eigenvalues --   -0.07468  -0.06642  -0.03991  -0.02310   0.00116
 Alpha virt. eigenvalues --    0.01564   0.02283   0.02571   0.03155   0.03381
 Alpha virt. eigenvalues --    0.04518   0.04667   0.05223   0.05786   0.05906
 Alpha virt. eigenvalues --    0.06193   0.06638   0.06794   0.07143   0.07602
 Alpha virt. eigenvalues --    0.08109   0.08445   0.08897   0.09046   0.09331
 Alpha virt. eigenvalues --    0.09785   0.10019   0.10664   0.10755   0.10794
 Alpha virt. eigenvalues --    0.11281   0.11419   0.11751   0.11910   0.12242
 Alpha virt. eigenvalues --    0.12317   0.12430   0.12536   0.12836   0.12887
 Alpha virt. eigenvalues --    0.13357   0.13575   0.13661   0.14009   0.14096
 Alpha virt. eigenvalues --    0.14455   0.14734   0.14839   0.15014   0.15199
 Alpha virt. eigenvalues --    0.15295   0.15521   0.15577   0.15758   0.16260
 Alpha virt. eigenvalues --    0.16431   0.16608   0.16690   0.17262   0.17394
 Alpha virt. eigenvalues --    0.17630   0.17866   0.18130   0.18587   0.19112
 Alpha virt. eigenvalues --    0.19608   0.19731   0.20146   0.20289   0.20622
 Alpha virt. eigenvalues --    0.20767   0.21041   0.21655   0.21968   0.22011
 Alpha virt. eigenvalues --    0.22396   0.22654   0.22667   0.22831   0.23423
 Alpha virt. eigenvalues --    0.23633   0.24043   0.24139   0.24424   0.24593
 Alpha virt. eigenvalues --    0.24947   0.25102   0.25193   0.25468   0.25655
 Alpha virt. eigenvalues --    0.25885   0.26360   0.26553   0.26794   0.26987
 Alpha virt. eigenvalues --    0.27105   0.27261   0.27602   0.27928   0.28269
 Alpha virt. eigenvalues --    0.28521   0.28733   0.28982   0.29092   0.29297
 Alpha virt. eigenvalues --    0.29518   0.29924   0.30246   0.30433   0.30557
 Alpha virt. eigenvalues --    0.30809   0.31182   0.31639   0.31811   0.32076
 Alpha virt. eigenvalues --    0.32342   0.32684   0.32852   0.33224   0.33471
 Alpha virt. eigenvalues --    0.33591   0.33699   0.34365   0.34557   0.34979
 Alpha virt. eigenvalues --    0.35181   0.35334   0.35577   0.35805   0.36243
 Alpha virt. eigenvalues --    0.36485   0.36939   0.37138   0.37376   0.37682
 Alpha virt. eigenvalues --    0.37707   0.38013   0.38308   0.38546   0.38748
 Alpha virt. eigenvalues --    0.39044   0.39248   0.39305   0.39564   0.39750
 Alpha virt. eigenvalues --    0.39941   0.40198   0.40354   0.40626   0.40851
 Alpha virt. eigenvalues --    0.41205   0.41453   0.41593   0.41866   0.41990
 Alpha virt. eigenvalues --    0.42300   0.42435   0.42751   0.43053   0.43375
 Alpha virt. eigenvalues --    0.43542   0.43828   0.44161   0.44312   0.44466
 Alpha virt. eigenvalues --    0.44727   0.44812   0.45050   0.45229   0.45360
 Alpha virt. eigenvalues --    0.45551   0.45962   0.46119   0.46145   0.46486
 Alpha virt. eigenvalues --    0.46636   0.47028   0.47300   0.47410   0.47716
 Alpha virt. eigenvalues --    0.47875   0.48271   0.48434   0.48549   0.48981
 Alpha virt. eigenvalues --    0.49286   0.49568   0.49575   0.50232   0.50253
 Alpha virt. eigenvalues --    0.50476   0.50563   0.50976   0.51072   0.51314
 Alpha virt. eigenvalues --    0.51685   0.51929   0.51941   0.52293   0.52451
 Alpha virt. eigenvalues --    0.52733   0.52934   0.53239   0.53434   0.53710
 Alpha virt. eigenvalues --    0.53973   0.54194   0.54594   0.54838   0.54980
 Alpha virt. eigenvalues --    0.55249   0.55468   0.55663   0.55791   0.56041
 Alpha virt. eigenvalues --    0.56448   0.56827   0.57034   0.57197   0.57685
 Alpha virt. eigenvalues --    0.57951   0.58076   0.58558   0.58861   0.59356
 Alpha virt. eigenvalues --    0.59653   0.60013   0.60141   0.60490   0.60679
 Alpha virt. eigenvalues --    0.61240   0.61448   0.61816   0.62059   0.62139
 Alpha virt. eigenvalues --    0.62533   0.63024   0.63147   0.63197   0.63726
 Alpha virt. eigenvalues --    0.64134   0.64716   0.64754   0.64931   0.65312
 Alpha virt. eigenvalues --    0.65479   0.65635   0.65814   0.66375   0.66670
 Alpha virt. eigenvalues --    0.66933   0.67344   0.67909   0.68004   0.68350
 Alpha virt. eigenvalues --    0.68593   0.68965   0.69184   0.69390   0.69515
 Alpha virt. eigenvalues --    0.69766   0.70083   0.70665   0.70787   0.71265
 Alpha virt. eigenvalues --    0.71530   0.71847   0.71871   0.72272   0.72560
 Alpha virt. eigenvalues --    0.72985   0.73463   0.73588   0.74020   0.74084
 Alpha virt. eigenvalues --    0.74358   0.75083   0.75578   0.75728   0.75911
 Alpha virt. eigenvalues --    0.76171   0.76451   0.76773   0.77200   0.77529
 Alpha virt. eigenvalues --    0.77734   0.78147   0.78398   0.78541   0.79202
 Alpha virt. eigenvalues --    0.79447   0.79690   0.80024   0.80238   0.80692
 Alpha virt. eigenvalues --    0.81338   0.81468   0.81807   0.82282   0.82498
 Alpha virt. eigenvalues --    0.82990   0.83506   0.83626   0.84037   0.84271
 Alpha virt. eigenvalues --    0.84932   0.84980   0.85567   0.85677   0.86167
 Alpha virt. eigenvalues --    0.86439   0.86963   0.87275   0.87636   0.87802
 Alpha virt. eigenvalues --    0.88297   0.89036   0.89414   0.89586   0.90083
 Alpha virt. eigenvalues --    0.90468   0.90642   0.91211   0.91414   0.91766
 Alpha virt. eigenvalues --    0.91957   0.92231   0.92722   0.92913   0.93512
 Alpha virt. eigenvalues --    0.93807   0.94244   0.94546   0.94685   0.94765
 Alpha virt. eigenvalues --    0.95665   0.95906   0.96445   0.96682   0.97029
 Alpha virt. eigenvalues --    0.97327   0.97420   0.97951   0.98250   0.98696
 Alpha virt. eigenvalues --    0.99115   0.99324   0.99555   0.99819   1.00086
 Alpha virt. eigenvalues --    1.00374   1.01167   1.01357   1.01575   1.01732
 Alpha virt. eigenvalues --    1.01859   1.02250   1.02832   1.03114   1.03605
 Alpha virt. eigenvalues --    1.03811   1.04318   1.04780   1.04995   1.05271
 Alpha virt. eigenvalues --    1.06076   1.06652   1.06875   1.07148   1.07566
 Alpha virt. eigenvalues --    1.07795   1.08148   1.08466   1.08882   1.09095
 Alpha virt. eigenvalues --    1.09575   1.09888   1.10314   1.10597   1.11514
 Alpha virt. eigenvalues --    1.11851   1.12411   1.12859   1.13121   1.13752
 Alpha virt. eigenvalues --    1.13858   1.14830   1.15213   1.15734   1.16026
 Alpha virt. eigenvalues --    1.16231   1.16613   1.16984   1.17256   1.17477
 Alpha virt. eigenvalues --    1.18062   1.18489   1.18546   1.19101   1.19654
 Alpha virt. eigenvalues --    1.20468   1.20815   1.21101   1.21313   1.21600
 Alpha virt. eigenvalues --    1.22020   1.22449   1.22843   1.23124   1.23630
 Alpha virt. eigenvalues --    1.23866   1.24693   1.25340   1.25488   1.25633
 Alpha virt. eigenvalues --    1.26210   1.26402   1.26850   1.27626   1.28027
 Alpha virt. eigenvalues --    1.28065   1.28646   1.29096   1.29368   1.29934
 Alpha virt. eigenvalues --    1.30380   1.31434   1.31531   1.32009   1.32798
 Alpha virt. eigenvalues --    1.33228   1.33846   1.34106   1.34855   1.35245
 Alpha virt. eigenvalues --    1.36439   1.36807   1.36955   1.37308   1.37842
 Alpha virt. eigenvalues --    1.38602   1.39222   1.39428   1.40137   1.40422
 Alpha virt. eigenvalues --    1.41047   1.41473   1.42006   1.42309   1.42640
 Alpha virt. eigenvalues --    1.43102   1.43117   1.44023   1.44604   1.44667
 Alpha virt. eigenvalues --    1.45259   1.45737   1.45861   1.46366   1.46620
 Alpha virt. eigenvalues --    1.47078   1.47178   1.47817   1.48332   1.48821
 Alpha virt. eigenvalues --    1.49071   1.49523   1.49750   1.49968   1.50387
 Alpha virt. eigenvalues --    1.50466   1.50717   1.51035   1.51295   1.51667
 Alpha virt. eigenvalues --    1.52052   1.52526   1.52862   1.53131   1.53297
 Alpha virt. eigenvalues --    1.53545   1.53844   1.54088   1.54330   1.54478
 Alpha virt. eigenvalues --    1.55074   1.55255   1.55997   1.56229   1.56433
 Alpha virt. eigenvalues --    1.56618   1.56877   1.57063   1.57478   1.57955
 Alpha virt. eigenvalues --    1.58250   1.58531   1.58787   1.59048   1.59244
 Alpha virt. eigenvalues --    1.59639   1.59819   1.60198   1.60483   1.60909
 Alpha virt. eigenvalues --    1.61088   1.61217   1.61590   1.62092   1.62494
 Alpha virt. eigenvalues --    1.63037   1.63149   1.63373   1.63648   1.63943
 Alpha virt. eigenvalues --    1.64304   1.64757   1.64956   1.65246   1.65897
 Alpha virt. eigenvalues --    1.65962   1.66231   1.66783   1.66872   1.67151
 Alpha virt. eigenvalues --    1.67554   1.67633   1.67840   1.68328   1.69145
 Alpha virt. eigenvalues --    1.69326   1.69574   1.69890   1.70127   1.70469
 Alpha virt. eigenvalues --    1.70742   1.70937   1.71135   1.72059   1.72230
 Alpha virt. eigenvalues --    1.72877   1.72956   1.73355   1.74178   1.74713
 Alpha virt. eigenvalues --    1.74926   1.75158   1.75550   1.76373   1.76723
 Alpha virt. eigenvalues --    1.76876   1.77479   1.78134   1.78363   1.78441
 Alpha virt. eigenvalues --    1.79515   1.80092   1.80417   1.81126   1.81163
 Alpha virt. eigenvalues --    1.81951   1.82513   1.82676   1.83067   1.83256
 Alpha virt. eigenvalues --    1.83943   1.84344   1.84912   1.85266   1.85924
 Alpha virt. eigenvalues --    1.86172   1.86713   1.87032   1.87575   1.87933
 Alpha virt. eigenvalues --    1.88308   1.88498   1.88916   1.90011   1.90323
 Alpha virt. eigenvalues --    1.91098   1.91223   1.91675   1.92097   1.92635
 Alpha virt. eigenvalues --    1.93034   1.93375   1.93621   1.94255   1.94970
 Alpha virt. eigenvalues --    1.95550   1.96037   1.96278   1.96673   1.96814
 Alpha virt. eigenvalues --    1.97547   1.97596   1.97834   1.98147   1.98519
 Alpha virt. eigenvalues --    1.99544   2.00214   2.00423   2.01060   2.01382
 Alpha virt. eigenvalues --    2.01722   2.02270   2.02972   2.03434   2.03778
 Alpha virt. eigenvalues --    2.04518   2.04911   2.05341   2.05858   2.06318
 Alpha virt. eigenvalues --    2.06642   2.06825   2.06959   2.07852   2.08271
 Alpha virt. eigenvalues --    2.08371   2.08960   2.09271   2.10327   2.10658
 Alpha virt. eigenvalues --    2.10839   2.11383   2.11505   2.12289   2.12581
 Alpha virt. eigenvalues --    2.12744   2.13346   2.14207   2.14421   2.14656
 Alpha virt. eigenvalues --    2.15101   2.15409   2.15820   2.16302   2.16695
 Alpha virt. eigenvalues --    2.17251   2.17670   2.17861   2.18662   2.18789
 Alpha virt. eigenvalues --    2.19594   2.20005   2.20432   2.21169   2.21592
 Alpha virt. eigenvalues --    2.22010   2.22355   2.22844   2.23353   2.23894
 Alpha virt. eigenvalues --    2.24373   2.24666   2.24704   2.25361   2.25764
 Alpha virt. eigenvalues --    2.26055   2.26708   2.27318   2.27628   2.28268
 Alpha virt. eigenvalues --    2.28680   2.28881   2.29067   2.29672   2.30347
 Alpha virt. eigenvalues --    2.31511   2.31717   2.32003   2.32605   2.32883
 Alpha virt. eigenvalues --    2.33150   2.33260   2.33747   2.33911   2.34044
 Alpha virt. eigenvalues --    2.34578   2.34743   2.35142   2.35542   2.35921
 Alpha virt. eigenvalues --    2.36563   2.36880   2.37371   2.37561   2.37996
 Alpha virt. eigenvalues --    2.38291   2.39048   2.39384   2.39835   2.39979
 Alpha virt. eigenvalues --    2.40582   2.40819   2.41114   2.41839   2.42448
 Alpha virt. eigenvalues --    2.42807   2.43378   2.43995   2.44317   2.44718
 Alpha virt. eigenvalues --    2.44799   2.45272   2.46324   2.46745   2.47342
 Alpha virt. eigenvalues --    2.47976   2.48268   2.48452   2.49098   2.49977
 Alpha virt. eigenvalues --    2.50254   2.50788   2.50956   2.51250   2.51659
 Alpha virt. eigenvalues --    2.52234   2.52788   2.53249   2.53445   2.53591
 Alpha virt. eigenvalues --    2.53956   2.54313   2.54665   2.55013   2.55287
 Alpha virt. eigenvalues --    2.55344   2.56086   2.56217   2.56903   2.57019
 Alpha virt. eigenvalues --    2.57693   2.58041   2.58499   2.58704   2.58930
 Alpha virt. eigenvalues --    2.59644   2.59845   2.60354   2.60583   2.60958
 Alpha virt. eigenvalues --    2.61765   2.62091   2.62487   2.63020   2.63325
 Alpha virt. eigenvalues --    2.63690   2.63923   2.64677   2.64981   2.65427
 Alpha virt. eigenvalues --    2.65611   2.66186   2.66607   2.66786   2.67394
 Alpha virt. eigenvalues --    2.68182   2.68399   2.68618   2.69069   2.69295
 Alpha virt. eigenvalues --    2.70066   2.70094   2.70776   2.71325   2.71693
 Alpha virt. eigenvalues --    2.72524   2.72695   2.72955   2.73077   2.73636
 Alpha virt. eigenvalues --    2.74465   2.74711   2.74997   2.75543   2.75867
 Alpha virt. eigenvalues --    2.76206   2.76686   2.77527   2.78235   2.78377
 Alpha virt. eigenvalues --    2.78658   2.79948   2.80111   2.80449   2.80760
 Alpha virt. eigenvalues --    2.81087   2.81417   2.82071   2.82550   2.82893
 Alpha virt. eigenvalues --    2.83212   2.83483   2.84439   2.85113   2.85568
 Alpha virt. eigenvalues --    2.85941   2.86115   2.86152   2.86894   2.87208
 Alpha virt. eigenvalues --    2.87636   2.87782   2.88451   2.88867   2.89051
 Alpha virt. eigenvalues --    2.89250   2.89484   2.90317   2.90638   2.90669
 Alpha virt. eigenvalues --    2.91076   2.91485   2.92028   2.92105   2.92334
 Alpha virt. eigenvalues --    2.92604   2.93263   2.93667   2.94330   2.94436
 Alpha virt. eigenvalues --    2.95029   2.95315   2.95867   2.95911   2.96211
 Alpha virt. eigenvalues --    2.96587   2.97037   2.97126   2.97556   2.97941
 Alpha virt. eigenvalues --    2.98464   2.98885   2.99178   2.99717   2.99864
 Alpha virt. eigenvalues --    3.00591   3.00745   3.01307   3.01439   3.01964
 Alpha virt. eigenvalues --    3.02562   3.02968   3.03180   3.03698   3.03960
 Alpha virt. eigenvalues --    3.04457   3.04746   3.04908   3.05175   3.05925
 Alpha virt. eigenvalues --    3.06631   3.06726   3.06995   3.07324   3.07470
 Alpha virt. eigenvalues --    3.07703   3.07999   3.08319   3.08818   3.08902
 Alpha virt. eigenvalues --    3.09737   3.09801   3.09929   3.10114   3.10293
 Alpha virt. eigenvalues --    3.10835   3.11050   3.11301   3.11673   3.12093
 Alpha virt. eigenvalues --    3.12660   3.13158   3.13463   3.13827   3.14155
 Alpha virt. eigenvalues --    3.14311   3.14520   3.14703   3.15349   3.15707
 Alpha virt. eigenvalues --    3.16020   3.16223   3.16424   3.17310   3.17367
 Alpha virt. eigenvalues --    3.17569   3.17981   3.18601   3.18933   3.19174
 Alpha virt. eigenvalues --    3.20083   3.20209   3.20307   3.20415   3.20474
 Alpha virt. eigenvalues --    3.20959   3.21224   3.21634   3.21762   3.22118
 Alpha virt. eigenvalues --    3.22473   3.22884   3.23114   3.24043   3.24303
 Alpha virt. eigenvalues --    3.24333   3.24468   3.24815   3.24984   3.25238
 Alpha virt. eigenvalues --    3.25773   3.25841   3.25988   3.26463   3.26596
 Alpha virt. eigenvalues --    3.26913   3.27288   3.27635   3.27975   3.28442
 Alpha virt. eigenvalues --    3.28884   3.28974   3.29213   3.29568   3.30145
 Alpha virt. eigenvalues --    3.30163   3.30443   3.30614   3.30937   3.31294
 Alpha virt. eigenvalues --    3.31867   3.32350   3.32427   3.33005   3.33252
 Alpha virt. eigenvalues --    3.33544   3.33813   3.34081   3.34336   3.34529
 Alpha virt. eigenvalues --    3.34913   3.35146   3.35376   3.35550   3.35710
 Alpha virt. eigenvalues --    3.36084   3.36173   3.36304   3.36534   3.37027
 Alpha virt. eigenvalues --    3.37209   3.37376   3.37800   3.38528   3.39052
 Alpha virt. eigenvalues --    3.39550   3.39633   3.39957   3.40314   3.40835
 Alpha virt. eigenvalues --    3.40947   3.41542   3.41712   3.41870   3.42585
 Alpha virt. eigenvalues --    3.42652   3.42752   3.43009   3.43386   3.44226
 Alpha virt. eigenvalues --    3.44590   3.44800   3.45160   3.45734   3.46198
 Alpha virt. eigenvalues --    3.46780   3.46842   3.47556   3.47928   3.48307
 Alpha virt. eigenvalues --    3.49147   3.49606   3.49820   3.49973   3.50287
 Alpha virt. eigenvalues --    3.50718   3.51280   3.51719   3.51762   3.52679
 Alpha virt. eigenvalues --    3.52797   3.53560   3.53688   3.54030   3.54406
 Alpha virt. eigenvalues --    3.54872   3.55059   3.55961   3.56948   3.57259
 Alpha virt. eigenvalues --    3.57906   3.58635   3.59057   3.59723   3.59819
 Alpha virt. eigenvalues --    3.60294   3.60611   3.60995   3.61381   3.62092
 Alpha virt. eigenvalues --    3.62761   3.63245   3.63363   3.64208   3.64594
 Alpha virt. eigenvalues --    3.64724   3.65190   3.65453   3.65772   3.66258
 Alpha virt. eigenvalues --    3.66438   3.66682   3.67105   3.67699   3.68378
 Alpha virt. eigenvalues --    3.68654   3.68981   3.69464   3.69856   3.70191
 Alpha virt. eigenvalues --    3.70468   3.70916   3.71169   3.71532   3.71808
 Alpha virt. eigenvalues --    3.72309   3.72564   3.72652   3.73515   3.73871
 Alpha virt. eigenvalues --    3.74181   3.74583   3.75161   3.75758   3.76273
 Alpha virt. eigenvalues --    3.76585   3.77095   3.77468   3.78322   3.79013
 Alpha virt. eigenvalues --    3.79197   3.79511   3.79935   3.81659   3.82105
 Alpha virt. eigenvalues --    3.82245   3.82660   3.83095   3.83545   3.84521
 Alpha virt. eigenvalues --    3.84979   3.85445   3.86364   3.86651   3.87968
 Alpha virt. eigenvalues --    3.88160   3.88913   3.89046   3.89449   3.90333
 Alpha virt. eigenvalues --    3.91267   3.91559   3.92404   3.92762   3.93661
 Alpha virt. eigenvalues --    3.94119   3.94697   3.95186   3.96198   3.96805
 Alpha virt. eigenvalues --    3.97019   3.97893   3.98439   3.99443   3.99706
 Alpha virt. eigenvalues --    4.00326   4.01173   4.01853   4.02589   4.02675
 Alpha virt. eigenvalues --    4.03596   4.03898   4.04009   4.05380   4.05789
 Alpha virt. eigenvalues --    4.06973   4.07938   4.08165   4.08396   4.08889
 Alpha virt. eigenvalues --    4.10572   4.10914   4.11170   4.12023   4.12513
 Alpha virt. eigenvalues --    4.12847   4.13566   4.14183   4.14875   4.15557
 Alpha virt. eigenvalues --    4.15938   4.16152   4.17110   4.17622   4.17862
 Alpha virt. eigenvalues --    4.18554   4.18814   4.19622   4.19963   4.20448
 Alpha virt. eigenvalues --    4.20638   4.21006   4.21681   4.22166   4.22653
 Alpha virt. eigenvalues --    4.23443   4.23491   4.24328   4.24631   4.24861
 Alpha virt. eigenvalues --    4.26161   4.26460   4.26890   4.27293   4.27791
 Alpha virt. eigenvalues --    4.27961   4.28266   4.29142   4.29949   4.30401
 Alpha virt. eigenvalues --    4.31040   4.31780   4.32112   4.32442   4.32937
 Alpha virt. eigenvalues --    4.33491   4.33995   4.34437   4.35366   4.35437
 Alpha virt. eigenvalues --    4.36064   4.36425   4.36734   4.37382   4.38192
 Alpha virt. eigenvalues --    4.38432   4.38799   4.39956   4.40465   4.41037
 Alpha virt. eigenvalues --    4.41563   4.42461   4.43791   4.44401   4.44678
 Alpha virt. eigenvalues --    4.45114   4.45489   4.46481   4.47970   4.50352
 Alpha virt. eigenvalues --    4.51184   4.52699   4.53033   4.53581   4.54288
 Alpha virt. eigenvalues --    4.55103   4.56530   4.56661   4.57717   4.58709
 Alpha virt. eigenvalues --    4.59397   4.60888   4.61449   4.62115   4.62336
 Alpha virt. eigenvalues --    4.62644   4.63249   4.63891   4.64301   4.66006
 Alpha virt. eigenvalues --    4.67281   4.68158   4.68480   4.69169   4.69495
 Alpha virt. eigenvalues --    4.71060   4.71856   4.72264   4.73085   4.73371
 Alpha virt. eigenvalues --    4.75271   4.75386   4.75987   4.76471   4.77733
 Alpha virt. eigenvalues --    4.78973   4.79130   4.80045   4.80166   4.81931
 Alpha virt. eigenvalues --    4.82112   4.82901   4.83464   4.85717   4.87463
 Alpha virt. eigenvalues --    4.87730   4.88120   4.88758   4.89846   4.90229
 Alpha virt. eigenvalues --    4.92268   4.92836   4.93505   4.94202   4.94600
 Alpha virt. eigenvalues --    4.95021   4.95813   4.96915   4.97655   4.99287
 Alpha virt. eigenvalues --    5.00146   5.01119   5.01579   5.01953   5.02496
 Alpha virt. eigenvalues --    5.03598   5.04090   5.04316   5.05498   5.05729
 Alpha virt. eigenvalues --    5.06966   5.07747   5.10200   5.10887   5.12127
 Alpha virt. eigenvalues --    5.12933   5.13340   5.14410   5.16061   5.17059
 Alpha virt. eigenvalues --    5.17460   5.18971   5.19056   5.20052   5.20773
 Alpha virt. eigenvalues --    5.22220   5.23245   5.24559   5.25418   5.25957
 Alpha virt. eigenvalues --    5.26766   5.32104   5.32835   5.34142   5.34608
 Alpha virt. eigenvalues --    5.35213   5.35769   5.36748   5.37215   5.38348
 Alpha virt. eigenvalues --    5.38675   5.39399   5.40257   5.40932   5.42668
 Alpha virt. eigenvalues --    5.43471   5.44259   5.46445   5.47326   5.47839
 Alpha virt. eigenvalues --    5.48346   5.50392   5.51759   5.52482   5.53375
 Alpha virt. eigenvalues --    5.54331   5.54678   5.57568   5.58084   5.59075
 Alpha virt. eigenvalues --    5.59801   5.61134   5.61718   5.63963   5.66310
 Alpha virt. eigenvalues --    5.66984   5.68290   5.70757   5.72943   5.73394
 Alpha virt. eigenvalues --    5.75285   5.80432   5.85592   5.87492   5.88576
 Alpha virt. eigenvalues --    5.91239   5.92777   5.95207   5.98448   6.00188
 Alpha virt. eigenvalues --    6.02862   6.03591   6.06391   6.07787   6.09749
 Alpha virt. eigenvalues --    6.17577   6.18711   6.19772   6.22507   6.28875
 Alpha virt. eigenvalues --    6.34552   6.37395   6.40687   6.43811   6.49114
 Alpha virt. eigenvalues --    6.50099   6.90310   7.26015  22.17999  22.26711
 Alpha virt. eigenvalues --   22.29208  22.30757  22.36954  22.37119  22.37868
 Alpha virt. eigenvalues --   22.38970  22.41180  22.67359  22.68329  22.74475
 Alpha virt. eigenvalues --   22.81280  22.84996  22.86968  22.90923  22.92656
 Alpha virt. eigenvalues --   22.95352  22.97599  23.02235  23.10190  23.19655
 Alpha virt. eigenvalues --   23.22900  23.28627  23.29470  23.30216  23.33225
 Alpha virt. eigenvalues --   23.39914  23.49279  23.57217  23.65879  23.69318
 Alpha virt. eigenvalues --   23.74425  23.81529  32.40406  32.59141  32.87170
 Alpha virt. eigenvalues --   32.91544  32.93214  32.97571  43.60372
          Condensed to atoms (all electrons):
 Mulliken charges:
               1
     1  Fe   0.214952
     2  N   -0.076613
     3  N   -0.186879
     4  N   -0.048636
     5  N   -0.156349
     6  C    0.184294
     7  C    0.053645
     8  C   -0.089391
     9  C    0.295960
    10  C    0.304085
    11  C   -0.052920
    12  C    0.029328
    13  C    0.283757
    14  C    0.230185
    15  C   -0.005739
    16  C    0.035409
    17  C    0.334474
    18  C    0.324327
    19  C   -0.090846
    20  C   -0.054631
    21  C    0.295121
    22  C   -0.524176
    23  H    0.103370
    24  C   -0.515668
    25  H    0.113689
    26  C   -0.489208
    27  H    0.110341
    28  C   -0.497826
    29  H    0.100306
    30  C   -0.418673
    31  H    0.140286
    32  H    0.139800
    33  H    0.134573
    34  C   -0.435883
    35  H    0.137417
    36  H    0.123660
    37  H    0.138979
    38  C   -0.444182
    39  H    0.138199
    40  H    0.122407
    41  H    0.155653
    42  C   -0.226160
    43  H    0.123288
    44  C   -0.264263
    45  H    0.133362
    46  H    0.121453
    47  C   -0.400882
    48  H    0.127662
    49  H    0.144547
    50  H    0.123619
    51  C   -0.199060
    52  H    0.097006
    53  C   -0.269584
    54  H    0.124997
    55  H    0.118606
    56  C   -0.421118
    57  H    0.136596
    58  H    0.129768
    59  H    0.139950
    60  C   -0.418490
    61  H    0.134608
    62  H    0.137749
    63  H    0.123639
    64  O   -0.661715
    65  H    0.362682
    66  H    0.324898
    67  C   -0.389849
    68  H    0.129767
    69  H    0.127847
    70  H    0.143554
    71  N   -0.214410
    72  H    0.223902
    73  C    0.131944
    74  C    0.035205
    75  H    0.150182
    76  N   -0.281451
    77  C   -0.112484
    78  H    0.156041
 Sum of Mulliken charges =  -0.00000
 Mulliken charges with hydrogens summed into heavy atoms:
               1
     1  Fe   0.214952
     2  N   -0.076613
     3  N   -0.186879
     4  N   -0.048636
     5  N   -0.156349
     6  C    0.184294
     7  C    0.053645
     8  C   -0.089391
     9  C    0.295960
    10  C    0.304085
    11  C   -0.052920
    12  C    0.029328
    13  C    0.283757
    14  C    0.230185
    15  C   -0.005739
    16  C    0.035409
    17  C    0.334474
    18  C    0.324327
    19  C   -0.090846
    20  C   -0.054631
    21  C    0.295121
    22  C   -0.420806
    24  C   -0.401979
    26  C   -0.378867
    28  C   -0.397520
    30  C   -0.004015
    34  C   -0.035828
    38  C   -0.027923
    42  C   -0.102872
    44  C   -0.009448
    47  C   -0.005054
    51  C   -0.102053
    53  C   -0.025982
    56  C   -0.014803
    60  C   -0.022494
    64  O    0.025865
    67  C    0.011319
    71  N    0.009491
    73  C    0.131944
    74  C    0.185387
    76  N   -0.281451
    77  C    0.043557
 Electronic spatial extent (au):  <R**2>=          21237.4997
 Charge=             -0.0000 electrons
 Dipole moment (field-independent basis, Debye):
    X=              1.1071    Y=             -1.1701    Z=              2.8681  Tot=              3.2895
 Quadrupole moment (field-independent basis, Debye-Ang):
   XX=           -241.8701   YY=           -239.3360   ZZ=           -220.7115
   XY=             -5.5592   XZ=              0.6371   YZ=             -0.1421
 Traceless Quadrupole moment (field-independent basis, Debye-Ang):
   XX=             -7.8976   YY=             -5.3635   ZZ=             13.2610
   XY=             -5.5592   XZ=              0.6371   YZ=             -0.1421
 Octapole moment (field-independent basis, Debye-Ang**2):
  XXX=             26.0653  YYY=            -48.8342  ZZZ=            120.3537  XYY=             16.8298
  XXY=             17.1290  XXZ=             -0.2455  XZZ=             33.1911  YZZ=            -19.1139
  YYZ=             -8.7775  XYZ=             -1.9476
 Hexadecapole moment (field-independent basis, Debye-Ang**3):
 XXXX=         -12482.3670 YYYY=         -12038.6878 ZZZZ=          -3164.2811 XXXY=            -56.9259
 XXXZ=             22.4607 YYYX=             18.6751 YYYZ=             41.2173 ZZZX=             15.0552
 ZZZY=             74.8341 XXYY=          -4077.7914 XXZZ=          -2875.6096 YYZZ=          -2880.2279
 XXYZ=            -77.6454 YYXZ=            -37.5737 ZZXY=            -65.0770
 N-N= 5.764522346241D+03 E-N=-1.854100406005D+04  KE= 2.971688136674D+03
  Exact polarizability:     742.958       1.962     718.863       6.679     -24.542     311.833
 Approx polarizability:    1378.695      -2.704    1312.598      31.503     -70.296     490.702

 ----------------------------------------------------------------------

 Electric dipole moment (input orientation):
 (Debye = 10**-18 statcoulomb cm , SI units = C m)
                  (au)            (Debye)         (10**-30 SI)
   Tot        0.129419D+01      0.328951D+01      0.109726D+02
   x          0.686519D+00      0.174496D+01      0.582055D+01
   y         -0.254835D+00     -0.647725D+00     -0.216058D+01
   z          0.106709D+01      0.271227D+01      0.904717D+01

 Dipole polarizability, Alpha (input orientation).
 (esu units = cm**3 , SI units = C**2 m**2 J**-1)
 Alpha(0;0):
               (au)            (10**-24 esu)      (10**-40 SI)
   iso        0.591218D+03      0.876095D+02      0.974787D+02
   aniso      0.421917D+03      0.625216D+02      0.695647D+02
   xx         0.387744D+03      0.574577D+02      0.639303D+02
   yx         0.314616D+02      0.466213D+01      0.518731D+01
   yy         0.737683D+03      0.109313D+03      0.121628D+03
   zx        -0.158933D+03     -0.235514D+02     -0.262045D+02
   zy         0.603553D+01      0.894374D+00      0.995125D+00
   zz         0.648228D+03      0.960575D+02      0.106878D+03

 First dipole hyperpolarizability, Beta (input orientation).
 ||, _|_  parallel and perpendicular components, (z) with respect to z axis,
 vector components x,y,z.  Values do not include the 1/n! factor of 1/2.
 (esu units = statvolt**-1 cm**4 , SI units = C**3 m**3 J**-2)
 Beta(0;0,0):
               (au)            (10**-30 esu)      (10**-50 SI)
   || (z)    -0.770027D+03     -0.665243D+01     -0.246898D+01
   _|_(z)    -0.256676D+03     -0.221748D+01     -0.822995D+00
   x          0.232149D+03      0.200558D+01      0.744352D+00
   y          0.238990D+04      0.206468D+02      0.766287D+01
   z         -0.385013D+04     -0.332622D+02     -0.123449D+02
   ||         0.907503D+03      0.784012D+01      0.290978D+01
   xxx       -0.129508D+03     -0.111885D+01     -0.415250D+00
   xxy       -0.392224D+02     -0.338851D+00     -0.125761D+00
   yxy       -0.134046D+03     -0.115805D+01     -0.429800D+00
   yyy        0.107510D+04      0.928803D+01      0.344716D+01
   xxz       -0.280316D+03     -0.242171D+01     -0.898795D+00
   yxz        0.189509D+03      0.163721D+01      0.607634D+00
   yyz       -0.237107D+03     -0.204842D+01     -0.760252D+00
   zxz        0.340937D+03      0.294543D+01      0.109317D+01
   zyz       -0.239246D+03     -0.206690D+01     -0.767108D+00
   zzz       -0.765955D+03     -0.661725D+01     -0.245593D+01

 ----------------------------------------------------------------------

 Dipole orientation:
    26        -10.12796409         15.40660140         50.43021956
     7        -13.18110366         16.20959672         52.56464007
     7         -9.62981198         19.42658228         49.77922741
     7         -7.14023340         14.70514984         48.37844158
     7        -10.61874824         11.36146573         51.17905148
     6        -14.65849103         14.46885089         53.69378719
     6        -16.66430061         15.85374748         55.00395024
     6        -16.43478466         18.31366782         54.54352382
     6        -14.26534804         18.58901414         52.95360393
     6        -11.30698493         21.23103977         50.44888046
     6        -10.44454323         23.51657491         49.19050110
     6         -8.32094377         22.93841615         47.79783831
     6         -7.77520190         20.32317958         48.23948243
     6         -5.51682758         16.39743231         47.33876661
     6         -3.40185442         15.02924698         46.28736348
     6         -3.74753438         12.60707995         46.66174726
     6         -6.09627336         12.33513167         47.99569444
     6         -9.14725461          9.52265507         50.09649778
     6        -10.27021574          7.16487489         50.51695290
     6        -12.44821304          7.68719243         52.10568480
     6        -12.55277549         10.44321386         52.43451654
     6        -14.23285692         11.85744401         53.80284360
     1        -15.38876194         10.81800074         55.15239867
     6        -13.38934281         20.85748646         52.01743233
     1        -14.44039000         22.54258944         52.56377001
     6         -5.74524325         19.00665224         47.18980523
     1         -4.27927804         20.07192307         46.21232956
     6         -7.06813503          9.99538882         48.66490205
     1         -6.04926989          8.34838879         47.96270579
     6        -18.17973082         20.49766199         55.48689505
     1        -19.27606026         19.84714507         57.15547796
     1        -19.51804927         21.04374599         53.96374731
     1        -17.01067570         22.14921918         56.04170441
     6        -18.82273502         14.72750519         56.65747132
     1        -18.49465254         15.22339953         58.67073316
     1        -18.84659858         12.63779717         56.46505584
     1        -20.66864438         15.52456642         56.05191782
     6        -11.81213527         26.09617751         49.28289975
     1        -10.87157208         27.33819773         50.69151946
     1        -13.81431052         25.81790379         49.85121961
     1        -11.72209311         27.01494473         47.39790550
     6         -6.58055998         24.55947845         46.07347527
     1         -5.63217946         23.69788970         44.43704428
     6         -6.18934662         27.03590223         46.52905368
     1         -7.10319370         27.96867883         48.14549047
     1         -4.95118017         28.15438385         45.28917939
     6         -1.15069376         16.37175557         44.90083619
     1         -0.87901128         18.29354805         45.70303817
     1         -1.58048583         16.54290968         42.85306727
     1          0.61198254         15.26550054         45.17372766
     6         -2.08355727         10.34234897         45.85974964
     1         -2.77336626          8.43919852         46.32424979
     6          0.14814052         10.42407591         44.64032040
     1          1.30634854          8.70831058         44.44298413
     1          0.84171159         12.20655072         43.82660372
     6         -9.43111951          4.46497424         49.73052450
     1         -7.95727461          3.77479822         51.05670055
     1         -8.63357851          4.50640694         47.78827296
     1        -11.07487858          3.16225061         49.80231843
     6        -14.45036997          5.75909305         53.12989677
     1        -13.48547001          3.98636382         53.70647252
     1        -15.84412307          5.31747219         51.62360893
     1        -15.43111948          6.57298482         54.79814785
     8        -13.62187773         15.00083185         46.82164349
     1        -15.20606808         15.35087335         47.62112999
     1        -13.38875628         14.62068374         45.20138320
     6         -1.24741927         17.67563345         57.11205885
     1         -0.01805709         16.25001851         58.04174328
     1         -1.61986949         19.23781674         58.46353202
     1         -0.26577098         18.41685209         55.40991582
     7         -5.26400035         15.43895210         58.08971853
     1         -5.01629492         15.45179577         59.96264860
     6         -3.63798772         16.49044265         56.37049745
     6         -7.18794048         14.42158605         56.84966690
     1         -8.80191417         13.52073311         57.75682868
     7         -6.81320343         14.68510958         54.41047131
     6         -4.59669346         15.99533474         54.03384119
     1         -3.91771631         16.44707063         52.15797511

 Electric dipole moment (dipole orientation):
 (Debye = 10**-18 statcoulomb cm , SI units = C m)
                  (au)            (Debye)         (10**-30 SI)
   Tot        0.129419D+01      0.328951D+01      0.109726D+02
   x          0.000000D+00      0.000000D+00      0.000000D+00
   y          0.000000D+00      0.000000D+00      0.000000D+00
   z          0.129419D+01      0.328951D+01      0.109726D+02

 Dipole polarizability, Alpha (dipole orientation).
 (esu units = cm**3 , SI units = C**2 m**2 J**-1)
 Alpha(0;0):
               (au)            (10**-24 esu)      (10**-40 SI)
   iso        0.591218D+03      0.876095D+02      0.974787D+02
   aniso      0.421917D+03      0.625216D+02      0.695647D+02
   xx         0.607479D+03      0.900191D+02      0.100160D+03
   yx        -0.616053D+01     -0.912897D+00     -0.101573D+01
   yy         0.735337D+03      0.108966D+03      0.121241D+03
   zx        -0.187355D+03     -0.277632D+02     -0.308907D+02
   zy        -0.286367D+02     -0.424352D+01     -0.472155D+01
   zz         0.430839D+03      0.638438D+02      0.710358D+02

 First dipole hyperpolarizability, Beta (dipole orientation).
 ||, _|_  parallel and perpendicular components, (z) with respect to z axis,
 vector components x,y,z.  Values do not include the 1/n! factor of 1/2.
 (esu units = statvolt**-1 cm**4 , SI units = C**3 m**3 J**-2)
 Beta(0;0,0):
               (au)            (10**-30 esu)      (10**-50 SI)
   || (z)    -0.704393D+03     -0.608541D+01     -0.225854D+01
   _|_(z)    -0.234798D+03     -0.202847D+01     -0.752846D+00
   x          0.237551D+04      0.205226D+02      0.761675D+01
   y          0.159428D+04      0.137734D+02      0.511185D+01
   z         -0.352196D+04     -0.304270D+02     -0.112927D+02
   ||         0.907503D+03      0.784012D+01      0.290978D+01
   xxx        0.553240D+03      0.477956D+01      0.177389D+01
   xxy       -0.377098D+03     -0.325784D+01     -0.120911D+01
   yxy        0.177809D+03      0.153613D+01      0.570121D+00
   yyy        0.832565D+03      0.719271D+01      0.266950D+01
   xxz       -0.390702D+03     -0.337536D+01     -0.125273D+01
   yxz        0.174085D+03      0.150396D+01      0.558181D+00
   yyz       -0.473804D+03     -0.409330D+01     -0.151919D+01
   zxz        0.607879D+02      0.525160D+00      0.194908D+00
   zyz        0.759609D+02      0.656243D+00      0.243558D+00
   zzz       -0.309482D+03     -0.267369D+01     -0.992312D+00

 ----------------------------------------------------------------------
 Unable to Open any file for archive entry.
 1\1\GINC-BGN1009\SP\RAPFD\def2TZVP\C34H36Fe1N6O1\BEBJONES\18-Nov-2024\
 0\\# polar def2tzvp apfd int=(grid=ultrafine)\\4ksz_II_S\\0,1\Fe,0,10.
 09,2.418,26.452\N,0,9.347,2.519,28.324\N,0,10.252,4.583,26.447\N,0,10.
 83,2.359,24.645\N,0,9.958,0.23,26.495\C,0,8.95,1.455,29.05\C,0,8.462,1
 .975,30.329\C,0,8.51,3.304,30.32\C,0,9.043,3.678,29.046\C,0,9.744,5.39
 7,27.398\C,0,9.846,6.738,26.845\C,0,10.388,6.648,25.581\C,0,10.677,5.2
 64,25.348\C,0,11.316,3.393,23.912\C,0,11.926,2.858,22.717\C,0,11.803,1
 .554,22.725\C,0,11.118,1.203,23.938\C,0,10.257,-0.565,25.418\C,0,9.801
 ,-1.864,25.671\C,0,9.288,-1.825,27.03\C,0,9.417,-0.435,27.49\C,0,9.092
 ,0.104,28.706\H,0,8.922,-0.61,29.511\C,0,9.241,4.977,28.628\H,0,8.975,
 5.761,29.337\C,0,11.251,4.753,24.183\H,0,11.665,5.451,23.456\C,0,10.8,
 -0.108,24.259\H,0,11.009,-0.857,23.495\C,0,8.06,4.284,31.449\H,0,8.018
 ,3.74,32.417\H,0,7.05,4.685,31.217\H,0,8.789,5.117,31.535\C,0,7.926,1.
 154,31.539\H,0,8.653,1.211,32.377\H,0,7.798,0.091,31.244\H,0,6.954,1.5
 74,31.876\C,0,9.338,8.023,27.538\H,0,10.192,8.548,28.018\H,0,8.593,7.7
 59,28.319\H,0,8.877,8.698,26.786\C,0,10.732,7.72,24.509\H,0,10.671,7.4
 73,23.439\C,0,11.11,8.967,24.856\H,0,11.183,9.254,25.915\H,0,11.35,9.7
 13,24.084\C,0,12.585,3.766,21.62\H,0,12.99,4.686,22.094\H,0,11.823,4.0
 55,20.865\H,0,13.417,3.218,21.129\C,0,12.254,0.515,21.672\H,0,12.018,-
 0.54,21.87\C,0,12.913,0.752,20.522\H,0,13.324,-0.081,19.932\H,0,13.049
 ,1.781,20.158\C,0,9.874,-3.155,24.811\H,0,10.885,-3.606,24.904\H,0,9.6
 87,-2.907,23.744\H,0,9.119,-3.887,25.168\C,0,8.621,-2.991,27.838\H,0,9
 .161,-3.94,27.634\H,0,7.561,-3.105,27.526\H,0,8.675,-2.773,28.926\O,0,
 7.501,2.478,25.816\H,0,7.027,2.528,26.646\H,0,7.139,2.457,25.004\C,0,1
 6.009,3.166,27.111\H,0,16.777,2.368,27.023\H,0,16.269,3.823,27.968\H,0
 ,15.993,3.757,26.17\N,0,14.418,1.784,28.432\H,0,15.055,1.603,29.181\C,
 0,14.695,2.557,27.335\C,0,13.178,1.328,28.325\H,0,12.683,0.718,29.08\N
 ,0,12.669,1.73,27.183\C,0,13.595,2.515,26.533\H,0,13.386,2.965,25.571\
 \Version=ES64L-G16RevC.02\State=1-A\HF=-2983.8753704\RMSD=1.676e-09\Di
 pole=0.6865191,-0.2548347,1.067091\Polar=387.7435785,31.4615859,737.68
 34007,-158.9326887,6.0355332,648.2282084\HyperPolar=-129.5082746,-39.2
 223565,-134.0460245,1075.0998215,-280.3162797,189.5087371,-237.1072779
 ,340.9371378,-239.2457297,-765.9546277\Quadrupole=7.0765984,-8.6674018
 ,1.5908035,-0.4495645,4.670597,-2.2861043\PG=C01 [X(C34H36Fe1N6O1)]\\@
 The archive entry for this job was punched.


 NOT WHAT WE DID SHALL BE THE TEST
 WHEN ACT AND WILL ARE DONE,
 BUT WHAT OUR LORD INFERS WE WOULD-
 HAD WE DIVINER BEEN.
           EMILY DICKINSON  POEMS NO. CLXXV
 Job cpu time:       2 days  4 hours 10 minutes 49.0 seconds.
 Elapsed time:       0 days  0 hours 45 minutes 32.3 seconds.
 File lengths (MBytes):  RWF=   1208 Int=      0 D2E=      0 Chk=    155 Scr=      1
 Normal termination of Gaussian 16 at Mon Nov 18 17:11:38 2024.
 Initial command:
 /sw/chem/gaussian/g16_C02/a100/g16/l1.exe "/local/bebjones_8087530/Gau-1650101.inp" -scrdir="/local/bebjones_8087530/"
 Entering Link 1 = /sw/chem/gaussian/g16_C02/a100/g16/l1.exe PID=   1651846.
  
 Copyright (c) 1988-2021, Gaussian, Inc.  All Rights Reserved.
  
 This is part of the Gaussian(R) 16 program.  It is based on
 the Gaussian(R) 09 system (copyright 2009, Gaussian, Inc.),
 the Gaussian(R) 03 system (copyright 2003, Gaussian, Inc.),
 the Gaussian(R) 98 system (copyright 1998, Gaussian, Inc.),
 the Gaussian(R) 94 system (copyright 1995, Gaussian, Inc.),
 the Gaussian 92(TM) system (copyright 1992, Gaussian, Inc.),
 the Gaussian 90(TM) system (copyright 1990, Gaussian, Inc.),
 the Gaussian 88(TM) system (copyright 1988, Gaussian, Inc.),
 the Gaussian 86(TM) system (copyright 1986, Carnegie Mellon
 University), and the Gaussian 82(TM) system (copyright 1983,
 Carnegie Mellon University). Gaussian is a federally registered
 trademark of Gaussian, Inc.
  
 This software contains proprietary and confidential information,
 including trade secrets, belonging to Gaussian, Inc.
  
 This software is provided under written license and may be
 used, copied, transmitted, or stored only in accord with that
 written license.
  
 The following legend is applicable only to US Government
 contracts under FAR:
  
                    RESTRICTED RIGHTS LEGEND
  
 Use, reproduction and disclosure by the US Government is
 subject to restrictions as set forth in subparagraphs (a)
 and (c) of the Commercial Computer Software - Restricted
 Rights clause in FAR 52.227-19.
  
 Gaussian, Inc.
 340 Quinnipiac St., Bldg. 40, Wallingford CT 06492
  
  
 ---------------------------------------------------------------
 Warning -- This program may not be used in any manner that
 competes with the business of Gaussian, Inc. or will provide
 assistance to any competitor of Gaussian, Inc.  The licensee
 of this program is prohibited from giving any competitor of
 Gaussian, Inc. access to this program.  By using this program,
 the user acknowledges that Gaussian, Inc. is engaged in the
 business of creating and licensing software in the field of
 computational chemistry and represents and warrants to the
 licensee that it is not a competitor of Gaussian, Inc. and that
 it will not use this program in any manner prohibited above.
 ---------------------------------------------------------------
  

 Cite this work as:
 Gaussian 16, Revision C.02,
 M. J. Frisch, G. W. Trucks, H. B. Schlegel, G. E. Scuseria, 
 M. A. Robb, J. R. Cheeseman, G. Scalmani, V. Barone, 
 G. A. Petersson, H. Nakatsuji, X. Li, M. Caricato, A. V. Marenich, 
 J. Bloino, B. G. Janesko, R. Gomperts, B. Mennucci, H. P. Hratchian, 
 J. V. Ortiz, A. F. Izmaylov, J. L. Sonnenberg, D. Williams-Young, 
 F. Ding, F. Lipparini, F. Egidi, J. Goings, B. Peng, A. Petrone, 
 T. Henderson, D. Ranasinghe, V. G. Zakrzewski, J. Gao, N. Rega, 
 G. Zheng, W. Liang, M. Hada, M. Ehara, K. Toyota, R. Fukuda, 
 J. Hasegawa, M. Ishida, T. Nakajima, Y. Honda, O. Kitao, H. Nakai, 
 T. Vreven, K. Throssell, J. A. Montgomery, Jr., J. E. Peralta, 
 F. Ogliaro, M. J. Bearpark, J. J. Heyd, E. N. Brothers, K. N. Kudin, 
 V. N. Staroverov, T. A. Keith, R. Kobayashi, J. Normand, 
 K. Raghavachari, A. P. Rendell, J. C. Burant, S. S. Iyengar, 
 J. Tomasi, M. Cossi, J. M. Millam, M. Klene, C. Adamo, R. Cammi, 
 J. W. Ochterski, R. L. Martin, K. Morokuma, O. Farkas, 
 J. B. Foresman, and D. J. Fox, Gaussian, Inc., Wallingford CT, 2019.
 
 ******************************************
 Gaussian 16:  ES64L-G16RevC.02  7-Dec-2021
                18-Nov-2024 
 ******************************************
 %mem=16GB
 %CPU=0-71
 SetSPE:  set environment variable "OMP_PROC_BIND" = "true"
 SetSPE:  set environment variable "OMP_PLACES" = "{0},{1},{2},{3},{4},{5},{6},{7},{8},{9},{10},{11},{12},{13},{14},{15},{16},{17},{18},{19},{20},{21},{22},{23},{24},{25},{26},{27},{28},{29},{30},{31},{32},{33},{34},{35},{36},{37},{38},{39},{40},{41},{42},{43},{44},{45},{46},{47},{48},{49},{50},{51},{52},{53},{54},{55},{56},{57},{58},{59},{60},{61},{62},{63},{64},{65},{66},{67},{68},{69},{70},{71}"
 Will use up to   72 processors via shared memory.
 %gpucpu=0,1,2,3=0,1,2,3
 Will use    4 GPUs:
 Thread  CPU   GPU
      0    0     0
      1    1     1
      2    2     2
      3    3     3
      4    4    -1
      5    5    -1
      6    6    -1
      7    7    -1
      8    8    -1
      9    9    -1
[...]
    84. BD (   1) C  67 - H  70          1.98333    -0.51248  1524(v),1328(v)
    85. BD (   1) C  67 - C  73          1.98865    -0.67917  1526(g),1525(v),1531(v)
                                                    1407(v),1408(v),1294(v)
    86. BD (   1) N  71 - H  72          1.98757    -0.72190  1324(v),1526(v),1352(v)
                                                    1529(v),1327(v)
    87. BD (   1) N  71 - C  73          1.98393    -0.82645  1528(v),1532(v),1525(g)
                                                    1350(v),1521(v),1526(g)
                                                    1410(v),1354(v),1529(v)
    88. BD (   1) N  71 - C  74          1.98964    -0.86619  1522(v),1324(v),1524(g)
                                                    1523(g),1326(v),153(r)
    89. BD (   1) C  73 - C  77          1.98178    -0.71938  1523(v),1522(g),1252(v)
                                                    1532(g),1381(v),153(r)
    90. BD (   2) C  73 - C  77          1.82473    -0.26269  1530(v),1519(v),1520(v)
                                                    1293(v),1383(v)
    91. BD (   1) C  74 - H  75          1.98339    -0.55774  1531(v),1524(v),1381(v)
                                                    1529(g),153(r)
    92. BD (   1) C  74 - N  76          1.98479    -0.83890  1523(v),1532(v),153(r)
                                                    1408(v),1528(g),1522(r)
                                                    166(r),1409(v),151(r),154(r)
                                                    152(r),165(r),194(r)
    93. BD (   2) C  74 - N  76          1.87813    -0.30710  1527(v),1409(v),153(r)
                                                    1293(v),167(r),154(r),156(r)
                                                    168(r)
    94. BD (   1) N  76 - C  77          1.97614    -0.76294  1522(v),1528(v),153(r)
                                                    1525(v),1352(v),1524(v)
                                                    1526(g),167(r),1529(g)
                                                    166(r),152(r),151(r),168(r)
    95. BD (   1) C  77 - H  78          1.98276    -0.53473  1529(v),1524(v),1324(v)
                                                    1526(g),1381(v),153(r)
                                                    1469(r),166(r),150(r)
   140. CR (   1) C  67                  1.99940   -10.05977  1526(v),1524(v),1324(v)
                                                    1328(v)
   141. CR (   1) N  71                  1.99934   -14.20476  1352(v),1326(v),1327(v)
                                                    1522(v),1350(v)
   142. CR (   1) C  73                  1.99911   -10.07447  1526(g),1408(v),1532(v)
                                                    1297(v)
   143. CR (   1) C  74                  1.99940   -10.11205  1523(v),1382(v),1297(v)
                                                    153(r)
   144. CR (   1) N  76                  1.99936   -14.13235  1350(v),1407(v),153(r)
                                                    1528(v)
   145. CR (   1) C  77                  1.99898   -10.05354  1324(v),1522(v),1526(g)
                                                    1382(v),1327(v),1434(v)
                                                    153(r)
   163. LP (   1) N  71                  1.57487    -0.27805  1530(v),1527(v),1351(v)
                                                    1353(v),1325(v),1319(v)
   164. LP (   1) N  76                  1.83695    -0.36024  153(r),1525(v),154(r)
                                                    1526(v),1350(v),1528(v)
                                                    1407(v),1532(v),152(r)
                                                    174(r),150(r),170(r),173(r)
                                                    1448(r),218(r),149(r),171(r)
                                                    167(r)
  1252. RY*(   1) C  67                  0.00134     1.24549   
  1253. RY*(   2) C  67                  0.00075     1.34906   
  1254. RY*(   3) C  67                  0.00062     1.31970   
  1255. RY*(   4) C  67                  0.00021     1.20702   
  1256. RY*(   5) C  67                  0.00016     1.32485   
  1257. RY*(   6) C  67                  0.00009     1.38666   
  1258. RY*(   7) C  67                  0.00007     1.01551   
  1259. RY*(   8) C  67                  0.00005     1.97995   
  1260. RY*(   9) C  67                  0.00003     1.58289   
  1261. RY*(  10) C  67                  0.00001     1.90830   
  1262. RY*(  11) C  67                  0.00000     3.22627   
  1263. RY*(  12) C  67                  0.00000    21.49603   
  1264. RY*(  13) C  67                  0.00000     3.11989   
  1265. RY*(  14) C  67                  0.00000     2.01898   
  1266. RY*(  15) C  67                  0.00000     2.95799   
  1267. RY*(  16) C  67                  0.00001     1.90044   
  1268. RY*(  17) C  67                  0.00000     3.13550   
  1269. RY*(  18) C  67                  0.00000     1.56027   
  1270. RY*(  19) C  67                  0.00000     2.93203   
  1271. RY*(  20) C  67                  0.00000     3.31986   
  1272. RY*(  21) C  67                  0.00000     2.98873   
  1273. RY*(  22) C  67                  0.00000     3.18695   
  1274. RY*(  23) C  67                  0.00000     3.43668   
  1275. RY*(  24) C  67                  0.00000     3.64465   
  1276. RY*(  25) C  67                  0.00000     3.40703   
  1277. RY*(  26) C  67                  0.00000     3.34141   
  1278. RY*(   1) H  68                  0.00085     0.74286   
  1279. RY*(   2) H  68                  0.00020     1.83802   
  1280. RY*(   3) H  68                  0.00010     2.15919   
  1281. RY*(   4) H  68                  0.00005     2.23316   
  1282. RY*(   5) H  68                  0.00002     2.96258   
  1283. RY*(   1) H  69                  0.00078     0.76793   
  1284. RY*(   2) H  69                  0.00020     1.83858   
  1285. RY*(   3) H  69                  0.00010     2.15823   
  1286. RY*(   4) H  69                  0.00005     2.25521   
  1287. RY*(   5) H  69                  0.00002     2.96537   
  1288. RY*(   1) H  70                  0.00024     1.51617   
  1289. RY*(   2) H  70                  0.00014     1.13859   
  1290. RY*(   3) H  70                  0.00012     2.14270   
  1291. RY*(   4) H  70                  0.00006     2.32442   
  1292. RY*(   5) H  70                  0.00000     2.95017   
  1293. RY*(   1) N  71                  0.00290     0.83016   
  1294. RY*(   2) N  71                  0.00273     1.59385   
  1295. RY*(   3) N  71                  0.00147     1.84516   
  1296. RY*(   4) N  71                  0.00080     2.27005   
  1297. RY*(   5) N  71                  0.00050     1.07642   
  1298. RY*(   6) N  71                  0.00024     2.13845   
  1299. RY*(   7) N  71                  0.00021     2.02405   
  1300. RY*(   8) N  71                  0.00007     2.48950   
  1301. RY*(   9) N  71                  0.00005     2.71621   
  1302. RY*(  10) N  71                  0.00006     2.36105   
  1303. RY*(  11) N  71                  0.00006     3.88731   
  1304. RY*(  12) N  71                  0.00000     2.21252   
  1305. RY*(  13) N  71                  0.00000     4.23257   
  1306. RY*(  14) N  71                  0.00001     3.80703   
  1307. RY*(  15) N  71                  0.00000     3.80232   
  1308. RY*(  16) N  71                  0.00001     2.45663   
  1309. RY*(  17) N  71                  0.00000     4.07433   
  1310. RY*(  18) N  71                  0.00000    30.72479   
  1311. RY*(  19) N  71                  0.00000     4.11685   
  1312. RY*(  20) N  71                  0.00000     4.73032   
  1313. RY*(  21) N  71                  0.00000     4.66627   
  1314. RY*(  22) N  71                  0.00000     4.47324   
  1315. RY*(  23) N  71                  0.00000     4.31797   
  1316. RY*(  24) N  71                  0.00000     4.40346   
  1317. RY*(  25) N  71                  0.00000     4.44362   
  1318. RY*(  26) N  71                  0.00000     4.48855   
  1319. RY*(   1) H  72                  0.00053     2.17095   
  1320. RY*(   2) H  72                  0.00046     1.65803   
  1321. RY*(   3) H  72                  0.00032     1.52481   
  1322. RY*(   4) H  72                  0.00019     2.61648   
  1323. RY*(   5) H  72                  0.00001     3.03169   
  1324. RY*(   1) C  73                  0.00461     1.67413   
  1325. RY*(   2) C  73                  0.00251     0.98067   
  1326. RY*(   3) C  73                  0.00208     1.62975   
  1327. RY*(   4) C  73                  0.00162     1.79463   
  1328. RY*(   5) C  73                  0.00151     1.81631   
  1329. RY*(   6) C  73                  0.00117     2.00365   
  1330. RY*(   7) C  73                  0.00043     2.34131   
  1331. RY*(   8) C  73                  0.00036     2.87813   
  1332. RY*(   9) C  73                  0.00020     2.52630   
  1333. RY*(  10) C  73                  0.00008     3.38383   
  1334. RY*(  11) C  73                  0.00006     2.69994   
  1335. RY*(  12) C  73                  0.00003     2.31874   
  1336. RY*(  13) C  73                  0.00001     2.14858   
  1337. RY*(  14) C  73                  0.00001     1.76091   
  1338. RY*(  15) C  73                  0.00000     2.64603   
  1339. RY*(  16) C  73                  0.00001     2.33683   
  1340. RY*(  17) C  73                  0.00000     1.36604   
  1341. RY*(  18) C  73                  0.00000     3.11237   
  1342. RY*(  19) C  73                  0.00000    21.18230   
  1343. RY*(  20) C  73                  0.00001     4.05606   
  1344. RY*(  21) C  73                  0.00001     3.38412   
  1345. RY*(  22) C  73                  0.00000     3.54131   
  1346. RY*(  23) C  73                  0.00000     3.53405   
  1347. RY*(  24) C  73                  0.00000     3.73904   
  1348. RY*(  25) C  73                  0.00000     3.55299   
  1349. RY*(  26) C  73                  0.00000     3.48951   
  1350. RY*(   1) C  74                  0.00454     1.42772   
  1351. RY*(   2) C  74                  0.00296     0.56533   
  1352. RY*(   3) C  74                  0.00258     1.50779   
  1353. RY*(   4) C  74                  0.00144     2.42621   
  1354. RY*(   5) C  74                  0.00083     1.53010   
  1355. RY*(   6) C  74                  0.00051     1.51994   
  1356. RY*(   7) C  74                  0.00022     1.57652   
  1357. RY*(   8) C  74                  0.00006     2.99670   
  1358. RY*(   9) C  74                  0.00004     2.12530   
  1359. RY*(  10) C  74                  0.00004     3.00194   
  1360. RY*(  11) C  74                  0.00003     2.28937   
  1361. RY*(  12) C  74                  0.00000    20.72125   
  1362. RY*(  13) C  74                  0.00001     2.44080   
  1363. RY*(  14) C  74                  0.00000     3.55627   
  1364. RY*(  15) C  74                  0.00001     2.36095   
  1365. RY*(  16) C  74                  0.00000     3.12716   
  1366. RY*(  17) C  74                  0.00001     2.52266   
  1367. RY*(  18) C  74                  0.00000     2.54983   
  1368. RY*(  19) C  74                  0.00001     2.56860   
  1369. RY*(  20) C  74                  0.00001     3.94254   
  1370. RY*(  21) C  74                  0.00001     3.77652   
  1371. RY*(  22) C  74                  0.00000     3.47641   
  1372. RY*(  23) C  74                  0.00000     3.70987   
  1373. RY*(  24) C  74                  0.00000     3.76474   
  1374. RY*(  25) C  74                  0.00000     3.25699   
  1375. RY*(  26) C  74                  0.00000     3.58808   
  1376. RY*(   1) H  75                  0.00059     0.57144   
  1377. RY*(   2) H  75                  0.00024     2.20493   
  1378. RY*(   3) H  75                  0.00021     2.15241   
  1379. RY*(   4) H  75                  0.00012     2.32979   
  1380. RY*(   5) H  75                  0.00001     3.01102   
  1381. RY*(   1) N  76                  0.00519     1.10922   
  1382. RY*(   2) N  76                  0.00309     0.94732   
  1383. RY*(   3) N  76                  0.00233     0.95435   
  1384. RY*(   4) N  76                  0.00079     1.19036   
  1385. RY*(   5) N  76                  0.00045     3.39366   
  1386. RY*(   6) N  76                  0.00027     2.96224   
  1387. RY*(   7) N  76                  0.00020     2.34988   
  1388. RY*(   8) N  76                  0.00013     3.49598   
  1389. RY*(   9) N  76                  0.00010     2.31903   
  1390. RY*(  10) N  76                  0.00008     2.59649   
  1391. RY*(  11) N  76                  0.00005     3.42524   
  1392. RY*(  12) N  76                  0.00003     3.98865   
  1393. RY*(  13) N  76                  0.00002     1.58382   
  1394. RY*(  14) N  76                  0.00001     3.95923   
  1395. RY*(  15) N  76                  0.00001     3.22602   
  1396. RY*(  16) N  76                  0.00000     4.35943   
  1397. RY*(  17) N  76                  0.00000    31.71184   
  1398. RY*(  18) N  76                  0.00000     4.75806   
  1399. RY*(  19) N  76                  0.00001     3.75495   
  1400. RY*(  20) N  76                  0.00000     4.21840   
  1401. RY*(  21) N  76                  0.00001     4.53479   
  1402. RY*(  22) N  76                  0.00000     4.35204   
  1403. RY*(  23) N  76                  0.00000     4.58869   
  1404. RY*(  24) N  76                  0.00000     4.58500   
  1405. RY*(  25) N  76                  0.00000     4.58701   
  1406. RY*(  26) N  76                  0.00000     4.57681   
  1407. RY*(   1) C  77                  0.00366     1.57841   
  1408. RY*(   2) C  77                  0.00247     1.43522   
  1409. RY*(   3) C  77                  0.00217     0.89762   
  1410. RY*(   4) C  77                  0.00081     1.86946   
  1411. RY*(   5) C  77                  0.00052     1.80271   
  1412. RY*(   6) C  77                  0.00042     2.22922   
  1413. RY*(   7) C  77                  0.00042     1.92305   
  1414. RY*(   8) C  77                  0.00022     1.90129   
  1415. RY*(   9) C  77                  0.00017     1.37834   
  1416. RY*(  10) C  77                  0.00014     1.25308   
  1417. RY*(  11) C  77                  0.00010     1.83571   
  1418. RY*(  12) C  77                  0.00004     2.60012   
  1419. RY*(  13) C  77                  0.00005     2.19251   
  1420. RY*(  14) C  77                  0.00002     3.01551   
  1421. RY*(  15) C  77                  0.00001     2.81189   
  1422. RY*(  16) C  77                  0.00001     3.38177   
  1423. RY*(  17) C  77                  0.00000     3.14492   
  1424. RY*(  18) C  77                  0.00000    20.65585   
  1425. RY*(  19) C  77                  0.00001     3.24762   
  1426. RY*(  20) C  77                  0.00000     3.20221   
  1427. RY*(  21) C  77                  0.00001     3.75320   
  1428. RY*(  22) C  77                  0.00000     3.65140   
  1429. RY*(  23) C  77                  0.00000     3.31293   
  1430. RY*(  24) C  77                  0.00001     3.34229   
  1431. RY*(  25) C  77                  0.00000     3.47121   
  1432. RY*(  26) C  77                  0.00000     3.64292   
  1433. RY*(   1) H  78                  0.00087     0.81394   
  1434. RY*(   2) H  78                  0.00029     2.47500   
  1435. RY*(   3) H  78                  0.00020     2.26082   
  1436. RY*(   4) H  78                  0.00005     2.60335   
  1437. RY*(   5) H  78                  0.00003     3.21674   
  1519. BD*(   1) C  67 - H  68          0.01369     0.34095   
  1520. BD*(   1) C  67 - H  69          0.01279     0.34114   
  1521. BD*(   1) C  67 - H  70          0.00396     0.34964   
  1522. BD*(   1) C  67 - C  73          0.01557     0.41817   
  1523. BD*(   1) N  71 - H  72          0.01675     0.38071   
  1524. BD*(   1) N  71 - C  73          0.02951     0.43796   
  1525. BD*(   1) N  71 - C  74          0.02722     0.49004   
  1526. BD*(   1) C  73 - C  77          0.02389     0.57525   
  1527. BD*(   2) C  73 - C  77          0.30282     0.04191  1530(v),1519(v),1520(v)
                                                    1412(g),153(r)
  1528. BD*(   1) C  74 - H  75          0.02220     0.36201   
  1529. BD*(   1) C  74 - N  76          0.01153     0.56411   
  1530. BD*(   2) C  74 - N  76          0.39794     0.00895  1527(v),1351(g),153(r)
                                                    1445(r),154(r)
  1531. BD*(   1) N  76 - C  77          0.01116     0.48426   
  1532. BD*(   1) C  77 - H  78          0.01619     0.42083   
       -------------------------------
              Total Lewis   42.91140  ( 97.7742%)
        Valence non-Lewis    0.90522  (  2.0626%)
        Rydberg non-Lewis    0.07166  (  0.1633%)
       -------------------------------
            Total unit  4   43.88829  (100.0000%)
           Charge unit  4    0.11171
 Unable to Open any file for archive entry.
 1\1\GINC-BGN1009\SP\RAPFD\def2TZVP\C34H36Fe1N6O1\BEBJONES\18-Nov-2024\
 0\\# apfd/def2TZVP int=(grid=ultrafine) geom=check guess=read pop=nbo 
 scf=qc\\4ksz_II_S_nbo\\0,1\Fe,0,10.09,2.418,26.452\N,0,9.347,2.519,28.
 324\N,0,10.252,4.583,26.447\N,0,10.83,2.359,24.645\N,0,9.958,0.23,26.4
 95\C,0,8.95,1.455,29.05\C,0,8.462,1.975,30.329\C,0,8.51,3.304,30.32\C,
 0,9.043,3.678,29.046\C,0,9.744,5.397,27.398\C,0,9.846,6.738,26.845\C,0
 ,10.388,6.648,25.581\C,0,10.677,5.264,25.348\C,0,11.316,3.393,23.912\C
 ,0,11.926,2.858,22.717\C,0,11.803,1.554,22.725\C,0,11.118,1.203,23.938
 \C,0,10.257,-0.565,25.418\C,0,9.801,-1.864,25.671\C,0,9.288,-1.825,27.
 03\C,0,9.417,-0.435,27.49\C,0,9.092,0.104,28.706\H,0,8.922,-0.61,29.51
 1\C,0,9.241,4.977,28.628\H,0,8.975,5.761,29.337\C,0,11.251,4.753,24.18
 3\H,0,11.665,5.451,23.456\C,0,10.8,-0.108,24.259\H,0,11.009,-0.857,23.
 495\C,0,8.06,4.284,31.449\H,0,8.018,3.74,32.417\H,0,7.05,4.685,31.217\
 H,0,8.789,5.117,31.535\C,0,7.926,1.154,31.539\H,0,8.653,1.211,32.377\H
 ,0,7.798,0.091,31.244\H,0,6.954,1.574,31.876\C,0,9.338,8.023,27.538\H,
 0,10.192,8.548,28.018\H,0,8.593,7.759,28.319\H,0,8.877,8.698,26.786\C,
 0,10.732,7.72,24.509\H,0,10.671,7.473,23.439\C,0,11.11,8.967,24.856\H,
 0,11.183,9.254,25.915\H,0,11.35,9.713,24.084\C,0,12.585,3.766,21.62\H,
 0,12.99,4.686,22.094\H,0,11.823,4.055,20.865\H,0,13.417,3.218,21.129\C
 ,0,12.254,0.515,21.672\H,0,12.018,-0.54,21.87\C,0,12.913,0.752,20.522\
 H,0,13.324,-0.081,19.932\H,0,13.049,1.781,20.158\C,0,9.874,-3.155,24.8
 11\H,0,10.885,-3.606,24.904\H,0,9.687,-2.907,23.744\H,0,9.119,-3.887,2
 5.168\C,0,8.621,-2.991,27.838\H,0,9.161,-3.94,27.634\H,0,7.561,-3.105,
 27.526\H,0,8.675,-2.773,28.926\O,0,7.501,2.478,25.816\H,0,7.027,2.528,
 26.646\H,0,7.139,2.457,25.004\C,0,16.009,3.166,27.111\H,0,16.777,2.368
 ,27.023\H,0,16.269,3.823,27.968\H,0,15.993,3.757,26.17\N,0,14.418,1.78
 4,28.432\H,0,15.055,1.603,29.181\C,0,14.695,2.557,27.335\C,0,13.178,1.
 328,28.325\H,0,12.683,0.718,29.08\N,0,12.669,1.73,27.183\C,0,13.595,2.
 515,26.533\H,0,13.386,2.965,25.571\\Version=ES64L-G16RevC.02\State=1-A
 \HF=-2983.8753704\RMSD=6.942e-10\Dipole=0.6865191,-0.2548347,1.067091\
 Quadrupole=7.0765984,-8.6674018,1.5908035,-0.4495645,4.670597,-2.28610
 43\PG=C01 [X(C34H36Fe1N6O1)]\\@
 The archive entry for this job was punched.


 THE POLHOLDE ROLLS WITHOUT SLIPPING ON THE HERPOLHOLDE LYING IN
 THE INVARIABLE PLANE.
 H.GOLDSTEIN, "CLASSICAL MECHANICS", PG 161
 Job cpu time:       0 days  0 hours 41 minutes 12.2 seconds.
 Elapsed time:       0 days  0 hours  0 minutes 52.2 seconds.
 File lengths (MBytes):  RWF=    792 Int=      0 D2E=      0 Chk=    155 Scr=      1
 Normal termination of Gaussian 16 at Mon Nov 18 17:12:33 2024.
