 Entering Gaussian System, Link 0=g16
 Input=4msf01.com
 Output=4msf01.log
 Initial command:
 /sw/chem/gaussian/g16_C02/a100/g16/l1.exe "/local/bebjones_8087545/Gau-1275101.inp" -scrdir="/local/bebjones_8087545/"
 Entering Link 1 = /sw/chem/gaussian/g16_C02/a100/g16/l1.exe PID=   1275102.
  
 Copyright (c) 1988-2021, Gaussian, Inc.  All Rights Reserved.
  
 This is part of the Gaussian(R) 16 program.  It is based on
 the Gaussian(R) 09 system (copyright 2009, Gaussian, Inc.),
 the Gaussian(R) 03 system (copyright 2003, Gaussian, Inc.),
 the Gaussian(R) 98 system (copyright 1998, Gaussian, Inc.),
 the Gaussian(R) 94 system (copyright 1995, Gaussian, Inc.),
 the Gaussian 92(TM) system (copyright 1992, Gaussian, Inc.),
 the Gaussian 90(TM) system (copyright 1990, Gaussian, Inc.),
 the Gaussian 88(TM) system (copyright 1988, Gaussian, Inc.),
 the Gaussian 86(TM) system (copyright 1986, Carnegie Mellon
 University), and the Gaussian 82(TM) system (copyright 1983,
 Carnegie Mellon University). Gaussian is a federally registered
 trademark of Gaussian, Inc.
  
 This software contains proprietary and confidential information,
 including trade secrets, belonging to Gaussian, Inc.
  
 This software is provided under written license and may be
 used, copied, transmitted, or stored only in accord with that
 written license.
  
 The following legend is applicable only to US Government
 contracts under FAR:
  
                    RESTRICTED RIGHTS LEGEND
  
 Use, reproduction and disclosure by the US Government is
 subject to restrictions as set forth in subparagraphs (a)
 and (c) of the Commercial Computer Software - Restricted
 Rights clause in FAR 52.227-19.
  
 Gaussian, Inc.
 340 Quinnipiac St., Bldg. 40, Wallingford CT 06492
  
  
 ---------------------------------------------------------------
 Warning -- This program may not be used in any manner that
 competes with the business of Gaussian, Inc. or will provide
 assistance to any competitor of Gaussian, Inc.  The licensee
 of this program is prohibited from giving any competitor of
 Gaussian, Inc. access to this program.  By using this program,
 the user acknowledges that Gaussian, Inc. is engaged in the
 business of creating and licensing software in the field of
 computational chemistry and represents and warrants to the
 licensee that it is not a competitor of Gaussian, Inc. and that
 it will not use this program in any manner prohibited above.
 ---------------------------------------------------------------
  

 Cite this work as:
 Gaussian 16, Revision C.02,
 M. J. Frisch, G. W. Trucks, H. B. Schlegel, G. E. Scuseria, 
 M. A. Robb, J. R. Cheeseman, G. Scalmani, V. Barone, 
 G. A. Petersson, H. Nakatsuji, X. Li, M. Caricato, A. V. Marenich, 
 J. Bloino, B. G. Janesko, R. Gomperts, B. Mennucci, H. P. Hratchian, 
 J. V. Ortiz, A. F. Izmaylov, J. L. Sonnenberg, D. Williams-Young, 
 F. Ding, F. Lipparini, F. Egidi, J. Goings, B. Peng, A. Petrone, 
 T. Henderson, D. Ranasinghe, V. G. Zakrzewski, J. Gao, N. Rega, 
 G. Zheng, W. Liang, M. Hada, M. Ehara, K. Toyota, R. Fukuda, 
 J. Hasegawa, M. Ishida, T. Nakajima, Y. Honda, O. Kitao, H. Nakai, 
 T. Vreven, K. Throssell, J. A. Montgomery, Jr., J. E. Peralta, 
 F. Ogliaro, M. J. Bearpark, J. J. Heyd, E. N. Brothers, K. N. Kudin, 
 V. N. Staroverov, T. A. Keith, R. Kobayashi, J. Normand, 
 K. Raghavachari, A. P. Rendell, J. C. Burant, S. S. Iyengar, 
 J. Tomasi, M. Cossi, J. M. Millam, M. Klene, C. Adamo, R. Cammi, 
 J. W. Ochterski, R. L. Martin, K. Morokuma, O. Farkas, 
 J. B. Foresman, and D. J. Fox, Gaussian, Inc., Wallingford CT, 2019.
 
 ******************************************
 Gaussian 16:  ES64L-G16RevC.02  7-Dec-2021
                18-Nov-2024 
 ******************************************
 %mem=16GB
 %CPU=0-71
 SetSPE:  set environment variable "OMP_PROC_BIND" = "true"
 SetSPE:  set environment variable "OMP_PLACES" = "{0},{1},{2},{3},{4},{5},{6},{7},{8},{9},{10},{11},{12},{13},{14},{15},{16},{17},{18},{19},{20},{21},{22},{23},{24},{25},{26},{27},{28},{29},{30},{31},{32},{33},{34},{35},{36},{37},{38},{39},{40},{41},{42},{43},{44},{45},{46},{47},{48},{49},{50},{51},{52},{53},{54},{55},{56},{57},{58},{59},{60},{61},{62},{63},{64},{65},{66},{67},{68},{69},{70},{71}"
 Will use up to   72 processors via shared memory.
 %gpucpu=0,1,2,3=0,1,2,3
 Will use    4 GPUs:
 Thread  CPU   GPU
      0    0     0
      1    1     1
      2    2     2
      3    3     3
      4    4    -1
      5    5    -1
      6    6    -1
      7    7    -1
      8    8    -1
      9    9    -1
     10   10    -1
     11   11    -1
     12   12    -1
     13   13    -1
     14   14    -1
     15   15    -1
     16   16    -1
     17   17    -1
     18   18    -1
     19   19    -1
     20   20    -1
     21   21    -1
     22   22    -1
     23   23    -1
     24   24    -1
     25   25    -1
     26   26    -1
     27   27    -1
     28   28    -1
     29   29    -1
     30   30    -1
     31   31    -1
     32   32    -1
     33   33    -1
     34   34    -1
     35   35    -1
     36   36    -1
     37   37    -1
     38   38    -1
     39   39    -1
     40   40    -1
     41   41    -1
     42   42    -1
     43   43    -1
     44   44    -1
     45   45    -1
     46   46    -1
     47   47    -1
     48   48    -1
     49   49    -1
     50   50    -1
     51   51    -1
     52   52    -1
     53   53    -1
     54   54    -1
     55   55    -1
     56   56    -1
     57   57    -1
     58   58    -1
     59   59    -1
     60   60    -1
     61   61    -1
     62   62    -1
     63   63    -1
     64   64    -1
     65   65    -1
     66   66    -1
     67   67    -1
     68   68    -1
     69   69    -1
     70   70    -1
     71   71    -1
 SetGPE:  set environment variable "OMP_PROC_BIND" = "true"
 SetGPE:  set environment variable "OMP_PLACES" = "{0},{1},{2},{3},{4},{5},{6},{7},{8},{9},{10},{11},{12},{13},{14},{15},{16},{17},{18},{19},{20},{21},{22},{23},{24},{25},{26},{27},{28},{29},{30},{31},{32},{33},{34},{35},{36},{37},{38},{39},{40},{41},{42},{43},{44},{45},{46},{47},{48},{49},{50},{51},{52},{53},{54},{55},{56},{57},{58},{59},{60},{61},{62},{63},{64},{65},{66},{67},{68},{69},{70},{71}"
 %chk=4msf_II_O.chk
 Properties for Device   0
 Minimum vector length:                              32
 Maximum vector length:                            1024
 Number of SMPs:                                    108
 Maximum number of threads per SMP:                2048
 Number of ASync Engines:                             5
 Memory:                                           9207742464
 Properties for Device   1
 Minimum vector length:                              32
 Maximum vector length:                            1024
 Number of SMPs:                                    108
 Maximum number of threads per SMP:                2048
 Number of ASync Engines:                             5
 Memory:                                           9207742464
 Properties for Device   2
 Minimum vector length:                              32
 Maximum vector length:                            1024
 Number of SMPs:                                    108
 Maximum number of threads per SMP:                2048
 Number of ASync Engines:                             5
 Memory:                                           9207742464
 Properties for Device   3
 Minimum vector length:                              32
 Maximum vector length:                            1024
 Number of SMPs:                                    108
 Maximum number of threads per SMP:                2048
 Number of ASync Engines:                             5
 Memory:                                           9207742464
   8286968217 words of memory will be used on each GPU.
 ------------------------------------------
 # polar def2tzvp apfd int=(grid=ultrafine)
 ------------------------------------------
 1/38=1,172=1/1;
 2/12=2,17=6,18=5,40=1/2;
 3/5=44,7=101,11=2,25=1,30=1,74=-44,75=-5/1,2,3;
 4//1;
 5/5=2,38=5,98=1/2;
 8/6=4,10=90,11=11/1;
 10/6=1,13=10/2;
 6/7=2,8=2,9=2,10=2,28=1/1;
 99/5=1,9=1/99;
 ---------
 4msf_II_S
 ---------
 Symbolic Z-matrix:
 Charge =  0 Multiplicity = 1
 Fe                    9.54812   2.32997   26.05838 
 N                     8.74306   2.46705   27.8959 
 N                     9.64865   4.33944   25.97842 
 N                     10.30225   2.21888   24.20914 
 N                     9.38369   0.34735   26.12298 
 C                     8.30577   1.43591   28.66784 
 C                     7.76893   1.92352   29.91807 
 C                     7.86174   3.28013   29.86968 
 C                     8.45592   3.60098   28.59141 
 C                     9.18578   5.22373   26.90387 
 C                     9.34955   6.58083   26.44818 
 C                     9.88843   6.50136   25.19206 
 C                     10.0469   5.08566   24.91595 
 C                     10.73591   3.25196   23.43767 
 C                     11.36893   2.76748   22.23774 
 C                     11.248    1.40298   22.26496 
 C                     10.58619   1.0869    23.5169 
 C                     9.66614  -0.52477   25.12006 
 C                     9.28491  -1.87081   25.48747 
 C                     8.72539  -1.78401   26.72359 
 C                     8.77943  -0.3869    27.09547 
 C                     8.32844   0.10027   28.30821 
 H                     7.91518  -0.61003   29.00829 
 C                     8.66796   4.88924   28.14328 
 H                     8.3805    5.69643   28.79941 
 C                     10.59588   4.59346   23.74807 
 H                     10.93482   5.31009   23.01547 
 C                     10.27754  -0.19766   23.92475 
 H                     10.49516  -1.00542   23.24267 
 C                     7.44365   4.29194   30.88108 
 H                     7.05886   3.80887   31.77599 
 H                     6.66219   4.93746   30.4785 
 H                     8.28726   4.921     31.16526 
 C                     7.2199    1.05206   30.99573 
 H                     7.96894   0.33326   31.3286 
 H                     6.35493   0.49444   30.63489 
 H                     6.90975   1.6452    31.85255 
 C                     8.91097   7.79484   27.19078 
 H                     9.65869   8.09145   27.92826 
 H                     7.97521   7.60937   27.71612 
 H                     8.76369   8.62222   26.49944 
 C                     10.22033   7.56414   24.26956 
 H                     10.08259   7.3324    23.21961 
 C                     10.67398   8.76694   24.60796 
 H                     10.87469   9.03708   25.63001 
 H                     10.8863   9.51836   23.86542 
 C                     12.04524   3.62014   21.22139 
 H                     12.55356   4.45703   21.69804 
 H                     11.32552   4.02434   20.50732 
 H                     12.77912   3.03335   20.67234 
 C                     11.71661   0.42349   21.31046 
 H                     12.01872  -0.52966   21.72888 
 C                     11.7922   0.59995   19.99497 
 H                     12.16531  -0.17323   19.34375 
 H                     11.46217   1.50584   19.5176 
 C                     9.48223  -3.06703   24.62079 
 H                     10.54146  -3.21617   24.40932 
 H                     8.96321  -2.94139   23.67042 
 H                     9.1005   -3.9632    25.10399 
 C                     8.14286  -2.86013   27.57508 
 H                     8.67702  -2.93396   28.52297 
 H                     8.20152  -3.82339   27.07437 
 H                     7.0955   -2.65065   27.79375 
 O                     7.414     2.467     25.302 
 H                     6.903     2.699     26.077 
 H                     7.095     2.333     24.483 
 C                     14.95384   3.0279    27.2561 
 H                     15.21092   3.471     28.21816 
 H                     15.10622   3.77029   26.47909 
 H                     15.62749   2.19021   27.07575 
 N                     13.05366   1.64503   28.12118 
 H                     13.58479   1.18253   28.84062 
 C                     13.53861   2.57874   27.24307 
 C                     11.74311   1.4625    27.84273 
 H                     11.10388   0.78649   28.37199 
 N                     11.36949   2.22315   26.84258 
 C                     12.47513   2.9237    26.459 
 H                     12.43147   3.62481   25.65143 
 
 Stoichiometry    C34H36FeN6O
 Framework group  C1[X(C34H36FeN6O)]
 Deg. of freedom   228
 Full point group                 C1      NOp   1
 Largest Abelian subgroup         C1      NOp   1
 Largest concise Abelian subgroup C1      NOp   1
                         Standard orientation:                         
 ---------------------------------------------------------------------
 Center     Atomic      Atomic             Coordinates (Angstroms)
 Number     Number       Type             X           Y           Z
 ---------------------------------------------------------------------
      1         26           0        0.238821   -0.001213   -0.339676
      2          7           0        1.770892   -1.302032   -0.276368
      3          7           0       -1.042517   -1.551562   -0.434961
      4          7           0       -1.296980    1.274949   -0.455738
      5          7           0        1.518413    1.523178   -0.310435
      6          6           0        3.095545   -0.993356   -0.256999
      7          6           0        3.901032   -2.193228   -0.233746
      8          6           0        3.030208   -3.237948   -0.273251
      9          6           0        1.705534   -2.660709   -0.317885
     10          6           0       -0.729477   -2.873732   -0.515859
     11          6           0       -1.916138   -3.676727   -0.668250
     12          6           0       -2.967381   -2.801255   -0.722878
     13          6           0       -2.389137   -1.476650   -0.593935
     14          6           0       -2.621028    0.963708   -0.478306
     15          6           0       -3.430365    2.152431   -0.393618
     16          6           0       -2.558868    3.209629   -0.387949
     17          6           0       -1.229202    2.629569   -0.415822
     18          6           0        1.213895    2.842314   -0.426054
     19          6           0        2.416559    3.641707   -0.508056
     20          6           0        3.457407    2.767341   -0.481177
     21          6           0        2.874830    1.447209   -0.376368
     22          6           0        3.620557    0.286055   -0.292236
     23          1           0        4.695750    0.381865   -0.306532
     24          6           0        0.545973   -3.402798   -0.418479
     25          1           0        0.645678   -4.476856   -0.452817
     26          6           0       -3.138462   -0.316676   -0.570246
     27          1           0       -4.211350   -0.414454   -0.637275
     28          6           0       -0.062572    3.371631   -0.419730
     29          1           0       -0.153006    4.446485   -0.459315
     30          6           0        3.311271   -4.701621   -0.286260
     31          1           0        4.378966   -4.891652   -0.207591
     32          1           0        2.951056   -5.153850   -1.211018
     33          1           0        2.811542   -5.195235    0.547267
     34          6           0        5.391163   -2.206509   -0.194184
     35          1           0        5.758001   -1.662965    0.676748
     36          1           0        5.802900   -1.731780   -1.085492
     37          1           0        5.767839   -3.225294   -0.145824
     38          6           0       -1.936338   -5.156795   -0.831360
     39          1           0       -1.882128   -5.656053    0.137526
     40          1           0       -1.090253   -5.491099   -1.430037
     41          1           0       -2.855550   -5.465218   -1.325449
     42          6           0       -4.375950   -3.072541   -0.904538
     43          1           0       -4.927450   -2.327088   -1.465971
     44          6           0       -5.023584   -4.136760   -0.440779
     45          1           0       -4.539053   -4.884726    0.162229
     46          1           0       -6.074582   -4.282605   -0.628427
     47          6           0       -4.915774    2.172339   -0.290893
     48          1           0       -5.271179    1.336064    0.309361
     49          1           0       -5.377850    2.100797   -1.277118
     50          1           0       -5.244163    3.099814    0.174201
     51          6           0       -2.838506    4.625744   -0.307335
     52          1           0       -2.098424    5.219263    0.216925
     53          6           0       -3.901801    5.234766   -0.822968
     54          1           0       -4.051547    6.296082   -0.712141
     55          1           0       -4.644764    4.706537   -1.394307
     56          6           0        2.432786    5.127954   -0.616715
     57          1           0        1.957716    5.580783    0.254023
     58          1           0        1.889696    5.453157   -1.504223
     59          1           0        3.452055    5.500845   -0.682759
     60          6           0        4.921527    3.038261   -0.554375
     61          1           0        5.426385    2.675868    0.341767
     62          1           0        5.113082    4.104504   -0.646409
     63          1           0        5.361453    2.535310   -1.415866
     64          8           0        0.456771   -0.120999   -2.594333
     65          1           0        1.067127   -0.844420   -2.734687
     66          1           0        0.081601    0.380012   -3.225770
     67          6           0       -1.437347   -0.136329    4.981577
     68          1           0       -1.119259   -0.978375    5.596212
     69          1           0       -2.483966   -0.267795    4.725837
     70          1           0       -1.333618    0.774475    5.571254
     71          7           0        0.731877    0.106521    3.754026
     72          1           0        1.305785    0.183703    4.577609
     73          6           0       -0.628933   -0.054810    3.738752
     74          6           0        1.154533    0.143322    2.470134
     75          1           0        2.177016    0.261278    2.176285
     76          7           0        0.144832    0.015339    1.643930
     77          6           0       -0.971292   -0.109264    2.417929
     78          1           0       -1.938609   -0.230191    1.975989
 ---------------------------------------------------------------------
 Rotational constants (GHZ):           0.0927928           0.0917500           0.0592186
 Standard basis: def2TZVP (5D, 7F)
 There are  1744 symmetry adapted cartesian basis functions of A   symmetry.
 There are  1532 symmetry adapted basis functions of A   symmetry.
  1532 basis functions,  2481 primitive gaussians,  1744 cartesian basis functions
   158 alpha electrons      158 beta electrons
       nuclear repulsion energy      5966.7703124811 Hartrees.
 NAtoms=   78 NActive=   78 NUniq=   78 SFac= 1.00D+00 NAtFMM=   60 NAOKFM=T Big=T
 Integral buffers will be    131072 words long.
 Raffenetti 2 integral format.
 Two-electron integral symmetry is turned on.
 R6APFD:  NTU= -4 IXU= 1 FactS= 1.050
 Nuclear repulsion after empirical dispersion term =     5966.6175393165 Hartrees.
 One-electron integrals computed using PRISM.
   1 Symmetry operations used in ECPInt.
 ECPInt:  NShTT=  186355 NPrTT=  576197 LenC2=  147182 LenP2D=  301155.
 LDataN:  DoStor=T MaxTD1= 6 Len=  172
 Number of processors reduced to  23 by ecpmxn.
 NBasis=  1532 RedAO= T EigKep=  3.11D-06  NBF=  1532
 NBsUse=  1532 1.00D-06 EigRej= -1.00D+00 NBFU=  1532
 ExpMin= 4.20D-02 ExpMax= 3.01D+05 ExpMxC= 2.91D+03 IAcc=3 IRadAn=         5 AccDes= 0.00D+00
 Harris functional with IExCor= 3731 and IRadAn=       5 diagonalized for initial guess.
 HarFok:  IExCor= 3731 AccDes= 0.00D+00 IRadAn=         5 IDoV= 1 UseB2=F ITyADJ=14
 ICtDFT=  3500011 ScaDFX=  1.000000  1.000000  1.000000  1.000000
 FoFCou: FMM=F IPFlag=           0 FMFlag=      100000 FMFlg1=        2001
         NFxFlg=           0 DoJE=T BraDBF=F KetDBF=T FulRan=T
         wScrn=  0.000000 ICntrl=       500 IOpCl=  0 I1Cent=   200000004 NGrid=           0
         NMat0=    1 NMatS0=      1 NMatT0=    0 NMatD0=    1 NMtDS0=    0 NMtDT0=    0
 Petite list used in FoFCou.
 Requested convergence on RMS density matrix=1.00D-08 within 128 cycles.
 Requested convergence on MAX density matrix=1.00D-06.
 Requested convergence on             energy=1.00D-06.
 No special actions if energy rises.
 EnCoef did     1 forward-backward iterations
 EnCoef did   100 forward-backward iterations
 EnCoef did   100 forward-backward iterations
 EnCoef did   100 forward-backward iterations
 EnCoef did     3 forward-backward iterations
 EnCoef did     2 forward-backward iterations
 EnCoef did     1 forward-backward iterations
 Restarting incremental Fock formation.
 SCF Done:  E(RAPFD) =  -2984.02595401     A.U. after   27 cycles
            NFock= 27  Conv=0.41D-08     -V/T= 2.0034
 DoSCS=F DFT=T ScalE2(SS,OS)=  1.000000  1.000000
 Range of M.O.s used for correlation:     1  1532
 NBasis=  1532 NAE=   158 NBE=   158 NFC=     0 NFV=     0
 NROrb=   1532 NOA=   158 NOB=   158 NVA=  1374 NVB=  1374

 **** Warning!!: The largest alpha MO coefficient is  0.44944290D+02

          Differentiating once with respect to electric field.
                with respect to dipole field.
          Electric field/nuclear overlap derivatives assumed to be zero.
          There are     3 degrees of freedom in the 1st order CPHF.  IDoFFX=0 NUNeed=     3.
      3 vectors produced by pass  0 Test12= 7.24D-12 3.33D-08 XBig12= 1.85D+03 2.80D+01.
 AX will form     3 AO Fock derivatives at one time.
      3 vectors produced by pass  1 Test12= 7.24D-12 3.33D-08 XBig12= 1.21D+03 9.83D+00.
      3 vectors produced by pass  2 Test12= 7.24D-12 3.33D-08 XBig12= 3.66D+02 5.69D+00.
      3 vectors produced by pass  3 Test12= 7.24D-12 3.33D-08 XBig12= 2.40D+02 3.54D+00.
      3 vectors produced by pass  4 Test12= 7.24D-12 3.33D-08 XBig12= 1.47D+02 1.83D+00.
      3 vectors produced by pass  5 Test12= 7.24D-12 3.33D-08 XBig12= 5.78D+01 1.90D+00.
      3 vectors produced by pass  6 Test12= 7.24D-12 3.33D-08 XBig12= 3.81D+01 1.58D+00.
      3 vectors produced by pass  7 Test12= 7.24D-12 3.33D-08 XBig12= 1.72D+01 8.80D-01.
      3 vectors produced by pass  8 Test12= 7.24D-12 3.33D-08 XBig12= 9.68D+00 6.35D-01.
      3 vectors produced by pass  9 Test12= 7.24D-12 3.33D-08 XBig12= 4.50D+00 6.56D-01.
      3 vectors produced by pass 10 Test12= 7.24D-12 3.33D-08 XBig12= 2.73D+00 3.60D-01.
      3 vectors produced by pass 11 Test12= 7.24D-12 3.33D-08 XBig12= 1.01D+00 1.82D-01.
      3 vectors produced by pass 12 Test12= 7.24D-12 3.33D-08 XBig12= 4.00D-01 1.01D-01.
      3 vectors produced by pass 13 Test12= 7.24D-12 3.33D-08 XBig12= 9.83D-02 4.95D-02.
      3 vectors produced by pass 14 Test12= 7.24D-12 3.33D-08 XBig12= 4.22D-02 4.12D-02.
      3 vectors produced by pass 15 Test12= 7.24D-12 3.33D-08 XBig12= 1.63D-02 4.11D-02.
      3 vectors produced by pass 16 Test12= 7.24D-12 3.33D-08 XBig12= 8.16D-03 1.94D-02.
      3 vectors produced by pass 17 Test12= 7.24D-12 3.33D-08 XBig12= 1.70D-03 5.81D-03.
      3 vectors produced by pass 18 Test12= 7.24D-12 3.33D-08 XBig12= 4.04D-04 4.29D-03.
      3 vectors produced by pass 19 Test12= 7.24D-12 3.33D-08 XBig12= 6.91D-05 1.28D-03.
      3 vectors produced by pass 20 Test12= 7.24D-12 3.33D-08 XBig12= 1.98D-05 1.23D-03.
      3 vectors produced by pass 21 Test12= 7.24D-12 3.33D-08 XBig12= 3.71D-06 6.85D-04.
      3 vectors produced by pass 22 Test12= 7.24D-12 3.33D-08 XBig12= 9.47D-07 3.34D-04.
      3 vectors produced by pass 23 Test12= 7.24D-12 3.33D-08 XBig12= 1.68D-07 1.33D-04.
      3 vectors produced by pass 24 Test12= 7.24D-12 3.33D-08 XBig12= 3.93D-08 4.24D-05.
      3 vectors produced by pass 25 Test12= 7.24D-12 3.33D-08 XBig12= 8.52D-09 1.49D-05.
      3 vectors produced by pass 26 Test12= 7.24D-12 3.33D-08 XBig12= 1.79D-09 7.98D-06.
      3 vectors produced by pass 27 Test12= 7.24D-12 3.33D-08 XBig12= 4.46D-10 2.78D-06.
      3 vectors produced by pass 28 Test12= 7.24D-12 3.33D-08 XBig12= 5.30D-11 8.86D-07.
      3 vectors produced by pass 29 Test12= 7.24D-12 3.33D-08 XBig12= 6.29D-12 2.80D-07.
      3 vectors produced by pass 30 Test12= 7.24D-12 3.33D-08 XBig12= 9.56D-13 1.16D-07.
      2 vectors produced by pass 31 Test12= 7.24D-12 3.33D-08 XBig12= 1.97D-13 4.53D-08.
 InvSVY:  IOpt=1 It=  1 EMax= 1.42D-14
 Solved reduced A of dimension    95 with     3 vectors.
 Isotropic polarizability for W=    0.000000      575.78 Bohr**3.
 End of Minotr F.D. properties file   721 does not exist.
 End of Minotr F.D. properties file   722 does not exist.
 End of Minotr F.D. properties file   788 does not exist.

 **********************************************************************

            Population analysis using the SCF Density.

 **********************************************************************

 Orbital symmetries:
       Occupied  (A) (A) (A) (A) (A) (A) (A) (A) (A) (A) (A) (A)
                 (A) (A) (A) (A) (A) (A) (A) (A) (A) (A) (A) (A)
                 (A) (A) (A) (A) (A) (A) (A) (A) (A) (A) (A) (A)
                 (A) (A) (A) (A) (A) (A) (A) (A) (A) (A) (A) (A)
                 (A) (A) (A) (A) (A) (A) (A) (A) (A) (A) (A) (A)
                 (A) (A) (A) (A) (A) (A) (A) (A) (A) (A) (A) (A)
                 (A) (A) (A) (A) (A) (A) (A) (A) (A) (A) (A) (A)
                 (A) (A) (A) (A) (A) (A) (A) (A) (A) (A) (A) (A)
                 (A) (A) (A) (A) (A) (A) (A) (A) (A) (A) (A) (A)
                 (A) (A) (A) (A) (A) (A) (A) (A) (A) (A) (A) (A)
                 (A) (A) (A) (A) (A) (A) (A) (A) (A) (A) (A) (A)
                 (A) (A) (A) (A) (A) (A) (A) (A) (A) (A) (A) (A)
                 (A) (A) (A) (A) (A) (A) (A) (A) (A) (A) (A) (A)
                 (A) (A)
       Virtual   (A) (A) (A) (A) (A) (A) (A) (A) (A) (A) (A) (A)
                 (A) (A) (A) (A) (A) (A) (A) (A) (A) (A) (A) (A)
                 (A) (A) (A) (A) (A) (A) (A) (A) (A) (A) (A) (A)
                 (A) (A) (A) (A) (A) (A) (A) (A) (A) (A) (A) (A)
                 (A) (A) (A) (A) (A) (A) (A) (A) (A) (A) (A) (A)
                 (A) (A) (A) (A) (A) (A) (A) (A) (A) (A) (A) (A)
                 (A) (A) (A) (A) (A) (A) (A) (A) (A) (A) (A) (A)
                 (A) (A) (A) (A) (A) (A) (A) (A) (A) (A) (A) (A)
                 (A) (A) (A) (A) (A) (A) (A) (A) (A) (A) (A) (A)
                 (A) (A) (A) (A) (A) (A) (A) (A) (A) (A) (A) (A)
                 (A) (A) (A) (A) (A) (A) (A) (A) (A) (A) (A) (A)
                 (A) (A) (A) (A) (A) (A) (A) (A) (A) (A) (A) (A)
                 (A) (A) (A) (A) (A) (A) (A) (A) (A) (A) (A) (A)
                 (A) (A) (A) (A) (A) (A) (A) (A) (A) (A) (A) (A)
                 (A) (A) (A) (A) (A) (A) (A) (A) (A) (A) (A) (A)
                 (A) (A) (A) (A) (A) (A) (A) (A) (A) (A) (A) (A)
                 (A) (A) (A) (A) (A) (A) (A) (A) (A) (A) (A) (A)
                 (A) (A) (A) (A) (A) (A) (A) (A) (A) (A) (A) (A)
                 (A) (A) (A) (A) (A) (A) (A) (A) (A) (A) (A) (A)
                 (A) (A) (A) (A) (A) (A) (A) (A) (A) (A) (A) (A)
                 (A) (A) (A) (A) (A) (A) (A) (A) (A) (A) (A) (A)
                 (A) (A) (A) (A) (A) (A) (A) (A) (A) (A) (A) (A)
                 (A) (A) (A) (A) (A) (A) (A) (A) (A) (A) (A) (A)
                 (A) (A) (A) (A) (A) (A) (A) (A) (A) (A) (A) (A)
                 (A) (A) (A) (A) (A) (A) (A) (A) (A) (A) (A) (A)
                 (A) (A) (A) (A) (A) (A) (A) (A) (A) (A) (A) (A)
                 (A) (A) (A) (A) (A) (A) (A) (A) (A) (A) (A) (A)
                 (A) (A) (A) (A) (A) (A) (A) (A) (A) (A) (A) (A)
                 (A) (A) (A) (A) (A) (A) (A) (A) (A) (A) (A) (A)
                 (A) (A) (A) (A) (A) (A) (A) (A) (A) (A) (A) (A)
                 (A) (A) (A) (A) (A) (A) (A) (A) (A) (A) (A) (A)
                 (A) (A) (A) (A) (A) (A) (A) (A) (A) (A) (A) (A)
                 (A) (A) (A) (A) (A) (A) (A) (A) (A) (A) (A) (A)
                 (A) (A) (A) (A) (A) (A) (A) (A) (A) (A) (A) (A)
                 (A) (A) (A) (A) (A) (A) (A) (A) (A) (A) (A) (A)
                 (A) (A) (A) (A) (A) (A) (A) (A) (A) (A) (A) (A)
                 (A) (A) (A) (A) (A) (A) (A) (A) (A) (A) (A) (A)
                 (A) (A) (A) (A) (A) (A) (A) (A) (A) (A) (A) (A)
                 (A) (A) (A) (A) (A) (A) (A) (A) (A) (A) (A) (A)
                 (A) (A) (A) (A) (A) (A) (A) (A) (A) (A) (A) (A)
                 (A) (A) (A) (A) (A) (A) (A) (A) (A) (A) (A) (A)
                 (A) (A) (A) (A) (A) (A) (A) (A) (A) (A) (A) (A)
                 (A) (A) (A) (A) (A) (A) (A) (A) (A) (A) (A) (A)
                 (A) (A) (A) (A) (A) (A) (A) (A) (A) (A) (A) (A)
                 (A) (A) (A) (A) (A) (A) (A) (A) (A) (A) (A) (A)
                 (A) (A) (A) (A) (A) (A) (A) (A) (A) (A) (A) (A)
                 (A) (A) (A) (A) (A) (A) (A) (A) (A) (A) (A) (A)
                 (A) (A) (A) (A) (A) (A) (A) (A) (A) (A) (A) (A)
                 (A) (A) (A) (A) (A) (A) (A) (A) (A) (A) (A) (A)
                 (A) (A) (A) (A) (A) (A) (A) (A) (A) (A) (A) (A)
                 (A) (A) (A) (A) (A) (A) (A) (A) (A) (A) (A) (A)
                 (A) (A) (A) (A) (A) (A) (A) (A) (A) (A) (A) (A)
                 (A) (A) (A) (A) (A) (A) (A) (A) (A) (A) (A) (A)
                 (A) (A) (A) (A) (A) (A) (A) (A) (A) (A) (A) (A)
                 (A) (A) (A) (A) (A) (A) (A) (A) (A) (A) (A) (A)
                 (A) (A) (A) (A) (A) (A) (A) (A) (A) (A) (A) (A)
                 (A) (A) (A) (A) (A) (A) (A) (A) (A) (A) (A) (A)
                 (A) (A) (A) (A) (A) (A) (A) (A) (A) (A) (A) (A)
                 (A) (A) (A) (A) (A) (A) (A) (A) (A) (A) (A) (A)
                 (A) (A) (A) (A) (A) (A) (A) (A) (A) (A) (A) (A)
                 (A) (A) (A) (A) (A) (A) (A) (A) (A) (A) (A) (A)
                 (A) (A) (A) (A) (A) (A) (A) (A) (A) (A) (A) (A)
                 (A) (A) (A) (A) (A) (A) (A) (A) (A) (A) (A) (A)
                 (A) (A) (A) (A) (A) (A) (A) (A) (A) (A) (A) (A)
                 (A) (A) (A) (A) (A) (A) (A) (A) (A) (A) (A) (A)
                 (A) (A) (A) (A) (A) (A) (A) (A) (A) (A) (A) (A)
                 (A) (A) (A) (A) (A) (A) (A) (A) (A) (A) (A) (A)
                 (A) (A) (A) (A) (A) (A) (A) (A) (A) (A) (A) (A)
                 (A) (A) (A) (A) (A) (A) (A) (A) (A) (A) (A) (A)
                 (A) (A) (A) (A) (A) (A) (A) (A) (A) (A) (A) (A)
                 (A) (A) (A) (A) (A) (A) (A) (A) (A) (A) (A) (A)
                 (A) (A) (A) (A) (A) (A) (A) (A) (A) (A) (A) (A)
                 (A) (A) (A) (A) (A) (A) (A) (A) (A) (A) (A) (A)
                 (A) (A) (A) (A) (A) (A) (A) (A) (A) (A) (A) (A)
                 (A) (A) (A) (A) (A) (A) (A) (A) (A) (A) (A) (A)
                 (A) (A) (A) (A) (A) (A) (A) (A) (A) (A) (A) (A)
                 (A) (A) (A) (A) (A) (A) (A) (A) (A) (A) (A) (A)
                 (A) (A) (A) (A) (A) (A) (A) (A) (A) (A) (A) (A)
                 (A) (A) (A) (A) (A) (A) (A) (A) (A) (A) (A) (A)
                 (A) (A) (A) (A) (A) (A) (A) (A) (A) (A) (A) (A)
                 (A) (A) (A) (A) (A) (A) (A) (A) (A) (A) (A) (A)
                 (A) (A) (A) (A) (A) (A) (A) (A) (A) (A) (A) (A)
                 (A) (A) (A) (A) (A) (A) (A) (A) (A) (A) (A) (A)
                 (A) (A) (A) (A) (A) (A) (A) (A) (A) (A) (A) (A)
                 (A) (A) (A) (A) (A) (A) (A) (A) (A) (A) (A) (A)
                 (A) (A) (A) (A) (A) (A) (A) (A) (A) (A) (A) (A)
                 (A) (A) (A) (A) (A) (A) (A) (A) (A) (A) (A) (A)
                 (A) (A) (A) (A) (A) (A) (A) (A) (A) (A) (A) (A)
                 (A) (A) (A) (A) (A) (A) (A) (A) (A) (A) (A) (A)
                 (A) (A) (A) (A) (A) (A) (A) (A) (A) (A) (A) (A)
                 (A) (A) (A) (A) (A) (A) (A) (A) (A) (A) (A) (A)
                 (A) (A) (A) (A) (A) (A) (A) (A) (A) (A) (A) (A)
                 (A) (A) (A) (A) (A) (A) (A) (A) (A) (A) (A) (A)
                 (A) (A) (A) (A) (A) (A) (A) (A) (A) (A) (A) (A)
                 (A) (A) (A) (A) (A) (A) (A) (A) (A) (A) (A) (A)
                 (A) (A) (A) (A) (A) (A) (A) (A) (A) (A) (A) (A)
                 (A) (A) (A) (A) (A) (A) (A) (A) (A) (A) (A) (A)
                 (A) (A) (A) (A) (A) (A) (A) (A) (A) (A) (A) (A)
                 (A) (A) (A) (A) (A) (A) (A) (A) (A) (A) (A) (A)
                 (A) (A) (A) (A) (A) (A) (A) (A) (A) (A) (A) (A)
                 (A) (A) (A) (A) (A) (A) (A) (A) (A) (A) (A) (A)
                 (A) (A) (A) (A) (A) (A) (A) (A) (A) (A) (A) (A)
                 (A) (A) (A) (A) (A) (A) (A) (A) (A) (A) (A) (A)
                 (A) (A) (A) (A) (A) (A) (A) (A) (A) (A) (A) (A)
                 (A) (A) (A) (A) (A) (A) (A) (A) (A) (A) (A) (A)
                 (A) (A) (A) (A) (A) (A) (A) (A) (A) (A) (A) (A)
                 (A) (A) (A) (A) (A) (A) (A) (A) (A) (A) (A) (A)
                 (A) (A) (A) (A) (A) (A) (A) (A) (A) (A) (A) (A)
                 (A) (A) (A) (A) (A) (A) (A) (A) (A) (A) (A) (A)
                 (A) (A) (A) (A) (A) (A) (A) (A) (A) (A) (A) (A)
                 (A) (A) (A) (A) (A) (A) (A) (A) (A) (A) (A) (A)
                 (A) (A) (A) (A) (A) (A) (A) (A) (A) (A) (A) (A)
                 (A) (A) (A) (A) (A) (A) (A) (A) (A) (A) (A) (A)
                 (A) (A) (A) (A) (A) (A) (A) (A) (A) (A) (A) (A)
                 (A) (A) (A) (A) (A) (A)
 The electronic state is 1-A.
 Alpha  occ. eigenvalues -- -256.17488 -30.02451 -25.86621 -25.86223 -25.86187
 Alpha  occ. eigenvalues --  -19.17213 -14.41551 -14.36209 -14.33129 -14.33044
 Alpha  occ. eigenvalues --  -14.32971 -14.32840 -10.25237 -10.23509 -10.20927
 Alpha  occ. eigenvalues --  -10.20726 -10.20678 -10.20672 -10.20650 -10.20597
 Alpha  occ. eigenvalues --  -10.20579 -10.20560 -10.20546 -10.20406 -10.19375
 Alpha  occ. eigenvalues --  -10.19346 -10.18761 -10.18742 -10.18708 -10.18673
 Alpha  occ. eigenvalues --  -10.18625 -10.18580 -10.18552 -10.18437 -10.18389
 Alpha  occ. eigenvalues --  -10.18315 -10.18236 -10.18225 -10.18223 -10.18179
 Alpha  occ. eigenvalues --  -10.18179 -10.18173 -10.18167 -10.18034 -10.17959
 Alpha  occ. eigenvalues --  -10.17944  -3.40040  -2.16682  -2.15899  -2.15834
 Alpha  occ. eigenvalues --   -1.05142  -1.05015  -0.96678  -0.95815  -0.95628
 Alpha  occ. eigenvalues --   -0.94756  -0.90729  -0.82021  -0.81599  -0.81309
 Alpha  occ. eigenvalues --   -0.80617  -0.80257  -0.80058  -0.79381  -0.79308
 Alpha  occ. eigenvalues --   -0.76528  -0.75458  -0.74132  -0.73740  -0.73063
 Alpha  occ. eigenvalues --   -0.71645  -0.70753  -0.69873  -0.68160  -0.67774
 Alpha  occ. eigenvalues --   -0.67632  -0.64389  -0.63931  -0.63867  -0.61114
 Alpha  occ. eigenvalues --   -0.60610  -0.60335  -0.59763  -0.57622  -0.56406
 Alpha  occ. eigenvalues --   -0.55766  -0.54309  -0.53447  -0.53070  -0.52376
 Alpha  occ. eigenvalues --   -0.50889  -0.50830  -0.50333  -0.48558  -0.47680
 Alpha  occ. eigenvalues --   -0.47588  -0.47345  -0.47109  -0.44774  -0.44592
 Alpha  occ. eigenvalues --   -0.44489  -0.44315  -0.43940  -0.43455  -0.43263
 Alpha  occ. eigenvalues --   -0.43192  -0.43058  -0.42879  -0.42661  -0.42339
 Alpha  occ. eigenvalues --   -0.42288  -0.42198  -0.41567  -0.41556  -0.41439
 Alpha  occ. eigenvalues --   -0.41247  -0.41121  -0.40031  -0.39963  -0.39803
 Alpha  occ. eigenvalues --   -0.39416  -0.39204  -0.39066  -0.38961  -0.38411
 Alpha  occ. eigenvalues --   -0.38188  -0.37630  -0.37407  -0.37016  -0.36765
 Alpha  occ. eigenvalues --   -0.36106  -0.35792  -0.35509  -0.35123  -0.34249
 Alpha  occ. eigenvalues --   -0.34015  -0.33842  -0.33533  -0.33230  -0.31924
 Alpha  occ. eigenvalues --   -0.31521  -0.30876  -0.29676  -0.29538  -0.28850
 Alpha  occ. eigenvalues --   -0.28513  -0.26594  -0.26394  -0.24306  -0.23811
 Alpha  occ. eigenvalues --   -0.22943  -0.22470  -0.21823  -0.19055  -0.18275
 Alpha  occ. eigenvalues --   -0.17792  -0.17636  -0.17590
 Alpha virt. eigenvalues --   -0.06352  -0.06247  -0.01846   0.00741   0.01200
 Alpha virt. eigenvalues --    0.01682   0.02447   0.03116   0.03625   0.04740
 Alpha virt. eigenvalues --    0.04955   0.05281   0.05693   0.05828   0.06032
 Alpha virt. eigenvalues --    0.06198   0.06673   0.07206   0.07994   0.08188
 Alpha virt. eigenvalues --    0.08626   0.08927   0.09373   0.09524   0.09765
 Alpha virt. eigenvalues --    0.10025   0.10622   0.10754   0.11039   0.11200
 Alpha virt. eigenvalues --    0.11649   0.11801   0.12154   0.12299   0.12538
 Alpha virt. eigenvalues --    0.12636   0.12946   0.13206   0.13312   0.13525
 Alpha virt. eigenvalues --    0.13716   0.14321   0.14510   0.14594   0.14797
 Alpha virt. eigenvalues --    0.14801   0.15226   0.15417   0.15709   0.15893
 Alpha virt. eigenvalues --    0.16049   0.16053   0.16271   0.16341   0.16691
 Alpha virt. eigenvalues --    0.16923   0.17336   0.17535   0.17852   0.18159
 Alpha virt. eigenvalues --    0.18275   0.19051   0.19424   0.19725   0.19889
 Alpha virt. eigenvalues --    0.20060   0.20121   0.20346   0.20701   0.21097
 Alpha virt. eigenvalues --    0.21251   0.21546   0.21907   0.22033   0.22466
 Alpha virt. eigenvalues --    0.22639   0.22887   0.23096   0.23456   0.23905
 Alpha virt. eigenvalues --    0.24435   0.24570   0.25011   0.25528   0.25640
 Alpha virt. eigenvalues --    0.25810   0.26037   0.26331   0.26540   0.26835
 Alpha virt. eigenvalues --    0.27073   0.27307   0.27530   0.27683   0.27728
 Alpha virt. eigenvalues --    0.28515   0.28892   0.29106   0.29469   0.29745
 Alpha virt. eigenvalues --    0.29873   0.29892   0.30140   0.30592   0.30714
 Alpha virt. eigenvalues --    0.30932   0.31279   0.31569   0.31949   0.32141
 Alpha virt. eigenvalues --    0.32498   0.32648   0.32891   0.33411   0.33623
 Alpha virt. eigenvalues --    0.34015   0.34118   0.34327   0.34541   0.35151
 Alpha virt. eigenvalues --    0.35280   0.35526   0.35806   0.36230   0.36623
 Alpha virt. eigenvalues --    0.36962   0.37170   0.37427   0.37578   0.37814
 Alpha virt. eigenvalues --    0.37976   0.38208   0.38378   0.38875   0.38971
 Alpha virt. eigenvalues --    0.39358   0.39604   0.39756   0.39942   0.39999
 Alpha virt. eigenvalues --    0.40250   0.40683   0.40798   0.40984   0.41208
 Alpha virt. eigenvalues --    0.41492   0.41556   0.41854   0.42124   0.42315
 Alpha virt. eigenvalues --    0.42617   0.42747   0.43016   0.43295   0.43463
 Alpha virt. eigenvalues --    0.43572   0.43745   0.43967   0.44155   0.44509
 Alpha virt. eigenvalues --    0.44603   0.44969   0.45188   0.45466   0.45782
 Alpha virt. eigenvalues --    0.46026   0.46300   0.46401   0.46629   0.46813
 Alpha virt. eigenvalues --    0.47090   0.47134   0.47392   0.47615   0.47750
 Alpha virt. eigenvalues --    0.47907   0.48019   0.48405   0.48654   0.48884
 Alpha virt. eigenvalues --    0.49073   0.49186   0.49731   0.49821   0.49942
 Alpha virt. eigenvalues --    0.50065   0.50307   0.50609   0.50906   0.51007
 Alpha virt. eigenvalues --    0.51324   0.51771   0.51847   0.51912   0.52296
 Alpha virt. eigenvalues --    0.52632   0.52841   0.53057   0.53256   0.53643
 Alpha virt. eigenvalues --    0.53870   0.54060   0.54176   0.54416   0.54742
 Alpha virt. eigenvalues --    0.55039   0.55106   0.55284   0.55726   0.56179
 Alpha virt. eigenvalues --    0.56323   0.56380   0.56768   0.57259   0.57550
 Alpha virt. eigenvalues --    0.57612   0.57955   0.58081   0.58430   0.58494
 Alpha virt. eigenvalues --    0.58854   0.58994   0.59619   0.59714   0.60159
 Alpha virt. eigenvalues --    0.60510   0.60896   0.61068   0.61128   0.61828
 Alpha virt. eigenvalues --    0.62079   0.62176   0.62859   0.63149   0.63314
 Alpha virt. eigenvalues --    0.63748   0.63971   0.64129   0.64503   0.64558
 Alpha virt. eigenvalues --    0.65246   0.65529   0.65864   0.65923   0.66407
 Alpha virt. eigenvalues --    0.66634   0.66708   0.67015   0.67295   0.67638
 Alpha virt. eigenvalues --    0.67918   0.68577   0.68886   0.69348   0.69447
 Alpha virt. eigenvalues --    0.69909   0.70448   0.70769   0.71104   0.71321
 Alpha virt. eigenvalues --    0.71857   0.72134   0.72550   0.72811   0.73114
 Alpha virt. eigenvalues --    0.73190   0.73745   0.73920   0.74176   0.74403
 Alpha virt. eigenvalues --    0.74615   0.75345   0.75616   0.75655   0.75981
 Alpha virt. eigenvalues --    0.76706   0.76888   0.77091   0.77379   0.77483
 Alpha virt. eigenvalues --    0.77901   0.78069   0.78520   0.79220   0.79448
 Alpha virt. eigenvalues --    0.79640   0.79844   0.79931   0.80147   0.80997
 Alpha virt. eigenvalues --    0.81239   0.81332   0.81725   0.82313   0.82877
 Alpha virt. eigenvalues --    0.83181   0.83269   0.83894   0.84742   0.84823
 Alpha virt. eigenvalues --    0.85412   0.85608   0.86273   0.86519   0.86974
 Alpha virt. eigenvalues --    0.87096   0.87670   0.88250   0.88612   0.88895
 Alpha virt. eigenvalues --    0.89527   0.89812   0.90098   0.90360   0.90636
 Alpha virt. eigenvalues --    0.90967   0.91036   0.91461   0.91986   0.92293
 Alpha virt. eigenvalues --    0.93071   0.93204   0.93657   0.94145   0.94780
 Alpha virt. eigenvalues --    0.94838   0.95090   0.95297   0.95514   0.95794
 Alpha virt. eigenvalues --    0.96636   0.97054   0.97480   0.97886   0.98002
 Alpha virt. eigenvalues --    0.98593   0.98613   0.99068   0.99248   0.99650
 Alpha virt. eigenvalues --    1.00098   1.00573   1.01092   1.01388   1.01503
 Alpha virt. eigenvalues --    1.01981   1.02034   1.02504   1.02721   1.03024
 Alpha virt. eigenvalues --    1.03235   1.03503   1.03968   1.04042   1.04249
 Alpha virt. eigenvalues --    1.04492   1.04742   1.04956   1.05595   1.05934
 Alpha virt. eigenvalues --    1.06127   1.06478   1.07695   1.07857   1.08109
 Alpha virt. eigenvalues --    1.08135   1.08723   1.08854   1.09663   1.09934
 Alpha virt. eigenvalues --    1.10228   1.10746   1.11501   1.11826   1.12066
 Alpha virt. eigenvalues --    1.12631   1.12990   1.13564   1.14065   1.14336
 Alpha virt. eigenvalues --    1.14655   1.14742   1.15621   1.16504   1.16894
 Alpha virt. eigenvalues --    1.17237   1.17438   1.17725   1.18199   1.18440
 Alpha virt. eigenvalues --    1.19043   1.19446   1.19749   1.20219   1.20294
 Alpha virt. eigenvalues --    1.20703   1.21271   1.21790   1.22248   1.22341
 Alpha virt. eigenvalues --    1.22919   1.23422   1.23640   1.24300   1.24737
 Alpha virt. eigenvalues --    1.25043   1.25536   1.25797   1.26563   1.27313
 Alpha virt. eigenvalues --    1.27657   1.27756   1.28618   1.28848   1.29111
 Alpha virt. eigenvalues --    1.29323   1.29709   1.30161   1.30221   1.30503
 Alpha virt. eigenvalues --    1.31148   1.31500   1.31839   1.32312   1.32662
 Alpha virt. eigenvalues --    1.33205   1.33494   1.33664   1.34468   1.34729
 Alpha virt. eigenvalues --    1.35757   1.36177   1.37136   1.37312   1.37482
 Alpha virt. eigenvalues --    1.38045   1.39170   1.39701   1.40303   1.40432
 Alpha virt. eigenvalues --    1.40979   1.41991   1.42241   1.43069   1.43706
 Alpha virt. eigenvalues --    1.43751   1.44457   1.44858   1.45208   1.45751
 Alpha virt. eigenvalues --    1.46313   1.46758   1.47185   1.47259   1.47401
 Alpha virt. eigenvalues --    1.48186   1.48421   1.48905   1.49230   1.49618
 Alpha virt. eigenvalues --    1.50156   1.50318   1.50435   1.50972   1.51239
 Alpha virt. eigenvalues --    1.51410   1.51859   1.51876   1.52025   1.52333
 Alpha virt. eigenvalues --    1.52668   1.52805   1.53007   1.53188   1.53705
 Alpha virt. eigenvalues --    1.53926   1.54140   1.54306   1.54511   1.54793
 Alpha virt. eigenvalues --    1.54982   1.55245   1.55649   1.55773   1.55969
 Alpha virt. eigenvalues --    1.56233   1.56268   1.56989   1.57532   1.57623
 Alpha virt. eigenvalues --    1.57885   1.58171   1.58383   1.58690   1.58750
 Alpha virt. eigenvalues --    1.58952   1.59313   1.59594   1.59791   1.60189
 Alpha virt. eigenvalues --    1.60680   1.61470   1.61617   1.62112   1.62296
 Alpha virt. eigenvalues --    1.62368   1.62730   1.62887   1.63295   1.63465
 Alpha virt. eigenvalues --    1.63772   1.64126   1.64464   1.64542   1.65074
 Alpha virt. eigenvalues --    1.65239   1.65614   1.65779   1.66310   1.67049
 Alpha virt. eigenvalues --    1.67299   1.67440   1.67680   1.68024   1.68659
 Alpha virt. eigenvalues --    1.68804   1.69299   1.69722   1.70267   1.70659
 Alpha virt. eigenvalues --    1.71022   1.71091   1.71590   1.72013   1.72162
 Alpha virt. eigenvalues --    1.72504   1.72919   1.73303   1.73548   1.73952
 Alpha virt. eigenvalues --    1.74574   1.75260   1.75286   1.75666   1.76797
 Alpha virt. eigenvalues --    1.77281   1.77817   1.78427   1.78816   1.79233
 Alpha virt. eigenvalues --    1.80255   1.80767   1.81183   1.81616   1.82176
 Alpha virt. eigenvalues --    1.82467   1.83608   1.83831   1.84214   1.84725
 Alpha virt. eigenvalues --    1.85242   1.85507   1.85942   1.86196   1.86612
 Alpha virt. eigenvalues --    1.87105   1.87481   1.87758   1.88047   1.88086
 Alpha virt. eigenvalues --    1.88828   1.89303   1.89417   1.90082   1.90505
 Alpha virt. eigenvalues --    1.90785   1.91726   1.92154   1.92921   1.93066
 Alpha virt. eigenvalues --    1.93470   1.94004   1.94760   1.95303   1.95732
 Alpha virt. eigenvalues --    1.96085   1.96706   1.97207   1.97276   1.97973
 Alpha virt. eigenvalues --    1.98538   1.98807   1.99402   1.99572   2.00168
 Alpha virt. eigenvalues --    2.00421   2.00567   2.01397   2.01710   2.02273
 Alpha virt. eigenvalues --    2.02430   2.03153   2.03636   2.04095   2.04627
 Alpha virt. eigenvalues --    2.04738   2.05197   2.06291   2.06919   2.07229
 Alpha virt. eigenvalues --    2.08181   2.08414   2.08675   2.08921   2.09402
 Alpha virt. eigenvalues --    2.09635   2.10335   2.10585   2.11320   2.11506
 Alpha virt. eigenvalues --    2.11996   2.12439   2.12757   2.13633   2.14095
 Alpha virt. eigenvalues --    2.14587   2.14725   2.15099   2.15579   2.15792
 Alpha virt. eigenvalues --    2.16320   2.17097   2.17738   2.18063   2.18503
 Alpha virt. eigenvalues --    2.19350   2.19456   2.19838   2.19911   2.20405
 Alpha virt. eigenvalues --    2.20815   2.21229   2.21915   2.22085   2.22841
 Alpha virt. eigenvalues --    2.22996   2.23902   2.24426   2.25021   2.25349
 Alpha virt. eigenvalues --    2.25593   2.26318   2.27115   2.27722   2.27918
 Alpha virt. eigenvalues --    2.28611   2.28707   2.29343   2.29623   2.30067
 Alpha virt. eigenvalues --    2.30477   2.30677   2.31001   2.31666   2.31946
 Alpha virt. eigenvalues --    2.32473   2.32653   2.33045   2.33446   2.34285
 Alpha virt. eigenvalues --    2.34702   2.35144   2.35612   2.35780   2.36195
 Alpha virt. eigenvalues --    2.36952   2.37114   2.37437   2.37622   2.38178
 Alpha virt. eigenvalues --    2.38782   2.38994   2.39298   2.39784   2.40636
 Alpha virt. eigenvalues --    2.40939   2.41289   2.42192   2.42570   2.43202
 Alpha virt. eigenvalues --    2.43219   2.43742   2.44064   2.44645   2.45003
 Alpha virt. eigenvalues --    2.45284   2.46046   2.46549   2.46800   2.47184
 Alpha virt. eigenvalues --    2.47249   2.47806   2.48334   2.48406   2.49191
 Alpha virt. eigenvalues --    2.49396   2.50078   2.50367   2.50887   2.51667
 Alpha virt. eigenvalues --    2.52465   2.52711   2.52999   2.53106   2.53329
 Alpha virt. eigenvalues --    2.53600   2.54076   2.54868   2.54924   2.55884
 Alpha virt. eigenvalues --    2.56007   2.56313   2.56367   2.56618   2.57004
 Alpha virt. eigenvalues --    2.57696   2.57916   2.58183   2.58900   2.59348
 Alpha virt. eigenvalues --    2.59796   2.60090   2.60343   2.60842   2.61253
 Alpha virt. eigenvalues --    2.61345   2.61804   2.62303   2.62381   2.62525
 Alpha virt. eigenvalues --    2.63258   2.63856   2.64415   2.64920   2.65284
 Alpha virt. eigenvalues --    2.65872   2.66345   2.66756   2.67328   2.67539
 Alpha virt. eigenvalues --    2.68023   2.68458   2.68627   2.68897   2.69501
 Alpha virt. eigenvalues --    2.69707   2.69908   2.70233   2.70281   2.70875
 Alpha virt. eigenvalues --    2.71750   2.71823   2.72185   2.72590   2.73074
 Alpha virt. eigenvalues --    2.73597   2.74134   2.74479   2.75109   2.75676
 Alpha virt. eigenvalues --    2.76241   2.76551   2.76802   2.77220   2.77665
 Alpha virt. eigenvalues --    2.78424   2.78654   2.79003   2.79491   2.79644
 Alpha virt. eigenvalues --    2.80044   2.80203   2.80301   2.81458   2.81686
 Alpha virt. eigenvalues --    2.82242   2.82781   2.83491   2.83838   2.83993
 Alpha virt. eigenvalues --    2.84361   2.84737   2.85163   2.85722   2.85898
 Alpha virt. eigenvalues --    2.86323   2.87053   2.87288   2.87345   2.87788
 Alpha virt. eigenvalues --    2.88211   2.88735   2.89405   2.89749   2.90155
 Alpha virt. eigenvalues --    2.90424   2.90657   2.91166   2.91665   2.92014
 Alpha virt. eigenvalues --    2.92272   2.92855   2.92953   2.93845   2.94086
 Alpha virt. eigenvalues --    2.94491   2.94808   2.95041   2.95315   2.95580
 Alpha virt. eigenvalues --    2.95674   2.96143   2.96560   2.97277   2.97410
 Alpha virt. eigenvalues --    2.98032   2.98084   2.98545   2.98618   2.99075
 Alpha virt. eigenvalues --    2.99481   2.99701   3.00165   3.00523   3.00694
 Alpha virt. eigenvalues --    3.01297   3.01685   3.01753   3.02258   3.02604
 Alpha virt. eigenvalues --    3.02965   3.03597   3.03913   3.04555   3.04680
 Alpha virt. eigenvalues --    3.05238   3.05635   3.06308   3.06368   3.06979
 Alpha virt. eigenvalues --    3.07482   3.07730   3.08118   3.08284   3.08692
 Alpha virt. eigenvalues --    3.08843   3.09333   3.09753   3.10154   3.10299
 Alpha virt. eigenvalues --    3.10902   3.11047   3.11773   3.12026   3.12285
 Alpha virt. eigenvalues --    3.12524   3.12799   3.12941   3.13204   3.13701
 Alpha virt. eigenvalues --    3.14365   3.14634   3.14965   3.15218   3.15388
 Alpha virt. eigenvalues --    3.15932   3.16170   3.16647   3.17054   3.17126
 Alpha virt. eigenvalues --    3.17615   3.17913   3.18447   3.18494   3.18897
 Alpha virt. eigenvalues --    3.19013   3.19441   3.19821   3.20266   3.20294
 Alpha virt. eigenvalues --    3.20411   3.21208   3.21705   3.21981   3.22322
 Alpha virt. eigenvalues --    3.22725   3.22859   3.23073   3.23556   3.23665
 Alpha virt. eigenvalues --    3.24277   3.24355   3.24953   3.25167   3.25535
 Alpha virt. eigenvalues --    3.25670   3.25908   3.26171   3.26547   3.26695
 Alpha virt. eigenvalues --    3.27016   3.27290   3.27409   3.27653   3.28236
 Alpha virt. eigenvalues --    3.28327   3.28592   3.28722   3.29300   3.29463
 Alpha virt. eigenvalues --    3.29911   3.30135   3.30526   3.30673   3.30889
 Alpha virt. eigenvalues --    3.31103   3.31306   3.31663   3.31732   3.32140
 Alpha virt. eigenvalues --    3.32975   3.33291   3.33405   3.33542   3.33686
 Alpha virt. eigenvalues --    3.34199   3.34258   3.34757   3.34938   3.35358
 Alpha virt. eigenvalues --    3.35644   3.35889   3.36212   3.36310   3.36681
 Alpha virt. eigenvalues --    3.36871   3.37387   3.37942   3.38090   3.38118
 Alpha virt. eigenvalues --    3.38424   3.38770   3.38972   3.39240   3.39513
 Alpha virt. eigenvalues --    3.39678   3.40324   3.40675   3.40961   3.41284
 Alpha virt. eigenvalues --    3.41529   3.42096   3.42456   3.42643   3.42944
 Alpha virt. eigenvalues --    3.43296   3.44108   3.44194   3.44387   3.44924
 Alpha virt. eigenvalues --    3.45334   3.46089   3.46174   3.46935   3.47328
 Alpha virt. eigenvalues --    3.47507   3.47608   3.47798   3.49591   3.49731
 Alpha virt. eigenvalues --    3.49865   3.50329   3.50669   3.51138   3.51607
 Alpha virt. eigenvalues --    3.52241   3.53042   3.53507   3.53829   3.54374
 Alpha virt. eigenvalues --    3.54867   3.55063   3.55225   3.56172   3.56426
 Alpha virt. eigenvalues --    3.56697   3.56939   3.57456   3.58161   3.58588
 Alpha virt. eigenvalues --    3.58882   3.59098   3.59971   3.60614   3.60670
 Alpha virt. eigenvalues --    3.61139   3.61645   3.61881   3.62358   3.62625
 Alpha virt. eigenvalues --    3.63392   3.64547   3.64839   3.65421   3.65653
 Alpha virt. eigenvalues --    3.66053   3.66489   3.67174   3.67956   3.68021
 Alpha virt. eigenvalues --    3.68786   3.69155   3.69204   3.69545   3.70275
 Alpha virt. eigenvalues --    3.70762   3.70941   3.71607   3.71892   3.72028
 Alpha virt. eigenvalues --    3.72352   3.72768   3.73196   3.73797   3.74336
 Alpha virt. eigenvalues --    3.74727   3.74809   3.75381   3.75796   3.75996
 Alpha virt. eigenvalues --    3.76219   3.76427   3.76787   3.78293   3.78968
 Alpha virt. eigenvalues --    3.79594   3.80225   3.80393   3.81153   3.81535
 Alpha virt. eigenvalues --    3.82041   3.82605   3.83089   3.83479   3.83641
 Alpha virt. eigenvalues --    3.85271   3.85956   3.86146   3.86749   3.87381
 Alpha virt. eigenvalues --    3.87668   3.87923   3.89415   3.89743   3.90761
 Alpha virt. eigenvalues --    3.90918   3.91188   3.91663   3.91944   3.92139
 Alpha virt. eigenvalues --    3.92972   3.93085   3.94305   3.94935   3.95036
 Alpha virt. eigenvalues --    3.96613   3.97559   3.98242   3.98634   3.99410
 Alpha virt. eigenvalues --    4.00010   4.00256   4.00971   4.01342   4.01654
 Alpha virt. eigenvalues --    4.01859   4.02513   4.03407   4.03818   4.04512
 Alpha virt. eigenvalues --    4.05090   4.05821   4.05872   4.06540   4.07417
 Alpha virt. eigenvalues --    4.07664   4.08617   4.09670   4.10475   4.10971
 Alpha virt. eigenvalues --    4.11930   4.12293   4.13560   4.14191   4.15075
 Alpha virt. eigenvalues --    4.15491   4.15723   4.16386   4.16651   4.17078
 Alpha virt. eigenvalues --    4.17914   4.18565   4.18971   4.19236   4.19453
 Alpha virt. eigenvalues --    4.20065   4.20626   4.20920   4.21458   4.21986
 Alpha virt. eigenvalues --    4.22813   4.23335   4.23726   4.24269   4.24884
 Alpha virt. eigenvalues --    4.26041   4.26918   4.27066   4.27500   4.28260
 Alpha virt. eigenvalues --    4.28575   4.28904   4.29929   4.30378   4.30819
 Alpha virt. eigenvalues --    4.30954   4.32718   4.33429   4.33899   4.34342
 Alpha virt. eigenvalues --    4.34441   4.35541   4.35807   4.36158   4.36819
 Alpha virt. eigenvalues --    4.37367   4.38331   4.39418   4.39808   4.40510
 Alpha virt. eigenvalues --    4.40743   4.41170   4.41884   4.42062   4.42299
 Alpha virt. eigenvalues --    4.43032   4.43549   4.43993   4.44465   4.44856
 Alpha virt. eigenvalues --    4.45771   4.46169   4.46239   4.46731   4.47197
 Alpha virt. eigenvalues --    4.48025   4.48584   4.48865   4.49459   4.50327
 Alpha virt. eigenvalues --    4.50779   4.51825   4.52635   4.53171   4.54126
 Alpha virt. eigenvalues --    4.55420   4.55839   4.56694   4.57192   4.58437
 Alpha virt. eigenvalues --    4.58661   4.59478   4.59888   4.62045   4.64131
 Alpha virt. eigenvalues --    4.64405   4.65648   4.66629   4.67340   4.68932
 Alpha virt. eigenvalues --    4.69246   4.69989   4.70155   4.70426   4.71811
 Alpha virt. eigenvalues --    4.72578   4.72900   4.73326   4.74498   4.74680
 Alpha virt. eigenvalues --    4.75635   4.75999   4.77222   4.78146   4.80172
 Alpha virt. eigenvalues --    4.81696   4.82752   4.83229   4.83497   4.84080
 Alpha virt. eigenvalues --    4.84497   4.84943   4.85420   4.85737   4.86242
 Alpha virt. eigenvalues --    4.86653   4.87061   4.88160   4.89394   4.91179
 Alpha virt. eigenvalues --    4.91263   4.91461   4.92413   4.94625   4.95126
 Alpha virt. eigenvalues --    4.95868   4.96221   4.96611   4.97153   4.98335
 Alpha virt. eigenvalues --    4.99158   4.99444   5.00899   5.02292   5.02504
 Alpha virt. eigenvalues --    5.03611   5.03864   5.05521   5.06101   5.07110
 Alpha virt. eigenvalues --    5.07444   5.08059   5.08681   5.09682   5.10705
 Alpha virt. eigenvalues --    5.11472   5.11851   5.14376   5.15223   5.16573
 Alpha virt. eigenvalues --    5.19042   5.19653   5.20509   5.21065   5.21530
 Alpha virt. eigenvalues --    5.22493   5.23120   5.24322   5.24838   5.27092
 Alpha virt. eigenvalues --    5.27455   5.28149   5.29816   5.30697   5.31196
 Alpha virt. eigenvalues --    5.33969   5.36331   5.36831   5.38044   5.38789
 Alpha virt. eigenvalues --    5.39418   5.39979   5.40405   5.40857   5.41411
 Alpha virt. eigenvalues --    5.41849   5.43165   5.44037   5.45605   5.47801
 Alpha virt. eigenvalues --    5.49804   5.50319   5.50995   5.51321   5.52730
 Alpha virt. eigenvalues --    5.53338   5.53408   5.57144   5.57542   5.61017
 Alpha virt. eigenvalues --    5.62300   5.62928   5.63505   5.64594   5.64672
 Alpha virt. eigenvalues --    5.66415   5.67109   5.68265   5.69027   5.69830
 Alpha virt. eigenvalues --    5.71396   5.75477   5.77991   5.78936   5.78979
 Alpha virt. eigenvalues --    5.82148   5.82193   5.90964   5.92713   5.93899
 Alpha virt. eigenvalues --    5.94731   5.97929   6.02578   6.03684   6.04055
 Alpha virt. eigenvalues --    6.09280   6.12414   6.13218   6.14830   6.15483
 Alpha virt. eigenvalues --    6.18133   6.19983   6.24486   6.28399   6.35034
 Alpha virt. eigenvalues --    6.36250   6.42234   6.48069   6.52083   6.54650
 Alpha virt. eigenvalues --    6.67204   6.97627   7.28350  22.36330  22.37015
 Alpha virt. eigenvalues --   22.44243  22.46157  22.47055  22.53197  22.54208
 Alpha virt. eigenvalues --   22.62900  22.63234  22.79021  22.86441  22.87896
 Alpha virt. eigenvalues --   22.92907  22.95348  22.96353  22.96649  22.98308
 Alpha virt. eigenvalues --   23.05007  23.05501  23.09308  23.16954  23.27968
 Alpha virt. eigenvalues --   23.28964  23.31855  23.32503  23.42521  23.43026
 Alpha virt. eigenvalues --   23.51635  23.52370  23.56678  23.75457  23.80517
 Alpha virt. eigenvalues --   23.81418  23.90964  32.41072  32.76952  32.92334
 Alpha virt. eigenvalues --   32.97664  33.04822  33.13427  44.07398
          Condensed to atoms (all electrons):
 Mulliken charges:
               1
     1  Fe  -0.242742
     2  N   -0.074751
     3  N   -0.016765
     4  N   -0.026475
     5  N   -0.009923
     6  C    0.244311
     7  C   -0.047958
     8  C   -0.042625
     9  C    0.208404
    10  C    0.242206
    11  C   -0.059346
    12  C    0.040498
    13  C    0.259261
    14  C    0.229781
    15  C   -0.046685
    16  C    0.038641
    17  C    0.253952
    18  C    0.221375
    19  C   -0.051752
    20  C   -0.042418
    21  C    0.270544
    22  C   -0.549792
    23  H    0.134504
    24  C   -0.442367
    25  H    0.131069
    26  C   -0.498475
    27  H    0.109980
    28  C   -0.440318
    29  H    0.120001
    30  C   -0.413516
    31  H    0.119144
    32  H    0.134946
    33  H    0.134914
    34  C   -0.414266
    35  H    0.130629
    36  H    0.135666
    37  H    0.120313
    38  C   -0.448094
    39  H    0.140762
    40  H    0.124955
    41  H    0.156131
    42  C   -0.213363
    43  H    0.111982
    44  C   -0.287929
    45  H    0.138133
    46  H    0.121354
    47  C   -0.455084
    48  H    0.131002
    49  H    0.140696
    50  H    0.156960
    51  C   -0.211796
    52  H    0.108577
    53  C   -0.284570
    54  H    0.120668
    55  H    0.138263
    56  C   -0.415381
    57  H    0.132882
    58  H    0.138035
    59  H    0.118174
    60  C   -0.417026
    61  H    0.129643
    62  H    0.120162
    63  H    0.135652
    64  O   -0.582586
    65  H    0.360157
    66  H    0.325342
    67  C   -0.392207
    68  H    0.134080
    69  H    0.147240
    70  H    0.134801
    71  N   -0.233079
    72  H    0.234539
    73  C    0.177544
    74  C    0.006454
    75  H    0.179356
    76  N    0.077054
    77  C   -0.224310
    78  H    0.164863
 Sum of Mulliken charges =  -0.00000
 Mulliken charges with hydrogens summed into heavy atoms:
               1
     1  Fe  -0.242742
     2  N   -0.074751
     3  N   -0.016765
     4  N   -0.026475
     5  N   -0.009923
     6  C    0.244311
     7  C   -0.047958
     8  C   -0.042625
     9  C    0.208404
    10  C    0.242206
    11  C   -0.059346
    12  C    0.040498
    13  C    0.259261
    14  C    0.229781
    15  C   -0.046685
    16  C    0.038641
    17  C    0.253952
    18  C    0.221375
    19  C   -0.051752
    20  C   -0.042418
    21  C    0.270544
    22  C   -0.415288
    24  C   -0.311298
    26  C   -0.388496
    28  C   -0.320317
    30  C   -0.024512
    34  C   -0.027658
    38  C   -0.026247
    42  C   -0.101381
    44  C   -0.028441
    47  C   -0.026426
    51  C   -0.103218
    53  C   -0.025639
    56  C   -0.026290
    60  C   -0.031570
    64  O    0.102912
    67  C    0.023914
    71  N    0.001460
    73  C    0.177544
    74  C    0.185810
    76  N    0.077054
    77  C   -0.059447
 Electronic spatial extent (au):  <R**2>=          20009.2965
 Charge=              0.0000 electrons
 Dipole moment (field-independent basis, Debye):
    X=              2.3106    Y=             -0.3338    Z=              3.1954  Tot=              3.9574
 Quadrupole moment (field-independent basis, Debye-Ang):
   XX=           -239.9561   YY=           -246.8078   ZZ=           -222.5011
   XY=             -0.6700   XZ=              2.9195   YZ=              0.7329
 Traceless Quadrupole moment (field-independent basis, Debye-Ang):
   XX=             -3.5344   YY=            -10.3862   ZZ=             13.9206
   XY=             -0.6700   XZ=              2.9195   YZ=              0.7329
 Octapole moment (field-independent basis, Debye-Ang**2):
  XXX=             37.6870  YYY=             -8.2416  ZZZ=             95.6803  XYY=             34.4152
  XXY=              1.4462  XXZ=             -2.3346  XZZ=             32.3514  YZZ=              0.8714
  YYZ=             -2.2787  XYZ=             11.5257
 Hexadecapole moment (field-independent basis, Debye-Ang**3):
 XXXX=         -11901.6363 YYYY=         -11724.2030 ZZZZ=          -2684.1572 XXXY=             -7.0593
 XXXZ=             80.7744 YYYX=              2.2223 YYYZ=             -8.2259 ZZZX=             47.8910
 ZZZY=             12.1145 XXYY=          -4007.4468 XXZZ=          -2599.9907 YYZZ=          -2692.8437
 XXYZ=            -36.9040 YYXZ=            -42.6297 ZZXY=             -7.0467
 N-N= 5.966617539316D+03 E-N=-1.894759100314D+04  KE= 2.973869399305D+03
  Exact polarizability:     712.445      -0.619     705.756       8.723      -7.065     309.132
 Approx polarizability:    1327.602      -1.370    1295.624      33.657     -10.317     491.916

 ----------------------------------------------------------------------

 Electric dipole moment (input orientation):
 (Debye = 10**-18 statcoulomb cm , SI units = C m)
                  (au)            (Debye)         (10**-30 SI)
   Tot        0.155696D+01      0.395740D+01      0.132005D+02
   x          0.747371D+00      0.189963D+01      0.633647D+01
   y         -0.525196D+00     -0.133491D+01     -0.445280D+01
   z          0.126085D+01      0.320476D+01      0.106899D+02

 Dipole polarizability, Alpha (input orientation).
 (esu units = cm**3 , SI units = C**2 m**2 J**-1)
 Alpha(0;0):
               (au)            (10**-24 esu)      (10**-40 SI)
   iso        0.575778D+03      0.853215D+02      0.949329D+02
   aniso      0.400485D+03      0.593457D+02      0.660310D+02
   xx         0.378330D+03      0.560627D+02      0.623781D+02
   yx         0.290112D+02      0.429902D+01      0.478331D+01
   yy         0.705181D+03      0.104497D+03      0.116269D+03
   zx        -0.149484D+03     -0.221513D+02     -0.246466D+02
   zy         0.974206D+01      0.144362D+01      0.160625D+01
   zz         0.643823D+03      0.954047D+02      0.106152D+03

 First dipole hyperpolarizability, Beta (input orientation).
 ||, _|_  parallel and perpendicular components, (z) with respect to z axis,
 vector components x,y,z.  Values do not include the 1/n! factor of 1/2.
 (esu units = statvolt**-1 cm**4 , SI units = C**3 m**3 J**-2)
 Beta(0;0,0):
               (au)            (10**-30 esu)      (10**-50 SI)
   || (z)    -0.810171D+03     -0.699925D+01     -0.259770D+01
   _|_(z)    -0.270057D+03     -0.233308D+01     -0.865900D+00
   x          0.227703D+04      0.196718D+02      0.730098D+01
   y          0.306993D+04      0.265218D+02      0.984331D+01
   z         -0.405085D+04     -0.349962D+02     -0.129885D+02
   ||         0.111389D+04      0.962314D+01      0.357153D+01
   xxx        0.296055D+03      0.255768D+01      0.949259D+00
   xxy       -0.105913D+03     -0.915009D+00     -0.339596D+00
   yxy        0.111202D+02      0.960701D-01      0.356555D-01
   yyy        0.154956D+04      0.133870D+02      0.496846D+01
   xxz       -0.471435D+02     -0.407283D+00     -0.151159D+00
   yxz        0.187078D+03      0.161621D+01      0.599839D+00
   yyz       -0.252009D+03     -0.217716D+01     -0.808032D+00
   zxz        0.451835D+03      0.390350D+01      0.144875D+01
   zyz       -0.420338D+03     -0.363140D+01     -0.134776D+01
   zzz       -0.105113D+04     -0.908096D+01     -0.337031D+01

 ----------------------------------------------------------------------

 Dipole orientation:
    26         -7.49758769         22.35122931         47.05367898
     7        -10.46886964         23.62918655         49.04804003
     7         -6.91951627         25.87587027         45.74158872
     7         -4.59525100         21.10321007         44.97863452
     7         -8.16255514         18.85356508         48.26720438
     6        -12.06459069         22.22126474         50.48998058
     6        -14.00156341         23.79097239         51.60544500
     6        -13.57524605         26.17825708         50.75083098
     6        -11.38160396         26.03209112         49.12912090
     6         -8.37282178         27.95353697         46.17427295
     6         -7.45995429         30.09406003         44.76040142
     6         -5.44527609         29.24372182         43.37760504
     6         -5.17281749         26.58741662         44.00125616
     6         -3.00561552         22.51426530         43.53288821
     6         -0.95513644         20.99842471         42.57965596
     6         -1.40995613         18.57892396         43.38139646
     6         -3.69044991         18.70531781         44.89842851
     6         -6.93445455         16.71756174         47.54454964
     6         -8.12400613         14.50357643         48.61900299
     6        -10.15334107         15.35065643         49.94781175
     6        -10.16534972         18.07100784         49.67533847
     6        -11.92680522         19.63055336         50.81158755
     1        -13.36346251         18.74905413         51.96083944
     6        -10.40760877         28.06367588         47.81447683
     1        -11.34038709         29.86280635         48.04327453
     6         -3.29130040         25.06413318         43.02574609
     1         -1.94665247         25.92354296         41.75526148
     6         -4.78659629         16.63826732         46.06142160
     1         -3.94556464         14.80980497         45.72993048
     6        -15.01112437         28.54411540         51.27437496
     1        -16.53913130         28.19403302         52.60276121
     1        -15.82553030         29.29854082         49.53795215
     1        -13.77131421         29.98190186         52.07350270
     6        -16.03187926         22.84181442         53.31209413
     1        -15.22008434         21.90770796         54.95913995
     1        -17.22528528         21.47804910         52.33072310
     1        -17.22029629         24.38595621         53.96386933
     6         -8.65158592         32.64317996         44.72511952
     1         -8.03731457         33.76497363         46.34288478
     1        -10.70268018         32.49138439         44.79845075
     1         -8.12746768         33.64280146         43.00613636
     6         -3.88143811         30.59388000         41.58948185
     1         -3.19535280         29.49093072         40.00549762
     6         -3.23691745         33.01636431         41.75214485
     1         -3.78734407         34.18019517         43.32607553
     1         -2.08616298         33.90963202         40.32942637
     6          1.22628186         21.97489377         41.09427153
     1          1.77369710         23.84674136         41.75131307
     1          0.75544139         22.11383177         39.09099525
     1          2.83539031         20.70982768         41.29378336
     6          0.06307213         16.31510658         42.97015959
     1          0.02058854         14.94495416         44.49209456
     6          1.41084971         15.80182840         40.91310384
     1          2.48616319         14.08056533         40.74783521
     1          1.45277665         17.04600258         39.30574785
     6         -7.21467293         11.86607606         48.23423495
     1         -5.30124800         11.64624702         48.96650751
     1         -7.18728285         11.39500624         46.22896498
     1         -8.43402689         10.52249895         49.19866051
     6        -12.06834242         13.88923008         51.40840922
     1        -12.05974855         14.45302118         53.39059784
     1        -11.68025706         11.87410683         51.30939892
     1        -13.95852397         14.22249964         50.65945888
     8        -10.30775219         21.75093677         43.87296705
     1        -11.81424068         22.56941366         44.44755197
     1        -10.11356373         20.93763423         42.41568258
     6          0.44872205         25.26462608         53.34524649
     1          0.07490030         26.70604592         54.76826356
     1          1.53035477         26.10979927         51.82117021
     1          1.58162167         23.78008269         54.21429907
     7         -3.70345735         23.04585925         53.82693194
     1         -3.55834504         22.77521927         55.70453303
     6         -1.94930665         24.22162819         52.32786213
     6         -5.64300268         22.32354895         52.32837793
     1         -7.29157371         21.35568164         52.98938393
     7         -5.22330605         22.96988600         49.97403284
     6         -2.93357526         24.15291721         49.94340697
     1         -2.15449252         24.87236605         48.22103293

 Electric dipole moment (dipole orientation):
 (Debye = 10**-18 statcoulomb cm , SI units = C m)
                  (au)            (Debye)         (10**-30 SI)
   Tot        0.155696D+01      0.395740D+01      0.132005D+02
   x          0.000000D+00      0.000000D+00      0.000000D+00
   y          0.000000D+00      0.000000D+00      0.000000D+00
   z          0.155696D+01      0.395740D+01      0.132005D+02

 Dipole polarizability, Alpha (dipole orientation).
 (esu units = cm**3 , SI units = C**2 m**2 J**-1)
 Alpha(0;0):
               (au)            (10**-24 esu)      (10**-40 SI)
   iso        0.575778D+03      0.853215D+02      0.949329D+02
   aniso      0.400485D+03      0.593457D+02      0.660310D+02
   xx         0.571053D+03      0.846213D+02      0.941539D+02
   yx        -0.332993D+02     -0.493445D+01     -0.549032D+01
   yy         0.697584D+03      0.103371D+03      0.115016D+03
   zx        -0.189277D+03     -0.280480D+02     -0.312076D+02
   zy        -0.473735D+02     -0.702003D+01     -0.781084D+01
   zz         0.458696D+03      0.679717D+02      0.756287D+02

 First dipole hyperpolarizability, Beta (dipole orientation).
 ||, _|_  parallel and perpendicular components, (z) with respect to z axis,
 vector components x,y,z.  Values do not include the 1/n! factor of 1/2.
 (esu units = statvolt**-1 cm**4 , SI units = C**3 m**3 J**-2)
 Beta(0;0,0):
               (au)            (10**-30 esu)      (10**-50 SI)
   || (z)    -0.644594D+03     -0.556879D+01     -0.206680D+01
   _|_(z)    -0.214865D+03     -0.185626D+01     -0.688934D+00
   x          0.420627D+04      0.363389D+02      0.134868D+02
   y          0.171420D+04      0.148094D+02      0.549636D+01
   z         -0.322297D+04     -0.278439D+02     -0.103340D+02
   ||         0.111389D+04      0.962314D+01      0.357153D+01
   xxx        0.551827D+03      0.476736D+01      0.176936D+01
   xxy       -0.449739D+03     -0.388540D+01     -0.144203D+01
   yxy        0.508255D+03      0.439093D+01      0.162965D+01
   yyy        0.922123D+03      0.796643D+01      0.295666D+01
   xxz       -0.218274D+03     -0.188571D+01     -0.699864D+00
   yxz        0.250129D+03      0.216092D+01      0.802003D+00
   yyz       -0.760032D+03     -0.656608D+01     -0.243694D+01
   zxz        0.342009D+03      0.295469D+01      0.109660D+01
   zyz        0.990176D+02      0.855435D+00      0.317486D+00
   zzz       -0.960182D+02     -0.829522D+00     -0.307869D+00

 ----------------------------------------------------------------------
 Unable to Open any file for archive entry.
 1\1\GINC-BGN1030\SP\RAPFD\def2TZVP\C34H36Fe1N6O1\BEBJONES\18-Nov-2024\
 0\\# polar def2tzvp apfd int=(grid=ultrafine)\\4msf_II_S\\0,1\Fe,0,9.5
 48115349,2.3299700228,26.0583753187\N,0,8.7430649264,2.4670464056,27.8
 958960625\N,0,9.6486529549,4.3394444462,25.9784175628\N,0,10.302249149
 7,2.2188781276,24.209136063\N,0,9.3836890209,0.3473535837,26.122982919
 5\C,0,8.3057706497,1.4359095977,28.6678367498\C,0,7.7689289898,1.92352
 09986,29.918068204\C,0,7.861744193,3.280126979,29.8696817476\C,0,8.455
 9197418,3.6009780288,28.5914143616\C,0,9.1857837747,5.2237332234,26.90
 38673843\C,0,9.3495476095,6.5808325845,26.4481812668\C,0,9.8884258374,
 6.5013599604,25.1920596761\C,0,10.0469040007,5.0856553241,24.915950292
 1\C,0,10.7359147151,3.251960043,23.437669626\C,0,11.3689338092,2.76747
 67518,22.2377433732\C,0,11.2480001943,1.4029832192,22.2649610671\C,0,1
 0.5861902684,1.0869003869,23.5169025446\C,0,9.6661388129,-0.5247664938
 ,25.1200628538\C,0,9.2849057155,-1.8708087676,25.4874652145\C,0,8.7253
 910284,-1.784008909,26.7235926709\C,0,8.7794264528,-0.386898559,27.095
 4681648\C,0,8.3284379527,0.1002730065,28.3082086231\H,0,7.9151759468,-
 0.6100306636,29.0082852606\C,0,8.6679602632,4.8892358086,28.1432775453
 \H,0,8.3804956236,5.6964347479,28.7994139371\C,0,10.5958843981,4.59345
 83179,23.7480675002\H,0,10.9348153402,5.310091883,23.0154671729\C,0,10
 .277539063,-0.1976582088,23.9247491653\H,0,10.4951603181,-1.005415698,
 23.2426742934\C,0,7.4436469381,4.2919384413,30.8810842586\H,0,7.058861
 6197,3.8088673777,31.7759895208\H,0,6.6621912084,4.9374615657,30.47850
 4989\H,0,8.287258373,4.9209988265,31.1652563639\C,0,7.2198966063,1.052
 0617186,30.995729641\H,0,7.9689365958,0.3332638735,31.3285975141\H,0,6
 .3549268071,0.4944367913,30.6348855978\H,0,6.9097470994,1.6452043783,3
 1.8525464357\C,0,8.9109709675,7.7948402684,27.190777938\H,0,9.65869126
 04,8.0914530406,27.9282551608\H,0,7.9752067079,7.6093661907,27.7161153
 35\H,0,8.7636904676,8.6222164497,26.499435293\C,0,10.2203260666,7.5641
 363321,24.2695555875\H,0,10.0825895483,7.3324031924,23.2196086263\C,0,
 10.6739784911,8.7669423306,24.6079638549\H,0,10.8746914656,9.037084333
 6,25.630010718\H,0,10.8863018621,9.5183606398,23.8654215834\C,0,12.045
 2435386,3.6201373598,21.2213943459\H,0,12.5535621509,4.4570335015,21.6
 980371339\H,0,11.3255233322,4.0243357469,20.5073224212\H,0,12.77912246
 35,3.0333509031,20.6723373178\C,0,11.7166121954,0.4234863428,21.310463
 9562\H,0,12.0187180901,-0.5296625063,21.728881634\C,0,11.7921986636,0.
 5999471501,19.9949675835\H,0,12.1653106075,-0.1732286442,19.3437490731
 \H,0,11.4621731382,1.5058439965,19.5175980248\C,0,9.4822324207,-3.0670
 302532,24.6207944807\H,0,10.5414613026,-3.2161675865,24.4093203083\H,0
 ,8.9632105217,-2.9413948213,23.6704223726\H,0,9.1004966861,-3.96320161
 88,25.1039863547\C,0,8.1428576269,-2.8601254325,27.5750797243\H,0,8.67
 70239084,-2.9339560087,28.5229711928\H,0,8.2015224175,-3.8233922504,27
 .074366559\H,0,7.0954970101,-2.6506546663,27.7937521376\O,0,7.414,2.46
 7,25.302\H,0,6.903,2.699,26.077\H,0,7.095,2.333,24.483\C,0,14.95384215
 54,3.0278972742,27.2560975955\H,0,15.2109200631,3.4709973331,28.218162
 8162\H,0,15.1062213967,3.7702852513,26.4790929609\H,0,15.6274878904,2.
 1902099938,27.0757487924\N,0,13.0536556341,1.6450305742,28.12117624\H,
 0,13.5847943688,1.1825321593,28.840622648\C,0,13.5386106474,2.57873957
 5,27.2430703594\C,0,11.7431124034,1.462500708,27.8427331232\H,0,11.103
 8769239,0.7864866428,28.3719918286\N,0,11.369492158,2.2231504758,26.84
 25784285\C,0,12.4751308613,2.9236967768,26.45900261\H,0,12.4314682186,
 3.6248097418,25.6514306004\\Version=ES64L-G16RevC.02\State=1-A\HF=-298
 4.025954\RMSD=4.130e-09\Dipole=0.7473708,-0.5251958,1.2608487\Polar=37
 8.3296772,29.0112475,705.18098,-149.4844027,9.7420586,643.8226756\Hype
 rPolar=296.0549844,-105.9133282,11.1202279,1549.5620848,-47.1434904,18
 7.0778689,-252.009133,451.8347023,-420.3383948,-1051.1322902\Quadrupol
 e=6.3833876,-6.0611327,-0.3222549,-1.6299954,6.2335288,-3.4309894\PG=C
 01 [X(C34H36Fe1N6O1)]\\@
 The archive entry for this job was punched.


 IF AT FIRST YOU DON'T SUCCEED, TRY LOOKING IN 
 THE WASTEBASKET FOR THE DIRECTIONS.
 Job cpu time:       2 days  8 hours 20 minutes  1.7 seconds.
 Elapsed time:       0 days  0 hours 48 minutes 57.9 seconds.
 File lengths (MBytes):  RWF=   1208 Int=      0 D2E=      0 Chk=    155 Scr=      1
 Normal termination of Gaussian 16 at Mon Nov 18 17:56:26 2024.
 Initial command:
 /sw/chem/gaussian/g16_C02/a100/g16/l1.exe "/local/bebjones_8087545/Gau-1275101.inp" -scrdir="/local/bebjones_8087545/"
 Entering Link 1 = /sw/chem/gaussian/g16_C02/a100/g16/l1.exe PID=   1276922.
  
 Copyright (c) 1988-2021, Gaussian, Inc.  All Rights Reserved.
  
 This is part of the Gaussian(R) 16 program.  It is based on
 the Gaussian(R) 09 system (copyright 2009, Gaussian, Inc.),
 the Gaussian(R) 03 system (copyright 2003, Gaussian, Inc.),
 the Gaussian(R) 98 system (copyright 1998, Gaussian, Inc.),
 the Gaussian(R) 94 system (copyright 1995, Gaussian, Inc.),
 the Gaussian 92(TM) system (copyright 1992, Gaussian, Inc.),
 the Gaussian 90(TM) system (copyright 1990, Gaussian, Inc.),
 the Gaussian 88(TM) system (copyright 1988, Gaussian, Inc.),
 the Gaussian 86(TM) system (copyright 1986, Carnegie Mellon
 University), and the Gaussian 82(TM) system (copyright 1983,
 Carnegie Mellon University). Gaussian is a federally registered
 trademark of Gaussian, Inc.
  
 This software contains proprietary and confidential information,
 including trade secrets, belonging to Gaussian, Inc.
  
 This software is provided under written license and may be
 used, copied, transmitted, or stored only in accord with that
 written license.
  
 The following legend is applicable only to US Government
 contracts under FAR:
  
                    RESTRICTED RIGHTS LEGEND
  
 Use, reproduction and disclosure by the US Government is
 subject to restrictions as set forth in subparagraphs (a)
 and (c) of the Commercial Computer Software - Restricted
 Rights clause in FAR 52.227-19.
  
 Gaussian, Inc.
 340 Quinnipiac St., Bldg. 40, Wallingford CT 06492
  
  
 ---------------------------------------------------------------
 Warning -- This program may not be used in any manner that
 competes with the business of Gaussian, Inc. or will provide
 assistance to any competitor of Gaussian, Inc.  The licensee
 of this program is prohibited from giving any competitor of
 Gaussian, Inc. access to this program.  By using this program,
 the user acknowledges that Gaussian, Inc. is engaged in the
 business of creating and licensing software in the field of
 computational chemistry and represents and warrants to the
 licensee that it is not a competitor of Gaussian, Inc. and that
 it will not use this program in any manner prohibited above.
 ---------------------------------------------------------------
  

 Cite this work as:
 Gaussian 16, Revision C.02,
 M. J. Frisch, G. W. Trucks, H. B. Schlegel, G. E. Scuseria, 
 M. A. Robb, J. R. Cheeseman, G. Scalmani, V. Barone, 
 G. A. Petersson, H. Nakatsuji, X. Li, M. Caricato, A. V. Marenich, 
 J. Bloino, B. G. Janesko, R. Gomperts, B. Mennucci, H. P. Hratchian, 
 J. V. Ortiz, A. F. Izmaylov, J. L. Sonnenberg, D. Williams-Young, 
 F. Ding, F. Lipparini, F. Egidi, J. Goings, B. Peng, A. Petrone, 
[...]
   142. CR (   1) N  71                  1.99938   -14.21986  1351(v),1325(v),1319(v)
                                                    1326(v),1522(v)
   143. CR (   1) C  73                  1.99915   -10.08757  1408(v),1526(g),1532(v)
                                                    1253(v)
   144. CR (   1) C  74                  1.99935   -10.11972  1381(v),1523(v),1531(v)
                                                    152(r),151(r),155(r)
   145. CR (   1) N  76                  1.99931   -14.15076  151(r),152(r),155(r),1349(v)
                                                    1406(v),1528(v),171(r)
                                                    167(r),173(r)
   146. CR (   1) C  77                  1.99898   -10.05744  1522(v),1323(v),1526(g)
                                                    1382(v),1326(v),1433(v)
                                                    151(r),152(r)
   162. LP (   1) N  71                  1.57952    -0.28289  1530(v),1527(v),1352(v)
                                                    1324(v),1318(v),1350(v)
   163. LP (   1) N  76                  1.61034    -0.36302  151(r),152(r),155(r),1525(v)
                                                    1526(v),1349(v),1528(v)
                                                    1532(v),1529(g),1406(v)
                                                    1383(g),1531(g),169(r)
                                                    1382(g),182(r),194(r),246(r)
                                                    272(r),220(r),269(r),271(r)
                                                    245(r),193(r),217(r),219(r)
                                                    1448(r),1443(r),1437(r)
                                                    1446(r),1442(r),1439(r)
                                                    1440(r),1445(r),1444(r)
                                                    191(r),178(r),154(r),243(r)
                                                    174(r),173(r),165(r)
  1251. RY*(   1) C  67                  0.00118     1.16088   
  1252. RY*(   2) C  67                  0.00078     2.01001   
  1253. RY*(   3) C  67                  0.00051     1.33677   
  1254. RY*(   4) C  67                  0.00012     1.26077   
  1255. RY*(   5) C  67                  0.00008     2.19941   
  1256. RY*(   6) C  67                  0.00007     1.31330   
  1257. RY*(   7) C  67                  0.00001     1.70742   
  1258. RY*(   8) C  67                  0.00001     1.88019   
  1259. RY*(   9) C  67                  0.00001     1.46944   
  1260. RY*(  10) C  67                  0.00001     2.29546   
  1261. RY*(  11) C  67                  0.00001     1.39507   
  1262. RY*(  12) C  67                  0.00000     3.25621   
  1263. RY*(  13) C  67                  0.00000     2.56025   
  1264. RY*(  14) C  67                  0.00000     2.76520   
  1265. RY*(  15) C  67                  0.00000     2.31318   
  1266. RY*(  16) C  67                  0.00000     3.14930   
  1267. RY*(  17) C  67                  0.00000     2.50630   
  1268. RY*(  18) C  67                  0.00000    21.60103   
  1269. RY*(  19) C  67                  0.00001     2.68938   
  1270. RY*(  20) C  67                  0.00000     3.67565   
  1271. RY*(  21) C  67                  0.00001     3.44714   
  1272. RY*(  22) C  67                  0.00000     3.33518   
  1273. RY*(  23) C  67                  0.00000     3.74534   
  1274. RY*(  24) C  67                  0.00000     3.36762   
  1275. RY*(  25) C  67                  0.00000     3.31691   
  1276. RY*(  26) C  67                  0.00000     3.26161   
  1277. RY*(   1) H  68                  0.00074     0.99282   
  1278. RY*(   2) H  68                  0.00015     1.69597   
  1279. RY*(   3) H  68                  0.00008     1.96636   
  1280. RY*(   4) H  68                  0.00006     2.01627   
  1281. RY*(   5) H  68                  0.00000     2.88216   
  1282. RY*(   1) H  69                  0.00024     1.39087   
  1283. RY*(   2) H  69                  0.00012     1.74092   
  1284. RY*(   3) H  69                  0.00008     2.05914   
  1285. RY*(   4) H  69                  0.00002     1.60264   
  1286. RY*(   5) H  69                  0.00001     2.85957   
  1287. RY*(   1) H  70                  0.00074     1.00398   
  1288. RY*(   2) H  70                  0.00015     1.69206   
  1289. RY*(   3) H  70                  0.00008     1.96219   
  1290. RY*(   4) H  70                  0.00006     2.01290   
  1291. RY*(   5) H  70                  0.00000     2.88313   
  1292. RY*(   1) N  71                  0.00282     0.67000   
  1293. RY*(   2) N  71                  0.00224     1.78180   
  1294. RY*(   3) N  71                  0.00100     2.08018   
  1295. RY*(   4) N  71                  0.00078     2.16181   
  1296. RY*(   5) N  71                  0.00052     1.16186   
  1297. RY*(   6) N  71                  0.00027     2.04315   
  1298. RY*(   7) N  71                  0.00020     1.70457   
  1299. RY*(   8) N  71                  0.00007     2.26161   
  1300. RY*(   9) N  71                  0.00006     2.46825   
  1301. RY*(  10) N  71                  0.00006     3.78604   
  1302. RY*(  11) N  71                  0.00004     2.93813   
  1303. RY*(  12) N  71                  0.00001     2.72625   
  1304. RY*(  13) N  71                  0.00001     4.33344   
  1305. RY*(  14) N  71                  0.00000    30.54759   
  1306. RY*(  15) N  71                  0.00000     3.52303   
  1307. RY*(  16) N  71                  0.00000     2.11304   
  1308. RY*(  17) N  71                  0.00000     4.65435   
  1309. RY*(  18) N  71                  0.00001     3.77689   
  1310. RY*(  19) N  71                  0.00001     3.59825   
  1311. RY*(  20) N  71                  0.00000     4.63529   
  1312. RY*(  21) N  71                  0.00000     4.84497   
  1313. RY*(  22) N  71                  0.00000     4.36048   
  1314. RY*(  23) N  71                  0.00000     4.49209   
  1315. RY*(  24) N  71                  0.00000     4.30621   
  1316. RY*(  25) N  71                  0.00000     4.51439   
  1317. RY*(  26) N  71                  0.00000     4.41694   
  1318. RY*(   1) H  72                  0.00058     2.15185   
  1319. RY*(   2) H  72                  0.00039     2.13574   
  1320. RY*(   3) H  72                  0.00030     1.05184   
  1321. RY*(   4) H  72                  0.00021     2.51050   
  1322. RY*(   5) H  72                  0.00001     3.08184   
  1323. RY*(   1) C  73                  0.00406     1.69611   
  1324. RY*(   2) C  73                  0.00261     0.98091   
  1325. RY*(   3) C  73                  0.00191     1.49886   
  1326. RY*(   4) C  73                  0.00162     2.02518   
  1327. RY*(   5) C  73                  0.00122     1.76313   
  1328. RY*(   6) C  73                  0.00110     1.72395   
  1329. RY*(   7) C  73                  0.00037     2.85802   
  1330. RY*(   8) C  73                  0.00019     2.76889   
  1331. RY*(   9) C  73                  0.00016     2.50560   
  1332. RY*(  10) C  73                  0.00007     3.63600   
  1333. RY*(  11) C  73                  0.00002     2.00597   
  1334. RY*(  12) C  73                  0.00002     2.60594   
  1335. RY*(  13) C  73                  0.00001     1.36200   
  1336. RY*(  14) C  73                  0.00001     1.59711   
  1337. RY*(  15) C  73                  0.00001     2.82489   
  1338. RY*(  16) C  73                  0.00000     1.09242   
  1339. RY*(  17) C  73                  0.00001     3.44730   
  1340. RY*(  18) C  73                  0.00000    21.08834   
  1341. RY*(  19) C  73                  0.00001     1.94189   
  1342. RY*(  20) C  73                  0.00000     4.02906   
  1343. RY*(  21) C  73                  0.00001     3.99858   
  1344. RY*(  22) C  73                  0.00000     3.55269   
  1345. RY*(  23) C  73                  0.00000     3.79238   
  1346. RY*(  24) C  73                  0.00000     3.38513   
  1347. RY*(  25) C  73                  0.00000     3.49815   
  1348. RY*(  26) C  73                  0.00000     3.50341   
  1349. RY*(   1) C  74                  0.00409     1.59743   
  1350. RY*(   2) C  74                  0.00330     0.67053   
  1351. RY*(   3) C  74                  0.00200     1.33730   
  1352. RY*(   4) C  74                  0.00126     2.58197   
  1353. RY*(   5) C  74                  0.00080     1.64862   
  1354. RY*(   6) C  74                  0.00039     1.69016   
  1355. RY*(   7) C  74                  0.00025     1.85774   
  1356. RY*(   8) C  74                  0.00009     2.67161   
  1357. RY*(   9) C  74                  0.00005     1.94799   
  1358. RY*(  10) C  74                  0.00005     2.53224   
  1359. RY*(  11) C  74                  0.00003     1.71153   
  1360. RY*(  12) C  74                  0.00004     3.52532   
  1361. RY*(  13) C  74                  0.00001     2.15695   
  1362. RY*(  14) C  74                  0.00002     2.98781   
  1363. RY*(  15) C  74                  0.00001     2.61176   
  1364. RY*(  16) C  74                  0.00000     3.61411   
  1365. RY*(  17) C  74                  0.00001     2.74744   
  1366. RY*(  18) C  74                  0.00001     3.96578   
  1367. RY*(  19) C  74                  0.00000    21.51813   
  1368. RY*(  20) C  74                  0.00000     3.21684   
  1369. RY*(  21) C  74                  0.00001     4.02908   
  1370. RY*(  22) C  74                  0.00000     3.49358   
  1371. RY*(  23) C  74                  0.00000     3.78386   
  1372. RY*(  24) C  74                  0.00000     3.53691   
  1373. RY*(  25) C  74                  0.00000     3.51512   
  1374. RY*(  26) C  74                  0.00000     3.36604   
  1375. RY*(   1) H  75                  0.00060     0.81996   
  1376. RY*(   2) H  75                  0.00030     2.35873   
  1377. RY*(   3) H  75                  0.00021     2.11325   
  1378. RY*(   4) H  75                  0.00012     2.40701   
  1379. RY*(   5) H  75                  0.00002     3.15031   
  1380. RY*(   1) N  76                  0.00769     0.85296   
  1381. RY*(   2) N  76                  0.00730     1.32159   
  1382. RY*(   3) N  76                  0.00590     1.42274   
  1383. RY*(   4) N  76                  0.00077     1.60629   
  1384. RY*(   5) N  76                  0.00074     1.68385   
  1385. RY*(   6) N  76                  0.00058     1.94982   
  1386. RY*(   7) N  76                  0.00037     3.49035   
  1387. RY*(   8) N  76                  0.00032     3.15878   
  1388. RY*(   9) N  76                  0.00011     2.94473   
  1389. RY*(  10) N  76                  0.00010     3.22421   
  1390. RY*(  11) N  76                  0.00009     2.40451   
  1391. RY*(  12) N  76                  0.00008     3.41522   
  1392. RY*(  13) N  76                  0.00006     3.13082   
  1393. RY*(  14) N  76                  0.00004     3.65110   
  1394. RY*(  15) N  76                  0.00001     4.18583   
  1395. RY*(  16) N  76                  0.00001     4.24900   
  1396. RY*(  17) N  76                  0.00002     4.85483   
  1397. RY*(  18) N  76                  0.00002     4.74760   
  1398. RY*(  19) N  76                  0.00000     4.84805   
  1399. RY*(  20) N  76                  0.00000     4.44215   
  1400. RY*(  21) N  76                  0.00000    31.52896   
  1401. RY*(  22) N  76                  0.00000     4.16340   
  1402. RY*(  23) N  76                  0.00000     4.65640   
  1403. RY*(  24) N  76                  0.00000     4.65775   
  1404. RY*(  25) N  76                  0.00000     4.64116   
  1405. RY*(  26) N  76                  0.00000     4.54457   
  1406. RY*(   1) C  77                  0.00399     1.49528   
  1407. RY*(   2) C  77                  0.00261     0.72315   
  1408. RY*(   3) C  77                  0.00170     1.84992   
  1409. RY*(   4) C  77                  0.00070     1.95711   
  1410. RY*(   5) C  77                  0.00057     1.59863   
  1411. RY*(   6) C  77                  0.00048     1.71343   
  1412. RY*(   7) C  77                  0.00044     2.22306   
  1413. RY*(   8) C  77                  0.00023     1.46695   
  1414. RY*(   9) C  77                  0.00020     1.78960   
  1415. RY*(  10) C  77                  0.00016     1.81492   
  1416. RY*(  11) C  77                  0.00010     1.23013   
  1417. RY*(  12) C  77                  0.00006     2.14634   
  1418. RY*(  13) C  77                  0.00006     2.27348   
  1419. RY*(  14) C  77                  0.00002     1.59553   
  1420. RY*(  15) C  77                  0.00003     3.41027   
  1421. RY*(  16) C  77                  0.00003     2.68960   
  1422. RY*(  17) C  77                  0.00001     3.61172   
  1423. RY*(  18) C  77                  0.00001     4.05501   
  1424. RY*(  19) C  77                  0.00000    21.54904   
  1425. RY*(  20) C  77                  0.00001     3.94965   
  1426. RY*(  21) C  77                  0.00000     3.26575   
  1427. RY*(  22) C  77                  0.00000     3.46174   
  1428. RY*(  23) C  77                  0.00000     3.73913   
  1429. RY*(  24) C  77                  0.00001     3.36932   
  1430. RY*(  25) C  77                  0.00000     3.69031   
  1431. RY*(  26) C  77                  0.00000     3.45408   
  1432. RY*(   1) H  78                  0.00050     0.79505   
  1433. RY*(   2) H  78                  0.00033     2.27432   
  1434. RY*(   3) H  78                  0.00025     2.30319   
  1435. RY*(   4) H  78                  0.00008     2.75116   
  1436. RY*(   5) H  78                  0.00001     3.11651   
  1519. BD*(   1) C  67 - H  68          0.01188     0.36028   
  1520. BD*(   1) C  67 - H  69          0.00344     0.37429   
  1521. BD*(   1) C  67 - H  70          0.01195     0.36040   
  1522. BD*(   1) C  67 - C  73          0.01372     0.39032   
  1523. BD*(   1) N  71 - H  72          0.01425     0.36753   
  1524. BD*(   1) N  71 - C  73          0.02723     0.43088   
  1525. BD*(   1) N  71 - C  74          0.02241     0.44891   
  1526. BD*(   1) C  73 - C  77          0.02105     0.56727   
  1527. BD*(   2) C  73 - C  77          0.29970     0.03622  1530(v),1521(v),1519(v)
                                                    1412(g),1327(g),1441(r)
  1528. BD*(   1) C  74 - H  75          0.01808     0.39329   
  1529. BD*(   1) C  74 - N  76          0.01632     0.53869   
  1530. BD*(   2) C  74 - N  76          0.41891    -0.00427  1527(v),1350(g),1380(g)
                                                    1407(v),154(r),1444(r)
                                                    1438(r),1441(r)
  1531. BD*(   1) N  76 - C  77          0.01657     0.48322   
  1532. BD*(   1) C  77 - H  78          0.01470     0.43443   
       -------------------------------
              Total Lewis   42.68859  ( 97.7355%)
        Valence non-Lewis    0.91021  (  2.0839%)
        Rydberg non-Lewis    0.07887  (  0.1806%)
       -------------------------------
            Total unit  4   43.67767  (100.0000%)
           Charge unit  4    0.32233
 Unable to Open any file for archive entry.
 1\1\GINC-BGN1030\SP\RAPFD\def2TZVP\C34H36Fe1N6O1\BEBJONES\18-Nov-2024\
 0\\# apfd/def2TZVP int=(grid=ultrafine) geom=check guess=read pop=nbo 
 scf=qc\\4msf_II_S_nbo\\0,1\Fe,0,9.548115349,2.3299700228,26.0583753187
 \N,0,8.7430649264,2.4670464056,27.8958960625\N,0,9.6486529549,4.339444
 4462,25.9784175628\N,0,10.3022491497,2.2188781276,24.209136063\N,0,9.3
 836890209,0.3473535837,26.1229829195\C,0,8.3057706497,1.4359095977,28.
 6678367498\C,0,7.7689289898,1.9235209986,29.918068204\C,0,7.861744193,
 3.280126979,29.8696817476\C,0,8.4559197418,3.6009780288,28.5914143616\
 C,0,9.1857837747,5.2237332234,26.9038673843\C,0,9.3495476095,6.5808325
 845,26.4481812668\C,0,9.8884258374,6.5013599604,25.1920596761\C,0,10.0
 469040007,5.0856553241,24.9159502921\C,0,10.7359147151,3.251960043,23.
 437669626\C,0,11.3689338092,2.7674767518,22.2377433732\C,0,11.24800019
 43,1.4029832192,22.2649610671\C,0,10.5861902684,1.0869003869,23.516902
 5446\C,0,9.6661388129,-0.5247664938,25.1200628538\C,0,9.2849057155,-1.
 8708087676,25.4874652145\C,0,8.7253910284,-1.784008909,26.7235926709\C
 ,0,8.7794264528,-0.386898559,27.0954681648\C,0,8.3284379527,0.10027300
 65,28.3082086231\H,0,7.9151759468,-0.6100306636,29.0082852606\C,0,8.66
 79602632,4.8892358086,28.1432775453\H,0,8.3804956236,5.6964347479,28.7
 994139371\C,0,10.5958843981,4.5934583179,23.7480675002\H,0,10.93481534
 02,5.310091883,23.0154671729\C,0,10.277539063,-0.1976582088,23.9247491
 653\H,0,10.4951603181,-1.005415698,23.2426742934\C,0,7.4436469381,4.29
 19384413,30.8810842586\H,0,7.0588616197,3.8088673777,31.7759895208\H,0
 ,6.6621912084,4.9374615657,30.478504989\H,0,8.287258373,4.9209988265,3
 1.1652563639\C,0,7.2198966063,1.0520617186,30.995729641\H,0,7.96893659
 58,0.3332638735,31.3285975141\H,0,6.3549268071,0.4944367913,30.6348855
 978\H,0,6.9097470994,1.6452043783,31.8525464357\C,0,8.9109709675,7.794
 8402684,27.190777938\H,0,9.6586912604,8.0914530406,27.9282551608\H,0,7
 .9752067079,7.6093661907,27.716115335\H,0,8.7636904676,8.6222164497,26
 .499435293\C,0,10.2203260666,7.5641363321,24.2695555875\H,0,10.0825895
 483,7.3324031924,23.2196086263\C,0,10.6739784911,8.7669423306,24.60796
 38549\H,0,10.8746914656,9.0370843336,25.630010718\H,0,10.8863018621,9.
 5183606398,23.8654215834\C,0,12.0452435386,3.6201373598,21.2213943459\
 H,0,12.5535621509,4.4570335015,21.6980371339\H,0,11.3255233322,4.02433
 57469,20.5073224212\H,0,12.7791224635,3.0333509031,20.6723373178\C,0,1
 1.7166121954,0.4234863428,21.3104639562\H,0,12.0187180901,-0.529662506
 3,21.728881634\C,0,11.7921986636,0.5999471501,19.9949675835\H,0,12.165
 3106075,-0.1732286442,19.3437490731\H,0,11.4621731382,1.5058439965,19.
 5175980248\C,0,9.4822324207,-3.0670302532,24.6207944807\H,0,10.5414613
 026,-3.2161675865,24.4093203083\H,0,8.9632105217,-2.9413948213,23.6704
 223726\H,0,9.1004966861,-3.9632016188,25.1039863547\C,0,8.1428576269,-
 2.8601254325,27.5750797243\H,0,8.6770239084,-2.9339560087,28.522971192
 8\H,0,8.2015224175,-3.8233922504,27.074366559\H,0,7.0954970101,-2.6506
 546663,27.7937521376\O,0,7.414,2.467,25.302\H,0,6.903,2.699,26.077\H,0
 ,7.095,2.333,24.483\C,0,14.9538421554,3.0278972742,27.2560975955\H,0,1
 5.2109200631,3.4709973331,28.2181628162\H,0,15.1062213967,3.7702852513
 ,26.4790929609\H,0,15.6274878904,2.1902099938,27.0757487924\N,0,13.053
 6556341,1.6450305742,28.12117624\H,0,13.5847943688,1.1825321593,28.840
 622648\C,0,13.5386106474,2.578739575,27.2430703594\C,0,11.7431124034,1
 .462500708,27.8427331232\H,0,11.1038769239,0.7864866428,28.3719918286\
 N,0,11.369492158,2.2231504758,26.8425784285\C,0,12.4751308613,2.923696
 7768,26.45900261\H,0,12.4314682186,3.6248097418,25.6514306004\\Version
 =ES64L-G16RevC.02\State=1-A\HF=-2984.025954\RMSD=4.100e-09\Dipole=0.74
 73708,-0.5251958,1.2608487\Quadrupole=6.3833876,-6.0611327,-0.3222549,
 -1.6299954,6.2335288,-3.4309894\PG=C01 [X(C34H36Fe1N6O1)]\\@
 The archive entry for this job was punched.


 THE TEST OF A FIRST RATE INTELLIGENCE IS THE ABILITY TO HOLD TWO OPPOSED
 IDEAS IN THE MIND AT THE SAME TIME, AND STILL RETAIN THE ABILITY TO FUNCTION.
 ONE SHOULD, FOR EXAMPLE, BE ABLE TO SEE THAT THINGS ARE HOPELESS AND YET BE
 DETERMINED TO MAKE THEM OTHERWISE.

                                                       -- F. SCOTT FITZGERALD
 Job cpu time:       0 days  0 hours 49 minutes 10.2 seconds.
 Elapsed time:       0 days  0 hours  1 minutes  1.3 seconds.
 File lengths (MBytes):  RWF=    792 Int=      0 D2E=      0 Chk=    155 Scr=      1
 Normal termination of Gaussian 16 at Mon Nov 18 17:57:31 2024.
