 Entering Gaussian System, Link 0=g16
 Input=4nvf01.com
 Output=4nvf01.log
 Initial command:
 /sw/chem/gaussian/g16_C02/a100/g16/l1.exe "/local/bebjones_8087488/Gau-752243.inp" -scrdir="/local/bebjones_8087488/"
 Entering Link 1 = /sw/chem/gaussian/g16_C02/a100/g16/l1.exe PID=    752244.
  
 Copyright (c) 1988-2021, Gaussian, Inc.  All Rights Reserved.
  
 This is part of the Gaussian(R) 16 program.  It is based on
 the Gaussian(R) 09 system (copyright 2009, Gaussian, Inc.),
 the Gaussian(R) 03 system (copyright 2003, Gaussian, Inc.),
 the Gaussian(R) 98 system (copyright 1998, Gaussian, Inc.),
 the Gaussian(R) 94 system (copyright 1995, Gaussian, Inc.),
 the Gaussian 92(TM) system (copyright 1992, Gaussian, Inc.),
 the Gaussian 90(TM) system (copyright 1990, Gaussian, Inc.),
 the Gaussian 88(TM) system (copyright 1988, Gaussian, Inc.),
 the Gaussian 86(TM) system (copyright 1986, Carnegie Mellon
 University), and the Gaussian 82(TM) system (copyright 1983,
 Carnegie Mellon University). Gaussian is a federally registered
 trademark of Gaussian, Inc.
  
 This software contains proprietary and confidential information,
 including trade secrets, belonging to Gaussian, Inc.
  
 This software is provided under written license and may be
 used, copied, transmitted, or stored only in accord with that
 written license.
  
 The following legend is applicable only to US Government
 contracts under FAR:
  
                    RESTRICTED RIGHTS LEGEND
  
 Use, reproduction and disclosure by the US Government is
 subject to restrictions as set forth in subparagraphs (a)
 and (c) of the Commercial Computer Software - Restricted
 Rights clause in FAR 52.227-19.
  
 Gaussian, Inc.
 340 Quinnipiac St., Bldg. 40, Wallingford CT 06492
  
  
 ---------------------------------------------------------------
 Warning -- This program may not be used in any manner that
 competes with the business of Gaussian, Inc. or will provide
 assistance to any competitor of Gaussian, Inc.  The licensee
 of this program is prohibited from giving any competitor of
 Gaussian, Inc. access to this program.  By using this program,
 the user acknowledges that Gaussian, Inc. is engaged in the
 business of creating and licensing software in the field of
 computational chemistry and represents and warrants to the
 licensee that it is not a competitor of Gaussian, Inc. and that
 it will not use this program in any manner prohibited above.
 ---------------------------------------------------------------
  

 Cite this work as:
 Gaussian 16, Revision C.02,
 M. J. Frisch, G. W. Trucks, H. B. Schlegel, G. E. Scuseria, 
 M. A. Robb, J. R. Cheeseman, G. Scalmani, V. Barone, 
 G. A. Petersson, H. Nakatsuji, X. Li, M. Caricato, A. V. Marenich, 
 J. Bloino, B. G. Janesko, R. Gomperts, B. Mennucci, H. P. Hratchian, 
 J. V. Ortiz, A. F. Izmaylov, J. L. Sonnenberg, D. Williams-Young, 
 F. Ding, F. Lipparini, F. Egidi, J. Goings, B. Peng, A. Petrone, 
 T. Henderson, D. Ranasinghe, V. G. Zakrzewski, J. Gao, N. Rega, 
 G. Zheng, W. Liang, M. Hada, M. Ehara, K. Toyota, R. Fukuda, 
 J. Hasegawa, M. Ishida, T. Nakajima, Y. Honda, O. Kitao, H. Nakai, 
 T. Vreven, K. Throssell, J. A. Montgomery, Jr., J. E. Peralta, 
 F. Ogliaro, M. J. Bearpark, J. J. Heyd, E. N. Brothers, K. N. Kudin, 
 V. N. Staroverov, T. A. Keith, R. Kobayashi, J. Normand, 
 K. Raghavachari, A. P. Rendell, J. C. Burant, S. S. Iyengar, 
 J. Tomasi, M. Cossi, J. M. Millam, M. Klene, C. Adamo, R. Cammi, 
 J. W. Ochterski, R. L. Martin, K. Morokuma, O. Farkas, 
 J. B. Foresman, and D. J. Fox, Gaussian, Inc., Wallingford CT, 2019.
 
 ******************************************
 Gaussian 16:  ES64L-G16RevC.02  7-Dec-2021
                18-Nov-2024 
 ******************************************
 %mem=16GB
 %CPU=0-71
 SetSPE:  set environment variable "OMP_PROC_BIND" = "true"
 SetSPE:  set environment variable "OMP_PLACES" = "{0},{1},{2},{3},{4},{5},{6},{7},{8},{9},{10},{11},{12},{13},{14},{15},{16},{17},{18},{19},{20},{21},{22},{23},{24},{25},{26},{27},{28},{29},{30},{31},{32},{33},{34},{35},{36},{37},{38},{39},{40},{41},{42},{43},{44},{45},{46},{47},{48},{49},{50},{51},{52},{53},{54},{55},{56},{57},{58},{59},{60},{61},{62},{63},{64},{65},{66},{67},{68},{69},{70},{71}"
 Will use up to   72 processors via shared memory.
 %gpucpu=0,1,2,3=0,1,2,3
 Will use    4 GPUs:
 Thread  CPU   GPU
      0    0     0
      1    1     1
      2    2     2
      3    3     3
      4    4    -1
      5    5    -1
      6    6    -1
      7    7    -1
      8    8    -1
      9    9    -1
     10   10    -1
     11   11    -1
     12   12    -1
     13   13    -1
     14   14    -1
     15   15    -1
     16   16    -1
     17   17    -1
     18   18    -1
     19   19    -1
     20   20    -1
     21   21    -1
     22   22    -1
     23   23    -1
     24   24    -1
     25   25    -1
     26   26    -1
     27   27    -1
     28   28    -1
     29   29    -1
     30   30    -1
     31   31    -1
     32   32    -1
     33   33    -1
     34   34    -1
     35   35    -1
     36   36    -1
     37   37    -1
     38   38    -1
     39   39    -1
     40   40    -1
     41   41    -1
     42   42    -1
     43   43    -1
     44   44    -1
     45   45    -1
     46   46    -1
     47   47    -1
     48   48    -1
     49   49    -1
     50   50    -1
     51   51    -1
     52   52    -1
     53   53    -1
     54   54    -1
     55   55    -1
     56   56    -1
     57   57    -1
     58   58    -1
     59   59    -1
     60   60    -1
     61   61    -1
     62   62    -1
     63   63    -1
     64   64    -1
     65   65    -1
     66   66    -1
     67   67    -1
     68   68    -1
     69   69    -1
     70   70    -1
     71   71    -1
 SetGPE:  set environment variable "OMP_PROC_BIND" = "true"
 SetGPE:  set environment variable "OMP_PLACES" = "{0},{1},{2},{3},{4},{5},{6},{7},{8},{9},{10},{11},{12},{13},{14},{15},{16},{17},{18},{19},{20},{21},{22},{23},{24},{25},{26},{27},{28},{29},{30},{31},{32},{33},{34},{35},{36},{37},{38},{39},{40},{41},{42},{43},{44},{45},{46},{47},{48},{49},{50},{51},{52},{53},{54},{55},{56},{57},{58},{59},{60},{61},{62},{63},{64},{65},{66},{67},{68},{69},{70},{71}"
 %chk=4nvf_II_O.chk
 Properties for Device   0
 Minimum vector length:                              32
 Maximum vector length:                            1024
 Number of SMPs:                                    108
 Maximum number of threads per SMP:                2048
 Number of ASync Engines:                             5
 Memory:                                           9207742464
 Properties for Device   1
 Minimum vector length:                              32
 Maximum vector length:                            1024
 Number of SMPs:                                    108
 Maximum number of threads per SMP:                2048
 Number of ASync Engines:                             5
 Memory:                                           9207742464
 Properties for Device   2
 Minimum vector length:                              32
 Maximum vector length:                            1024
 Number of SMPs:                                    108
 Maximum number of threads per SMP:                2048
 Number of ASync Engines:                             5
 Memory:                                           9207742464
 Properties for Device   3
 Minimum vector length:                              32
 Maximum vector length:                            1024
 Number of SMPs:                                    108
 Maximum number of threads per SMP:                2048
 Number of ASync Engines:                             5
 Memory:                                           9207742464
   8286968217 words of memory will be used on each GPU.
 ------------------------------------------
 # polar def2tzvp apfd int=(grid=ultrafine)
 ------------------------------------------
 1/38=1,172=1/1;
 2/12=2,17=6,18=5,40=1/2;
 3/5=44,7=101,11=2,25=1,30=1,74=-44,75=-5/1,2,3;
 4//1;
 5/5=2,38=5,98=1/2;
 8/6=4,10=90,11=11/1;
 10/6=1,13=10/2;
 6/7=2,8=2,9=2,10=2,28=1/1;
 99/5=1,9=1/99;
 ---------
 4nvf_II_S
 ---------
 Symbolic Z-matrix:
 Charge =  0 Multiplicity = 1
 Fe                   -39.29163  -72.02813   104.8693 
 N                    -38.74328  -73.74498   104.00587 
 N                    -40.98112  -72.0082   103.7892 
 N                    -39.94247  -70.43241   105.88016 
 N                    -37.64786  -72.07982   105.99811 
 C                    -37.52918  -74.35372   104.10536 
 C                    -37.48651  -75.54095   103.28246 
 C                    -38.64559  -75.55138   102.56968 
 C                    -39.38181  -74.37504   102.97823 
 C                    -41.33348  -72.89775   102.82142 
 C                    -42.55828  -72.49912   102.17749 
 C                    -42.89288  -71.28171   102.71021 
 C                    -41.90651  -71.01499   103.74051 
 C                    -41.06287  -69.70167   105.63014 
 C                    -41.21942  -68.65132   106.60371 
 C                    -40.14339  -68.74503   107.44639 
 C                    -39.34993  -69.85611   106.95719 
 C                    -37.29169  -71.18732   106.95809 
 C                    -35.93482  -71.42378   107.40079 
 C                    -35.47697  -72.47909   106.6759 
 C                    -36.56212  -72.87385   105.80425 
 C                    -36.50472  -73.95435   104.94346 
 H                    -35.58656  -74.52122   104.91334 
 C                    -40.63477  -74.04996   102.49642 
 H                    -41.04216  -74.674    101.71515 
 C                    -41.95777  -69.93731   104.6007 
 H                    -42.76046  -69.22775   104.47098 
 C                    -38.09901  -70.17973   107.45099 
 H                    -37.70873  -69.57729   108.25738 
 C                    -39.11831  -76.52989   101.54931 
 H                    -38.39495  -77.33082   101.41773 
 H                    -39.26507  -76.03975   100.58632 
 H                    -40.06852  -76.97181   101.8504 
 C                    -36.34704  -76.50089   103.24862 
 H                    -36.15188  -76.89846   104.2446 
 H                    -35.4397  -76.0069   102.89962 
 H                    -36.56099  -77.33325   102.5827 
 C                    -43.28724  -73.29485   101.15113 
 H                    -43.25301  -74.35611   101.39325 
 H                    -42.84626  -73.1598   100.16156 
 H                    -44.32829  -72.98122   101.10784 
 C                    -44.01997  -70.43045   102.40335 
 H                    -44.41547  -69.85656   103.23315 
 C                    -44.58193  -70.29335   101.20629 
 H                    -44.20562  -70.7976   100.33348 
 H                    -45.42976  -69.64612   101.05365 
 C                    -42.38148  -67.72365   106.68451 
 H                    -43.30581  -68.24149   106.43292 
 H                    -42.2624  -66.88912   105.99134 
 H                    -42.47029  -67.32305   107.69234 
 C                    -39.81555  -67.95456   108.61194 
 H                    -39.30439  -68.48608   109.40671 
 C                    -40.08048  -66.66139   108.76874 
 H                    -40.54251  -66.07348   107.99503 
 H                    -39.81874  -66.13815   109.6736 
 C                    -35.24209  -70.62427   108.45073 
 H                    -35.77295  -70.69731   109.40031 
 H                    -35.20128  -69.57209   108.16765 
 H                    -34.22527  -70.97917   108.6003 
 C                    -34.14446  -73.14569   106.71794 
 H                    -33.47291  -72.62505   107.39594 
 H                    -33.69075  -73.15851   105.72727 
 H                    -34.24215  -74.17672   107.05834 
 O                    -40.327   -73.371    106.375 
 H                    -40.162   -74.268    106.084 
 H                    -40.817   -73.128    107.076 
 C                    -36.26236  -68.18761   102.21047 
 H                    -35.90457  -67.73093   103.12793 
 H                    -36.81399  -67.43911   101.64138 
 H                    -35.40401  -68.50243   101.6174 
 N                    -37.64794  -70.17406   101.57554 
 H                    -37.50125  -70.08643   100.5835 
 C                    -37.1305  -69.34697   102.53766 
 C                    -38.38784  -71.11778   102.20115 
 H                    -38.91362  -71.9015   101.6957 
 N                    -38.37013  -70.9382   103.50005 
 C                    -37.59218  -69.8398   103.72433 
 H                    -37.41943  -69.48141   104.71803 
 
 Stoichiometry    C34H36FeN6O
 Framework group  C1[X(C34H36FeN6O)]
 Deg. of freedom   228
 Full point group                 C1      NOp   1
 Largest Abelian subgroup         C1      NOp   1
 Largest concise Abelian subgroup C1      NOp   1
                         Standard orientation:                         
 ---------------------------------------------------------------------
 Center     Atomic      Atomic             Coordinates (Angstroms)
 Number     Number       Type             X           Y           Z
 ---------------------------------------------------------------------
      1         26           0        0.068278   -0.175272   -0.454496
      2          7           0        1.489880   -1.574107   -0.581386
      3          7           0        1.464587    1.264066   -0.457200
      4          7           0       -1.350586    1.228486   -0.544131
      5          7           0       -1.327530   -1.598560   -0.523996
      6          6           0        1.321657   -2.918850   -0.447732
      7          6           0        2.592866   -3.601219   -0.530870
      8          6           0        3.544554   -2.629265   -0.565861
      9          6           0        2.836763   -1.368660   -0.514684
     10          6           0        2.813387    1.083127   -0.449742
     11          6           0        3.500818    2.342859   -0.330667
     12          6           0        2.529884    3.294937   -0.161300
     13          6           0        1.263876    2.595613   -0.278647
     14          6           0       -1.180097    2.576095   -0.462577
     15          6           0       -2.437455    3.263298   -0.612226
     16          6           0       -3.390947    2.291311   -0.763277
     17          6           0       -2.684496    1.026470   -0.696053
     18          6           0       -2.673858   -1.418577   -0.522675
     19          6           0       -3.360259   -2.680542   -0.351535
     20          6           0       -2.391503   -3.628201   -0.240939
     21          6           0       -1.128190   -2.931570   -0.350108
     22          6           0        0.102446   -3.561782   -0.340094
     23          1           0        0.113433   -4.635200   -0.226405
     24          6           0        3.460835   -0.137383   -0.561922
     25          1           0        4.540498   -0.128945   -0.558064
     26          6           0        0.033042    3.219234   -0.287078
     27          1           0        0.010828    4.290392   -0.157635
     28          6           0       -3.317310   -0.202919   -0.657204
     29          1           0       -4.396085   -0.211366   -0.698335
     30          6           0        5.028100   -2.761546   -0.626536
     31          1           0        5.321606   -3.807771   -0.662724
     32          1           0        5.490332   -2.306620    0.250113
     33          1           0        5.423463   -2.263460   -1.512227
     34          6           0        2.753842   -5.082790   -0.537197
     35          1           0        2.195691   -5.524851   -1.362521
     36          1           0        2.378542   -5.513270    0.391747
     37          1           0        3.800077   -5.358628   -0.643760
     38          6           0        4.977312    2.525209   -0.399213
     39          1           0        5.410421    1.867068   -1.151102
     40          1           0        5.447282    2.297925    0.559645
     41          1           0        5.213062    3.554822   -0.660639
     42          6           0        2.673377    4.721108    0.024657
     43          1           0        1.887193    5.332470   -0.402535
     44          6           0        3.665379    5.319802    0.676605
     45          1           0        4.449008    4.766795    1.164252
     46          1           0        3.712951    6.392502    0.766337
     47          6           0       -2.604996    4.741962   -0.666777
     48          1           0       -1.776564    5.203889   -1.201710
     49          1           0       -2.637605    5.167430    0.337725
     50          1           0       -3.532461    4.994251   -1.176919
     51          6           0       -4.815224    2.424102   -0.974487
     52          1           0       -5.267805    1.658212   -1.594207
     53          6           0       -5.585469    3.383471   -0.471088
     54          1           0       -5.199347    4.141199    0.188074
     55          1           0       -6.641023    3.428062   -0.682923
     56          6           0       -4.842460   -2.832527   -0.313452
     57          1           0       -5.286361   -2.494118   -1.250081
     58          1           0       -5.268698   -2.238425    0.495397
     59          1           0       -5.121657   -3.872081   -0.159732
     60          6           0       -2.528616   -5.099691   -0.046985
     61          1           0       -3.571834   -5.377255    0.081001
     62          1           0       -1.976152   -5.423308    0.834776
     63          1           0       -2.134850   -5.638348   -0.909105
     64          8           0        0.153821   -0.195695   -2.720479
     65          1           0        0.826430   -0.836355   -2.952141
     66          1           0       -0.310896    0.306545   -3.288231
     67          6           0       -1.389095   -0.258722    4.918080
     68          1           0       -2.450610   -0.331467    4.703150
     69          1           0       -1.210939    0.654433    5.486251
     70          1           0       -1.097428   -1.107353    5.536446
     71          7           0        0.745986   -0.257081    3.610251
     72          1           0        1.355103   -0.273021    4.411539
     73          6           0       -0.623732   -0.246152    3.645722
     74          6           0        1.122423   -0.238752    2.311249
     75          1           0        2.140749   -0.241655    1.980894
     76          7           0        0.074682   -0.216832    1.522929
     77          6           0       -1.018906   -0.220654    2.339042
     78          1           0       -2.008970   -0.204443    1.932546
 ---------------------------------------------------------------------
 Rotational constants (GHZ):           0.0942570           0.0919935           0.0595213
 Standard basis: def2TZVP (5D, 7F)
 There are  1744 symmetry adapted cartesian basis functions of A   symmetry.
 There are  1532 symmetry adapted basis functions of A   symmetry.
  1532 basis functions,  2481 primitive gaussians,  1744 cartesian basis functions
   158 alpha electrons      158 beta electrons
       nuclear repulsion energy      5979.8932680587 Hartrees.
 NAtoms=   78 NActive=   78 NUniq=   78 SFac= 1.00D+00 NAtFMM=   60 NAOKFM=T Big=T
 Integral buffers will be    131072 words long.
 Raffenetti 2 integral format.
 Two-electron integral symmetry is turned on.
 R6APFD:  NTU= -4 IXU= 1 FactS= 1.050
 Nuclear repulsion after empirical dispersion term =     5979.7393824344 Hartrees.
 One-electron integrals computed using PRISM.
   1 Symmetry operations used in ECPInt.
 ECPInt:  NShTT=  186355 NPrTT=  576197 LenC2=  147563 LenP2D=  302114.
 LDataN:  DoStor=T MaxTD1= 6 Len=  172
 Number of processors reduced to  23 by ecpmxn.
 NBasis=  1532 RedAO= T EigKep=  3.31D-06  NBF=  1532
 NBsUse=  1532 1.00D-06 EigRej= -1.00D+00 NBFU=  1532
 ExpMin= 4.20D-02 ExpMax= 3.01D+05 ExpMxC= 2.91D+03 IAcc=3 IRadAn=         5 AccDes= 0.00D+00
 Harris functional with IExCor= 3731 and IRadAn=       5 diagonalized for initial guess.
 HarFok:  IExCor= 3731 AccDes= 0.00D+00 IRadAn=         5 IDoV= 1 UseB2=F ITyADJ=14
 ICtDFT=  3500011 ScaDFX=  1.000000  1.000000  1.000000  1.000000
 FoFCou: FMM=F IPFlag=           0 FMFlag=      100000 FMFlg1=        2001
         NFxFlg=           0 DoJE=T BraDBF=F KetDBF=T FulRan=T
         wScrn=  0.000000 ICntrl=       500 IOpCl=  0 I1Cent=   200000004 NGrid=           0
         NMat0=    1 NMatS0=      1 NMatT0=    0 NMatD0=    1 NMtDS0=    0 NMtDT0=    0
 Petite list used in FoFCou.
 Requested convergence on RMS density matrix=1.00D-08 within 128 cycles.
 Requested convergence on MAX density matrix=1.00D-06.
 Requested convergence on             energy=1.00D-06.
 No special actions if energy rises.
 EnCoef did     3 forward-backward iterations
 EnCoef did   100 forward-backward iterations
 EnCoef did   100 forward-backward iterations
 EnCoef did   100 forward-backward iterations
 EnCoef did     3 forward-backward iterations
 Restarting incremental Fock formation.
 SCF Done:  E(RAPFD) =  -2984.02445904     A.U. after   26 cycles
            NFock= 26  Conv=0.22D-08     -V/T= 2.0034
 DoSCS=F DFT=T ScalE2(SS,OS)=  1.000000  1.000000
 Range of M.O.s used for correlation:     1  1532
 NBasis=  1532 NAE=   158 NBE=   158 NFC=     0 NFV=     0
 NROrb=   1532 NOA=   158 NOB=   158 NVA=  1374 NVB=  1374

 **** Warning!!: The largest alpha MO coefficient is  0.44181082D+02

          Differentiating once with respect to electric field.
                with respect to dipole field.
          Electric field/nuclear overlap derivatives assumed to be zero.
          There are     3 degrees of freedom in the 1st order CPHF.  IDoFFX=0 NUNeed=     3.
      3 vectors produced by pass  0 Test12= 7.24D-12 3.33D-08 XBig12= 1.86D+03 2.94D+01.
 AX will form     3 AO Fock derivatives at one time.
      3 vectors produced by pass  1 Test12= 7.24D-12 3.33D-08 XBig12= 1.23D+03 9.75D+00.
      3 vectors produced by pass  2 Test12= 7.24D-12 3.33D-08 XBig12= 5.27D+02 6.70D+00.
      3 vectors produced by pass  3 Test12= 7.24D-12 3.33D-08 XBig12= 4.21D+02 3.77D+00.
      3 vectors produced by pass  4 Test12= 7.24D-12 3.33D-08 XBig12= 2.17D+02 2.79D+00.
      3 vectors produced by pass  5 Test12= 7.24D-12 3.33D-08 XBig12= 8.96D+01 1.90D+00.
      3 vectors produced by pass  6 Test12= 7.24D-12 3.33D-08 XBig12= 6.58D+01 2.12D+00.
      3 vectors produced by pass  7 Test12= 7.24D-12 3.33D-08 XBig12= 3.12D+01 1.43D+00.
      3 vectors produced by pass  8 Test12= 7.24D-12 3.33D-08 XBig12= 1.74D+01 7.76D-01.
      3 vectors produced by pass  9 Test12= 7.24D-12 3.33D-08 XBig12= 8.52D+00 5.55D-01.
      3 vectors produced by pass 10 Test12= 7.24D-12 3.33D-08 XBig12= 4.57D+00 4.10D-01.
      3 vectors produced by pass 11 Test12= 7.24D-12 3.33D-08 XBig12= 1.21D+00 1.79D-01.
      3 vectors produced by pass 12 Test12= 7.24D-12 3.33D-08 XBig12= 4.43D-01 1.23D-01.
      3 vectors produced by pass 13 Test12= 7.24D-12 3.33D-08 XBig12= 9.83D-02 4.15D-02.
      3 vectors produced by pass 14 Test12= 7.24D-12 3.33D-08 XBig12= 6.03D-02 4.57D-02.
      3 vectors produced by pass 15 Test12= 7.24D-12 3.33D-08 XBig12= 2.33D-02 3.95D-02.
      3 vectors produced by pass 16 Test12= 7.24D-12 3.33D-08 XBig12= 1.18D-02 2.24D-02.
      3 vectors produced by pass 17 Test12= 7.24D-12 3.33D-08 XBig12= 3.14D-03 7.46D-03.
      3 vectors produced by pass 18 Test12= 7.24D-12 3.33D-08 XBig12= 6.45D-04 3.52D-03.
      3 vectors produced by pass 19 Test12= 7.24D-12 3.33D-08 XBig12= 1.42D-04 2.85D-03.
      3 vectors produced by pass 20 Test12= 7.24D-12 3.33D-08 XBig12= 3.07D-05 1.53D-03.
      3 vectors produced by pass 21 Test12= 7.24D-12 3.33D-08 XBig12= 8.28D-06 8.89D-04.
      3 vectors produced by pass 22 Test12= 7.24D-12 3.33D-08 XBig12= 2.05D-06 4.39D-04.
      3 vectors produced by pass 23 Test12= 7.24D-12 3.33D-08 XBig12= 4.78D-07 1.96D-04.
      3 vectors produced by pass 24 Test12= 7.24D-12 3.33D-08 XBig12= 8.62D-08 6.38D-05.
      3 vectors produced by pass 25 Test12= 7.24D-12 3.33D-08 XBig12= 1.63D-08 1.82D-05.
      3 vectors produced by pass 26 Test12= 7.24D-12 3.33D-08 XBig12= 3.42D-09 9.12D-06.
      3 vectors produced by pass 27 Test12= 7.24D-12 3.33D-08 XBig12= 4.77D-10 3.30D-06.
      3 vectors produced by pass 28 Test12= 7.24D-12 3.33D-08 XBig12= 5.75D-11 1.00D-06.
      3 vectors produced by pass 29 Test12= 7.24D-12 3.33D-08 XBig12= 1.04D-11 4.46D-07.
      3 vectors produced by pass 30 Test12= 7.24D-12 3.33D-08 XBig12= 2.23D-12 3.09D-07.
      2 vectors produced by pass 31 Test12= 7.24D-12 3.33D-08 XBig12= 2.06D-13 1.21D-07.
      1 vectors produced by pass 32 Test12= 7.24D-12 3.33D-08 XBig12= 2.29D-14 3.87D-08.
 InvSVY:  IOpt=1 It=  1 EMax= 3.55D-14
 Solved reduced A of dimension    96 with     3 vectors.
 Isotropic polarizability for W=    0.000000      574.36 Bohr**3.
 End of Minotr F.D. properties file   721 does not exist.
 End of Minotr F.D. properties file   722 does not exist.
 End of Minotr F.D. properties file   788 does not exist.

 **********************************************************************

            Population analysis using the SCF Density.

 **********************************************************************

 Orbital symmetries:
       Occupied  (A) (A) (A) (A) (A) (A) (A) (A) (A) (A) (A) (A)
                 (A) (A) (A) (A) (A) (A) (A) (A) (A) (A) (A) (A)
                 (A) (A) (A) (A) (A) (A) (A) (A) (A) (A) (A) (A)
                 (A) (A) (A) (A) (A) (A) (A) (A) (A) (A) (A) (A)
                 (A) (A) (A) (A) (A) (A) (A) (A) (A) (A) (A) (A)
                 (A) (A) (A) (A) (A) (A) (A) (A) (A) (A) (A) (A)
                 (A) (A) (A) (A) (A) (A) (A) (A) (A) (A) (A) (A)
                 (A) (A) (A) (A) (A) (A) (A) (A) (A) (A) (A) (A)
                 (A) (A) (A) (A) (A) (A) (A) (A) (A) (A) (A) (A)
                 (A) (A) (A) (A) (A) (A) (A) (A) (A) (A) (A) (A)
                 (A) (A) (A) (A) (A) (A) (A) (A) (A) (A) (A) (A)
                 (A) (A) (A) (A) (A) (A) (A) (A) (A) (A) (A) (A)
                 (A) (A) (A) (A) (A) (A) (A) (A) (A) (A) (A) (A)
                 (A) (A)
       Virtual   (A) (A) (A) (A) (A) (A) (A) (A) (A) (A) (A) (A)
                 (A) (A) (A) (A) (A) (A) (A) (A) (A) (A) (A) (A)
                 (A) (A) (A) (A) (A) (A) (A) (A) (A) (A) (A) (A)
                 (A) (A) (A) (A) (A) (A) (A) (A) (A) (A) (A) (A)
                 (A) (A) (A) (A) (A) (A) (A) (A) (A) (A) (A) (A)
                 (A) (A) (A) (A) (A) (A) (A) (A) (A) (A) (A) (A)
                 (A) (A) (A) (A) (A) (A) (A) (A) (A) (A) (A) (A)
                 (A) (A) (A) (A) (A) (A) (A) (A) (A) (A) (A) (A)
                 (A) (A) (A) (A) (A) (A) (A) (A) (A) (A) (A) (A)
                 (A) (A) (A) (A) (A) (A) (A) (A) (A) (A) (A) (A)
                 (A) (A) (A) (A) (A) (A) (A) (A) (A) (A) (A) (A)
                 (A) (A) (A) (A) (A) (A) (A) (A) (A) (A) (A) (A)
                 (A) (A) (A) (A) (A) (A) (A) (A) (A) (A) (A) (A)
                 (A) (A) (A) (A) (A) (A) (A) (A) (A) (A) (A) (A)
                 (A) (A) (A) (A) (A) (A) (A) (A) (A) (A) (A) (A)
                 (A) (A) (A) (A) (A) (A) (A) (A) (A) (A) (A) (A)
                 (A) (A) (A) (A) (A) (A) (A) (A) (A) (A) (A) (A)
                 (A) (A) (A) (A) (A) (A) (A) (A) (A) (A) (A) (A)
                 (A) (A) (A) (A) (A) (A) (A) (A) (A) (A) (A) (A)
                 (A) (A) (A) (A) (A) (A) (A) (A) (A) (A) (A) (A)
                 (A) (A) (A) (A) (A) (A) (A) (A) (A) (A) (A) (A)
                 (A) (A) (A) (A) (A) (A) (A) (A) (A) (A) (A) (A)
                 (A) (A) (A) (A) (A) (A) (A) (A) (A) (A) (A) (A)
                 (A) (A) (A) (A) (A) (A) (A) (A) (A) (A) (A) (A)
                 (A) (A) (A) (A) (A) (A) (A) (A) (A) (A) (A) (A)
                 (A) (A) (A) (A) (A) (A) (A) (A) (A) (A) (A) (A)
                 (A) (A) (A) (A) (A) (A) (A) (A) (A) (A) (A) (A)
                 (A) (A) (A) (A) (A) (A) (A) (A) (A) (A) (A) (A)
                 (A) (A) (A) (A) (A) (A) (A) (A) (A) (A) (A) (A)
                 (A) (A) (A) (A) (A) (A) (A) (A) (A) (A) (A) (A)
                 (A) (A) (A) (A) (A) (A) (A) (A) (A) (A) (A) (A)
                 (A) (A) (A) (A) (A) (A) (A) (A) (A) (A) (A) (A)
                 (A) (A) (A) (A) (A) (A) (A) (A) (A) (A) (A) (A)
                 (A) (A) (A) (A) (A) (A) (A) (A) (A) (A) (A) (A)
                 (A) (A) (A) (A) (A) (A) (A) (A) (A) (A) (A) (A)
                 (A) (A) (A) (A) (A) (A) (A) (A) (A) (A) (A) (A)
                 (A) (A) (A) (A) (A) (A) (A) (A) (A) (A) (A) (A)
                 (A) (A) (A) (A) (A) (A) (A) (A) (A) (A) (A) (A)
                 (A) (A) (A) (A) (A) (A) (A) (A) (A) (A) (A) (A)
                 (A) (A) (A) (A) (A) (A) (A) (A) (A) (A) (A) (A)
                 (A) (A) (A) (A) (A) (A) (A) (A) (A) (A) (A) (A)
                 (A) (A) (A) (A) (A) (A) (A) (A) (A) (A) (A) (A)
                 (A) (A) (A) (A) (A) (A) (A) (A) (A) (A) (A) (A)
                 (A) (A) (A) (A) (A) (A) (A) (A) (A) (A) (A) (A)
                 (A) (A) (A) (A) (A) (A) (A) (A) (A) (A) (A) (A)
                 (A) (A) (A) (A) (A) (A) (A) (A) (A) (A) (A) (A)
                 (A) (A) (A) (A) (A) (A) (A) (A) (A) (A) (A) (A)
                 (A) (A) (A) (A) (A) (A) (A) (A) (A) (A) (A) (A)
                 (A) (A) (A) (A) (A) (A) (A) (A) (A) (A) (A) (A)
                 (A) (A) (A) (A) (A) (A) (A) (A) (A) (A) (A) (A)
                 (A) (A) (A) (A) (A) (A) (A) (A) (A) (A) (A) (A)
                 (A) (A) (A) (A) (A) (A) (A) (A) (A) (A) (A) (A)
                 (A) (A) (A) (A) (A) (A) (A) (A) (A) (A) (A) (A)
                 (A) (A) (A) (A) (A) (A) (A) (A) (A) (A) (A) (A)
                 (A) (A) (A) (A) (A) (A) (A) (A) (A) (A) (A) (A)
                 (A) (A) (A) (A) (A) (A) (A) (A) (A) (A) (A) (A)
                 (A) (A) (A) (A) (A) (A) (A) (A) (A) (A) (A) (A)
                 (A) (A) (A) (A) (A) (A) (A) (A) (A) (A) (A) (A)
                 (A) (A) (A) (A) (A) (A) (A) (A) (A) (A) (A) (A)
                 (A) (A) (A) (A) (A) (A) (A) (A) (A) (A) (A) (A)
                 (A) (A) (A) (A) (A) (A) (A) (A) (A) (A) (A) (A)
                 (A) (A) (A) (A) (A) (A) (A) (A) (A) (A) (A) (A)
                 (A) (A) (A) (A) (A) (A) (A) (A) (A) (A) (A) (A)
                 (A) (A) (A) (A) (A) (A) (A) (A) (A) (A) (A) (A)
                 (A) (A) (A) (A) (A) (A) (A) (A) (A) (A) (A) (A)
                 (A) (A) (A) (A) (A) (A) (A) (A) (A) (A) (A) (A)
                 (A) (A) (A) (A) (A) (A) (A) (A) (A) (A) (A) (A)
                 (A) (A) (A) (A) (A) (A) (A) (A) (A) (A) (A) (A)
                 (A) (A) (A) (A) (A) (A) (A) (A) (A) (A) (A) (A)
                 (A) (A) (A) (A) (A) (A) (A) (A) (A) (A) (A) (A)
                 (A) (A) (A) (A) (A) (A) (A) (A) (A) (A) (A) (A)
                 (A) (A) (A) (A) (A) (A) (A) (A) (A) (A) (A) (A)
                 (A) (A) (A) (A) (A) (A) (A) (A) (A) (A) (A) (A)
                 (A) (A) (A) (A) (A) (A) (A) (A) (A) (A) (A) (A)
                 (A) (A) (A) (A) (A) (A) (A) (A) (A) (A) (A) (A)
                 (A) (A) (A) (A) (A) (A) (A) (A) (A) (A) (A) (A)
                 (A) (A) (A) (A) (A) (A) (A) (A) (A) (A) (A) (A)
                 (A) (A) (A) (A) (A) (A) (A) (A) (A) (A) (A) (A)
                 (A) (A) (A) (A) (A) (A) (A) (A) (A) (A) (A) (A)
                 (A) (A) (A) (A) (A) (A) (A) (A) (A) (A) (A) (A)
                 (A) (A) (A) (A) (A) (A) (A) (A) (A) (A) (A) (A)
                 (A) (A) (A) (A) (A) (A) (A) (A) (A) (A) (A) (A)
                 (A) (A) (A) (A) (A) (A) (A) (A) (A) (A) (A) (A)
                 (A) (A) (A) (A) (A) (A) (A) (A) (A) (A) (A) (A)
                 (A) (A) (A) (A) (A) (A) (A) (A) (A) (A) (A) (A)
                 (A) (A) (A) (A) (A) (A) (A) (A) (A) (A) (A) (A)
                 (A) (A) (A) (A) (A) (A) (A) (A) (A) (A) (A) (A)
                 (A) (A) (A) (A) (A) (A) (A) (A) (A) (A) (A) (A)
                 (A) (A) (A) (A) (A) (A) (A) (A) (A) (A) (A) (A)
                 (A) (A) (A) (A) (A) (A) (A) (A) (A) (A) (A) (A)
                 (A) (A) (A) (A) (A) (A) (A) (A) (A) (A) (A) (A)
                 (A) (A) (A) (A) (A) (A) (A) (A) (A) (A) (A) (A)
                 (A) (A) (A) (A) (A) (A) (A) (A) (A) (A) (A) (A)
                 (A) (A) (A) (A) (A) (A) (A) (A) (A) (A) (A) (A)
                 (A) (A) (A) (A) (A) (A) (A) (A) (A) (A) (A) (A)
                 (A) (A) (A) (A) (A) (A) (A) (A) (A) (A) (A) (A)
                 (A) (A) (A) (A) (A) (A) (A) (A) (A) (A) (A) (A)
                 (A) (A) (A) (A) (A) (A) (A) (A) (A) (A) (A) (A)
                 (A) (A) (A) (A) (A) (A) (A) (A) (A) (A) (A) (A)
                 (A) (A) (A) (A) (A) (A) (A) (A) (A) (A) (A) (A)
                 (A) (A) (A) (A) (A) (A) (A) (A) (A) (A) (A) (A)
                 (A) (A) (A) (A) (A) (A) (A) (A) (A) (A) (A) (A)
                 (A) (A) (A) (A) (A) (A) (A) (A) (A) (A) (A) (A)
                 (A) (A) (A) (A) (A) (A) (A) (A) (A) (A) (A) (A)
                 (A) (A) (A) (A) (A) (A) (A) (A) (A) (A) (A) (A)
                 (A) (A) (A) (A) (A) (A) (A) (A) (A) (A) (A) (A)
                 (A) (A) (A) (A) (A) (A) (A) (A) (A) (A) (A) (A)
                 (A) (A) (A) (A) (A) (A) (A) (A) (A) (A) (A) (A)
                 (A) (A) (A) (A) (A) (A) (A) (A) (A) (A) (A) (A)
                 (A) (A) (A) (A) (A) (A) (A) (A) (A) (A) (A) (A)
                 (A) (A) (A) (A) (A) (A) (A) (A) (A) (A) (A) (A)
                 (A) (A) (A) (A) (A) (A) (A) (A) (A) (A) (A) (A)
                 (A) (A) (A) (A) (A) (A) (A) (A) (A) (A) (A) (A)
                 (A) (A) (A) (A) (A) (A) (A) (A) (A) (A) (A) (A)
                 (A) (A) (A) (A) (A) (A)
 The electronic state is 1-A.
 Alpha  occ. eigenvalues -- -256.17388 -30.02378 -25.86547 -25.86150 -25.86107
 Alpha  occ. eigenvalues --  -19.16887 -14.41655 -14.36411 -14.33118 -14.33099
 Alpha  occ. eigenvalues --  -14.32985 -14.32712 -10.25371 -10.23641 -10.21032
 Alpha  occ. eigenvalues --  -10.20776 -10.20724 -10.20714 -10.20682 -10.20677
 Alpha  occ. eigenvalues --  -10.20657 -10.20511 -10.20432 -10.20377 -10.19440
 Alpha  occ. eigenvalues --  -10.19402 -10.18813 -10.18780 -10.18733 -10.18685
 Alpha  occ. eigenvalues --  -10.18664 -10.18587 -10.18410 -10.18406 -10.18357
 Alpha  occ. eigenvalues --  -10.18347 -10.18326 -10.18309 -10.18239 -10.18231
 Alpha  occ. eigenvalues --  -10.18162 -10.18136 -10.18132 -10.18044 -10.18009
 Alpha  occ. eigenvalues --  -10.18002  -3.39964  -2.16609  -2.15835  -2.15749
 Alpha  occ. eigenvalues --   -1.05250  -1.04710  -0.96681  -0.95800  -0.95632
 Alpha  occ. eigenvalues --   -0.94738  -0.90860  -0.82027  -0.81654  -0.81344
 Alpha  occ. eigenvalues --   -0.80597  -0.80231  -0.80133  -0.79380  -0.79289
 Alpha  occ. eigenvalues --   -0.76561  -0.75501  -0.74146  -0.73732  -0.73009
 Alpha  occ. eigenvalues --   -0.71762  -0.70794  -0.69930  -0.68167  -0.67715
 Alpha  occ. eigenvalues --   -0.67617  -0.64504  -0.63931  -0.63845  -0.61227
 Alpha  occ. eigenvalues --   -0.60469  -0.60215  -0.59822  -0.57601  -0.56382
 Alpha  occ. eigenvalues --   -0.55869  -0.54300  -0.53429  -0.53103  -0.52400
 Alpha  occ. eigenvalues --   -0.50884  -0.50813  -0.50341  -0.48569  -0.47760
 Alpha  occ. eigenvalues --   -0.47668  -0.47434  -0.47090  -0.44927  -0.44565
 Alpha  occ. eigenvalues --   -0.44401  -0.44372  -0.43952  -0.43412  -0.43327
 Alpha  occ. eigenvalues --   -0.43239  -0.43077  -0.42929  -0.42734  -0.42434
 Alpha  occ. eigenvalues --   -0.42380  -0.42231  -0.41653  -0.41568  -0.41451
 Alpha  occ. eigenvalues --   -0.41148  -0.40966  -0.40116  -0.40002  -0.39949
 Alpha  occ. eigenvalues --   -0.39385  -0.39326  -0.39023  -0.38809  -0.38400
 Alpha  occ. eigenvalues --   -0.38128  -0.37594  -0.37318  -0.36980  -0.36799
 Alpha  occ. eigenvalues --   -0.36208  -0.35788  -0.35329  -0.35153  -0.34221
 Alpha  occ. eigenvalues --   -0.33970  -0.33840  -0.33581  -0.33443  -0.31719
 Alpha  occ. eigenvalues --   -0.31614  -0.30580  -0.30356  -0.29590  -0.28716
 Alpha  occ. eigenvalues --   -0.28522  -0.26521  -0.26419  -0.24285  -0.23619
 Alpha  occ. eigenvalues --   -0.23172  -0.22451  -0.21811  -0.19042  -0.18219
 Alpha  occ. eigenvalues --   -0.17725  -0.17631  -0.17460
 Alpha virt. eigenvalues --   -0.06352  -0.06274  -0.01862   0.00680   0.01319
 Alpha virt. eigenvalues --    0.01571   0.02405   0.03065   0.03761   0.04667
 Alpha virt. eigenvalues --    0.04830   0.04963   0.05449   0.05846   0.06096
 Alpha virt. eigenvalues --    0.06486   0.06651   0.07139   0.08037   0.08238
 Alpha virt. eigenvalues --    0.08383   0.08954   0.09354   0.09445   0.09853
 Alpha virt. eigenvalues --    0.09941   0.10302   0.10531   0.11299   0.11514
 Alpha virt. eigenvalues --    0.11660   0.11766   0.11845   0.12200   0.12375
 Alpha virt. eigenvalues --    0.12588   0.12942   0.13286   0.13482   0.13660
 Alpha virt. eigenvalues --    0.13687   0.14447   0.14531   0.14557   0.14769
 Alpha virt. eigenvalues --    0.14921   0.15050   0.15497   0.15582   0.15754
 Alpha virt. eigenvalues --    0.16027   0.16094   0.16182   0.16386   0.16711
 Alpha virt. eigenvalues --    0.17105   0.17312   0.17424   0.17821   0.17994
 Alpha virt. eigenvalues --    0.18278   0.18851   0.19345   0.19612   0.19841
 Alpha virt. eigenvalues --    0.20073   0.20288   0.20547   0.20646   0.20857
 Alpha virt. eigenvalues --    0.21171   0.21440   0.21849   0.21920   0.22340
 Alpha virt. eigenvalues --    0.22427   0.22821   0.23357   0.23444   0.24016
 Alpha virt. eigenvalues --    0.24404   0.24597   0.24923   0.25339   0.25561
 Alpha virt. eigenvalues --    0.25836   0.26026   0.26391   0.26527   0.26713
 Alpha virt. eigenvalues --    0.27190   0.27366   0.27555   0.27846   0.28271
 Alpha virt. eigenvalues --    0.28349   0.28812   0.29084   0.29215   0.29491
 Alpha virt. eigenvalues --    0.29628   0.30235   0.30334   0.30674   0.30807
 Alpha virt. eigenvalues --    0.31141   0.31474   0.31488   0.31539   0.32190
 Alpha virt. eigenvalues --    0.32389   0.32564   0.32834   0.33309   0.33471
 Alpha virt. eigenvalues --    0.33855   0.34219   0.34553   0.34747   0.34952
 Alpha virt. eigenvalues --    0.35306   0.35574   0.35740   0.36246   0.36378
 Alpha virt. eigenvalues --    0.36841   0.37086   0.37392   0.37528   0.37570
 Alpha virt. eigenvalues --    0.37781   0.38071   0.38603   0.38821   0.38872
 Alpha virt. eigenvalues --    0.39246   0.39516   0.39631   0.39806   0.40264
 Alpha virt. eigenvalues --    0.40447   0.40511   0.40581   0.41018   0.41281
 Alpha virt. eigenvalues --    0.41545   0.41600   0.41864   0.42115   0.42415
 Alpha virt. eigenvalues --    0.42515   0.42656   0.42829   0.43302   0.43445
 Alpha virt. eigenvalues --    0.43682   0.43951   0.44087   0.44310   0.44420
 Alpha virt. eigenvalues --    0.44856   0.45029   0.45157   0.45222   0.45882
 Alpha virt. eigenvalues --    0.46070   0.46125   0.46381   0.46693   0.46920
 Alpha virt. eigenvalues --    0.47077   0.47158   0.47486   0.47580   0.47822
 Alpha virt. eigenvalues --    0.48003   0.48135   0.48477   0.48686   0.48942
 Alpha virt. eigenvalues --    0.49169   0.49472   0.49597   0.49692   0.49743
 Alpha virt. eigenvalues --    0.49956   0.50439   0.50500   0.50681   0.50908
 Alpha virt. eigenvalues --    0.51295   0.51483   0.51825   0.52003   0.52211
 Alpha virt. eigenvalues --    0.52263   0.52545   0.52794   0.53020   0.53204
 Alpha virt. eigenvalues --    0.53707   0.53968   0.54194   0.54344   0.54455
 Alpha virt. eigenvalues --    0.54813   0.55166   0.55690   0.55972   0.56070
 Alpha virt. eigenvalues --    0.56392   0.56611   0.56673   0.57130   0.57284
 Alpha virt. eigenvalues --    0.57458   0.58024   0.58255   0.58333   0.58472
 Alpha virt. eigenvalues --    0.58834   0.59263   0.59375   0.59592   0.60323
 Alpha virt. eigenvalues --    0.60533   0.60766   0.61513   0.61694   0.61896
 Alpha virt. eigenvalues --    0.62181   0.62760   0.62795   0.62855   0.63239
 Alpha virt. eigenvalues --    0.63743   0.63886   0.64480   0.64615   0.64773
 Alpha virt. eigenvalues --    0.65078   0.65619   0.66042   0.66214   0.66291
 Alpha virt. eigenvalues --    0.66472   0.66752   0.67232   0.67448   0.67649
 Alpha virt. eigenvalues --    0.67706   0.67855   0.68304   0.68752   0.69568
 Alpha virt. eigenvalues --    0.69675   0.70550   0.70972   0.71114   0.71519
 Alpha virt. eigenvalues --    0.71649   0.71883   0.72279   0.72457   0.72786
 Alpha virt. eigenvalues --    0.73355   0.73540   0.73771   0.73989   0.74318
 Alpha virt. eigenvalues --    0.74716   0.74864   0.75426   0.75641   0.75708
 Alpha virt. eigenvalues --    0.76211   0.76802   0.77201   0.77521   0.77862
 Alpha virt. eigenvalues --    0.78129   0.78378   0.78779   0.79026   0.79390
 Alpha virt. eigenvalues --    0.79741   0.79926   0.80033   0.80295   0.80783
 Alpha virt. eigenvalues --    0.80894   0.81240   0.81718   0.82184   0.82646
 Alpha virt. eigenvalues --    0.82981   0.83310   0.84489   0.84647   0.85072
 Alpha virt. eigenvalues --    0.85124   0.85924   0.86194   0.86495   0.86756
 Alpha virt. eigenvalues --    0.87299   0.87426   0.88286   0.88418   0.88817
 Alpha virt. eigenvalues --    0.88910   0.89496   0.89686   0.90218   0.90677
 Alpha virt. eigenvalues --    0.91230   0.91430   0.91813   0.92024   0.92401
 Alpha virt. eigenvalues --    0.92892   0.93067   0.93511   0.94123   0.94368
 Alpha virt. eigenvalues --    0.94555   0.95266   0.95509   0.95689   0.95985
 Alpha virt. eigenvalues --    0.96360   0.96737   0.97013   0.97428   0.97919
 Alpha virt. eigenvalues --    0.98393   0.98783   0.98942   0.99178   0.99298
 Alpha virt. eigenvalues --    1.00146   1.00246   1.00602   1.01047   1.01352
 Alpha virt. eigenvalues --    1.01957   1.02052   1.02243   1.02591   1.02636
 Alpha virt. eigenvalues --    1.03156   1.03413   1.03766   1.04093   1.04219
 Alpha virt. eigenvalues --    1.04340   1.04608   1.05214   1.05639   1.05961
 Alpha virt. eigenvalues --    1.06363   1.06408   1.07381   1.07594   1.08091
 Alpha virt. eigenvalues --    1.08357   1.08746   1.09120   1.09569   1.10012
 Alpha virt. eigenvalues --    1.10385   1.10906   1.11606   1.11983   1.12152
 Alpha virt. eigenvalues --    1.12775   1.13417   1.13477   1.13946   1.14500
 Alpha virt. eigenvalues --    1.15116   1.15237   1.16275   1.16594   1.16774
 Alpha virt. eigenvalues --    1.16970   1.17704   1.18013   1.18405   1.18930
 Alpha virt. eigenvalues --    1.19133   1.19409   1.19652   1.20315   1.20418
 Alpha virt. eigenvalues --    1.20463   1.21088   1.21517   1.21996   1.22313
 Alpha virt. eigenvalues --    1.22586   1.23002   1.23695   1.24015   1.24488
 Alpha virt. eigenvalues --    1.24740   1.25432   1.25900   1.26699   1.26828
 Alpha virt. eigenvalues --    1.27213   1.28280   1.28357   1.28555   1.29015
 Alpha virt. eigenvalues --    1.29249   1.29476   1.29703   1.30155   1.30411
 Alpha virt. eigenvalues --    1.31242   1.31499   1.31633   1.31889   1.32351
 Alpha virt. eigenvalues --    1.32648   1.32807   1.33536   1.34236   1.34640
 Alpha virt. eigenvalues --    1.35552   1.36571   1.36900   1.37483   1.37996
 Alpha virt. eigenvalues --    1.38265   1.38643   1.39549   1.39617   1.40496
 Alpha virt. eigenvalues --    1.41121   1.41591   1.42200   1.42457   1.42911
 Alpha virt. eigenvalues --    1.43641   1.44398   1.44581   1.45347   1.45674
 Alpha virt. eigenvalues --    1.46025   1.46206   1.46868   1.47016   1.47809
 Alpha virt. eigenvalues --    1.48095   1.48254   1.48539   1.48804   1.49111
 Alpha virt. eigenvalues --    1.49426   1.49590   1.50170   1.50315   1.50504
 Alpha virt. eigenvalues --    1.50876   1.51226   1.51421   1.52010   1.52090
 Alpha virt. eigenvalues --    1.52225   1.52497   1.52606   1.53116   1.53308
 Alpha virt. eigenvalues --    1.53803   1.54143   1.54163   1.54555   1.54765
 Alpha virt. eigenvalues --    1.55209   1.55506   1.55776   1.55887   1.56133
 Alpha virt. eigenvalues --    1.56237   1.56369   1.56712   1.57096   1.57284
 Alpha virt. eigenvalues --    1.57893   1.57970   1.58441   1.58510   1.58649
 Alpha virt. eigenvalues --    1.59340   1.59375   1.59760   1.59997   1.60362
 Alpha virt. eigenvalues --    1.60560   1.61213   1.61573   1.61705   1.62127
 Alpha virt. eigenvalues --    1.62274   1.62959   1.63130   1.63266   1.63603
 Alpha virt. eigenvalues --    1.63890   1.64151   1.64593   1.64872   1.65412
 Alpha virt. eigenvalues --    1.65569   1.65770   1.65946   1.66272   1.66622
 Alpha virt. eigenvalues --    1.66664   1.67314   1.67880   1.68557   1.68872
 Alpha virt. eigenvalues --    1.69036   1.69466   1.69689   1.69945   1.70267
 Alpha virt. eigenvalues --    1.71002   1.71186   1.71337   1.71717   1.71911
 Alpha virt. eigenvalues --    1.72667   1.73156   1.73690   1.73938   1.74320
 Alpha virt. eigenvalues --    1.74860   1.75327   1.75713   1.75986   1.76610
 Alpha virt. eigenvalues --    1.77389   1.77561   1.78960   1.79116   1.79657
 Alpha virt. eigenvalues --    1.80220   1.80422   1.81131   1.81975   1.82191
 Alpha virt. eigenvalues --    1.82617   1.83074   1.83345   1.84195   1.84454
 Alpha virt. eigenvalues --    1.85015   1.85241   1.85764   1.85943   1.86312
 Alpha virt. eigenvalues --    1.87203   1.87553   1.87737   1.87825   1.88172
 Alpha virt. eigenvalues --    1.88607   1.89134   1.89448   1.89695   1.90820
 Alpha virt. eigenvalues --    1.91168   1.91612   1.92424   1.92687   1.93084
 Alpha virt. eigenvalues --    1.94175   1.94364   1.94861   1.95078   1.95646
 Alpha virt. eigenvalues --    1.96030   1.96793   1.96986   1.97333   1.97706
 Alpha virt. eigenvalues --    1.98678   1.98879   1.99523   1.99789   2.00106
 Alpha virt. eigenvalues --    2.00158   2.00524   2.01194   2.01637   2.02086
 Alpha virt. eigenvalues --    2.02175   2.02830   2.03763   2.04133   2.04818
 Alpha virt. eigenvalues --    2.05762   2.05911   2.06107   2.06677   2.07099
 Alpha virt. eigenvalues --    2.07835   2.08102   2.08988   2.09232   2.09508
 Alpha virt. eigenvalues --    2.09861   2.09982   2.10585   2.11406   2.11635
 Alpha virt. eigenvalues --    2.11984   2.12395   2.13088   2.13589   2.13742
 Alpha virt. eigenvalues --    2.14190   2.15215   2.15315   2.15520   2.16275
 Alpha virt. eigenvalues --    2.16533   2.16845   2.17429   2.17689   2.18576
 Alpha virt. eigenvalues --    2.19188   2.19431   2.19631   2.19987   2.20386
 Alpha virt. eigenvalues --    2.20494   2.21705   2.22133   2.22472   2.22767
 Alpha virt. eigenvalues --    2.22886   2.23787   2.24175   2.24614   2.25123
 Alpha virt. eigenvalues --    2.25879   2.26380   2.27255   2.27548   2.27700
 Alpha virt. eigenvalues --    2.28683   2.28840   2.28931   2.29396   2.29566
 Alpha virt. eigenvalues --    2.29907   2.30633   2.31087   2.31393   2.31887
 Alpha virt. eigenvalues --    2.32378   2.32670   2.33197   2.33916   2.34519
 Alpha virt. eigenvalues --    2.34699   2.35018   2.35654   2.35968   2.36060
 Alpha virt. eigenvalues --    2.36692   2.37061   2.37209   2.37523   2.37855
 Alpha virt. eigenvalues --    2.38597   2.38773   2.39228   2.39904   2.39991
 Alpha virt. eigenvalues --    2.40851   2.41024   2.41453   2.42062   2.42790
 Alpha virt. eigenvalues --    2.43216   2.43432   2.44562   2.44873   2.45270
 Alpha virt. eigenvalues --    2.45446   2.46035   2.46360   2.46452   2.46817
 Alpha virt. eigenvalues --    2.47512   2.47751   2.48079   2.48744   2.49141
 Alpha virt. eigenvalues --    2.49461   2.50078   2.50411   2.51315   2.51712
 Alpha virt. eigenvalues --    2.51951   2.52528   2.52870   2.53310   2.53321
 Alpha virt. eigenvalues --    2.53367   2.54112   2.54852   2.55181   2.55385
 Alpha virt. eigenvalues --    2.55829   2.56661   2.56684   2.57046   2.57429
 Alpha virt. eigenvalues --    2.57637   2.57848   2.58202   2.58638   2.59092
 Alpha virt. eigenvalues --    2.59328   2.60060   2.60407   2.60513   2.60862
 Alpha virt. eigenvalues --    2.61538   2.61663   2.61974   2.62514   2.63073
 Alpha virt. eigenvalues --    2.63228   2.63537   2.64106   2.65087   2.65287
 Alpha virt. eigenvalues --    2.65864   2.66170   2.66343   2.66579   2.66994
 Alpha virt. eigenvalues --    2.67959   2.68088   2.68581   2.68823   2.69152
 Alpha virt. eigenvalues --    2.69582   2.70331   2.70484   2.70646   2.70933
 Alpha virt. eigenvalues --    2.71418   2.71596   2.72202   2.72275   2.72898
 Alpha virt. eigenvalues --    2.73437   2.73603   2.74143   2.74621   2.75085
 Alpha virt. eigenvalues --    2.75305   2.75791   2.76548   2.76848   2.77647
 Alpha virt. eigenvalues --    2.77901   2.78151   2.78828   2.79350   2.79833
 Alpha virt. eigenvalues --    2.80439   2.80783   2.81137   2.81716   2.82039
 Alpha virt. eigenvalues --    2.82481   2.82962   2.83169   2.83405   2.83835
 Alpha virt. eigenvalues --    2.84441   2.84609   2.85218   2.85823   2.86069
 Alpha virt. eigenvalues --    2.86148   2.86863   2.86926   2.87361   2.87679
 Alpha virt. eigenvalues --    2.88112   2.88661   2.89173   2.89606   2.89712
 Alpha virt. eigenvalues --    2.90111   2.90378   2.90853   2.91071   2.91433
 Alpha virt. eigenvalues --    2.92156   2.92694   2.92889   2.93443   2.93767
 Alpha virt. eigenvalues --    2.94304   2.94513   2.95058   2.95238   2.95696
 Alpha virt. eigenvalues --    2.96035   2.96496   2.96976   2.97259   2.97469
 Alpha virt. eigenvalues --    2.97716   2.98135   2.98583   2.99090   2.99643
 Alpha virt. eigenvalues --    2.99695   2.99965   3.00075   3.00403   3.00890
 Alpha virt. eigenvalues --    3.01573   3.01969   3.02228   3.02316   3.02928
 Alpha virt. eigenvalues --    3.03504   3.03912   3.04260   3.04559   3.05149
 Alpha virt. eigenvalues --    3.05449   3.05765   3.06500   3.06620   3.07091
 Alpha virt. eigenvalues --    3.07445   3.08112   3.08214   3.08630   3.08737
 Alpha virt. eigenvalues --    3.08933   3.09128   3.09776   3.10194   3.10367
 Alpha virt. eigenvalues --    3.10531   3.11313   3.11383   3.11556   3.11987
 Alpha virt. eigenvalues --    3.12739   3.12993   3.13251   3.13621   3.14107
 Alpha virt. eigenvalues --    3.14478   3.14806   3.15023   3.15175   3.15824
 Alpha virt. eigenvalues --    3.15870   3.16195   3.16537   3.16754   3.17308
 Alpha virt. eigenvalues --    3.17350   3.17948   3.18376   3.18712   3.18871
 Alpha virt. eigenvalues --    3.19051   3.19462   3.19879   3.20500   3.20558
 Alpha virt. eigenvalues --    3.20985   3.21046   3.21373   3.21662   3.21974
 Alpha virt. eigenvalues --    3.22333   3.22630   3.22950   3.23325   3.23691
 Alpha virt. eigenvalues --    3.24081   3.24367   3.24871   3.25253   3.25408
 Alpha virt. eigenvalues --    3.25514   3.25734   3.26221   3.26490   3.26586
 Alpha virt. eigenvalues --    3.26969   3.27344   3.27460   3.27752   3.27958
 Alpha virt. eigenvalues --    3.28255   3.28841   3.29118   3.29193   3.29520
 Alpha virt. eigenvalues --    3.29604   3.29971   3.30095   3.30410   3.30692
 Alpha virt. eigenvalues --    3.30911   3.31283   3.31661   3.31875   3.32379
 Alpha virt. eigenvalues --    3.32721   3.32980   3.33502   3.33561   3.34058
 Alpha virt. eigenvalues --    3.34271   3.34402   3.34934   3.35027   3.35265
 Alpha virt. eigenvalues --    3.35652   3.36032   3.36151   3.36409   3.36585
 Alpha virt. eigenvalues --    3.36811   3.37237   3.37436   3.37702   3.38204
 Alpha virt. eigenvalues --    3.38725   3.38947   3.39056   3.39319   3.39571
 Alpha virt. eigenvalues --    3.39750   3.40113   3.40576   3.40939   3.41381
 Alpha virt. eigenvalues --    3.41657   3.42402   3.42529   3.42917   3.43417
 Alpha virt. eigenvalues --    3.43763   3.44164   3.44447   3.44852   3.45159
 Alpha virt. eigenvalues --    3.45266   3.45577   3.45925   3.46512   3.46831
 Alpha virt. eigenvalues --    3.47339   3.47962   3.48635   3.48701   3.49130
 Alpha virt. eigenvalues --    3.49473   3.50090   3.50876   3.51343   3.52094
 Alpha virt. eigenvalues --    3.52537   3.53324   3.53580   3.54207   3.54292
 Alpha virt. eigenvalues --    3.54910   3.55182   3.55561   3.55909   3.56168
 Alpha virt. eigenvalues --    3.56590   3.57085   3.57568   3.57824   3.58072
 Alpha virt. eigenvalues --    3.58577   3.58875   3.59613   3.59917   3.61040
 Alpha virt. eigenvalues --    3.61345   3.61674   3.61987   3.62854   3.63183
 Alpha virt. eigenvalues --    3.63342   3.63882   3.64687   3.65591   3.65853
 Alpha virt. eigenvalues --    3.66139   3.66281   3.67016   3.67323   3.67917
 Alpha virt. eigenvalues --    3.68096   3.69134   3.69264   3.70050   3.70305
 Alpha virt. eigenvalues --    3.70414   3.71144   3.71339   3.71660   3.71918
 Alpha virt. eigenvalues --    3.72125   3.72501   3.73247   3.73726   3.73935
 Alpha virt. eigenvalues --    3.74840   3.75280   3.75400   3.75762   3.76101
 Alpha virt. eigenvalues --    3.76320   3.77268   3.77561   3.78608   3.78900
 Alpha virt. eigenvalues --    3.79312   3.79943   3.80263   3.80721   3.81390
 Alpha virt. eigenvalues --    3.81850   3.82297   3.82971   3.83627   3.84284
 Alpha virt. eigenvalues --    3.84738   3.85751   3.86248   3.86426   3.87392
 Alpha virt. eigenvalues --    3.87668   3.88011   3.88724   3.89902   3.90527
 Alpha virt. eigenvalues --    3.90664   3.91071   3.92040   3.92116   3.92365
 Alpha virt. eigenvalues --    3.92530   3.93340   3.94031   3.94820   3.95760
 Alpha virt. eigenvalues --    3.96581   3.97103   3.97659   3.98261   3.98808
 Alpha virt. eigenvalues --    3.99784   3.99812   4.00042   4.00428   4.01768
 Alpha virt. eigenvalues --    4.02050   4.02354   4.03589   4.03937   4.04131
 Alpha virt. eigenvalues --    4.05205   4.05381   4.06078   4.06400   4.07225
 Alpha virt. eigenvalues --    4.07741   4.08242   4.09088   4.09830   4.10737
 Alpha virt. eigenvalues --    4.11135   4.12028   4.12732   4.14869   4.15153
 Alpha virt. eigenvalues --    4.15312   4.16087   4.16700   4.16993   4.17404
 Alpha virt. eigenvalues --    4.17846   4.18077   4.18519   4.19144   4.19530
 Alpha virt. eigenvalues --    4.19795   4.20441   4.20827   4.21082   4.21558
 Alpha virt. eigenvalues --    4.22646   4.23090   4.23114   4.24700   4.25146
 Alpha virt. eigenvalues --    4.25470   4.26535   4.26680   4.26889   4.28084
 Alpha virt. eigenvalues --    4.28772   4.29086   4.29784   4.30421   4.30768
 Alpha virt. eigenvalues --    4.31056   4.32339   4.32623   4.32981   4.33768
 Alpha virt. eigenvalues --    4.34336   4.34573   4.34987   4.35359   4.36509
 Alpha virt. eigenvalues --    4.36625   4.38465   4.38710   4.39377   4.40365
 Alpha virt. eigenvalues --    4.40670   4.40859   4.41360   4.41844   4.41886
 Alpha virt. eigenvalues --    4.42852   4.43512   4.44156   4.44759   4.44980
 Alpha virt. eigenvalues --    4.45631   4.45713   4.46477   4.47010   4.47152
 Alpha virt. eigenvalues --    4.47795   4.48259   4.48679   4.49368   4.49989
 Alpha virt. eigenvalues --    4.50992   4.51710   4.52361   4.53768   4.54154
 Alpha virt. eigenvalues --    4.54991   4.56111   4.56835   4.57029   4.57520
 Alpha virt. eigenvalues --    4.58476   4.59631   4.60314   4.61514   4.64007
 Alpha virt. eigenvalues --    4.64699   4.65540   4.66088   4.67258   4.68397
 Alpha virt. eigenvalues --    4.69131   4.69387   4.69758   4.70154   4.72230
 Alpha virt. eigenvalues --    4.72656   4.73037   4.73511   4.73909   4.74993
 Alpha virt. eigenvalues --    4.75744   4.76330   4.76724   4.78349   4.79904
 Alpha virt. eigenvalues --    4.80975   4.81906   4.82690   4.83541   4.83646
 Alpha virt. eigenvalues --    4.84430   4.84747   4.85705   4.86062   4.86381
 Alpha virt. eigenvalues --    4.86811   4.87945   4.88063   4.88928   4.90893
 Alpha virt. eigenvalues --    4.91643   4.92265   4.93345   4.94587   4.94815
 Alpha virt. eigenvalues --    4.95823   4.96137   4.97119   4.97643   4.98641
 Alpha virt. eigenvalues --    4.99318   4.99831   5.01673   5.02421   5.02701
 Alpha virt. eigenvalues --    5.03198   5.04378   5.05203   5.06006   5.07608
 Alpha virt. eigenvalues --    5.07999   5.08843   5.09853   5.10224   5.10376
 Alpha virt. eigenvalues --    5.11125   5.11497   5.14248   5.15059   5.16576
 Alpha virt. eigenvalues --    5.17425   5.19076   5.19962   5.20798   5.20992
 Alpha virt. eigenvalues --    5.21707   5.23125   5.24255   5.25742   5.26489
 Alpha virt. eigenvalues --    5.27021   5.27989   5.29790   5.31097   5.32977
 Alpha virt. eigenvalues --    5.34325   5.35668   5.36923   5.37762   5.38779
 Alpha virt. eigenvalues --    5.38906   5.39264   5.39790   5.40381   5.41474
 Alpha virt. eigenvalues --    5.42163   5.43023   5.43541   5.45993   5.47900
 Alpha virt. eigenvalues --    5.49547   5.50582   5.51392   5.52032   5.52216
 Alpha virt. eigenvalues --    5.53278   5.53458   5.57264   5.57993   5.60591
 Alpha virt. eigenvalues --    5.62211   5.62459   5.62747   5.63115   5.63632
 Alpha virt. eigenvalues --    5.65628   5.66321   5.67693   5.67996   5.69023
 Alpha virt. eigenvalues --    5.70906   5.73461   5.76628   5.77268   5.78516
 Alpha virt. eigenvalues --    5.80222   5.81302   5.89370   5.93221   5.94038
 Alpha virt. eigenvalues --    5.95396   5.99230   6.01490   6.02386   6.03350
 Alpha virt. eigenvalues --    6.09016   6.12717   6.13345   6.14230   6.14472
 Alpha virt. eigenvalues --    6.17906   6.18475   6.25043   6.27447   6.33839
 Alpha virt. eigenvalues --    6.35524   6.41420   6.49535   6.52576   6.54741
 Alpha virt. eigenvalues --    6.68862   6.96830   7.28856  22.36486  22.37084
 Alpha virt. eigenvalues --   22.44125  22.46078  22.46967  22.52978  22.54075
 Alpha virt. eigenvalues --   22.62333  22.63156  22.78063  22.86066  22.87566
 Alpha virt. eigenvalues --   22.91604  22.94670  22.95443  22.96257  22.97640
 Alpha virt. eigenvalues --   23.03361  23.05007  23.10049  23.14915  23.27593
 Alpha virt. eigenvalues --   23.28892  23.30525  23.32857  23.42496  23.42514
 Alpha virt. eigenvalues --   23.51260  23.51737  23.56173  23.75117  23.79790
 Alpha virt. eigenvalues --   23.80506  23.89131  32.41153  32.76378  32.89978
 Alpha virt. eigenvalues --   32.97373  33.00120  33.10395  44.06199
          Condensed to atoms (all electrons):
 Mulliken charges:
               1
     1  Fe  -0.261541
     2  N   -0.099978
     3  N   -0.005116
     4  N   -0.030608
     5  N   -0.008478
     6  C    0.268490
     7  C   -0.058372
     8  C   -0.010806
     9  C    0.120490
    10  C    0.193238
    11  C   -0.049272
    12  C    0.031594
    13  C    0.247796
    14  C    0.246493
    15  C   -0.066803
    16  C    0.076577
    17  C    0.186505
    18  C    0.171640
    19  C   -0.023486
    20  C   -0.060880
    21  C    0.265081
    22  C   -0.464412
    23  H    0.135569
    24  C   -0.408351
    25  H    0.133260
    26  C   -0.429469
    27  H    0.117205
    28  C   -0.439436
    29  H    0.123166
    30  C   -0.415170
    31  H    0.120323
    32  H    0.131367
    33  H    0.136466
    34  C   -0.411145
    35  H    0.137488
    36  H    0.131981
    37  H    0.119209
    38  C   -0.453205
    39  H    0.132455
    40  H    0.135871
    41  H    0.158094
    42  C   -0.203858
    43  H    0.105180
    44  C   -0.288256
    45  H    0.135160
    46  H    0.121289
    47  C   -0.451155
    48  H    0.128919
    49  H    0.140081
    50  H    0.155477
    51  C   -0.217766
    52  H    0.114087
    53  C   -0.287373
    54  H    0.138879
    55  H    0.121419
    56  C   -0.415047
    57  H    0.134531
    58  H    0.135563
    59  H    0.118666
    60  C   -0.417150
    61  H    0.119164
    62  H    0.131937
    63  H    0.135578
    64  O   -0.567272
    65  H    0.357051
    66  H    0.323940
    67  C   -0.393682
    68  H    0.147018
    69  H    0.137810
    70  H    0.132218
    71  N   -0.232669
    72  H    0.234840
    73  C    0.183255
    74  C    0.009512
    75  H    0.177226
    76  N    0.080605
    77  C   -0.232848
    78  H    0.163844
 Sum of Mulliken charges =  -0.00000
 Mulliken charges with hydrogens summed into heavy atoms:
               1
     1  Fe  -0.261541
     2  N   -0.099978
     3  N   -0.005116
     4  N   -0.030608
     5  N   -0.008478
     6  C    0.268490
     7  C   -0.058372
     8  C   -0.010806
     9  C    0.120490
    10  C    0.193238
    11  C   -0.049272
    12  C    0.031594
    13  C    0.247796
    14  C    0.246493
    15  C   -0.066803
    16  C    0.076577
    17  C    0.186505
    18  C    0.171640
    19  C   -0.023486
    20  C   -0.060880
    21  C    0.265081
    22  C   -0.328843
    24  C   -0.275091
    26  C   -0.312264
    28  C   -0.316270
    30  C   -0.027014
    34  C   -0.022467
    38  C   -0.026785
    42  C   -0.098678
    44  C   -0.031808
    47  C   -0.026679
    51  C   -0.103678
    53  C   -0.027076
    56  C   -0.026286
    60  C   -0.030471
    64  O    0.113719
    67  C    0.023364
    71  N    0.002170
    73  C    0.183255
    74  C    0.186737
    76  N    0.080605
    77  C   -0.069005
 Electronic spatial extent (au):  <R**2>=          19865.8777
 Charge=              0.0000 electrons
 Dipole moment (field-independent basis, Debye):
    X=              1.2548    Y=             -1.7530    Z=              3.4768  Tot=              4.0909
 Quadrupole moment (field-independent basis, Debye-Ang):
   XX=           -240.3581   YY=           -246.5895   ZZ=           -223.5980
   XY=             -2.5087   XZ=              3.8325   YZ=             -0.2151
 Traceless Quadrupole moment (field-independent basis, Debye-Ang):
   XX=             -3.5095   YY=             -9.7410   ZZ=             13.2505
   XY=             -2.5087   XZ=              3.8325   YZ=             -0.2151
 Octapole moment (field-independent basis, Debye-Ang**2):
  XXX=             18.7999  YYY=            -34.7244  ZZZ=             75.2669  XYY=             -6.7005
  XXY=            -33.6638  XXZ=              9.9687  XZZ=             21.6944  YZZ=            -20.5451
  YYZ=             -4.3059  XYZ=              4.6615
 Hexadecapole moment (field-independent basis, Debye-Ang**3):
 XXXX=         -11970.2033 YYYY=         -11560.1441 ZZZZ=          -2649.8594 XXXY=             -3.3683
 XXXZ=             74.3124 YYYX=            -50.2841 YYYZ=             45.7570 ZZZX=             58.4238
 ZZZY=            -29.1136 XXYY=          -4002.3394 XXZZ=          -2592.8343 YYZZ=          -2647.4940
 XXYZ=             59.8629 YYXZ=            -21.3099 ZZXY=            -18.6770
 N-N= 5.979739382434D+03 E-N=-1.897382236585D+04  KE= 2.973879019032D+03
  Exact polarizability:     715.451      -1.964     697.158       8.034      12.220     310.471
 Approx polarizability:    1330.750      -7.107    1285.533      25.021      24.442     500.022

 ----------------------------------------------------------------------

 Electric dipole moment (input orientation):
 (Debye = 10**-18 statcoulomb cm , SI units = C m)
                  (au)            (Debye)         (10**-30 SI)
   Tot        0.160949D+01      0.409091D+01      0.136458D+02
   x          0.991502D+00      0.252015D+01      0.840631D+01
   y          0.833059D-01      0.211742D+00      0.706297D+00
   z         -0.126508D+01     -0.321552D+01     -0.107258D+02

 Dipole polarizability, Alpha (input orientation).
 (esu units = cm**3 , SI units = C**2 m**2 J**-1)
 Alpha(0;0):
               (au)            (10**-24 esu)      (10**-40 SI)
   iso        0.574360D+03      0.851114D+02      0.946992D+02
   aniso      0.396974D+03      0.588255D+02      0.654522D+02
   xx         0.608524D+03      0.901740D+02      0.100332D+03
   yx        -0.101138D+03     -0.149870D+02     -0.166753D+02
   yy         0.583902D+03      0.865253D+02      0.962724D+02
   zx         0.130075D+03      0.192751D+02      0.214465D+02
   zy         0.154263D+03      0.228593D+02      0.254345D+02
   zz         0.530654D+03      0.786348D+02      0.874930D+02

 First dipole hyperpolarizability, Beta (input orientation).
 ||, _|_  parallel and perpendicular components, (z) with respect to z axis,
 vector components x,y,z.  Values do not include the 1/n! factor of 1/2.
 (esu units = statvolt**-1 cm**4 , SI units = C**3 m**3 J**-2)
 Beta(0;0,0):
               (au)            (10**-30 esu)      (10**-50 SI)
   || (z)    -0.108624D+03     -0.938425D+00     -0.348287D+00
   _|_(z)    -0.362079D+02     -0.312808D+00     -0.116096D+00
   x         -0.423003D+04     -0.365442D+02     -0.135630D+02
   y          0.404927D+04      0.349825D+02      0.129834D+02
   z         -0.543119D+03     -0.469213D+01     -0.174144D+01
   ||         0.117618D+04      0.101612D+02      0.377125D+01
   xxx       -0.736683D+03     -0.636436D+01     -0.236207D+01
   xxy        0.116129D+03      0.100327D+01      0.372353D+00
   yxy       -0.483330D+02     -0.417560D+00     -0.154973D+00
   yyy        0.477441D+03      0.412472D+01      0.153085D+01
   xxz       -0.705704D+03     -0.609673D+01     -0.226274D+01
   yxz       -0.113805D+03     -0.983186D+00     -0.364900D+00
   yyz        0.511631D+03      0.442009D+01      0.164047D+01
   zxz       -0.624996D+03     -0.539948D+01     -0.200396D+01
   zyz        0.756186D+03      0.653286D+01      0.242461D+01
   zzz        0.130332D+02      0.112597D+00      0.417893D-01

 ----------------------------------------------------------------------

 Dipole orientation:
    26         66.03916500        124.32632262       -208.55412936
     7         65.90798927        127.66879584       -206.80119968
     7         62.26682871        124.33737164       -208.91464752
     7         66.19353921        121.19454858       -210.65720645
     7         69.80123762        124.36891474       -208.32227935
     6         67.85115294        128.84864607       -205.59513344
     6         66.99673809        131.17075038       -204.43927274
     6         64.44238370        131.22104601       -204.73089194
     6         63.78267104        128.93662265       -206.07974312
     6         60.64582373        126.09861788       -207.97434905
     6         58.06002809        125.36812368       -208.40473534
     6         58.14115837        123.00759690       -209.46645786
     6         60.79949012        122.43682695       -209.82245291
     6         64.21046845        119.80237884       -211.51864623
     6         65.07543241        117.71997370       -213.04426017
     6         67.66092140        117.85066402       -213.05245099
     6         68.30972317        120.02178442       -211.51078989
     6         71.41872877        122.60297068       -209.24627123
     6         73.96134864        123.05162669       -208.34738108
     6         73.83445508        125.12922347       -206.84086515
     6         71.21813696        125.92274748       -206.84804658
     6         70.33793044        128.04766236       -205.60833128
     1         71.68838191        129.15121339       -204.55016309
     6         61.34616119        128.32808570       -206.79091777
     1         59.85144977        129.56824797       -206.16574940
     6         61.68821573        120.31750819       -211.05440460
     1         60.31870482        118.96424173       -211.72676875
     6         70.75710041        120.62631125       -210.81968486
     1         72.25633653        119.42386171       -211.50419202
     6         62.58405076        133.15124133       -203.86131767
     1         63.53439133        134.69977331       -202.90212281
     1         61.22805346        132.31564499       -202.55383593
     1         61.53537618        133.92359199       -205.45794352
     6         68.68547090        133.02380347       -203.15641169
     1         70.14877292        133.68313211       -204.44747775
     1         69.61282405        132.15644212       -201.53343403
     1         67.61993905        134.65229900       -202.49776676
     6         55.80721205        126.94536607       -207.80666337
     1         56.17582575        128.92532235       -208.23025465
     1         55.30692206        126.80221406       -205.81024015
     1         54.19695499        126.32269272       -208.92361719
     6         56.07789352        121.39334796       -210.23948626
     1         56.43596312        120.21598273       -211.87632760
     6         53.84342254        121.23277926       -209.10223196
     1         53.40437885        122.28231588       -207.41703198
     1         52.38216054        119.99787192       -209.79917239
     6         63.40882721        115.92245246       -214.42634472
     1         61.75783839        116.89297450       -215.17933759
     1         62.75093332        114.41959389       -213.17649604
     1         64.43638985        115.06498841       -215.98753544
     6         69.47899289        116.25620468       -214.32474472
     1         71.18286948        117.19862167       -214.96218631
     6         69.22364446        113.79184788       -214.73957625
     1         67.61551757        112.74261606       -214.07070206
     1         70.64889916        112.72488593       -215.72773099
     6         76.18756833        121.46371097       -209.02227412
     1         76.50544586        121.49075160       -211.05787210
     1         75.88326369        119.50743779       -208.45136504
     1         77.88688680        122.15305106       -208.09543375
     6         75.88891165        126.42786681       -205.41728746
     1         77.66002570        125.40182364       -205.59165606
     1         75.41126919        126.56427013       -203.41886214
     1         76.17458139        128.33673505       -206.13747241
     8         66.29649117        126.67797345       -212.12728119
     1         66.23353988        128.40454474       -211.59069644
     1         66.37514245        126.13436222       -213.71517479
     6         67.32247260        117.44193666       -200.70268285
     1         68.90757158        116.50256266       -201.60425024
     1         65.81378781        116.06665639       -200.42634539
     1         67.92007376        118.12294456       -198.85331362
     7         64.58833162        121.20552590       -201.56689179
     1         63.64881504        121.14215275       -199.91401698
     6         66.45051947        119.56823570       -202.31270189
     6         64.24736454        122.90006965       -203.44979679
     1         62.90293634        124.41055573       -203.38776119
     7         65.77976619        122.43477081       -205.34092773
     6         67.16153857        120.36651657       -204.66099170
     1         68.56333057        119.59890294       -205.90084035

 Electric dipole moment (dipole orientation):
 (Debye = 10**-18 statcoulomb cm , SI units = C m)
                  (au)            (Debye)         (10**-30 SI)
   Tot        0.160949D+01      0.409091D+01      0.136458D+02
   x          0.000000D+00      0.000000D+00      0.000000D+00
   y          0.000000D+00      0.000000D+00      0.000000D+00
   z          0.160949D+01      0.409091D+01      0.136458D+02

 Dipole polarizability, Alpha (dipole orientation).
 (esu units = cm**3 , SI units = C**2 m**2 J**-1)
 Alpha(0;0):
               (au)            (10**-24 esu)      (10**-40 SI)
   iso        0.574360D+03      0.851114D+02      0.946992D+02
   aniso      0.396974D+03      0.588255D+02      0.654522D+02
   xx         0.704624D+03      0.104414D+03      0.116177D+03
   yx        -0.170135D+02     -0.252114D+01     -0.280515D+01
   yy         0.603077D+03      0.893668D+02      0.994340D+02
   zx         0.106494D+02      0.157808D+01      0.175585D+01
   zy         0.174907D+03      0.259185D+02      0.288382D+02
   zz         0.415379D+03      0.615528D+02      0.684867D+02

 First dipole hyperpolarizability, Beta (dipole orientation).
 ||, _|_  parallel and perpendicular components, (z) with respect to z axis,
 vector components x,y,z.  Values do not include the 1/n! factor of 1/2.
 (esu units = statvolt**-1 cm**4 , SI units = C**3 m**3 J**-2)
 Beta(0;0,0):
               (au)            (10**-30 esu)      (10**-50 SI)
   || (z)    -0.393873D+03     -0.340276D+01     -0.126290D+01
   _|_(z)    -0.131291D+03     -0.113425D+01     -0.420967D+00
   x         -0.373809D+04     -0.322942D+02     -0.119857D+02
   y         -0.409060D+04     -0.353396D+02     -0.131159D+02
   z         -0.196937D+04     -0.170138D+02     -0.631450D+01
   ||         0.117618D+04      0.101612D+02      0.377125D+01
   xxx       -0.173902D+04     -0.150237D+02     -0.557591D+01
   xxy       -0.208629D+03     -0.180239D+01     -0.668939D+00
   yxy        0.305020D+03      0.263513D+01      0.978003D+00
   yyy       -0.563953D+03     -0.487212D+01     -0.180824D+01
   xxz       -0.102944D+02     -0.889357D-01     -0.330076D-01
   yxz        0.271267D+03      0.234354D+01      0.869780D+00
   yyz       -0.478602D+03     -0.413475D+01     -0.153457D+01
   zxz        0.187966D+03      0.162388D+01      0.602686D+00
   zyz       -0.590952D+03     -0.510537D+01     -0.189481D+01
   zzz       -0.167559D+03     -0.144758D+01     -0.537255D+00

 ----------------------------------------------------------------------
 Unable to Open any file for archive entry.
 1\1\GINC-BGN1017\SP\RAPFD\def2TZVP\C34H36Fe1N6O1\BEBJONES\18-Nov-2024\
 0\\# polar def2tzvp apfd int=(grid=ultrafine)\\4nvf_II_S\\0,1\Fe,0,-39
 .2916338194,-72.0281275683,104.8693027753\N,0,-38.7432802766,-73.74498
 33832,104.0058745117\N,0,-40.9811211942,-72.0082016179,103.7892020599\
 N,0,-39.9424745461,-70.4324113564,105.8801633956\N,0,-37.6478617322,-7
 2.0798238453,105.998106817\C,0,-37.5291806595,-74.3537205266,104.10536
 1977\C,0,-37.4865060486,-75.5409512143,103.2824568363\C,0,-38.64558609
 28,-75.5513820992,102.5696759408\C,0,-39.3818084791,-74.3750428758,102
 .9782278587\C,0,-41.3334819893,-72.8977461505,102.8214175313\C,0,-42.5
 58278111,-72.4991243893,102.1774917212\C,0,-42.8928823522,-71.28170797
 63,102.7102084569\C,0,-41.9065056329,-71.0149874287,103.7405105283\C,0
 ,-41.0628651402,-69.7016718243,105.6301374675\C,0,-41.2194157528,-68.6
 51321348,106.6037119396\C,0,-40.1433867393,-68.7450263276,107.44638873
 91\C,0,-39.3499271686,-69.8561140333,106.9571856492\C,0,-37.291693838,
 -71.1873172274,106.9580919506\C,0,-35.9348245629,-71.4237802284,107.40
 07920834\C,0,-35.476965211,-72.4790859515,106.6758982331\C,0,-36.56212
 16614,-72.8738503137,105.8042512601\C,0,-36.5047223112,-73.9543489502,
 104.9434606101\H,0,-35.5865612296,-74.5212221965,104.9133352324\C,0,-4
 0.6347746106,-74.0499624032,102.4964192086\H,0,-41.0421572702,-74.6739
 992903,101.7151534992\C,0,-41.9577710331,-69.9373135332,104.600695853\
 H,0,-42.7604648655,-69.2277476156,104.4709757477\C,0,-38.0990126378,-7
 0.1797279977,107.4509946108\H,0,-37.7087320781,-69.5772859156,108.2573
 838562\C,0,-39.1183092361,-76.5298915323,101.5493139718\H,0,-38.394949
 1342,-77.3308162224,101.4177346888\H,0,-39.2650663588,-76.0397539774,1
 00.5863202111\H,0,-40.0685199808,-76.9718129393,101.8504025645\C,0,-36
 .3470422444,-76.5008905075,103.248620749\H,0,-36.151881336,-76.8984552
 554,104.2445950025\H,0,-35.4396975325,-76.0068990902,102.8996238173\H,
 0,-36.5609888106,-77.3332539608,102.5827035992\C,0,-43.2872384099,-73.
 2948489119,101.1511276982\H,0,-43.2530062207,-74.3561095502,101.393251
 4656\H,0,-42.8462607272,-73.1598016579,100.1615626269\H,0,-44.32829029
 08,-72.9812191254,101.1078386862\C,0,-44.0199692901,-70.4304462746,102
 .4033486201\H,0,-44.4154697044,-69.8565615929,103.2331546468\C,0,-44.5
 819329917,-70.293345393,101.2062949802\H,0,-44.2056204399,-70.79759803
 45,100.3334788599\H,0,-45.4297562385,-69.6461248174,101.0536451863\C,0
 ,-42.3814796651,-67.7236509215,106.6845116283\H,0,-43.3058059593,-68.2
 414855684,106.4329205599\H,0,-42.2624042621,-66.8891168373,105.9913423
 71\H,0,-42.4702949708,-67.323049606,107.6923389492\C,0,-39.8155535803,
 -67.9545642784,108.611937777\H,0,-39.3043857884,-68.4860783574,109.406
 7141939\C,0,-40.0804798161,-66.6613887379,108.7687401182\H,0,-40.54250
 76582,-66.07347912,107.995028879\H,0,-39.8187366966,-66.138153978,109.
 673600647\C,0,-35.2420918091,-70.6242689374,108.4507313173\H,0,-35.772
 9548182,-70.6973145354,109.4003060087\H,0,-35.2012759381,-69.572094599
 ,108.167647546\H,0,-34.2252705948,-70.9791728965,108.6003037494\C,0,-3
 4.1444565753,-73.1456852305,106.7179405634\H,0,-33.4729070826,-72.6250
 492747,107.3959403758\H,0,-33.6907471398,-73.1585095038,105.7272686874
 \H,0,-34.2421489038,-74.1767241727,107.058337943\O,0,-40.327,-73.371,1
 06.375\H,0,-40.162,-74.268,106.084\H,0,-40.817,-73.128,107.076\C,0,-36
 .2623624634,-68.1876061039,102.2104707435\H,0,-35.9045744166,-67.73092
 52004,103.1279293907\H,0,-36.8139935199,-67.439108858,101.6413796016\H
 ,0,-35.4040071381,-68.5024312519,101.6174019923\N,0,-37.647944959,-70.
 1740644859,101.5755381824\H,0,-37.5012489271,-70.0864312579,100.583499
 5466\C,0,-37.1305019894,-69.3469678082,102.5376555446\C,0,-38.38784153
 17,-71.1177845523,102.2011506374\H,0,-38.9136189653,-71.9014999589,101
 .695702277\N,0,-38.3701256561,-70.9382032373,103.5000460867\C,0,-37.59
 21779842,-69.8398027034,103.7243287356\H,0,-37.4194348235,-69.48141083
 53,104.7180314517\\Version=ES64L-G16RevC.02\State=1-A\HF=-2984.024459\
 RMSD=2.169e-09\Dipole=0.9915023,0.0833059,-1.2650819\Polar=608.5244613
 ,-101.1375166,583.9015525,130.0749008,154.2625318,530.6536076\HyperPol
 ar=-736.6827292,116.1294113,-48.3330377,477.4409095,-705.7039851,-113.
 8049743,511.6310068,-624.9956479,756.1861159,13.0332353\Quadrupole=-5.
 1019067,-0.9157092,6.0176159,3.5602409,-5.4787121,-3.9428434\PG=C01 [X
 (C34H36Fe1N6O1)]\\@
 The archive entry for this job was punched.


 ONE BIG VICE IN A MAN IS APT TO KEEP OUT MANY SMALLER ONES.

                           -- BRET HARTE
 Job cpu time:       2 days  5 hours  8 minutes 51.4 seconds.
 Elapsed time:       0 days  0 hours 46 minutes  1.5 seconds.
 File lengths (MBytes):  RWF=   1208 Int=      0 D2E=      0 Chk=    155 Scr=      1
 Normal termination of Gaussian 16 at Mon Nov 18 16:09:41 2024.
 Initial command:
 /sw/chem/gaussian/g16_C02/a100/g16/l1.exe "/local/bebjones_8087488/Gau-752243.inp" -scrdir="/local/bebjones_8087488/"
 Entering Link 1 = /sw/chem/gaussian/g16_C02/a100/g16/l1.exe PID=    754087.
  
 Copyright (c) 1988-2021, Gaussian, Inc.  All Rights Reserved.
  
 This is part of the Gaussian(R) 16 program.  It is based on
 the Gaussian(R) 09 system (copyright 2009, Gaussian, Inc.),
 the Gaussian(R) 03 system (copyright 2003, Gaussian, Inc.),
 the Gaussian(R) 98 system (copyright 1998, Gaussian, Inc.),
 the Gaussian(R) 94 system (copyright 1995, Gaussian, Inc.),
 the Gaussian 92(TM) system (copyright 1992, Gaussian, Inc.),
 the Gaussian 90(TM) system (copyright 1990, Gaussian, Inc.),
 the Gaussian 88(TM) system (copyright 1988, Gaussian, Inc.),
 the Gaussian 86(TM) system (copyright 1986, Carnegie Mellon
 University), and the Gaussian 82(TM) system (copyright 1983,
 Carnegie Mellon University). Gaussian is a federally registered
 trademark of Gaussian, Inc.
  
 This software contains proprietary and confidential information,
 including trade secrets, belonging to Gaussian, Inc.
  
 This software is provided under written license and may be
 used, copied, transmitted, or stored only in accord with that
 written license.
  
 The following legend is applicable only to US Government
 contracts under FAR:
  
                    RESTRICTED RIGHTS LEGEND
  
 Use, reproduction and disclosure by the US Government is
 subject to restrictions as set forth in subparagraphs (a)
 and (c) of the Commercial Computer Software - Restricted
 Rights clause in FAR 52.227-19.
  
 Gaussian, Inc.
 340 Quinnipiac St., Bldg. 40, Wallingford CT 06492
  
  
 ---------------------------------------------------------------
 Warning -- This program may not be used in any manner that
 competes with the business of Gaussian, Inc. or will provide
 assistance to any competitor of Gaussian, Inc.  The licensee
 of this program is prohibited from giving any competitor of
 Gaussian, Inc. access to this program.  By using this program,
 the user acknowledges that Gaussian, Inc. is engaged in the
 business of creating and licensing software in the field of
 computational chemistry and represents and warrants to the
 licensee that it is not a competitor of Gaussian, Inc. and that
[...]
   142. CR (   1) C  73                  1.99915   -10.08882  1409(v),1526(g),1532(v)
                                                    1254(v)
   143. CR (   1) C  74                  1.99935   -10.12122  1382(v),1523(v),1531(v)
                                                    151(r),150(r),154(r)
   144. CR (   1) N  76                  1.99932   -14.15256  150(r),151(r),154(r),1350(v)
                                                    1407(v),1528(v),172(r)
                                                    168(r),175(r)
   145. CR (   1) C  77                  1.99898   -10.05882  1522(v),1324(v),1526(g)
                                                    1383(v),1434(v),1327(v)
                                                    150(r),151(r)
   163. LP (   1) N  71                  1.57915    -0.28379  1530(v),1527(v),1353(v)
                                                    1325(v),1319(v)
   164. LP (   1) N  76                  1.60839    -0.36427  150(r),151(r),154(r),1525(v)
                                                    1526(v),1350(v),1528(v)
                                                    1532(v),1529(g),1384(g)
                                                    1407(v),1531(g),170(r)
                                                    1383(g),247(r),195(r),273(r)
                                                    221(r),183(r),246(r),158(r)
                                                    220(r),1446(r),1439(r)
                                                    194(r),1441(r),179(r),272(r)
                                                    1445(r),1440(r),1442(r)
                                                    1448(r),1438(r),1447(r)
                                                    1444(r),244(r),1443(r)
                                                    175(r),187(r),218(r),192(r)
                                                    169(r),252(r),270(r)
  1252. RY*(   1) C  67                  0.00118     1.15610   
  1253. RY*(   2) C  67                  0.00078     2.00139   
  1254. RY*(   3) C  67                  0.00051     1.33307   
  1255. RY*(   4) C  67                  0.00012     1.28521   
  1256. RY*(   5) C  67                  0.00008     2.23303   
  1257. RY*(   6) C  67                  0.00007     1.27141   
  1258. RY*(   7) C  67                  0.00003     1.99471   
  1259. RY*(   8) C  67                  0.00001     1.80179   
  1260. RY*(   9) C  67                  0.00001     1.47769   
  1261. RY*(  10) C  67                  0.00001     1.44004   
  1262. RY*(  11) C  67                  0.00000     3.00362   
  1263. RY*(  12) C  67                  0.00000     3.13242   
  1264. RY*(  13) C  67                  0.00000     2.51326   
  1265. RY*(  14) C  67                  0.00000     2.85469   
  1266. RY*(  15) C  67                  0.00000     2.22585   
  1267. RY*(  16) C  67                  0.00000     3.02217   
  1268. RY*(  17) C  67                  0.00000     2.47742   
  1269. RY*(  18) C  67                  0.00000    21.57429   
  1270. RY*(  19) C  67                  0.00001     2.63625   
  1271. RY*(  20) C  67                  0.00000     3.67056   
  1272. RY*(  21) C  67                  0.00001     3.15995   
  1273. RY*(  22) C  67                  0.00000     2.96170   
  1274. RY*(  23) C  67                  0.00000     3.72277   
  1275. RY*(  24) C  67                  0.00000     3.36806   
  1276. RY*(  25) C  67                  0.00000     3.42912   
  1277. RY*(  26) C  67                  0.00000     3.24079   
  1278. RY*(   1) H  68                  0.00024     1.38021   
  1279. RY*(   2) H  68                  0.00012     1.75416   
  1280. RY*(   3) H  68                  0.00008     2.05362   
  1281. RY*(   4) H  68                  0.00002     1.59661   
  1282. RY*(   5) H  68                  0.00001     2.85830   
  1283. RY*(   1) H  69                  0.00075     1.01183   
  1284. RY*(   2) H  69                  0.00014     1.69457   
  1285. RY*(   3) H  69                  0.00008     1.94485   
  1286. RY*(   4) H  69                  0.00006     2.01625   
  1287. RY*(   5) H  69                  0.00000     2.88271   
  1288. RY*(   1) H  70                  0.00071     0.99432   
  1289. RY*(   2) H  70                  0.00015     1.69047   
  1290. RY*(   3) H  70                  0.00008     1.97480   
  1291. RY*(   4) H  70                  0.00006     2.00882   
  1292. RY*(   5) H  70                  0.00000     2.88013   
  1293. RY*(   1) N  71                  0.00282     0.67201   
  1294. RY*(   2) N  71                  0.00224     1.77754   
  1295. RY*(   3) N  71                  0.00099     2.07921   
  1296. RY*(   4) N  71                  0.00078     2.16243   
  1297. RY*(   5) N  71                  0.00053     1.16423   
  1298. RY*(   6) N  71                  0.00026     2.07207   
  1299. RY*(   7) N  71                  0.00020     1.70473   
  1300. RY*(   8) N  71                  0.00007     2.32544   
  1301. RY*(   9) N  71                  0.00007     2.25772   
  1302. RY*(  10) N  71                  0.00006     3.91366   
  1303. RY*(  11) N  71                  0.00004     2.94487   
  1304. RY*(  12) N  71                  0.00000     2.10705   
  1305. RY*(  13) N  71                  0.00001     4.31277   
  1306. RY*(  14) N  71                  0.00001     3.80969   
  1307. RY*(  15) N  71                  0.00000     3.50680   
  1308. RY*(  16) N  71                  0.00000     2.48393   
  1309. RY*(  17) N  71                  0.00000     4.67144   
  1310. RY*(  18) N  71                  0.00000    30.55139   
  1311. RY*(  19) N  71                  0.00001     3.78437   
  1312. RY*(  20) N  71                  0.00000     4.62834   
  1313. RY*(  21) N  71                  0.00000     4.84241   
  1314. RY*(  22) N  71                  0.00000     4.35953   
  1315. RY*(  23) N  71                  0.00000     4.59069   
  1316. RY*(  24) N  71                  0.00000     4.28444   
  1317. RY*(  25) N  71                  0.00000     4.46471   
  1318. RY*(  26) N  71                  0.00000     4.40672   
  1319. RY*(   1) H  72                  0.00058     2.15196   
  1320. RY*(   2) H  72                  0.00039     2.12604   
  1321. RY*(   3) H  72                  0.00030     1.06099   
  1322. RY*(   4) H  72                  0.00021     2.50699   
  1323. RY*(   5) H  72                  0.00001     3.08342   
  1324. RY*(   1) C  73                  0.00406     1.69374   
  1325. RY*(   2) C  73                  0.00261     0.99073   
  1326. RY*(   3) C  73                  0.00191     1.48503   
  1327. RY*(   4) C  73                  0.00162     2.04095   
  1328. RY*(   5) C  73                  0.00123     1.75110   
  1329. RY*(   6) C  73                  0.00109     1.72459   
  1330. RY*(   7) C  73                  0.00038     2.84098   
  1331. RY*(   8) C  73                  0.00019     2.73983   
  1332. RY*(   9) C  73                  0.00016     2.51436   
  1333. RY*(  10) C  73                  0.00007     3.62132   
  1334. RY*(  11) C  73                  0.00003     2.72089   
  1335. RY*(  12) C  73                  0.00002     2.00867   
  1336. RY*(  13) C  73                  0.00001     1.40976   
  1337. RY*(  14) C  73                  0.00001     2.01042   
  1338. RY*(  15) C  73                  0.00001     2.82321   
  1339. RY*(  16) C  73                  0.00000     1.09072   
  1340. RY*(  17) C  73                  0.00000     3.35158   
  1341. RY*(  18) C  73                  0.00001     1.62320   
  1342. RY*(  19) C  73                  0.00000    21.27658   
  1343. RY*(  20) C  73                  0.00000     4.08323   
  1344. RY*(  21) C  73                  0.00000     3.67749   
  1345. RY*(  22) C  73                  0.00000     3.51134   
  1346. RY*(  23) C  73                  0.00000     3.74601   
  1347. RY*(  24) C  73                  0.00000     3.33654   
  1348. RY*(  25) C  73                  0.00000     3.58689   
  1349. RY*(  26) C  73                  0.00000     3.50131   
  1350. RY*(   1) C  74                  0.00407     1.60123   
  1351. RY*(   2) C  74                  0.00330     0.67995   
  1352. RY*(   3) C  74                  0.00202     1.33042   
  1353. RY*(   4) C  74                  0.00128     2.55844   
  1354. RY*(   5) C  74                  0.00079     1.64543   
  1355. RY*(   6) C  74                  0.00039     1.67557   
  1356. RY*(   7) C  74                  0.00026     1.88523   
  1357. RY*(   8) C  74                  0.00009     2.80335   
  1358. RY*(   9) C  74                  0.00005     1.96842   
  1359. RY*(  10) C  74                  0.00005     2.54423   
  1360. RY*(  11) C  74                  0.00004     3.53400   
  1361. RY*(  12) C  74                  0.00004     1.55307   
  1362. RY*(  13) C  74                  0.00003     2.64397   
  1363. RY*(  14) C  74                  0.00001     2.52079   
  1364. RY*(  15) C  74                  0.00001     2.64597   
  1365. RY*(  16) C  74                  0.00000     3.65094   
  1366. RY*(  17) C  74                  0.00001     2.93321   
  1367. RY*(  18) C  74                  0.00000     3.19435   
  1368. RY*(  19) C  74                  0.00000    21.40692   
  1369. RY*(  20) C  74                  0.00001     3.93845   
  1370. RY*(  21) C  74                  0.00001     4.03865   
  1371. RY*(  22) C  74                  0.00000     3.56893   
  1372. RY*(  23) C  74                  0.00000     3.77578   
  1373. RY*(  24) C  74                  0.00000     3.49305   
  1374. RY*(  25) C  74                  0.00000     3.48409   
  1375. RY*(  26) C  74                  0.00000     3.33874   
  1376. RY*(   1) H  75                  0.00059     0.79425   
  1377. RY*(   2) H  75                  0.00030     2.41103   
  1378. RY*(   3) H  75                  0.00021     2.12852   
  1379. RY*(   4) H  75                  0.00012     2.40523   
  1380. RY*(   5) H  75                  0.00002     3.15040   
  1381. RY*(   1) N  76                  0.00738     0.87583   
  1382. RY*(   2) N  76                  0.00723     1.31072   
  1383. RY*(   3) N  76                  0.00599     1.44244   
  1384. RY*(   4) N  76                  0.00080     1.56089   
  1385. RY*(   5) N  76                  0.00072     1.72185   
  1386. RY*(   6) N  76                  0.00054     1.96940   
  1387. RY*(   7) N  76                  0.00037     3.42479   
  1388. RY*(   8) N  76                  0.00033     3.19871   
  1389. RY*(   9) N  76                  0.00012     2.90806   
  1390. RY*(  10) N  76                  0.00009     2.44398   
  1391. RY*(  11) N  76                  0.00008     3.36827   
  1392. RY*(  12) N  76                  0.00008     3.22705   
  1393. RY*(  13) N  76                  0.00006     3.11234   
  1394. RY*(  14) N  76                  0.00004     3.68012   
  1395. RY*(  15) N  76                  0.00001     4.53000   
  1396. RY*(  16) N  76                  0.00002     4.26469   
  1397. RY*(  17) N  76                  0.00001     4.23315   
  1398. RY*(  18) N  76                  0.00002     4.75709   
  1399. RY*(  19) N  76                  0.00000     4.77150   
  1400. RY*(  20) N  76                  0.00000     4.41703   
  1401. RY*(  21) N  76                  0.00000    31.64141   
  1402. RY*(  22) N  76                  0.00000     4.15439   
  1403. RY*(  23) N  76                  0.00000     4.81617   
  1404. RY*(  24) N  76                  0.00000     4.66802   
  1405. RY*(  25) N  76                  0.00000     4.80830   
  1406. RY*(  26) N  76                  0.00000     4.49131   
  1407. RY*(   1) C  77                  0.00397     1.50082   
  1408. RY*(   2) C  77                  0.00259     0.72733   
  1409. RY*(   3) C  77                  0.00170     1.83235   
  1410. RY*(   4) C  77                  0.00068     1.90532   
  1411. RY*(   5) C  77                  0.00058     1.63784   
  1412. RY*(   6) C  77                  0.00047     1.73122   
  1413. RY*(   7) C  77                  0.00044     2.21975   
  1414. RY*(   8) C  77                  0.00024     1.45351   
  1415. RY*(   9) C  77                  0.00020     1.75269   
  1416. RY*(  10) C  77                  0.00017     1.84314   
  1417. RY*(  11) C  77                  0.00011     1.18231   
  1418. RY*(  12) C  77                  0.00005     1.81613   
  1419. RY*(  13) C  77                  0.00006     2.27642   
  1420. RY*(  14) C  77                  0.00004     3.06272   
  1421. RY*(  15) C  77                  0.00003     1.54836   
  1422. RY*(  16) C  77                  0.00002     3.30113   
  1423. RY*(  17) C  77                  0.00000     3.65409   
  1424. RY*(  18) C  77                  0.00000     3.24225   
  1425. RY*(  19) C  77                  0.00000    21.64450   
  1426. RY*(  20) C  77                  0.00001     3.97079   
  1427. RY*(  21) C  77                  0.00001     4.08798   
  1428. RY*(  22) C  77                  0.00000     3.46088   
  1429. RY*(  23) C  77                  0.00000     3.77737   
  1430. RY*(  24) C  77                  0.00000     3.37490   
  1431. RY*(  25) C  77                  0.00000     3.71777   
  1432. RY*(  26) C  77                  0.00000     3.39689   
  1433. RY*(   1) H  78                  0.00053     0.71317   
  1434. RY*(   2) H  78                  0.00033     2.31937   
  1435. RY*(   3) H  78                  0.00024     2.29367   
  1436. RY*(   4) H  78                  0.00008     2.74016   
  1437. RY*(   5) H  78                  0.00001     3.11577   
  1519. BD*(   1) C  67 - H  68          0.00348     0.37297   
  1520. BD*(   1) C  67 - H  69          0.01248     0.35973   
  1521. BD*(   1) C  67 - H  70          0.01113     0.35908   
  1522. BD*(   1) C  67 - C  73          0.01370     0.38919   
  1523. BD*(   1) N  71 - H  72          0.01418     0.36705   
  1524. BD*(   1) N  71 - C  73          0.02717     0.43009   
  1525. BD*(   1) N  71 - C  74          0.02236     0.44698   
  1526. BD*(   1) C  73 - C  77          0.02102     0.56644   
  1527. BD*(   2) C  73 - C  77          0.29936     0.03511  1530(v),1520(v),1521(v)
                                                    1413(g),1328(g)
  1528. BD*(   1) C  74 - H  75          0.01806     0.39147   
  1529. BD*(   1) C  74 - N  76          0.01643     0.53638   
  1530. BD*(   2) C  74 - N  76          0.42142    -0.00600  1527(v),1351(g),1381(g)
                                                    1408(v),153(r),1440(r)
                                                    1448(r)
  1531. BD*(   1) N  76 - C  77          0.01663     0.48022   
  1532. BD*(   1) C  77 - H  78          0.01437     0.43263   
       -------------------------------
              Total Lewis   42.68659  ( 97.7326%)
        Valence non-Lewis    0.91178  (  2.0876%)
        Rydberg non-Lewis    0.07854  (  0.1798%)
       -------------------------------
            Total unit  4   43.67692  (100.0000%)
           Charge unit  4    0.32308
 Unable to Open any file for archive entry.
 1\1\GINC-BGN1017\SP\RAPFD\def2TZVP\C34H36Fe1N6O1\BEBJONES\18-Nov-2024\
 0\\# apfd/def2TZVP int=(grid=ultrafine) geom=check guess=read pop=nbo 
 scf=qc\\4nvf_II_S_nbo\\0,1\Fe,0,-39.2916338194,-72.0281275683,104.8693
 027753\N,0,-38.7432802766,-73.7449833832,104.0058745117\N,0,-40.981121
 1942,-72.0082016179,103.7892020599\N,0,-39.9424745461,-70.4324113564,1
 05.8801633956\N,0,-37.6478617322,-72.0798238453,105.998106817\C,0,-37.
 5291806595,-74.3537205266,104.105361977\C,0,-37.4865060486,-75.5409512
 143,103.2824568363\C,0,-38.6455860928,-75.5513820992,102.5696759408\C,
 0,-39.3818084791,-74.3750428758,102.9782278587\C,0,-41.3334819893,-72.
 8977461505,102.8214175313\C,0,-42.558278111,-72.4991243893,102.1774917
 212\C,0,-42.8928823522,-71.2817079763,102.7102084569\C,0,-41.906505632
 9,-71.0149874287,103.7405105283\C,0,-41.0628651402,-69.7016718243,105.
 6301374675\C,0,-41.2194157528,-68.651321348,106.6037119396\C,0,-40.143
 3867393,-68.7450263276,107.4463887391\C,0,-39.3499271686,-69.856114033
 3,106.9571856492\C,0,-37.291693838,-71.1873172274,106.9580919506\C,0,-
 35.9348245629,-71.4237802284,107.4007920834\C,0,-35.476965211,-72.4790
 859515,106.6758982331\C,0,-36.5621216614,-72.8738503137,105.8042512601
 \C,0,-36.5047223112,-73.9543489502,104.9434606101\H,0,-35.5865612296,-
 74.5212221965,104.9133352324\C,0,-40.6347746106,-74.0499624032,102.496
 4192086\H,0,-41.0421572702,-74.6739992903,101.7151534992\C,0,-41.95777
 10331,-69.9373135332,104.600695853\H,0,-42.7604648655,-69.2277476156,1
 04.4709757477\C,0,-38.0990126378,-70.1797279977,107.4509946108\H,0,-37
 .7087320781,-69.5772859156,108.2573838562\C,0,-39.1183092361,-76.52989
 15323,101.5493139718\H,0,-38.3949491342,-77.3308162224,101.4177346888\
 H,0,-39.2650663588,-76.0397539774,100.5863202111\H,0,-40.0685199808,-7
 6.9718129393,101.8504025645\C,0,-36.3470422444,-76.5008905075,103.2486
 20749\H,0,-36.151881336,-76.8984552554,104.2445950025\H,0,-35.43969753
 25,-76.0068990902,102.8996238173\H,0,-36.5609888106,-77.3332539608,102
 .5827035992\C,0,-43.2872384099,-73.2948489119,101.1511276982\H,0,-43.2
 530062207,-74.3561095502,101.3932514656\H,0,-42.8462607272,-73.1598016
 579,100.1615626269\H,0,-44.3282902908,-72.9812191254,101.1078386862\C,
 0,-44.0199692901,-70.4304462746,102.4033486201\H,0,-44.4154697044,-69.
 8565615929,103.2331546468\C,0,-44.5819329917,-70.293345393,101.2062949
 802\H,0,-44.2056204399,-70.7975980345,100.3334788599\H,0,-45.429756238
 5,-69.6461248174,101.0536451863\C,0,-42.3814796651,-67.7236509215,106.
 6845116283\H,0,-43.3058059593,-68.2414855684,106.4329205599\H,0,-42.26
 24042621,-66.8891168373,105.991342371\H,0,-42.4702949708,-67.323049606
 ,107.6923389492\C,0,-39.8155535803,-67.9545642784,108.611937777\H,0,-3
 9.3043857884,-68.4860783574,109.4067141939\C,0,-40.0804798161,-66.6613
 887379,108.7687401182\H,0,-40.5425076582,-66.07347912,107.995028879\H,
 0,-39.8187366966,-66.138153978,109.673600647\C,0,-35.2420918091,-70.62
 42689374,108.4507313173\H,0,-35.7729548182,-70.6973145354,109.40030600
 87\H,0,-35.2012759381,-69.572094599,108.167647546\H,0,-34.2252705948,-
 70.9791728965,108.6003037494\C,0,-34.1444565753,-73.1456852305,106.717
 9405634\H,0,-33.4729070826,-72.6250492747,107.3959403758\H,0,-33.69074
 71398,-73.1585095038,105.7272686874\H,0,-34.2421489038,-74.1767241727,
 107.058337943\O,0,-40.327,-73.371,106.375\H,0,-40.162,-74.268,106.084\
 H,0,-40.817,-73.128,107.076\C,0,-36.2623624634,-68.1876061039,102.2104
 707435\H,0,-35.9045744166,-67.7309252004,103.1279293907\H,0,-36.813993
 5199,-67.439108858,101.6413796016\H,0,-35.4040071381,-68.5024312519,10
 1.6174019923\N,0,-37.647944959,-70.1740644859,101.5755381824\H,0,-37.5
 012489271,-70.0864312579,100.5834995466\C,0,-37.1305019894,-69.3469678
 082,102.5376555446\C,0,-38.3878415317,-71.1177845523,102.2011506374\H,
 0,-38.9136189653,-71.9014999589,101.695702277\N,0,-38.3701256561,-70.9
 382032373,103.5000460867\C,0,-37.5921779842,-69.8398027034,103.7243287
 356\H,0,-37.4194348235,-69.4814108353,104.7180314517\\Version=ES64L-G1
 6RevC.02\State=1-A\HF=-2984.024459\RMSD=9.271e-10\Dipole=0.9915023,0.0
 833059,-1.2650819\Quadrupole=-5.1019067,-0.9157092,6.0176159,3.5602409
 ,-5.4787121,-3.9428434\PG=C01 [X(C34H36Fe1N6O1)]\\@
 The archive entry for this job was punched.


 ON A TOMBSTONE, "HERE LIES LESTER MOORE,
 FOUR SLUGS FROM A 44, NO LES, NO MORE".
 Job cpu time:       0 days  0 hours 45 minutes  9.3 seconds.
 Elapsed time:       0 days  0 hours  0 minutes 54.6 seconds.
 File lengths (MBytes):  RWF=    792 Int=      0 D2E=      0 Chk=    155 Scr=      1
 Normal termination of Gaussian 16 at Mon Nov 18 16:10:38 2024.
