 Entering Gaussian System, Link 0=g16
 Input=4oq701.com
 Output=4oq701.log
 Initial command:
 /sw/chem/gaussian/g16_C02/a100/g16/l1.exe "/local/bebjones_8064742/Gau-1128035.inp" -scrdir="/local/bebjones_8064742/"
 Entering Link 1 = /sw/chem/gaussian/g16_C02/a100/g16/l1.exe PID=   1128036.
  
 Copyright (c) 1988-2021, Gaussian, Inc.  All Rights Reserved.
  
 This is part of the Gaussian(R) 16 program.  It is based on
 the Gaussian(R) 09 system (copyright 2009, Gaussian, Inc.),
 the Gaussian(R) 03 system (copyright 2003, Gaussian, Inc.),
 the Gaussian(R) 98 system (copyright 1998, Gaussian, Inc.),
 the Gaussian(R) 94 system (copyright 1995, Gaussian, Inc.),
 the Gaussian 92(TM) system (copyright 1992, Gaussian, Inc.),
 the Gaussian 90(TM) system (copyright 1990, Gaussian, Inc.),
 the Gaussian 88(TM) system (copyright 1988, Gaussian, Inc.),
 the Gaussian 86(TM) system (copyright 1986, Carnegie Mellon
 University), and the Gaussian 82(TM) system (copyright 1983,
 Carnegie Mellon University). Gaussian is a federally registered
 trademark of Gaussian, Inc.
  
 This software contains proprietary and confidential information,
 including trade secrets, belonging to Gaussian, Inc.
  
 This software is provided under written license and may be
 used, copied, transmitted, or stored only in accord with that
 written license.
  
 The following legend is applicable only to US Government
 contracts under FAR:
  
                    RESTRICTED RIGHTS LEGEND
  
 Use, reproduction and disclosure by the US Government is
 subject to restrictions as set forth in subparagraphs (a)
 and (c) of the Commercial Computer Software - Restricted
 Rights clause in FAR 52.227-19.
  
 Gaussian, Inc.
 340 Quinnipiac St., Bldg. 40, Wallingford CT 06492
  
  
 ---------------------------------------------------------------
 Warning -- This program may not be used in any manner that
 competes with the business of Gaussian, Inc. or will provide
 assistance to any competitor of Gaussian, Inc.  The licensee
 of this program is prohibited from giving any competitor of
 Gaussian, Inc. access to this program.  By using this program,
 the user acknowledges that Gaussian, Inc. is engaged in the
 business of creating and licensing software in the field of
 computational chemistry and represents and warrants to the
 licensee that it is not a competitor of Gaussian, Inc. and that
 it will not use this program in any manner prohibited above.
 ---------------------------------------------------------------
  

 Cite this work as:
 Gaussian 16, Revision C.02,
 M. J. Frisch, G. W. Trucks, H. B. Schlegel, G. E. Scuseria, 
 M. A. Robb, J. R. Cheeseman, G. Scalmani, V. Barone, 
 G. A. Petersson, H. Nakatsuji, X. Li, M. Caricato, A. V. Marenich, 
 J. Bloino, B. G. Janesko, R. Gomperts, B. Mennucci, H. P. Hratchian, 
 J. V. Ortiz, A. F. Izmaylov, J. L. Sonnenberg, D. Williams-Young, 
 F. Ding, F. Lipparini, F. Egidi, J. Goings, B. Peng, A. Petrone, 
 T. Henderson, D. Ranasinghe, V. G. Zakrzewski, J. Gao, N. Rega, 
 G. Zheng, W. Liang, M. Hada, M. Ehara, K. Toyota, R. Fukuda, 
 J. Hasegawa, M. Ishida, T. Nakajima, Y. Honda, O. Kitao, H. Nakai, 
 T. Vreven, K. Throssell, J. A. Montgomery, Jr., J. E. Peralta, 
 F. Ogliaro, M. J. Bearpark, J. J. Heyd, E. N. Brothers, K. N. Kudin, 
 V. N. Staroverov, T. A. Keith, R. Kobayashi, J. Normand, 
 K. Raghavachari, A. P. Rendell, J. C. Burant, S. S. Iyengar, 
 J. Tomasi, M. Cossi, J. M. Millam, M. Klene, C. Adamo, R. Cammi, 
 J. W. Ochterski, R. L. Martin, K. Morokuma, O. Farkas, 
 J. B. Foresman, and D. J. Fox, Gaussian, Inc., Wallingford CT, 2019.
 
 ******************************************
 Gaussian 16:  ES64L-G16RevC.02  7-Dec-2021
                30-Oct-2024 
 ******************************************
 %mem=16GB
 %CPU=0-71
 SetSPE:  set environment variable "OMP_PROC_BIND" = "true"
 SetSPE:  set environment variable "OMP_PLACES" = "{0},{1},{2},{3},{4},{5},{6},{7},{8},{9},{10},{11},{12},{13},{14},{15},{16},{17},{18},{19},{20},{21},{22},{23},{24},{25},{26},{27},{28},{29},{30},{31},{32},{33},{34},{35},{36},{37},{38},{39},{40},{41},{42},{43},{44},{45},{46},{47},{48},{49},{50},{51},{52},{53},{54},{55},{56},{57},{58},{59},{60},{61},{62},{63},{64},{65},{66},{67},{68},{69},{70},{71}"
 Will use up to   72 processors via shared memory.
 %gpucpu=0,1,2,3=0,1,2,3
 Will use    4 GPUs:
 Thread  CPU   GPU
      0    0     0
      1    1     1
      2    2     2
      3    3     3
      4    4    -1
      5    5    -1
      6    6    -1
      7    7    -1
      8    8    -1
      9    9    -1
     10   10    -1
     11   11    -1
     12   12    -1
     13   13    -1
     14   14    -1
     15   15    -1
     16   16    -1
     17   17    -1
     18   18    -1
     19   19    -1
     20   20    -1
     21   21    -1
     22   22    -1
     23   23    -1
     24   24    -1
     25   25    -1
     26   26    -1
     27   27    -1
     28   28    -1
     29   29    -1
     30   30    -1
     31   31    -1
     32   32    -1
     33   33    -1
     34   34    -1
     35   35    -1
     36   36    -1
     37   37    -1
     38   38    -1
     39   39    -1
     40   40    -1
     41   41    -1
     42   42    -1
     43   43    -1
     44   44    -1
     45   45    -1
     46   46    -1
     47   47    -1
     48   48    -1
     49   49    -1
     50   50    -1
     51   51    -1
     52   52    -1
     53   53    -1
     54   54    -1
     55   55    -1
     56   56    -1
     57   57    -1
     58   58    -1
     59   59    -1
     60   60    -1
     61   61    -1
     62   62    -1
     63   63    -1
     64   64    -1
     65   65    -1
     66   66    -1
     67   67    -1
     68   68    -1
     69   69    -1
     70   70    -1
     71   71    -1
 SetGPE:  set environment variable "OMP_PROC_BIND" = "true"
 SetGPE:  set environment variable "OMP_PLACES" = "{0},{1},{2},{3},{4},{5},{6},{7},{8},{9},{10},{11},{12},{13},{14},{15},{16},{17},{18},{19},{20},{21},{22},{23},{24},{25},{26},{27},{28},{29},{30},{31},{32},{33},{34},{35},{36},{37},{38},{39},{40},{41},{42},{43},{44},{45},{46},{47},{48},{49},{50},{51},{52},{53},{54},{55},{56},{57},{58},{59},{60},{61},{62},{63},{64},{65},{66},{67},{68},{69},{70},{71}"
 %chk=4oq7_II_O.chk
 Properties for Device   0
 Minimum vector length:                              32
 Maximum vector length:                            1024
 Number of SMPs:                                    108
 Maximum number of threads per SMP:                2048
 Number of ASync Engines:                             5
 Memory:                                           9207742464
 Properties for Device   1
 Minimum vector length:                              32
 Maximum vector length:                            1024
 Number of SMPs:                                    108
 Maximum number of threads per SMP:                2048
 Number of ASync Engines:                             5
 Memory:                                           9207742464
 Properties for Device   2
 Minimum vector length:                              32
 Maximum vector length:                            1024
 Number of SMPs:                                    108
 Maximum number of threads per SMP:                2048
 Number of ASync Engines:                             5
 Memory:                                           9207742464
 Properties for Device   3
 Minimum vector length:                              32
 Maximum vector length:                            1024
 Number of SMPs:                                    108
 Maximum number of threads per SMP:                2048
 Number of ASync Engines:                             5
 Memory:                                           9207742464
   8286968217 words of memory will be used on each GPU.
 ------------------------------------------
 # polar def2tzvp apfd int=(grid=ultrafine)
 ------------------------------------------
 1/38=1,172=1/1;
 2/12=2,17=6,18=5,40=1/2;
 3/5=44,7=101,11=2,25=1,30=1,74=-44,75=-5/1,2,3;
 4//1;
 5/5=2,38=5,98=1/2;
 8/6=4,10=90,11=11/1;
 10/6=1,13=10/2;
 6/7=2,8=2,9=2,10=2,28=1/1;
 99/5=1,9=1/99;
 ---------
 4oq7_II_S
 ---------
 Symbolic Z-matrix:
 Charge =  0 Multiplicity = 1
 Fe                   -37.542   -69.059    104.826 
 N                    -36.925   -70.891    104.198 
 N                    -39.277   -69.268    103.685 
 N                    -38.211   -67.166    105.435 
 N                    -35.96    -68.869    105.892 
 C                    -35.745   -71.467    104.544 
 C                    -35.712   -72.802    104.002 
 C                    -36.891   -72.998    103.323 
 C                    -37.646   -71.778    103.447 
 C                    -39.62    -70.356    102.969 
 C                    -40.848   -70.116    102.328 
 C                    -41.249   -68.855    102.662 
 C                    -40.202   -68.315    103.536 
 C                    -39.381   -66.598    105.075 
 C                    -39.539   -65.428    105.862 
 C                    -38.436   -65.353    106.738 
 C                    -37.601   -66.442    106.413 
 C                    -35.614   -67.833    106.694 
 C                    -34.261   -68.015    107.238 
 C                    -33.795   -69.2      106.768 
 C                    -34.869   -69.687    105.894 
 C                    -34.723   -70.9      105.267 
 H                    -33.772   -71.427    105.345 
 C                    -38.904   -71.573    102.897 
 H                    -39.372   -72.407    102.374 
 C                    -40.263   -67.061    104.115 
 H                    -41.061   -66.391    103.793 
 C                    -36.399   -66.713    107.002 
 H                    -36.028   -66.018    107.755 
 C                    -37.386   -74.229    102.584 
 H                    -36.624   -75.035    102.654 
 H                    -37.552   -73.983    101.514 
 H                    -38.332   -74.587    103.043 
 C                    -34.556   -73.76     104.198 
 H                    -34.176   -73.675    105.238 
 H                    -33.735   -73.507    103.493 
 H                    -34.899   -74.802    104.024 
 C                    -41.606   -71.076    101.451 
 H                    -41.264   -72.113    101.655 
 H                    -41.417   -70.838    100.383 
 H                    -42.693   -71.005    101.669 
 C                    -42.406   -68.108    102.162 
 H                    -42.806   -67.282    102.767 
 C                    -43.019   -68.36     101.009 
 H                    -42.668   -69.173    100.356 
 H                    -43.884   -67.759    100.694 
 C                    -40.751   -64.525    105.742 
 H                    -41.665   -65.145    105.618 
 H                    -40.641   -63.865    104.856 
 H                    -40.854   -63.911    106.662 
 C                    -38.043   -64.308    107.741 
 H                    -37.235   -64.529    108.454 
 C                    -38.619   -63.103    107.829 
 H                    -39.433   -62.822    107.144 
 H                    -38.286   -62.379    108.587 
 C                    -33.504   -67.126    108.174 
 H                    -33.715   -67.426    109.223 
 H                    -33.823   -66.071    108.03 
 H                    -32.414   -67.222    107.984 
 C                    -32.432   -69.828    107.047 
 H                    -32.078   -69.514    108.052 
 H                    -31.699   -69.488    106.284 
 H                    -32.517   -70.935    107.025 
 O                    -38.579   -70.173    106.416 
 H                    -38.384   -71.097    106.261 
 H                    -39.08    -69.844    107.073 
 C                    -34.302   -65.825    101.58 
 H                    -33.668   -65.494    102.43 
 H                    -34.786   -64.935    101.124 
 H                    -33.66    -66.335    100.83 
 N                    -36.326   -67.302    101.258 
 H                    -36.426   -67.082    100.288 
 C                    -35.355   -66.777    102.079 
 C                    -37.089   -68.129    101.948 
 H                    -37.931   -68.683    101.535 
 N                    -36.651   -68.157    103.195 
 C                    -35.573   -67.313    103.304 
 H                    -35.061   -67.173    104.247 
 
 Stoichiometry    C34H36FeN6O
 Framework group  C1[X(C34H36FeN6O)]
 Deg. of freedom   228
 Full point group                 C1      NOp   1
 Largest Abelian subgroup         C1      NOp   1
 Largest concise Abelian subgroup C1      NOp   1
                         Standard orientation:                         
 ---------------------------------------------------------------------
 Center     Atomic      Atomic             Coordinates (Angstroms)
 Number     Number       Type             X           Y           Z
 ---------------------------------------------------------------------
      1         26           0       -0.024351   -0.218998   -0.414382
      2          7           0        0.692077   -2.120906   -0.386557
      3          7           0        1.932979    0.503782   -0.367135
      4          7           0       -0.719228    1.760627   -0.425429
      5          7           0       -1.824163   -0.876114   -0.478085
      6          6           0       -0.082753   -3.235913   -0.369582
      7          6           0        0.774995   -4.389855   -0.468395
      8          6           0        2.069929   -3.933559   -0.535015
      9          6           0        2.004394   -2.496310   -0.473203
     10          6           0        3.049317   -0.249264   -0.394710
     11          6           0        4.173435    0.592946   -0.335500
     12          6           0        3.722861    1.879262   -0.265848
     13          6           0        2.258349    1.796575   -0.273020
     14          6           0        0.060463    2.862074   -0.430055
     15          6           0       -0.789521    3.976799   -0.649483
     16          6           0       -2.099855    3.484339   -0.823032
     17          6           0       -2.023431    2.088701   -0.635621
     18          6           0       -2.972333   -0.159016   -0.538847
     19          6           0       -4.148167   -1.035126   -0.441296
     20          6           0       -3.692403   -2.309811   -0.342618
     21          6           0       -2.231486   -2.168527   -0.325881
     22          6           0       -1.451077   -3.296354   -0.256721
     23          1           0       -1.929243   -4.264698   -0.108803
     24          6           0        3.109198   -1.656774   -0.514121
     25          1           0        4.089855   -2.113535   -0.647506
     26          6           0        1.431381    2.904292   -0.249240
     27          1           0        1.891181    3.877956   -0.076178
     28          6           0       -3.085732    1.231431   -0.677720
     29          1           0       -4.079652    1.652575   -0.827506
     30          6           0        3.363655   -4.717393   -0.670607
     31          1           0        3.135890   -5.804297   -0.714702
     32          1           0        4.014840   -4.521754    0.207262
     33          1           0        3.885868   -4.420740   -1.604979
     34          6           0        0.265454   -5.815326   -0.498695
     35          1           0       -0.652180   -5.868104   -1.121902
     36          1           0        0.019702   -6.148236    0.532737
     37          1           0        1.038430   -6.480474   -0.938893
     38          6           0        5.616860    0.167800   -0.368197
     39          1           0        5.692704   -0.852435   -0.801000
     40          1           0        6.027150    0.152736    0.663512
     41          1           0        6.201040    0.871638   -0.998656
     42          6           0        4.502825    3.105572   -0.080162
     43          1           0        4.070682    4.063232   -0.403336
     44          6           0        5.717131    3.146312    0.460656
     45          1           0        6.206115    2.222949    0.805437
     46          1           0        6.247356    4.103156    0.570028
     47          6           0       -0.264190    5.396921   -0.727160
     48          1           0        0.693984    5.407975   -1.290145
     49          1           0       -0.084479    5.787097    0.296638
     50          1           0       -0.999760    6.040745   -1.254827
     51          6           0       -3.404179    4.200427   -1.019093
     52          1           0       -4.291749    3.622179   -1.315610
     53          6           0       -3.564475    5.519076   -0.854731
     54          1           0       -2.714540    6.152127   -0.558690
     55          1           0       -4.547452    5.986121   -1.013645
     56          6           0       -5.596620   -0.661575   -0.484989
     57          1           0       -5.954656   -0.685979   -1.536720
     58          1           0       -5.731598    0.365632   -0.082313
     59          1           0       -6.189188   -1.384838    0.114319
     60          6           0       -4.530775   -3.578667   -0.211735
     61          1           0       -5.505073   -3.433724   -0.725226
     62          1           0       -4.717833   -3.795650    0.862037
     63          1           0       -3.998265   -4.430987   -0.684114
     64          8           0        0.198589   -0.378598   -2.598252
     65          1           0        0.542731   -1.255878   -2.764899
     66          1           0        0.011528    0.238352   -3.210848
     67          6           0       -1.648076    0.239889    4.937796
     68          1           0       -2.728429    0.222980    4.679785
     69          1           0       -1.414736    1.198979    5.447690
     70          1           0       -1.426514   -0.613936    5.613560
     71          7           0        0.545446    0.175432    3.686360
     72          1           0        1.102465    0.321276    4.503526
     73          6           0       -0.829086    0.119376    3.681275
     74          6           0        0.999584    0.007295    2.458481
     75          1           0        2.053838    0.003562    2.184651
     76          7           0       -0.034500   -0.151367    1.650314
     77          6           0       -1.189290   -0.076289    2.389992
     78          1           0       -2.162183   -0.169434    1.925451
 ---------------------------------------------------------------------
 Rotational constants (GHZ):           0.0929360           0.0907597           0.0587385
 Standard basis: def2TZVP (5D, 7F)
 There are  1744 symmetry adapted cartesian basis functions of A   symmetry.
 There are  1532 symmetry adapted basis functions of A   symmetry.
  1532 basis functions,  2481 primitive gaussians,  1744 cartesian basis functions
   158 alpha electrons      158 beta electrons
       nuclear repulsion energy      5946.4450617350 Hartrees.
 NAtoms=   78 NActive=   78 NUniq=   78 SFac= 1.00D+00 NAtFMM=   60 NAOKFM=T Big=T
 Integral buffers will be    131072 words long.
 Raffenetti 2 integral format.
 Two-electron integral symmetry is turned on.
 R6APFD:  NTU= -4 IXU= 1 FactS= 1.050
 Nuclear repulsion after empirical dispersion term =     5946.2872274971 Hartrees.
 One-electron integrals computed using PRISM.
   1 Symmetry operations used in ECPInt.
 ECPInt:  NShTT=  186355 NPrTT=  576197 LenC2=  146912 LenP2D=  300560.
 LDataN:  DoStor=T MaxTD1= 6 Len=  172
 Number of processors reduced to  23 by ecpmxn.
 NBasis=  1532 RedAO= T EigKep=  4.05D-06  NBF=  1532
 NBsUse=  1532 1.00D-06 EigRej= -1.00D+00 NBFU=  1532
 ExpMin= 4.20D-02 ExpMax= 3.01D+05 ExpMxC= 2.91D+03 IAcc=3 IRadAn=         5 AccDes= 0.00D+00
 Harris functional with IExCor= 3731 and IRadAn=       5 diagonalized for initial guess.
 HarFok:  IExCor= 3731 AccDes= 0.00D+00 IRadAn=         5 IDoV= 1 UseB2=F ITyADJ=14
 ICtDFT=  3500011 ScaDFX=  1.000000  1.000000  1.000000  1.000000
 FoFCou: FMM=F IPFlag=           0 FMFlag=      100000 FMFlg1=        2001
         NFxFlg=           0 DoJE=T BraDBF=F KetDBF=T FulRan=T
         wScrn=  0.000000 ICntrl=       500 IOpCl=  0 I1Cent=   200000004 NGrid=           0
         NMat0=    1 NMatS0=      1 NMatT0=    0 NMatD0=    1 NMtDS0=    0 NMtDT0=    0
 Petite list used in FoFCou.
 Requested convergence on RMS density matrix=1.00D-08 within 128 cycles.
 Requested convergence on MAX density matrix=1.00D-06.
 Requested convergence on             energy=1.00D-06.
 No special actions if energy rises.
 EnCoef did     4 forward-backward iterations
 EnCoef did   100 forward-backward iterations
 EnCoef did   100 forward-backward iterations
 EnCoef did   100 forward-backward iterations
 EnCoef did     6 forward-backward iterations
 EnCoef did     5 forward-backward iterations
 EnCoef did   100 forward-backward iterations
 EnCoef did     5 forward-backward iterations
 Restarting incremental Fock formation.
 SCF Done:  E(RAPFD) =  -2983.98427417     A.U. after   28 cycles
            NFock= 28  Conv=0.21D-08     -V/T= 2.0038
 DoSCS=F DFT=T ScalE2(SS,OS)=  1.000000  1.000000
 Range of M.O.s used for correlation:     1  1532
 NBasis=  1532 NAE=   158 NBE=   158 NFC=     0 NFV=     0
 NROrb=   1532 NOA=   158 NOB=   158 NVA=  1374 NVB=  1374

 **** Warning!!: The largest alpha MO coefficient is  0.40012024D+02

          Differentiating once with respect to electric field.
                with respect to dipole field.
          Electric field/nuclear overlap derivatives assumed to be zero.
          There are     3 degrees of freedom in the 1st order CPHF.  IDoFFX=0 NUNeed=     3.
      3 vectors produced by pass  0 Test12= 7.24D-12 3.33D-08 XBig12= 1.92D+03 2.48D+01.
 AX will form     3 AO Fock derivatives at one time.
      3 vectors produced by pass  1 Test12= 7.24D-12 3.33D-08 XBig12= 1.31D+03 7.02D+00.
      3 vectors produced by pass  2 Test12= 7.24D-12 3.33D-08 XBig12= 3.53D+02 6.13D+00.
      3 vectors produced by pass  3 Test12= 7.24D-12 3.33D-08 XBig12= 2.82D+02 3.42D+00.
      3 vectors produced by pass  4 Test12= 7.24D-12 3.33D-08 XBig12= 1.80D+02 2.35D+00.
      3 vectors produced by pass  5 Test12= 7.24D-12 3.33D-08 XBig12= 8.63D+01 1.60D+00.
      3 vectors produced by pass  6 Test12= 7.24D-12 3.33D-08 XBig12= 5.91D+01 1.28D+00.
      3 vectors produced by pass  7 Test12= 7.24D-12 3.33D-08 XBig12= 2.46D+01 1.24D+00.
      3 vectors produced by pass  8 Test12= 7.24D-12 3.33D-08 XBig12= 1.35D+01 8.09D-01.
      3 vectors produced by pass  9 Test12= 7.24D-12 3.33D-08 XBig12= 6.08D+00 4.74D-01.
      3 vectors produced by pass 10 Test12= 7.24D-12 3.33D-08 XBig12= 3.31D+00 3.48D-01.
      3 vectors produced by pass 11 Test12= 7.24D-12 3.33D-08 XBig12= 1.19D+00 2.80D-01.
      3 vectors produced by pass 12 Test12= 7.24D-12 3.33D-08 XBig12= 4.56D-01 1.48D-01.
      3 vectors produced by pass 13 Test12= 7.24D-12 3.33D-08 XBig12= 1.21D-01 8.51D-02.
      3 vectors produced by pass 14 Test12= 7.24D-12 3.33D-08 XBig12= 4.47D-02 4.56D-02.
      3 vectors produced by pass 15 Test12= 7.24D-12 3.33D-08 XBig12= 1.79D-02 3.22D-02.
      3 vectors produced by pass 16 Test12= 7.24D-12 3.33D-08 XBig12= 8.26D-03 1.94D-02.
      3 vectors produced by pass 17 Test12= 7.24D-12 3.33D-08 XBig12= 2.63D-03 8.59D-03.
      3 vectors produced by pass 18 Test12= 7.24D-12 3.33D-08 XBig12= 6.43D-04 4.89D-03.
      3 vectors produced by pass 19 Test12= 7.24D-12 3.33D-08 XBig12= 1.93D-04 2.75D-03.
      3 vectors produced by pass 20 Test12= 7.24D-12 3.33D-08 XBig12= 5.61D-05 1.43D-03.
      3 vectors produced by pass 21 Test12= 7.24D-12 3.33D-08 XBig12= 1.62D-05 6.99D-04.
      3 vectors produced by pass 22 Test12= 7.24D-12 3.33D-08 XBig12= 4.44D-06 4.00D-04.
      3 vectors produced by pass 23 Test12= 7.24D-12 3.33D-08 XBig12= 8.35D-07 1.37D-04.
      3 vectors produced by pass 24 Test12= 7.24D-12 3.33D-08 XBig12= 1.29D-07 4.43D-05.
      3 vectors produced by pass 25 Test12= 7.24D-12 3.33D-08 XBig12= 3.15D-08 2.28D-05.
      3 vectors produced by pass 26 Test12= 7.24D-12 3.33D-08 XBig12= 3.81D-09 9.87D-06.
      3 vectors produced by pass 27 Test12= 7.24D-12 3.33D-08 XBig12= 6.58D-10 3.61D-06.
      3 vectors produced by pass 28 Test12= 7.24D-12 3.33D-08 XBig12= 1.29D-10 1.36D-06.
      3 vectors produced by pass 29 Test12= 7.24D-12 3.33D-08 XBig12= 2.39D-11 7.36D-07.
      3 vectors produced by pass 30 Test12= 7.24D-12 3.33D-08 XBig12= 2.96D-12 1.83D-07.
      3 vectors produced by pass 31 Test12= 7.24D-12 3.33D-08 XBig12= 3.68D-13 7.07D-08.
      1 vectors produced by pass 32 Test12= 7.24D-12 3.33D-08 XBig12= 2.04D-14 3.92D-08.
 InvSVY:  IOpt=1 It=  1 EMax= 2.84D-14
 Solved reduced A of dimension    97 with     3 vectors.
 Isotropic polarizability for W=    0.000000      586.01 Bohr**3.
 End of Minotr F.D. properties file   721 does not exist.
 End of Minotr F.D. properties file   722 does not exist.
 End of Minotr F.D. properties file   788 does not exist.

 **********************************************************************

            Population analysis using the SCF Density.

 **********************************************************************

 Orbital symmetries:
       Occupied  (A) (A) (A) (A) (A) (A) (A) (A) (A) (A) (A) (A)
                 (A) (A) (A) (A) (A) (A) (A) (A) (A) (A) (A) (A)
                 (A) (A) (A) (A) (A) (A) (A) (A) (A) (A) (A) (A)
                 (A) (A) (A) (A) (A) (A) (A) (A) (A) (A) (A) (A)
                 (A) (A) (A) (A) (A) (A) (A) (A) (A) (A) (A) (A)
                 (A) (A) (A) (A) (A) (A) (A) (A) (A) (A) (A) (A)
                 (A) (A) (A) (A) (A) (A) (A) (A) (A) (A) (A) (A)
                 (A) (A) (A) (A) (A) (A) (A) (A) (A) (A) (A) (A)
                 (A) (A) (A) (A) (A) (A) (A) (A) (A) (A) (A) (A)
                 (A) (A) (A) (A) (A) (A) (A) (A) (A) (A) (A) (A)
                 (A) (A) (A) (A) (A) (A) (A) (A) (A) (A) (A) (A)
                 (A) (A) (A) (A) (A) (A) (A) (A) (A) (A) (A) (A)
                 (A) (A) (A) (A) (A) (A) (A) (A) (A) (A) (A) (A)
                 (A) (A)
       Virtual   (A) (A) (A) (A) (A) (A) (A) (A) (A) (A) (A) (A)
                 (A) (A) (A) (A) (A) (A) (A) (A) (A) (A) (A) (A)
                 (A) (A) (A) (A) (A) (A) (A) (A) (A) (A) (A) (A)
                 (A) (A) (A) (A) (A) (A) (A) (A) (A) (A) (A) (A)
                 (A) (A) (A) (A) (A) (A) (A) (A) (A) (A) (A) (A)
                 (A) (A) (A) (A) (A) (A) (A) (A) (A) (A) (A) (A)
                 (A) (A) (A) (A) (A) (A) (A) (A) (A) (A) (A) (A)
                 (A) (A) (A) (A) (A) (A) (A) (A) (A) (A) (A) (A)
                 (A) (A) (A) (A) (A) (A) (A) (A) (A) (A) (A) (A)
                 (A) (A) (A) (A) (A) (A) (A) (A) (A) (A) (A) (A)
                 (A) (A) (A) (A) (A) (A) (A) (A) (A) (A) (A) (A)
                 (A) (A) (A) (A) (A) (A) (A) (A) (A) (A) (A) (A)
                 (A) (A) (A) (A) (A) (A) (A) (A) (A) (A) (A) (A)
                 (A) (A) (A) (A) (A) (A) (A) (A) (A) (A) (A) (A)
                 (A) (A) (A) (A) (A) (A) (A) (A) (A) (A) (A) (A)
                 (A) (A) (A) (A) (A) (A) (A) (A) (A) (A) (A) (A)
                 (A) (A) (A) (A) (A) (A) (A) (A) (A) (A) (A) (A)
                 (A) (A) (A) (A) (A) (A) (A) (A) (A) (A) (A) (A)
                 (A) (A) (A) (A) (A) (A) (A) (A) (A) (A) (A) (A)
                 (A) (A) (A) (A) (A) (A) (A) (A) (A) (A) (A) (A)
                 (A) (A) (A) (A) (A) (A) (A) (A) (A) (A) (A) (A)
                 (A) (A) (A) (A) (A) (A) (A) (A) (A) (A) (A) (A)
                 (A) (A) (A) (A) (A) (A) (A) (A) (A) (A) (A) (A)
                 (A) (A) (A) (A) (A) (A) (A) (A) (A) (A) (A) (A)
                 (A) (A) (A) (A) (A) (A) (A) (A) (A) (A) (A) (A)
                 (A) (A) (A) (A) (A) (A) (A) (A) (A) (A) (A) (A)
                 (A) (A) (A) (A) (A) (A) (A) (A) (A) (A) (A) (A)
                 (A) (A) (A) (A) (A) (A) (A) (A) (A) (A) (A) (A)
                 (A) (A) (A) (A) (A) (A) (A) (A) (A) (A) (A) (A)
                 (A) (A) (A) (A) (A) (A) (A) (A) (A) (A) (A) (A)
                 (A) (A) (A) (A) (A) (A) (A) (A) (A) (A) (A) (A)
                 (A) (A) (A) (A) (A) (A) (A) (A) (A) (A) (A) (A)
                 (A) (A) (A) (A) (A) (A) (A) (A) (A) (A) (A) (A)
                 (A) (A) (A) (A) (A) (A) (A) (A) (A) (A) (A) (A)
                 (A) (A) (A) (A) (A) (A) (A) (A) (A) (A) (A) (A)
                 (A) (A) (A) (A) (A) (A) (A) (A) (A) (A) (A) (A)
                 (A) (A) (A) (A) (A) (A) (A) (A) (A) (A) (A) (A)
                 (A) (A) (A) (A) (A) (A) (A) (A) (A) (A) (A) (A)
                 (A) (A) (A) (A) (A) (A) (A) (A) (A) (A) (A) (A)
                 (A) (A) (A) (A) (A) (A) (A) (A) (A) (A) (A) (A)
                 (A) (A) (A) (A) (A) (A) (A) (A) (A) (A) (A) (A)
                 (A) (A) (A) (A) (A) (A) (A) (A) (A) (A) (A) (A)
                 (A) (A) (A) (A) (A) (A) (A) (A) (A) (A) (A) (A)
                 (A) (A) (A) (A) (A) (A) (A) (A) (A) (A) (A) (A)
                 (A) (A) (A) (A) (A) (A) (A) (A) (A) (A) (A) (A)
                 (A) (A) (A) (A) (A) (A) (A) (A) (A) (A) (A) (A)
                 (A) (A) (A) (A) (A) (A) (A) (A) (A) (A) (A) (A)
                 (A) (A) (A) (A) (A) (A) (A) (A) (A) (A) (A) (A)
                 (A) (A) (A) (A) (A) (A) (A) (A) (A) (A) (A) (A)
                 (A) (A) (A) (A) (A) (A) (A) (A) (A) (A) (A) (A)
                 (A) (A) (A) (A) (A) (A) (A) (A) (A) (A) (A) (A)
                 (A) (A) (A) (A) (A) (A) (A) (A) (A) (A) (A) (A)
                 (A) (A) (A) (A) (A) (A) (A) (A) (A) (A) (A) (A)
                 (A) (A) (A) (A) (A) (A) (A) (A) (A) (A) (A) (A)
                 (A) (A) (A) (A) (A) (A) (A) (A) (A) (A) (A) (A)
                 (A) (A) (A) (A) (A) (A) (A) (A) (A) (A) (A) (A)
                 (A) (A) (A) (A) (A) (A) (A) (A) (A) (A) (A) (A)
                 (A) (A) (A) (A) (A) (A) (A) (A) (A) (A) (A) (A)
                 (A) (A) (A) (A) (A) (A) (A) (A) (A) (A) (A) (A)
                 (A) (A) (A) (A) (A) (A) (A) (A) (A) (A) (A) (A)
                 (A) (A) (A) (A) (A) (A) (A) (A) (A) (A) (A) (A)
                 (A) (A) (A) (A) (A) (A) (A) (A) (A) (A) (A) (A)
                 (A) (A) (A) (A) (A) (A) (A) (A) (A) (A) (A) (A)
                 (A) (A) (A) (A) (A) (A) (A) (A) (A) (A) (A) (A)
                 (A) (A) (A) (A) (A) (A) (A) (A) (A) (A) (A) (A)
                 (A) (A) (A) (A) (A) (A) (A) (A) (A) (A) (A) (A)
                 (A) (A) (A) (A) (A) (A) (A) (A) (A) (A) (A) (A)
                 (A) (A) (A) (A) (A) (A) (A) (A) (A) (A) (A) (A)
                 (A) (A) (A) (A) (A) (A) (A) (A) (A) (A) (A) (A)
                 (A) (A) (A) (A) (A) (A) (A) (A) (A) (A) (A) (A)
                 (A) (A) (A) (A) (A) (A) (A) (A) (A) (A) (A) (A)
                 (A) (A) (A) (A) (A) (A) (A) (A) (A) (A) (A) (A)
                 (A) (A) (A) (A) (A) (A) (A) (A) (A) (A) (A) (A)
                 (A) (A) (A) (A) (A) (A) (A) (A) (A) (A) (A) (A)
                 (A) (A) (A) (A) (A) (A) (A) (A) (A) (A) (A) (A)
                 (A) (A) (A) (A) (A) (A) (A) (A) (A) (A) (A) (A)
                 (A) (A) (A) (A) (A) (A) (A) (A) (A) (A) (A) (A)
                 (A) (A) (A) (A) (A) (A) (A) (A) (A) (A) (A) (A)
                 (A) (A) (A) (A) (A) (A) (A) (A) (A) (A) (A) (A)
                 (A) (A) (A) (A) (A) (A) (A) (A) (A) (A) (A) (A)
                 (A) (A) (A) (A) (A) (A) (A) (A) (A) (A) (A) (A)
                 (A) (A) (A) (A) (A) (A) (A) (A) (A) (A) (A) (A)
                 (A) (A) (A) (A) (A) (A) (A) (A) (A) (A) (A) (A)
                 (A) (A) (A) (A) (A) (A) (A) (A) (A) (A) (A) (A)
                 (A) (A) (A) (A) (A) (A) (A) (A) (A) (A) (A) (A)
                 (A) (A) (A) (A) (A) (A) (A) (A) (A) (A) (A) (A)
                 (A) (A) (A) (A) (A) (A) (A) (A) (A) (A) (A) (A)
                 (A) (A) (A) (A) (A) (A) (A) (A) (A) (A) (A) (A)
                 (A) (A) (A) (A) (A) (A) (A) (A) (A) (A) (A) (A)
                 (A) (A) (A) (A) (A) (A) (A) (A) (A) (A) (A) (A)
                 (A) (A) (A) (A) (A) (A) (A) (A) (A) (A) (A) (A)
                 (A) (A) (A) (A) (A) (A) (A) (A) (A) (A) (A) (A)
                 (A) (A) (A) (A) (A) (A) (A) (A) (A) (A) (A) (A)
                 (A) (A) (A) (A) (A) (A) (A) (A) (A) (A) (A) (A)
                 (A) (A) (A) (A) (A) (A) (A) (A) (A) (A) (A) (A)
                 (A) (A) (A) (A) (A) (A) (A) (A) (A) (A) (A) (A)
                 (A) (A) (A) (A) (A) (A) (A) (A) (A) (A) (A) (A)
                 (A) (A) (A) (A) (A) (A) (A) (A) (A) (A) (A) (A)
                 (A) (A) (A) (A) (A) (A) (A) (A) (A) (A) (A) (A)
                 (A) (A) (A) (A) (A) (A) (A) (A) (A) (A) (A) (A)
                 (A) (A) (A) (A) (A) (A) (A) (A) (A) (A) (A) (A)
                 (A) (A) (A) (A) (A) (A) (A) (A) (A) (A) (A) (A)
                 (A) (A) (A) (A) (A) (A) (A) (A) (A) (A) (A) (A)
                 (A) (A) (A) (A) (A) (A) (A) (A) (A) (A) (A) (A)
                 (A) (A) (A) (A) (A) (A) (A) (A) (A) (A) (A) (A)
                 (A) (A) (A) (A) (A) (A) (A) (A) (A) (A) (A) (A)
                 (A) (A) (A) (A) (A) (A) (A) (A) (A) (A) (A) (A)
                 (A) (A) (A) (A) (A) (A) (A) (A) (A) (A) (A) (A)
                 (A) (A) (A) (A) (A) (A) (A) (A) (A) (A) (A) (A)
                 (A) (A) (A) (A) (A) (A) (A) (A) (A) (A) (A) (A)
                 (A) (A) (A) (A) (A) (A) (A) (A) (A) (A) (A) (A)
                 (A) (A) (A) (A) (A) (A) (A) (A) (A) (A) (A) (A)
                 (A) (A) (A) (A) (A) (A) (A) (A) (A) (A) (A) (A)
                 (A) (A) (A) (A) (A) (A) (A) (A) (A) (A) (A) (A)
                 (A) (A) (A) (A) (A) (A)
 The electronic state is 1-A.
 Alpha  occ. eigenvalues -- -256.17379 -30.02230 -25.86397 -25.86016 -25.85990
 Alpha  occ. eigenvalues --  -19.17739 -14.41478 -14.35717 -14.33901 -14.33043
 Alpha  occ. eigenvalues --  -14.32646 -14.32180 -10.25440 -10.23547 -10.21779
 Alpha  occ. eigenvalues --  -10.21549 -10.21203 -10.21126 -10.21020 -10.20981
 Alpha  occ. eigenvalues --  -10.20822 -10.20663 -10.20395 -10.20262 -10.20025
 Alpha  occ. eigenvalues --  -10.20008 -10.19716 -10.19575 -10.19443 -10.19375
 Alpha  occ. eigenvalues --  -10.19303 -10.19236 -10.19049 -10.18970 -10.18870
 Alpha  occ. eigenvalues --  -10.18867 -10.18849 -10.18778 -10.18772 -10.18757
 Alpha  occ. eigenvalues --  -10.18756 -10.18544 -10.18450 -10.18447 -10.18356
 Alpha  occ. eigenvalues --  -10.18248  -3.39882  -2.16484  -2.15786  -2.15659
 Alpha  occ. eigenvalues --   -1.05624  -1.05524  -0.97028  -0.96374  -0.95658
 Alpha  occ. eigenvalues --   -0.94997  -0.89930  -0.82228  -0.81399  -0.80674
 Alpha  occ. eigenvalues --   -0.80252  -0.80141  -0.79674  -0.79523  -0.79321
 Alpha  occ. eigenvalues --   -0.76109  -0.75011  -0.74215  -0.73607  -0.72455
 Alpha  occ. eigenvalues --   -0.71274  -0.70446  -0.69404  -0.68077  -0.67597
 Alpha  occ. eigenvalues --   -0.67281  -0.64267  -0.64166  -0.64050  -0.61422
 Alpha  occ. eigenvalues --   -0.61036  -0.59583  -0.58851  -0.57694  -0.57030
 Alpha  occ. eigenvalues --   -0.55526  -0.54244  -0.53485  -0.53098  -0.52255
 Alpha  occ. eigenvalues --   -0.51137  -0.50773  -0.50201  -0.48510  -0.47489
 Alpha  occ. eigenvalues --   -0.47380  -0.47326  -0.46938  -0.44902  -0.44613
 Alpha  occ. eigenvalues --   -0.44522  -0.43922  -0.43607  -0.43389  -0.43108
 Alpha  occ. eigenvalues --   -0.43002  -0.42844  -0.42703  -0.42561  -0.42369
 Alpha  occ. eigenvalues --   -0.42145  -0.41728  -0.41577  -0.41430  -0.41163
 Alpha  occ. eigenvalues --   -0.41134  -0.40967  -0.40305  -0.40279  -0.39911
 Alpha  occ. eigenvalues --   -0.39671  -0.39405  -0.39271  -0.39173  -0.38706
 Alpha  occ. eigenvalues --   -0.38420  -0.37637  -0.37245  -0.37107  -0.36718
 Alpha  occ. eigenvalues --   -0.35689  -0.35567  -0.35317  -0.34537  -0.34205
 Alpha  occ. eigenvalues --   -0.33894  -0.33380  -0.33166  -0.32291  -0.31833
 Alpha  occ. eigenvalues --   -0.31158  -0.30302  -0.29927  -0.29485  -0.28298
 Alpha  occ. eigenvalues --   -0.27522  -0.26790  -0.26635  -0.24433  -0.24130
 Alpha  occ. eigenvalues --   -0.23173  -0.22058  -0.21277  -0.19053  -0.18543
 Alpha  occ. eigenvalues --   -0.18126  -0.17688  -0.17448
 Alpha virt. eigenvalues --   -0.06942  -0.06666  -0.02094   0.00685   0.01027
 Alpha virt. eigenvalues --    0.02000   0.02323   0.03063   0.03504   0.04253
 Alpha virt. eigenvalues --    0.04726   0.05097   0.05220   0.05651   0.05845
 Alpha virt. eigenvalues --    0.06198   0.06433   0.06725   0.07260   0.07959
 Alpha virt. eigenvalues --    0.08150   0.08621   0.09123   0.09466   0.09516
 Alpha virt. eigenvalues --    0.09598   0.10140   0.10321   0.10667   0.11081
 Alpha virt. eigenvalues --    0.11353   0.11483   0.11770   0.12018   0.12050
 Alpha virt. eigenvalues --    0.12233   0.12424   0.12660   0.12859   0.13264
 Alpha virt. eigenvalues --    0.13397   0.13658   0.14048   0.14456   0.14745
 Alpha virt. eigenvalues --    0.14815   0.15139   0.15355   0.15378   0.15529
 Alpha virt. eigenvalues --    0.15838   0.16023   0.16250   0.16503   0.16659
 Alpha virt. eigenvalues --    0.16756   0.16941   0.17278   0.17477   0.17564
 Alpha virt. eigenvalues --    0.17991   0.18088   0.18550   0.19132   0.19515
 Alpha virt. eigenvalues --    0.19701   0.20220   0.20505   0.20782   0.20953
 Alpha virt. eigenvalues --    0.21350   0.21614   0.21972   0.22288   0.22432
 Alpha virt. eigenvalues --    0.22579   0.22719   0.23261   0.23484   0.23726
 Alpha virt. eigenvalues --    0.23907   0.24165   0.24370   0.24679   0.24972
 Alpha virt. eigenvalues --    0.25374   0.25626   0.25714   0.25864   0.26156
 Alpha virt. eigenvalues --    0.26391   0.27188   0.27782   0.28072   0.28171
 Alpha virt. eigenvalues --    0.28294   0.28478   0.28624   0.28719   0.28894
 Alpha virt. eigenvalues --    0.29314   0.29513   0.29839   0.30128   0.30329
 Alpha virt. eigenvalues --    0.30563   0.31067   0.31177   0.31472   0.31870
 Alpha virt. eigenvalues --    0.31945   0.32043   0.32523   0.32903   0.33077
 Alpha virt. eigenvalues --    0.33398   0.33612   0.33905   0.34171   0.34516
 Alpha virt. eigenvalues --    0.35075   0.35246   0.35336   0.35675   0.35954
 Alpha virt. eigenvalues --    0.36226   0.36343   0.36562   0.36694   0.37008
 Alpha virt. eigenvalues --    0.37469   0.37692   0.37902   0.38523   0.38742
 Alpha virt. eigenvalues --    0.38980   0.39143   0.39267   0.39479   0.39739
 Alpha virt. eigenvalues --    0.39960   0.40085   0.40231   0.40374   0.40594
 Alpha virt. eigenvalues --    0.40745   0.41001   0.41247   0.41598   0.41807
 Alpha virt. eigenvalues --    0.41955   0.42214   0.42485   0.42661   0.42732
 Alpha virt. eigenvalues --    0.43382   0.43567   0.43770   0.44002   0.44330
 Alpha virt. eigenvalues --    0.44556   0.44664   0.44733   0.44975   0.45162
 Alpha virt. eigenvalues --    0.45235   0.45389   0.45491   0.45753   0.46014
 Alpha virt. eigenvalues --    0.46302   0.46369   0.46532   0.47199   0.47341
 Alpha virt. eigenvalues --    0.47470   0.47650   0.48014   0.48257   0.48469
 Alpha virt. eigenvalues --    0.48627   0.48920   0.48979   0.49166   0.49534
 Alpha virt. eigenvalues --    0.49704   0.50016   0.50215   0.50597   0.50787
 Alpha virt. eigenvalues --    0.51010   0.51119   0.51353   0.51406   0.51776
 Alpha virt. eigenvalues --    0.52315   0.52393   0.52544   0.53259   0.53547
 Alpha virt. eigenvalues --    0.53635   0.54005   0.54351   0.54421   0.54575
 Alpha virt. eigenvalues --    0.54742   0.55223   0.55477   0.55779   0.55982
 Alpha virt. eigenvalues --    0.56162   0.56576   0.56711   0.57094   0.57321
 Alpha virt. eigenvalues --    0.57705   0.57933   0.58292   0.58347   0.58882
 Alpha virt. eigenvalues --    0.58972   0.59098   0.59610   0.59826   0.60041
 Alpha virt. eigenvalues --    0.60261   0.60497   0.61213   0.61325   0.61875
 Alpha virt. eigenvalues --    0.62268   0.62479   0.62764   0.63009   0.63145
 Alpha virt. eigenvalues --    0.63395   0.64017   0.64264   0.64430   0.64687
 Alpha virt. eigenvalues --    0.65166   0.65272   0.65629   0.66047   0.66291
 Alpha virt. eigenvalues --    0.66592   0.66795   0.67085   0.67412   0.67818
 Alpha virt. eigenvalues --    0.68099   0.68163   0.68576   0.68927   0.68983
 Alpha virt. eigenvalues --    0.69144   0.69362   0.69974   0.70307   0.70538
 Alpha virt. eigenvalues --    0.70793   0.71130   0.71489   0.71613   0.71984
 Alpha virt. eigenvalues --    0.72362   0.72769   0.73286   0.73529   0.73836
 Alpha virt. eigenvalues --    0.74141   0.74506   0.74598   0.75436   0.75602
 Alpha virt. eigenvalues --    0.75919   0.76011   0.76160   0.76612   0.77001
 Alpha virt. eigenvalues --    0.77669   0.78015   0.78229   0.78542   0.78658
 Alpha virt. eigenvalues --    0.79113   0.79175   0.79391   0.79829   0.80227
 Alpha virt. eigenvalues --    0.80841   0.81577   0.81876   0.82079   0.82729
 Alpha virt. eigenvalues --    0.82801   0.83038   0.83607   0.83686   0.84144
 Alpha virt. eigenvalues --    0.84391   0.84858   0.85474   0.85554   0.85970
 Alpha virt. eigenvalues --    0.86547   0.86790   0.87449   0.87515   0.88127
 Alpha virt. eigenvalues --    0.88688   0.88754   0.89026   0.89328   0.89949
 Alpha virt. eigenvalues --    0.90106   0.90538   0.90688   0.91131   0.91571
 Alpha virt. eigenvalues --    0.92018   0.92577   0.92680   0.92916   0.93310
 Alpha virt. eigenvalues --    0.93692   0.94317   0.94801   0.94851   0.95220
 Alpha virt. eigenvalues --    0.95667   0.95967   0.96408   0.96503   0.96747
 Alpha virt. eigenvalues --    0.97557   0.97724   0.98170   0.98375   0.98504
 Alpha virt. eigenvalues --    0.98805   0.99293   0.99453   0.99647   1.00087
 Alpha virt. eigenvalues --    1.00229   1.00617   1.00708   1.01198   1.01478
 Alpha virt. eigenvalues --    1.01752   1.02247   1.02416   1.03025   1.03566
 Alpha virt. eigenvalues --    1.03843   1.04112   1.04362   1.04854   1.05565
 Alpha virt. eigenvalues --    1.05681   1.06230   1.06497   1.06587   1.07174
 Alpha virt. eigenvalues --    1.07569   1.08246   1.08716   1.09046   1.09195
 Alpha virt. eigenvalues --    1.09258   1.10081   1.10422   1.10678   1.11373
 Alpha virt. eigenvalues --    1.11494   1.12451   1.12736   1.13057   1.13327
 Alpha virt. eigenvalues --    1.13750   1.14717   1.15041   1.15906   1.16028
 Alpha virt. eigenvalues --    1.16482   1.16770   1.17181   1.17389   1.17749
 Alpha virt. eigenvalues --    1.18066   1.18494   1.18958   1.19101   1.19462
 Alpha virt. eigenvalues --    1.19851   1.20868   1.21264   1.21597   1.21817
 Alpha virt. eigenvalues --    1.22213   1.22414   1.22578   1.23090   1.23923
 Alpha virt. eigenvalues --    1.24189   1.24305   1.25327   1.25855   1.26082
 Alpha virt. eigenvalues --    1.26429   1.26544   1.27357   1.27590   1.27901
 Alpha virt. eigenvalues --    1.28288   1.28509   1.28892   1.29123   1.29992
 Alpha virt. eigenvalues --    1.30371   1.30716   1.31225   1.31768   1.32053
 Alpha virt. eigenvalues --    1.32294   1.32925   1.33186   1.33290   1.34753
 Alpha virt. eigenvalues --    1.35784   1.36033   1.36184   1.36984   1.37818
 Alpha virt. eigenvalues --    1.38157   1.38300   1.38813   1.39184   1.39504
 Alpha virt. eigenvalues --    1.39956   1.40619   1.41164   1.41654   1.41737
 Alpha virt. eigenvalues --    1.42504   1.42808   1.43608   1.44159   1.44417
 Alpha virt. eigenvalues --    1.45076   1.45423   1.45889   1.46740   1.46772
 Alpha virt. eigenvalues --    1.47114   1.47318   1.47619   1.48171   1.48327
 Alpha virt. eigenvalues --    1.48667   1.48939   1.49167   1.49726   1.49912
 Alpha virt. eigenvalues --    1.50089   1.50335   1.50829   1.51069   1.51265
 Alpha virt. eigenvalues --    1.51538   1.51976   1.52498   1.52704   1.53015
 Alpha virt. eigenvalues --    1.53251   1.53742   1.53878   1.54230   1.54304
 Alpha virt. eigenvalues --    1.54640   1.54868   1.55016   1.55551   1.55840
 Alpha virt. eigenvalues --    1.56203   1.56391   1.56659   1.57160   1.57549
 Alpha virt. eigenvalues --    1.57983   1.58001   1.58542   1.58804   1.58949
 Alpha virt. eigenvalues --    1.59885   1.59953   1.60159   1.60393   1.60486
 Alpha virt. eigenvalues --    1.60712   1.61503   1.61572   1.61851   1.62071
 Alpha virt. eigenvalues --    1.62339   1.62620   1.63085   1.63294   1.63442
 Alpha virt. eigenvalues --    1.63520   1.63760   1.64343   1.64848   1.65033
 Alpha virt. eigenvalues --    1.65242   1.65499   1.66327   1.66589   1.66815
 Alpha virt. eigenvalues --    1.67315   1.67756   1.68003   1.68311   1.68724
 Alpha virt. eigenvalues --    1.69151   1.69350   1.69977   1.70036   1.70696
 Alpha virt. eigenvalues --    1.71060   1.71462   1.71817   1.71963   1.72452
 Alpha virt. eigenvalues --    1.72539   1.73379   1.73461   1.73648   1.74470
 Alpha virt. eigenvalues --    1.74579   1.74806   1.75267   1.75675   1.76318
 Alpha virt. eigenvalues --    1.76482   1.76895   1.77693   1.78257   1.78904
 Alpha virt. eigenvalues --    1.79264   1.79743   1.80154   1.81058   1.81522
 Alpha virt. eigenvalues --    1.82318   1.82685   1.83246   1.83460   1.83560
 Alpha virt. eigenvalues --    1.84205   1.84439   1.84976   1.85109   1.85350
 Alpha virt. eigenvalues --    1.86066   1.86560   1.86735   1.87424   1.87730
 Alpha virt. eigenvalues --    1.88329   1.88743   1.89464   1.90080   1.90224
 Alpha virt. eigenvalues --    1.90689   1.90989   1.91400   1.91921   1.92497
 Alpha virt. eigenvalues --    1.92681   1.93889   1.93915   1.94263   1.94454
 Alpha virt. eigenvalues --    1.95496   1.96248   1.96722   1.97141   1.97332
 Alpha virt. eigenvalues --    1.98191   1.98406   1.98818   1.98996   1.99522
 Alpha virt. eigenvalues --    1.99891   2.00417   2.00911   2.01242   2.01631
 Alpha virt. eigenvalues --    2.02016   2.02388   2.02948   2.03380   2.03733
 Alpha virt. eigenvalues --    2.03859   2.04104   2.05459   2.05689   2.06066
 Alpha virt. eigenvalues --    2.06382   2.07119   2.07292   2.07851   2.07883
 Alpha virt. eigenvalues --    2.08473   2.08996   2.09859   2.10148   2.10259
 Alpha virt. eigenvalues --    2.10980   2.11835   2.12349   2.12995   2.13435
 Alpha virt. eigenvalues --    2.13555   2.14071   2.14264   2.14615   2.14918
 Alpha virt. eigenvalues --    2.15400   2.15766   2.16429   2.16678   2.17384
 Alpha virt. eigenvalues --    2.17568   2.18132   2.18292   2.18962   2.19188
 Alpha virt. eigenvalues --    2.19684   2.20170   2.20712   2.21262   2.21514
 Alpha virt. eigenvalues --    2.21694   2.22381   2.22454   2.22730   2.23578
 Alpha virt. eigenvalues --    2.24521   2.25376   2.25613   2.26293   2.26604
 Alpha virt. eigenvalues --    2.26768   2.27213   2.27640   2.27868   2.28929
 Alpha virt. eigenvalues --    2.29547   2.29629   2.29963   2.30367   2.30974
 Alpha virt. eigenvalues --    2.31117   2.31437   2.31843   2.32067   2.32709
 Alpha virt. eigenvalues --    2.33160   2.33217   2.33812   2.34560   2.35276
 Alpha virt. eigenvalues --    2.35729   2.35789   2.35914   2.36444   2.36721
 Alpha virt. eigenvalues --    2.37170   2.37325   2.37661   2.38042   2.38843
 Alpha virt. eigenvalues --    2.38965   2.39797   2.39815   2.40064   2.40598
 Alpha virt. eigenvalues --    2.41035   2.41732   2.41973   2.42209   2.42811
 Alpha virt. eigenvalues --    2.43150   2.43551   2.43654   2.44351   2.44596
 Alpha virt. eigenvalues --    2.45896   2.46669   2.46792   2.46914   2.47398
 Alpha virt. eigenvalues --    2.47904   2.48472   2.49074   2.49426   2.50270
 Alpha virt. eigenvalues --    2.50362   2.50583   2.50723   2.51057   2.51651
 Alpha virt. eigenvalues --    2.51969   2.52573   2.53030   2.53400   2.53768
 Alpha virt. eigenvalues --    2.53894   2.54079   2.54694   2.54962   2.55518
 Alpha virt. eigenvalues --    2.55768   2.56564   2.56732   2.57392   2.57803
 Alpha virt. eigenvalues --    2.57969   2.58269   2.58537   2.58916   2.59303
 Alpha virt. eigenvalues --    2.60244   2.60580   2.60827   2.61020   2.61474
 Alpha virt. eigenvalues --    2.61834   2.62586   2.62777   2.63271   2.63787
 Alpha virt. eigenvalues --    2.64380   2.64444   2.64950   2.65369   2.65575
 Alpha virt. eigenvalues --    2.65925   2.66256   2.66842   2.67082   2.67421
 Alpha virt. eigenvalues --    2.67596   2.68307   2.68849   2.69257   2.69344
 Alpha virt. eigenvalues --    2.69830   2.70259   2.70824   2.71117   2.71575
 Alpha virt. eigenvalues --    2.72395   2.72687   2.73308   2.73683   2.73749
 Alpha virt. eigenvalues --    2.74588   2.74612   2.74992   2.75290   2.75698
 Alpha virt. eigenvalues --    2.76434   2.76459   2.77118   2.77187   2.77799
 Alpha virt. eigenvalues --    2.78144   2.78607   2.79201   2.79473   2.80449
 Alpha virt. eigenvalues --    2.80737   2.81454   2.81770   2.82238   2.82626
 Alpha virt. eigenvalues --    2.82723   2.83312   2.83926   2.83966   2.85349
 Alpha virt. eigenvalues --    2.85663   2.85986   2.86270   2.86905   2.87564
 Alpha virt. eigenvalues --    2.87745   2.88415   2.88738   2.88966   2.89422
 Alpha virt. eigenvalues --    2.90058   2.90284   2.90435   2.90792   2.91358
 Alpha virt. eigenvalues --    2.91870   2.92100   2.92682   2.92912   2.93020
 Alpha virt. eigenvalues --    2.93426   2.93790   2.94202   2.94548   2.94801
 Alpha virt. eigenvalues --    2.95673   2.95705   2.96076   2.96608   2.96740
 Alpha virt. eigenvalues --    2.97236   2.97453   2.97744   2.97865   2.98423
 Alpha virt. eigenvalues --    2.98717   2.98962   2.99543   3.00042   3.00326
 Alpha virt. eigenvalues --    3.00760   3.01314   3.01589   3.02463   3.02813
 Alpha virt. eigenvalues --    3.03200   3.03380   3.03893   3.04125   3.04497
 Alpha virt. eigenvalues --    3.04718   3.05237   3.05728   3.05907   3.06031
 Alpha virt. eigenvalues --    3.06603   3.06805   3.07301   3.07635   3.07951
 Alpha virt. eigenvalues --    3.08103   3.08850   3.09039   3.09302   3.09619
 Alpha virt. eigenvalues --    3.09954   3.10359   3.10401   3.10514   3.11546
 Alpha virt. eigenvalues --    3.11645   3.11782   3.12015   3.12518   3.12709
 Alpha virt. eigenvalues --    3.13140   3.13476   3.13842   3.13948   3.14721
 Alpha virt. eigenvalues --    3.14895   3.15104   3.15437   3.16197   3.16292
 Alpha virt. eigenvalues --    3.16513   3.16839   3.17033   3.17229   3.17798
 Alpha virt. eigenvalues --    3.18103   3.18218   3.18663   3.19089   3.19493
 Alpha virt. eigenvalues --    3.19790   3.20234   3.20427   3.20683   3.20806
 Alpha virt. eigenvalues --    3.21336   3.21527   3.21936   3.22212   3.22714
 Alpha virt. eigenvalues --    3.22903   3.23286   3.24021   3.24078   3.24386
 Alpha virt. eigenvalues --    3.24523   3.24668   3.25106   3.25282   3.25886
 Alpha virt. eigenvalues --    3.25972   3.26277   3.26691   3.26784   3.27005
 Alpha virt. eigenvalues --    3.27228   3.27805   3.28140   3.28298   3.28704
 Alpha virt. eigenvalues --    3.28894   3.29500   3.29728   3.30156   3.30547
 Alpha virt. eigenvalues --    3.30723   3.30891   3.31384   3.31722   3.31871
 Alpha virt. eigenvalues --    3.31951   3.32568   3.33149   3.33407   3.33535
 Alpha virt. eigenvalues --    3.33810   3.33941   3.34084   3.34417   3.34588
 Alpha virt. eigenvalues --    3.35233   3.35553   3.35778   3.36041   3.36351
 Alpha virt. eigenvalues --    3.36540   3.36689   3.36868   3.37273   3.37641
 Alpha virt. eigenvalues --    3.38142   3.38545   3.38705   3.38836   3.39094
 Alpha virt. eigenvalues --    3.39797   3.39945   3.40249   3.40655   3.41141
 Alpha virt. eigenvalues --    3.41461   3.41590   3.41927   3.42316   3.42545
 Alpha virt. eigenvalues --    3.42761   3.42955   3.44002   3.44097   3.44526
 Alpha virt. eigenvalues --    3.44663   3.45229   3.45556   3.45923   3.46254
 Alpha virt. eigenvalues --    3.46774   3.46955   3.47411   3.47862   3.48058
 Alpha virt. eigenvalues --    3.48451   3.49331   3.49688   3.50120   3.50601
 Alpha virt. eigenvalues --    3.50927   3.51291   3.52112   3.52629   3.52721
 Alpha virt. eigenvalues --    3.53264   3.53683   3.54239   3.54469   3.55072
 Alpha virt. eigenvalues --    3.56065   3.56219   3.56499   3.57296   3.57608
 Alpha virt. eigenvalues --    3.57787   3.58489   3.59056   3.59734   3.60424
 Alpha virt. eigenvalues --    3.61079   3.61454   3.61783   3.61916   3.62637
 Alpha virt. eigenvalues --    3.62777   3.63386   3.63656   3.64173   3.64665
 Alpha virt. eigenvalues --    3.64980   3.65457   3.65802   3.66343   3.66506
 Alpha virt. eigenvalues --    3.66912   3.67119   3.67405   3.67903   3.68344
 Alpha virt. eigenvalues --    3.68501   3.69262   3.69853   3.69987   3.70271
 Alpha virt. eigenvalues --    3.70569   3.71556   3.71632   3.72115   3.72444
 Alpha virt. eigenvalues --    3.73176   3.73493   3.73738   3.74122   3.74491
 Alpha virt. eigenvalues --    3.75073   3.75647   3.75935   3.76218   3.76555
 Alpha virt. eigenvalues --    3.77381   3.78122   3.78588   3.78859   3.79626
 Alpha virt. eigenvalues --    3.79745   3.80122   3.80955   3.81829   3.82358
 Alpha virt. eigenvalues --    3.83194   3.83295   3.84364   3.85133   3.85336
 Alpha virt. eigenvalues --    3.85863   3.86329   3.87321   3.87857   3.88504
 Alpha virt. eigenvalues --    3.88901   3.89365   3.89677   3.90031   3.90690
 Alpha virt. eigenvalues --    3.91355   3.92211   3.92669   3.93238   3.94014
 Alpha virt. eigenvalues --    3.94928   3.95622   3.96042   3.96970   3.97461
 Alpha virt. eigenvalues --    3.98003   3.98273   3.98813   3.99378   4.00055
 Alpha virt. eigenvalues --    4.00638   4.00825   4.01494   4.02667   4.02932
 Alpha virt. eigenvalues --    4.03362   4.04315   4.04864   4.05082   4.05972
 Alpha virt. eigenvalues --    4.06464   4.07089   4.07593   4.08613   4.09414
 Alpha virt. eigenvalues --    4.09928   4.10623   4.10705   4.11447   4.12614
 Alpha virt. eigenvalues --    4.13552   4.13695   4.14296   4.15626   4.15729
 Alpha virt. eigenvalues --    4.15992   4.17057   4.17470   4.17747   4.18232
 Alpha virt. eigenvalues --    4.18562   4.19079   4.19503   4.19900   4.20446
 Alpha virt. eigenvalues --    4.20606   4.20867   4.22158   4.22392   4.23163
 Alpha virt. eigenvalues --    4.23931   4.24187   4.24491   4.25267   4.25287
 Alpha virt. eigenvalues --    4.25753   4.26039   4.26826   4.27325   4.27764
 Alpha virt. eigenvalues --    4.28486   4.28557   4.29225   4.30541   4.30872
 Alpha virt. eigenvalues --    4.31687   4.32437   4.32625   4.33431   4.33947
 Alpha virt. eigenvalues --    4.34240   4.35229   4.35834   4.36307   4.37130
 Alpha virt. eigenvalues --    4.37368   4.37516   4.38087   4.38439   4.39170
 Alpha virt. eigenvalues --    4.39805   4.39903   4.40439   4.40911   4.41128
 Alpha virt. eigenvalues --    4.41754   4.42703   4.42921   4.43841   4.44624
 Alpha virt. eigenvalues --    4.45196   4.46713   4.47245   4.48155   4.48754
 Alpha virt. eigenvalues --    4.49335   4.50108   4.52869   4.53167   4.54083
 Alpha virt. eigenvalues --    4.54340   4.55004   4.55699   4.56941   4.57152
 Alpha virt. eigenvalues --    4.58607   4.59102   4.60526   4.61026   4.61739
 Alpha virt. eigenvalues --    4.62975   4.63596   4.64433   4.65136   4.65577
 Alpha virt. eigenvalues --    4.66560   4.66997   4.67673   4.68398   4.68585
 Alpha virt. eigenvalues --    4.69619   4.70572   4.71707   4.72231   4.73127
 Alpha virt. eigenvalues --    4.73323   4.74256   4.75272   4.75635   4.76533
 Alpha virt. eigenvalues --    4.77337   4.78252   4.79730   4.81408   4.81885
 Alpha virt. eigenvalues --    4.82292   4.83028   4.83606   4.85096   4.85770
 Alpha virt. eigenvalues --    4.86366   4.86538   4.86932   4.87909   4.88894
 Alpha virt. eigenvalues --    4.89944   4.90779   4.91898   4.93124   4.93590
 Alpha virt. eigenvalues --    4.93924   4.95200   4.95754   4.96771   4.97551
 Alpha virt. eigenvalues --    4.97777   4.98206   4.99242   5.00714   5.02242
 Alpha virt. eigenvalues --    5.03387   5.03681   5.04108   5.05106   5.05570
 Alpha virt. eigenvalues --    5.06203   5.07110   5.08458   5.09466   5.09704
 Alpha virt. eigenvalues --    5.10269   5.10996   5.12172   5.12717   5.16011
 Alpha virt. eigenvalues --    5.17082   5.17336   5.19139   5.19789   5.20605
 Alpha virt. eigenvalues --    5.20854   5.21528   5.22746   5.24105   5.25613
 Alpha virt. eigenvalues --    5.26726   5.27561   5.28015   5.29818   5.30255
 Alpha virt. eigenvalues --    5.34744   5.35450   5.36850   5.37379   5.38066
 Alpha virt. eigenvalues --    5.38998   5.39692   5.40415   5.40843   5.41403
 Alpha virt. eigenvalues --    5.42481   5.42729   5.44024   5.44657   5.46041
 Alpha virt. eigenvalues --    5.47492   5.49426   5.50150   5.52059   5.52780
 Alpha virt. eigenvalues --    5.53139   5.53277   5.53771   5.57245   5.58456
 Alpha virt. eigenvalues --    5.59119   5.60023   5.60320   5.63384   5.63863
 Alpha virt. eigenvalues --    5.65495   5.65673   5.67635   5.68890   5.69362
 Alpha virt. eigenvalues --    5.71416   5.73449   5.74602   5.75536   5.76378
 Alpha virt. eigenvalues --    5.81558   5.82968   5.91842   5.92914   5.94095
 Alpha virt. eigenvalues --    5.95884   6.00509   6.01439   6.03313   6.04016
 Alpha virt. eigenvalues --    6.07393   6.08933   6.10262   6.11961   6.14161
 Alpha virt. eigenvalues --    6.18749   6.19258   6.24046   6.24336   6.32890
 Alpha virt. eigenvalues --    6.36684   6.45403   6.47951   6.52220   6.54228
 Alpha virt. eigenvalues --    6.69239   6.97114   7.28163  22.27096  22.29763
 Alpha virt. eigenvalues --   22.32849  22.33741  22.34211  22.42436  22.44583
 Alpha virt. eigenvalues --   22.46179  22.48187  22.74734  22.75402  22.81092
 Alpha virt. eigenvalues --   22.83847  22.90452  22.92966  22.94494  22.96470
 Alpha virt. eigenvalues --   23.00754  23.01746  23.07673  23.11375  23.17345
 Alpha virt. eigenvalues --   23.26987  23.31428  23.32820  23.38043  23.41131
 Alpha virt. eigenvalues --   23.48909  23.53325  23.54921  23.69319  23.72708
 Alpha virt. eigenvalues --   23.76429  23.84622  32.43950  32.69675  32.94912
 Alpha virt. eigenvalues --   32.97179  33.02458  33.10941  44.08283
          Condensed to atoms (all electrons):
 Mulliken charges:
               1
     1  Fe  -0.151079
     2  N   -0.068826
     3  N   -0.064647
     4  N   -0.089958
     5  N    0.014442
     6  C    0.225933
     7  C   -0.043776
     8  C   -0.050302
     9  C    0.175384
    10  C    0.251779
    11  C   -0.052085
    12  C    0.076832
    13  C    0.191434
    14  C    0.202633
    15  C   -0.015977
    16  C   -0.031737
    17  C    0.307299
    18  C    0.193298
    19  C   -0.027119
    20  C   -0.033675
    21  C    0.278869
    22  C   -0.448836
    23  H    0.133410
    24  C   -0.477363
    25  H    0.114311
    26  C   -0.478680
    27  H    0.132365
    28  C   -0.464017
    29  H    0.096155
    30  C   -0.408389
    31  H    0.120690
    32  H    0.135705
    33  H    0.132030
    34  C   -0.424053
    35  H    0.130499
    36  H    0.136809
    37  H    0.123119
    38  C   -0.454173
    39  H    0.122484
    40  H    0.134974
    41  H    0.162842
    42  C   -0.180110
    43  H    0.106068
    44  C   -0.280668
    45  H    0.127725
    46  H    0.119502
    47  C   -0.421454
    48  H    0.132261
    49  H    0.138516
    50  H    0.126554
    51  C   -0.180507
    52  H    0.104602
    53  C   -0.273854
    54  H    0.119782
    55  H    0.118491
    56  C   -0.447422
    57  H    0.139274
    58  H    0.128253
    59  H    0.137975
    60  C   -0.431883
    61  H    0.142029
    62  H    0.138604
    63  H    0.128915
    64  O   -0.568449
    65  H    0.361949
    66  H    0.326983
    67  C   -0.394726
    68  H    0.146441
    69  H    0.133839
    70  H    0.134796
    71  N   -0.218760
    72  H    0.228214
    73  C    0.160870
    74  C    0.031911
    75  H    0.175019
    76  N   -0.004616
    77  C   -0.173489
    78  H    0.158761
 Sum of Mulliken charges =  -0.00000
 Mulliken charges with hydrogens summed into heavy atoms:
               1
     1  Fe  -0.151079
     2  N   -0.068826
     3  N   -0.064647
     4  N   -0.089958
     5  N    0.014442
     6  C    0.225933
     7  C   -0.043776
     8  C   -0.050302
     9  C    0.175384
    10  C    0.251779
    11  C   -0.052085
    12  C    0.076832
    13  C    0.191434
    14  C    0.202633
    15  C   -0.015977
    16  C   -0.031737
    17  C    0.307299
    18  C    0.193298
    19  C   -0.027119
    20  C   -0.033675
    21  C    0.278869
    22  C   -0.315426
    24  C   -0.363052
    26  C   -0.346316
    28  C   -0.367861
    30  C   -0.019964
    34  C   -0.033626
    38  C   -0.033874
    42  C   -0.074042
    44  C   -0.033441
    47  C   -0.024122
    51  C   -0.075906
    53  C   -0.035580
    56  C   -0.041920
    60  C   -0.022336
    64  O    0.120484
    67  C    0.020350
    71  N    0.009454
    73  C    0.160870
    74  C    0.206930
    76  N   -0.004616
    77  C   -0.014728
 Electronic spatial extent (au):  <R**2>=          20138.9892
 Charge=             -0.0000 electrons
 Dipole moment (field-independent basis, Debye):
    X=              0.0383    Y=             -1.8721    Z=              3.1639  Tot=              3.6764
 Quadrupole moment (field-independent basis, Debye-Ang):
   XX=           -242.4847   YY=           -248.4075   ZZ=           -225.0998
   XY=              2.1258   XZ=              2.9290   YZ=              4.0379
 Traceless Quadrupole moment (field-independent basis, Debye-Ang):
   XX=             -3.8207   YY=             -9.7435   ZZ=             13.5642
   XY=              2.1258   XZ=              2.9290   YZ=              4.0379
 Octapole moment (field-independent basis, Debye-Ang**2):
  XXX=            -48.0715  YYY=            -41.1446  ZZZ=             84.2200  XYY=             11.5355
  XXY=            -40.1016  XXZ=             10.9023  XZZ=             15.0178  YZZ=            -11.7625
  YYZ=            -10.4487  XYZ=              9.5752
 Hexadecapole moment (field-independent basis, Debye-Ang**3):
 XXXX=         -12282.6617 YYYY=         -11887.0410 ZZZZ=          -2744.6551 XXXY=            -48.4781
 XXXZ=            102.7281 YYYX=            122.4544 YYYZ=             62.0214 ZZZX=             28.8025
 ZZZY=             86.1549 XXYY=          -4058.7248 XXZZ=          -2671.9820 YYZZ=          -2703.1573
 XXYZ=              6.5809 YYXZ=            -21.8277 ZZXY=              4.7813
 N-N= 5.946287227497D+03 E-N=-1.890567940882D+04  KE= 2.972616127493D+03
  Exact polarizability:     730.789      -1.008     716.916      15.132       0.099     310.324
 Approx polarizability:    1358.582       2.775    1329.867      40.424       0.669     494.447

 ----------------------------------------------------------------------

 Electric dipole moment (input orientation):
 (Debye = 10**-18 statcoulomb cm , SI units = C m)
                  (au)            (Debye)         (10**-30 SI)
   Tot        0.144642D+01      0.367643D+01      0.122633D+02
   x          0.970188D+00      0.246597D+01      0.822560D+01
   y         -0.964309D-01     -0.245103D+00     -0.817575D+00
   z         -0.106844D+01     -0.271571D+01     -0.905862D+01

 Dipole polarizability, Alpha (input orientation).
 (esu units = cm**3 , SI units = C**2 m**2 J**-1)
 Alpha(0;0):
               (au)            (10**-24 esu)      (10**-40 SI)
   iso        0.586010D+03      0.868377D+02      0.966200D+02
   aniso      0.414537D+03      0.614280D+02      0.683478D+02
   xx         0.632058D+03      0.936613D+02      0.104212D+03
   yx        -0.769561D+02     -0.114037D+02     -0.126883D+02
   yy         0.647171D+03      0.959009D+02      0.106704D+03
   zx         0.154318D+03      0.228676D+02      0.254436D+02
   zy         0.137355D+03      0.203539D+02      0.226468D+02
   zz         0.478800D+03      0.709509D+02      0.789435D+02

 First dipole hyperpolarizability, Beta (input orientation).
 ||, _|_  parallel and perpendicular components, (z) with respect to z axis,
 vector components x,y,z.  Values do not include the 1/n! factor of 1/2.
 (esu units = statvolt**-1 cm**4 , SI units = C**3 m**3 J**-2)
 Beta(0;0,0):
               (au)            (10**-30 esu)      (10**-50 SI)
   || (z)    -0.169508D+03     -0.146441D+01     -0.543502D+00
   _|_(z)    -0.565025D+02     -0.488138D+00     -0.181167D+00
   x         -0.418081D+04     -0.361189D+02     -0.134052D+02
   y          0.320257D+04      0.276677D+02      0.102686D+02
   z         -0.847538D+03     -0.732207D+01     -0.271751D+01
   ||         0.106684D+04      0.921670D+01      0.342069D+01
   xxx       -0.775399D+03     -0.669884D+01     -0.248621D+01
   xxy       -0.663016D+02     -0.572794D+00     -0.212587D+00
   yxy       -0.879696D+02     -0.759989D+00     -0.282062D+00
   yyy        0.673322D+03      0.581698D+01      0.215891D+01
   xxz       -0.660633D+03     -0.570735D+01     -0.211823D+01
   yxz       -0.215731D+03     -0.186375D+01     -0.691711D+00
   yyz        0.592335D+03      0.511731D+01      0.189924D+01
   zxz       -0.530233D+03     -0.458080D+01     -0.170012D+01
   zyz        0.460502D+03      0.397838D+01      0.147654D+01
   zzz       -0.214215D+03     -0.185065D+01     -0.686850D+00

 ----------------------------------------------------------------------

 Dipole orientation:
    26         76.92793776        145.20019075       -185.21231291
     7         76.90713710        148.54421201       -183.32281072
     7         73.04124817        145.53471048       -185.79243218
     7         76.85478186        141.74132450       -187.14888995
     7         80.50432643        144.89947136       -184.71904025
     6         78.97057497        149.61615122       -182.23753273
     6         78.26490966        152.06259839       -181.27093410
     6         75.74326151        152.40379656       -181.79284813
     6         74.90217771        150.15654173       -183.07663220
     6         71.60036066        147.51194174       -185.09065849
     6         69.07943381        147.03849456       -185.78265578
     6         69.00238502        144.72321054       -186.91603702
     6         71.60302529        143.76459115       -186.87697782
     6         74.78721699        140.68221463       -188.20094206
     6         75.62031748        138.58371699       -189.64719128
     6         78.27933355        138.49910412       -189.48135860
     6         78.98406826        140.47022635       -187.83209928
     6         82.05589691        143.03094360       -185.53050772
     6         84.63178341        143.37677090       -184.55197301
     6         84.63118879        145.52850966       -183.15593403
     6         81.99530466        146.38854188       -183.23589394
     6         81.34611123        148.58883092       -182.02278222
     1         82.75146296        149.54577622       -180.85984137
     6         72.45287354        149.76198865       -183.92927323
     1         71.09387395        151.29084707       -183.68735111
     6         72.31243207        141.47684284       -187.92051104
     1         70.81906397        140.21218081       -188.56693451
     6         81.40115746        140.99681771       -187.09656544
     1         82.90906340        139.76365089       -187.76498421
     6         74.05335894        154.65505782       -181.23361825
     1         75.17027151        156.14606697       -180.26392456
     1         72.47652977        154.06463718       -179.98140574
     1         73.29266422        155.43365605       -183.02832403
     6         80.08603319        153.83683625       -179.95856510
     1         81.94068083        153.78917596       -180.93934898
     1         80.35471900        153.23123496       -177.96568078
     1         79.33438602        155.79564646       -180.01916604
     6         66.85938970        148.77434577       -185.39829541
     1         67.54661674        150.73806102       -185.11891523
     1         65.78196720        148.18200222       -183.69789147
     1         65.61656598        148.72081442       -187.08935901
     6         66.78427454        143.30843459       -187.77873618
     1         67.03098651        141.84717349       -189.23433584
     6         64.45190769        143.66796052       -186.91451164
     1         64.07634987        145.10105222       -185.45565572
     1         62.87020959        142.53749455       -187.64693835
     6         73.81441247        136.92544504       -191.12970171
     1         72.34683366        138.12288099       -192.03702683
     1         72.87753403        135.56444468       -189.83665332
     1         74.86611239        135.88903210       -192.62184357
     6         80.15195071        136.63665105       -190.51496219
     1         82.17675550        137.10376941       -190.45822882
     6         79.51523787        134.40443425       -191.51971500
     1         77.52043586        133.82804138       -191.63069800
     1         80.97766310        133.11908229       -192.24693325
     6         86.92176062        141.78222900       -185.01101421
     1         87.94127040        142.49011159       -186.70497068
     1         86.34367748        139.79102690       -185.34726296
     1         88.20306248        141.88626451       -183.35208363
     6         86.86350864        146.68112806       -181.73862019
     1         88.64850352        146.19868094       -182.73235409
     1         86.93964125        145.90851078       -179.78727743
     1         86.66275705        148.76906671       -181.67618495
     8         77.43661589        147.55068228       -188.60588547
     1         77.46838173        149.26332020       -188.02594038
     1         77.58360999        147.03767427       -190.19947844
     6         77.50907402        138.53801697       -176.98183245
     1         79.49063245        137.99039006       -177.40643305
     1         76.29637907        136.82653460       -177.07091540
     1         77.43290536        139.37362136       -175.05689454
     7         74.19405605        141.37981230       -178.91176441
     1         72.83516524        140.84778970       -177.71220916
     6         76.62033211        140.44648293       -178.89316533
     6         73.95970166        143.06263473       -180.73787741
     1         72.22986551        144.09575837       -181.15883907
     7         76.15247972        143.25122764       -181.91985970
     6         77.84165285        141.62171448       -180.81194086
     1         79.76091948        141.45174877       -181.49693660

 Electric dipole moment (dipole orientation):
 (Debye = 10**-18 statcoulomb cm , SI units = C m)
                  (au)            (Debye)         (10**-30 SI)
   Tot        0.144642D+01      0.367643D+01      0.122633D+02
   x          0.000000D+00      0.000000D+00      0.000000D+00
   y          0.000000D+00      0.000000D+00      0.000000D+00
   z          0.144642D+01      0.367643D+01      0.122633D+02

 Dipole polarizability, Alpha (dipole orientation).
 (esu units = cm**3 , SI units = C**2 m**2 J**-1)
 Alpha(0;0):
               (au)            (10**-24 esu)      (10**-40 SI)
   iso        0.586010D+03      0.868377D+02      0.966200D+02
   aniso      0.414537D+03      0.614280D+02      0.683478D+02
   xx         0.718370D+03      0.106451D+03      0.118443D+03
   yx        -0.369896D+02     -0.548130D+01     -0.609877D+01
   yy         0.623668D+03      0.924180D+02      0.102829D+03
   zx         0.545661D+02      0.808586D+01      0.899673D+01
   zy         0.170331D+03      0.252405D+02      0.280838D+02
   zz         0.415992D+03      0.616436D+02      0.685877D+02

 First dipole hyperpolarizability, Beta (dipole orientation).
 ||, _|_  parallel and perpendicular components, (z) with respect to z axis,
 vector components x,y,z.  Values do not include the 1/n! factor of 1/2.
 (esu units = statvolt**-1 cm**4 , SI units = C**3 m**3 J**-2)
 Beta(0;0,0):
               (au)            (10**-30 esu)      (10**-50 SI)
   || (z)    -0.478346D+03     -0.413254D+01     -0.153375D+01
   _|_(z)    -0.159449D+03     -0.137751D+01     -0.511251D+00
   x         -0.358508D+04     -0.309723D+02     -0.114951D+02
   y         -0.314336D+04     -0.271562D+02     -0.100787D+02
   z         -0.239173D+04     -0.206627D+02     -0.766876D+01
   ||         0.106684D+04      0.921670D+01      0.342069D+01
   xxx       -0.164401D+04     -0.142030D+02     -0.527129D+01
   xxy       -0.482614D+01     -0.416941D-01     -0.154743D-01
   yxy        0.315646D+03      0.272694D+01      0.101208D+01
   yyy       -0.551716D+03     -0.476640D+01     -0.176900D+01
   xxz       -0.168545D+03     -0.145610D+01     -0.540417D+00
   yxz        0.263584D+03      0.227716D+01      0.845146D+00
   yyz       -0.463649D+03     -0.400557D+01     -0.148663D+01
   zxz        0.133336D+03      0.115192D+01      0.427523D+00
   zyz       -0.491244D+03     -0.424396D+01     -0.157510D+01
   zzz       -0.165050D+03     -0.142590D+01     -0.529210D+00

 ----------------------------------------------------------------------
 Unable to Open any file for archive entry.
 1\1\GINC-BGN1038\SP\RAPFD\def2TZVP\C34H36Fe1N6O1\BEBJONES\30-Oct-2024\
 0\\# polar def2tzvp apfd int=(grid=ultrafine)\\4oq7_II_S\\0,1\Fe,0,-37
 .542,-69.059,104.826\N,0,-36.925,-70.891,104.198\N,0,-39.277,-69.268,1
 03.685\N,0,-38.211,-67.166,105.435\N,0,-35.96,-68.869,105.892\C,0,-35.
 745,-71.467,104.544\C,0,-35.712,-72.802,104.002\C,0,-36.891,-72.998,10
 3.323\C,0,-37.646,-71.778,103.447\C,0,-39.62,-70.356,102.969\C,0,-40.8
 48,-70.116,102.328\C,0,-41.249,-68.855,102.662\C,0,-40.202,-68.315,103
 .536\C,0,-39.381,-66.598,105.075\C,0,-39.539,-65.428,105.862\C,0,-38.4
 36,-65.353,106.738\C,0,-37.601,-66.442,106.413\C,0,-35.614,-67.833,106
 .694\C,0,-34.261,-68.015,107.238\C,0,-33.795,-69.2,106.768\C,0,-34.869
 ,-69.687,105.894\C,0,-34.723,-70.9,105.267\H,0,-33.772,-71.427,105.345
 \C,0,-38.904,-71.573,102.897\H,0,-39.372,-72.407,102.374\C,0,-40.263,-
 67.061,104.115\H,0,-41.061,-66.391,103.793\C,0,-36.399,-66.713,107.002
 \H,0,-36.028,-66.018,107.755\C,0,-37.386,-74.229,102.584\H,0,-36.624,-
 75.035,102.654\H,0,-37.552,-73.983,101.514\H,0,-38.332,-74.587,103.043
 \C,0,-34.556,-73.76,104.198\H,0,-34.176,-73.675,105.238\H,0,-33.735,-7
 3.507,103.493\H,0,-34.899,-74.802,104.024\C,0,-41.606,-71.076,101.451\
 H,0,-41.264,-72.113,101.655\H,0,-41.417,-70.838,100.383\H,0,-42.693,-7
 1.005,101.669\C,0,-42.406,-68.108,102.162\H,0,-42.806,-67.282,102.767\
 C,0,-43.019,-68.36,101.009\H,0,-42.668,-69.173,100.356\H,0,-43.884,-67
 .759,100.694\C,0,-40.751,-64.525,105.742\H,0,-41.665,-65.145,105.618\H
 ,0,-40.641,-63.865,104.856\H,0,-40.854,-63.911,106.662\C,0,-38.043,-64
 .308,107.741\H,0,-37.235,-64.529,108.454\C,0,-38.619,-63.103,107.829\H
 ,0,-39.433,-62.822,107.144\H,0,-38.286,-62.379,108.587\C,0,-33.504,-67
 .126,108.174\H,0,-33.715,-67.426,109.223\H,0,-33.823,-66.071,108.03\H,
 0,-32.414,-67.222,107.984\C,0,-32.432,-69.828,107.047\H,0,-32.078,-69.
 514,108.052\H,0,-31.699,-69.488,106.284\H,0,-32.517,-70.935,107.025\O,
 0,-38.579,-70.173,106.416\H,0,-38.384,-71.097,106.261\H,0,-39.08,-69.8
 44,107.073\C,0,-34.302,-65.825,101.58\H,0,-33.668,-65.494,102.43\H,0,-
 34.786,-64.935,101.124\H,0,-33.66,-66.335,100.83\N,0,-36.326,-67.302,1
 01.258\H,0,-36.426,-67.082,100.288\C,0,-35.355,-66.777,102.079\C,0,-37
 .089,-68.129,101.948\H,0,-37.931,-68.683,101.535\N,0,-36.651,-68.157,1
 03.195\C,0,-35.573,-67.313,103.304\H,0,-35.061,-67.173,104.247\\Versio
 n=ES64L-G16RevC.02\State=1-A\HF=-2983.9842742\RMSD=2.095e-09\Dipole=0.
 9701881,-0.0964309,-1.0684415\Polar=632.0575604,-76.9560819,647.171481
 5,154.3179921,137.3550403,478.8004475\HyperPolar=-775.399077,-66.30156
 91,-87.9695961,673.3220773,-660.6328827,-215.7309422,592.3351323,-530.
 2331849,460.5024274,-214.2148171\Quadrupole=-3.3496434,-3.4115801,6.76
 12235,3.2887321,-1.8140087,-6.9987108\PG=C01 [X(C34H36Fe1N6O1)]\\@
 The archive entry for this job was punched.


 THAT'S WHAT MAKES US A GREAT COUNTRY.
 THE LITTLE THINGS ARE SERIOUS AND THE BIG ONES ARE NOT.
           WILL ROGERS
 Job cpu time:       2 days  5 hours 33 minutes 25.2 seconds.
 Elapsed time:       0 days  0 hours 46 minutes 24.7 seconds.
 File lengths (MBytes):  RWF=   1208 Int=      0 D2E=      0 Chk=    155 Scr=      1
 Normal termination of Gaussian 16 at Wed Oct 30 06:52:55 2024.
 Initial command:
 /sw/chem/gaussian/g16_C02/a100/g16/l1.exe "/local/bebjones_8064742/Gau-1128035.inp" -scrdir="/local/bebjones_8064742/"
 Entering Link 1 = /sw/chem/gaussian/g16_C02/a100/g16/l1.exe PID=   1129806.
  
 Copyright (c) 1988-2021, Gaussian, Inc.  All Rights Reserved.
  
 This is part of the Gaussian(R) 16 program.  It is based on
 the Gaussian(R) 09 system (copyright 2009, Gaussian, Inc.),
 the Gaussian(R) 03 system (copyright 2003, Gaussian, Inc.),
 the Gaussian(R) 98 system (copyright 1998, Gaussian, Inc.),
 the Gaussian(R) 94 system (copyright 1995, Gaussian, Inc.),
 the Gaussian 92(TM) system (copyright 1992, Gaussian, Inc.),
 the Gaussian 90(TM) system (copyright 1990, Gaussian, Inc.),
 the Gaussian 88(TM) system (copyright 1988, Gaussian, Inc.),
 the Gaussian 86(TM) system (copyright 1986, Carnegie Mellon
 University), and the Gaussian 82(TM) system (copyright 1983,
 Carnegie Mellon University). Gaussian is a federally registered
 trademark of Gaussian, Inc.
  
 This software contains proprietary and confidential information,
 including trade secrets, belonging to Gaussian, Inc.
  
 This software is provided under written license and may be
 used, copied, transmitted, or stored only in accord with that
 written license.
  
 The following legend is applicable only to US Government
 contracts under FAR:
  
                    RESTRICTED RIGHTS LEGEND
  
 Use, reproduction and disclosure by the US Government is
 subject to restrictions as set forth in subparagraphs (a)
 and (c) of the Commercial Computer Software - Restricted
 Rights clause in FAR 52.227-19.
  
 Gaussian, Inc.
 340 Quinnipiac St., Bldg. 40, Wallingford CT 06492
  
  
 ---------------------------------------------------------------
 Warning -- This program may not be used in any manner that
 competes with the business of Gaussian, Inc. or will provide
 assistance to any competitor of Gaussian, Inc.  The licensee
 of this program is prohibited from giving any competitor of
 Gaussian, Inc. access to this program.  By using this program,
 the user acknowledges that Gaussian, Inc. is engaged in the
 business of creating and licensing software in the field of
 computational chemistry and represents and warrants to the
 licensee that it is not a competitor of Gaussian, Inc. and that
 it will not use this program in any manner prohibited above.
 ---------------------------------------------------------------
  

 Cite this work as:
 Gaussian 16, Revision C.02,
 M. J. Frisch, G. W. Trucks, H. B. Schlegel, G. E. Scuseria, 
 M. A. Robb, J. R. Cheeseman, G. Scalmani, V. Barone, 
 G. A. Petersson, H. Nakatsuji, X. Li, M. Caricato, A. V. Marenich, 
 J. Bloino, B. G. Janesko, R. Gomperts, B. Mennucci, H. P. Hratchian, 
 J. V. Ortiz, A. F. Izmaylov, J. L. Sonnenberg, D. Williams-Young, 
 F. Ding, F. Lipparini, F. Egidi, J. Goings, B. Peng, A. Petrone, 
 T. Henderson, D. Ranasinghe, V. G. Zakrzewski, J. Gao, N. Rega, 
 G. Zheng, W. Liang, M. Hada, M. Ehara, K. Toyota, R. Fukuda, 
 J. Hasegawa, M. Ishida, T. Nakajima, Y. Honda, O. Kitao, H. Nakai, 
 T. Vreven, K. Throssell, J. A. Montgomery, Jr., J. E. Peralta, 
 F. Ogliaro, M. J. Bearpark, J. J. Heyd, E. N. Brothers, K. N. Kudin, 
 V. N. Staroverov, T. A. Keith, R. Kobayashi, J. Normand, 
 K. Raghavachari, A. P. Rendell, J. C. Burant, S. S. Iyengar, 
 J. Tomasi, M. Cossi, J. M. Millam, M. Klene, C. Adamo, R. Cammi, 
 J. W. Ochterski, R. L. Martin, K. Morokuma, O. Farkas, 
 J. B. Foresman, and D. J. Fox, Gaussian, Inc., Wallingford CT, 2019.
 
 ******************************************
 Gaussian 16:  ES64L-G16RevC.02  7-Dec-2021
                30-Oct-2024 
 ******************************************
 %mem=16GB
 %CPU=0-71
 SetSPE:  set environment variable "OMP_PROC_BIND" = "true"
[...]
                                                    192(r),271(r),244(r),172(r)
    94. BD (   2) C  74 - N  76          1.88188    -0.32024  1527(v),1407(v),1292(v)
                                                    153(r),151(r),152(r),154(r)
                                                    166(r),165(r),155(r),1441(r)
                                                    174(r),176(r)
    95. BD (   1) N  76 - C  77          1.97444    -0.78351  151(r),152(r),1522(v),155(r)
                                                    1528(v),1525(v),1526(g)
                                                    165(r),1524(v),1351(v)
                                                    1529(g),166(r),167(r),219(r)
                                                    271(r),192(r),220(r),269(r)
                                                    243(r),244(r),170(r),180(r)
                                                    172(r)
    96. BD (   1) C  77 - H  78          1.98093    -0.53855  1529(v),1524(v),1323(v)
                                                    1526(g),1381(v),152(r)
                                                    155(r),151(r),269(r),170(r)
                                                    154(r),169(r),618(r)
   141. CR (   1) C  67                  1.99943   -10.07566  1526(v),1524(v),1323(v)
   142. CR (   1) N  71                  1.99934   -14.21229  1351(v),1325(v),1522(v)
                                                    1319(v)
   143. CR (   1) C  73                  1.99908   -10.08870  1526(g),1408(v),1532(v)
                                                    1253(v)
   144. CR (   1) C  74                  1.99933   -10.12024  1381(v),1296(v),1523(v)
                                                    1531(v),152(r),151(r)
   145. CR (   1) N  76                  1.99937   -14.15473  151(r),152(r),155(r),1349(v)
                                                    1406(v),1528(v),167(r)
                                                    172(r),154(r),171(r)
   146. CR (   1) C  77                  1.99891   -10.05928  1323(v),1522(v),1526(g)
                                                    1382(v),1433(v),152(r)
                                                    151(r)
   162. LP (   1) N  71                  1.57106    -0.28421  1530(v),1527(v),1352(v)
                                                    1318(v),1324(v),1350(v)
   163. LP (   1) N  76                  1.63881    -0.35549  151(r),152(r),155(r),1525(v)
                                                    1526(v),1349(v),1528(v)
                                                    1532(v),1406(v),1529(g)
                                                    1383(g),154(r),1531(g)
                                                    169(r),150(r),181(r),243(r)
                                                    272(r),246(r),194(r),220(r)
                                                    1446(r),191(r),245(r),176(r)
                                                    217(r),219(r),1439(r)
                                                    1448(r),153(r),1437(r)
                                                    1447(r),1440(r),271(r)
                                                    269(r),1445(r),1443(r)
                                                    1442(r),193(r)
  1251. RY*(   1) C  67                  0.00114     1.11639   
  1252. RY*(   2) C  67                  0.00078     1.95903   
  1253. RY*(   3) C  67                  0.00051     1.32256   
  1254. RY*(   4) C  67                  0.00010     1.24131   
  1255. RY*(   5) C  67                  0.00009     2.12906   
  1256. RY*(   6) C  67                  0.00007     1.29875   
  1257. RY*(   7) C  67                  0.00001     1.40997   
  1258. RY*(   8) C  67                  0.00001     1.92864   
  1259. RY*(   9) C  67                  0.00001     1.40675   
  1260. RY*(  10) C  67                  0.00001     2.56783   
  1261. RY*(  11) C  67                  0.00001     1.46704   
  1262. RY*(  12) C  67                  0.00000     3.20792   
  1263. RY*(  13) C  67                  0.00000     2.61775   
  1264. RY*(  14) C  67                  0.00000     2.74377   
  1265. RY*(  15) C  67                  0.00000     2.36903   
  1266. RY*(  16) C  67                  0.00000     3.12828   
  1267. RY*(  17) C  67                  0.00000     2.56868   
  1268. RY*(  18) C  67                  0.00000    21.53674   
  1269. RY*(  19) C  67                  0.00000     2.75928   
  1270. RY*(  20) C  67                  0.00000     3.65989   
  1271. RY*(  21) C  67                  0.00001     3.34625   
  1272. RY*(  22) C  67                  0.00000     3.33861   
  1273. RY*(  23) C  67                  0.00000     3.69292   
  1274. RY*(  24) C  67                  0.00000     3.32282   
  1275. RY*(  25) C  67                  0.00000     3.32335   
  1276. RY*(  26) C  67                  0.00000     3.23396   
  1277. RY*(   1) H  68                  0.00024     1.28302   
  1278. RY*(   2) H  68                  0.00011     1.82380   
  1279. RY*(   3) H  68                  0.00008     2.02606   
  1280. RY*(   4) H  68                  0.00003     1.54873   
  1281. RY*(   5) H  68                  0.00001     2.84517   
  1282. RY*(   1) H  69                  0.00071     1.01071   
  1283. RY*(   2) H  69                  0.00014     1.72660   
  1284. RY*(   3) H  69                  0.00008     1.83954   
  1285. RY*(   4) H  69                  0.00005     2.01591   
  1286. RY*(   5) H  69                  0.00000     2.85387   
  1287. RY*(   1) H  70                  0.00073     1.02351   
  1288. RY*(   2) H  70                  0.00014     1.71158   
  1289. RY*(   3) H  70                  0.00008     1.83212   
  1290. RY*(   4) H  70                  0.00005     2.02114   
  1291. RY*(   5) H  70                  0.00000     2.85188   
  1292. RY*(   1) N  71                  0.00289     0.65368   
  1293. RY*(   2) N  71                  0.00244     1.78905   
  1294. RY*(   3) N  71                  0.00112     2.03947   
  1295. RY*(   4) N  71                  0.00082     2.21001   
  1296. RY*(   5) N  71                  0.00049     1.14227   
  1297. RY*(   6) N  71                  0.00026     2.18721   
  1298. RY*(   7) N  71                  0.00022     1.72355   
  1299. RY*(   8) N  71                  0.00007     2.32978   
  1300. RY*(   9) N  71                  0.00006     2.36178   
  1301. RY*(  10) N  71                  0.00007     3.92196   
  1302. RY*(  11) N  71                  0.00004     2.95897   
  1303. RY*(  12) N  71                  0.00000     2.13749   
  1304. RY*(  13) N  71                  0.00001     4.30483   
  1305. RY*(  14) N  71                  0.00001     3.68295   
  1306. RY*(  15) N  71                  0.00000     3.51030   
  1307. RY*(  16) N  71                  0.00000     2.53203   
  1308. RY*(  17) N  71                  0.00000     4.65286   
  1309. RY*(  18) N  71                  0.00000    30.57223   
  1310. RY*(  19) N  71                  0.00000     3.72152   
  1311. RY*(  20) N  71                  0.00000     4.64713   
  1312. RY*(  21) N  71                  0.00000     4.91130   
  1313. RY*(  22) N  71                  0.00000     4.41478   
  1314. RY*(  23) N  71                  0.00000     4.50736   
  1315. RY*(  24) N  71                  0.00000     4.36077   
  1316. RY*(  25) N  71                  0.00000     4.49011   
  1317. RY*(  26) N  71                  0.00000     4.39658   
  1318. RY*(   1) H  72                  0.00056     2.16069   
  1319. RY*(   2) H  72                  0.00038     2.07482   
  1320. RY*(   3) H  72                  0.00033     1.04440   
  1321. RY*(   4) H  72                  0.00020     2.63676   
  1322. RY*(   5) H  72                  0.00001     3.07996   
  1323. RY*(   1) C  73                  0.00427     1.68946   
  1324. RY*(   2) C  73                  0.00258     0.91864   
  1325. RY*(   3) C  73                  0.00195     1.45841   
  1326. RY*(   4) C  73                  0.00162     2.08299   
  1327. RY*(   5) C  73                  0.00128     1.78937   
  1328. RY*(   6) C  73                  0.00118     1.72497   
  1329. RY*(   7) C  73                  0.00036     2.89527   
  1330. RY*(   8) C  73                  0.00021     2.83637   
  1331. RY*(   9) C  73                  0.00013     2.40703   
  1332. RY*(  10) C  73                  0.00007     3.66207   
  1333. RY*(  11) C  73                  0.00003     2.89346   
  1334. RY*(  12) C  73                  0.00001     2.25514   
  1335. RY*(  13) C  73                  0.00001     1.33058   
  1336. RY*(  14) C  73                  0.00001     1.55792   
  1337. RY*(  15) C  73                  0.00001     2.85495   
  1338. RY*(  16) C  73                  0.00001     2.04899   
  1339. RY*(  17) C  73                  0.00000     3.59111   
  1340. RY*(  18) C  73                  0.00000     1.08778   
  1341. RY*(  19) C  73                  0.00000    20.82251   
  1342. RY*(  20) C  73                  0.00000     4.01638   
  1343. RY*(  21) C  73                  0.00001     3.43754   
  1344. RY*(  22) C  73                  0.00000     3.57771   
  1345. RY*(  23) C  73                  0.00000     3.81887   
  1346. RY*(  24) C  73                  0.00000     3.39228   
  1347. RY*(  25) C  73                  0.00000     3.57661   
  1348. RY*(  26) C  73                  0.00000     3.51451   
  1349. RY*(   1) C  74                  0.00412     1.62194   
  1350. RY*(   2) C  74                  0.00312     0.63805   
  1351. RY*(   3) C  74                  0.00237     1.27698   
  1352. RY*(   4) C  74                  0.00144     2.50295   
  1353. RY*(   5) C  74                  0.00086     1.69624   
  1354. RY*(   6) C  74                  0.00043     1.58517   
  1355. RY*(   7) C  74                  0.00024     1.78646   
  1356. RY*(   8) C  74                  0.00009     2.70609   
  1357. RY*(   9) C  74                  0.00004     2.10826   
  1358. RY*(  10) C  74                  0.00005     2.60238   
  1359. RY*(  11) C  74                  0.00003     3.23711   
  1360. RY*(  12) C  74                  0.00003     2.32040   
  1361. RY*(  13) C  74                  0.00002     2.02049   
  1362. RY*(  14) C  74                  0.00001     2.57874   
  1363. RY*(  15) C  74                  0.00002     2.57415   
  1364. RY*(  16) C  74                  0.00001     3.58387   
  1365. RY*(  17) C  74                  0.00001     2.79299   
  1366. RY*(  18) C  74                  0.00001     3.76255   
  1367. RY*(  19) C  74                  0.00000    21.60025   
  1368. RY*(  20) C  74                  0.00000     3.19833   
  1369. RY*(  21) C  74                  0.00001     3.97262   
  1370. RY*(  22) C  74                  0.00000     3.52892   
  1371. RY*(  23) C  74                  0.00000     3.81029   
  1372. RY*(  24) C  74                  0.00000     3.64157   
  1373. RY*(  25) C  74                  0.00000     3.65568   
  1374. RY*(  26) C  74                  0.00000     3.38048   
  1375. RY*(   1) H  75                  0.00064     0.75329   
  1376. RY*(   2) H  75                  0.00028     2.48643   
  1377. RY*(   3) H  75                  0.00019     2.04861   
  1378. RY*(   4) H  75                  0.00011     2.34450   
  1379. RY*(   5) H  75                  0.00002     3.13574   
  1380. RY*(   1) N  76                  0.00806     0.91419   
  1381. RY*(   2) N  76                  0.00660     1.26232   
  1382. RY*(   3) N  76                  0.00624     1.28735   
  1383. RY*(   4) N  76                  0.00076     1.51622   
  1384. RY*(   5) N  76                  0.00063     1.92115   
  1385. RY*(   6) N  76                  0.00051     1.95262   
  1386. RY*(   7) N  76                  0.00035     3.36962   
  1387. RY*(   8) N  76                  0.00032     2.98886   
  1388. RY*(   9) N  76                  0.00014     3.39016   
  1389. RY*(  10) N  76                  0.00011     2.71938   
  1390. RY*(  11) N  76                  0.00009     3.44077   
  1391. RY*(  12) N  76                  0.00006     3.08760   
  1392. RY*(  13) N  76                  0.00004     4.78797   
  1393. RY*(  14) N  76                  0.00005     3.19492   
  1394. RY*(  15) N  76                  0.00002     2.99280   
  1395. RY*(  16) N  76                  0.00000    31.62481   
  1396. RY*(  17) N  76                  0.00000     4.81359   
  1397. RY*(  18) N  76                  0.00001     4.18262   
  1398. RY*(  19) N  76                  0.00001     4.33333   
  1399. RY*(  20) N  76                  0.00000     4.32996   
  1400. RY*(  21) N  76                  0.00001     4.71242   
  1401. RY*(  22) N  76                  0.00000     4.11455   
  1402. RY*(  23) N  76                  0.00000     4.55557   
  1403. RY*(  24) N  76                  0.00000     4.64250   
  1404. RY*(  25) N  76                  0.00000     4.69164   
  1405. RY*(  26) N  76                  0.00000     4.53525   
  1406. RY*(   1) C  77                  0.00392     1.50089   
  1407. RY*(   2) C  77                  0.00246     0.72696   
  1408. RY*(   3) C  77                  0.00175     1.78612   
  1409. RY*(   4) C  77                  0.00074     1.82991   
  1410. RY*(   5) C  77                  0.00061     1.51554   
  1411. RY*(   6) C  77                  0.00049     1.86437   
  1412. RY*(   7) C  77                  0.00043     2.35431   
  1413. RY*(   8) C  77                  0.00023     1.33646   
  1414. RY*(   9) C  77                  0.00022     1.78867   
  1415. RY*(  10) C  77                  0.00019     1.62344   
  1416. RY*(  11) C  77                  0.00012     1.23304   
  1417. RY*(  12) C  77                  0.00005     1.78882   
  1418. RY*(  13) C  77                  0.00005     2.31009   
  1419. RY*(  14) C  77                  0.00004     2.76756   
  1420. RY*(  15) C  77                  0.00002     5.02195   
  1421. RY*(  16) C  77                  0.00002     2.23380   
  1422. RY*(  17) C  77                  0.00001     3.59823   
  1423. RY*(  18) C  77                  0.00000     3.25829   
  1424. RY*(  19) C  77                  0.00000    19.91338   
  1425. RY*(  20) C  77                  0.00001     3.73587   
  1426. RY*(  21) C  77                  0.00001     4.03483   
  1427. RY*(  22) C  77                  0.00000     3.46640   
  1428. RY*(  23) C  77                  0.00000     3.79987   
  1429. RY*(  24) C  77                  0.00000     3.34775   
  1430. RY*(  25) C  77                  0.00000     3.69983   
  1431. RY*(  26) C  77                  0.00000     3.41455   
  1432. RY*(   1) H  78                  0.00066     0.72176   
  1433. RY*(   2) H  78                  0.00033     2.40860   
  1434. RY*(   3) H  78                  0.00023     2.26361   
  1435. RY*(   4) H  78                  0.00010     2.72600   
  1436. RY*(   5) H  78                  0.00001     3.16817   
  1519. BD*(   1) C  67 - H  68          0.00307     0.34399   
  1520. BD*(   1) C  67 - H  69          0.01063     0.33602   
  1521. BD*(   1) C  67 - H  70          0.01155     0.33578   
  1522. BD*(   1) C  67 - C  73          0.01471     0.36748   
  1523. BD*(   1) N  71 - H  72          0.01564     0.37657   
  1524. BD*(   1) N  71 - C  73          0.02857     0.42389   
  1525. BD*(   1) N  71 - C  74          0.02035     0.49551   
  1526. BD*(   1) C  73 - C  77          0.02045     0.58110   
  1527. BD*(   2) C  73 - C  77          0.29383     0.03822  1530(v),1521(v),1520(v)
                                                    1412(g),1327(g),1484(r)
                                                    1444(r),1447(r)
  1528. BD*(   1) C  74 - H  75          0.01830     0.36353   
  1529. BD*(   1) C  74 - N  76          0.01588     0.53115   
  1530. BD*(   2) C  74 - N  76          0.42424    -0.00552  1527(v),1350(g),1407(v)
                                                    1380(g),1444(r),151(r)
                                                    153(r),154(r)
  1531. BD*(   1) N  76 - C  77          0.01530     0.47474   
  1532. BD*(   1) C  77 - H  78          0.01488     0.41612   
       -------------------------------
              Total Lewis   42.70920  ( 97.7406%)
        Valence non-Lewis    0.90742  (  2.0766%)
        Rydberg non-Lewis    0.07984  (  0.1827%)
       -------------------------------
            Total unit  4   43.69646  (100.0000%)
           Charge unit  4    0.30354
 Unable to Open any file for archive entry.
 1\1\GINC-BGN1038\SP\RAPFD\def2TZVP\C34H36Fe1N6O1\BEBJONES\30-Oct-2024\
 0\\# apfd/def2TZVP int=(grid=ultrafine) geom=check guess=read pop=nbo 
 scf=qc\\4oq7_II_S_nbo\\0,1\Fe,0,-37.542,-69.059,104.826\N,0,-36.925,-7
 0.891,104.198\N,0,-39.277,-69.268,103.685\N,0,-38.211,-67.166,105.435\
 N,0,-35.96,-68.869,105.892\C,0,-35.745,-71.467,104.544\C,0,-35.712,-72
 .802,104.002\C,0,-36.891,-72.998,103.323\C,0,-37.646,-71.778,103.447\C
 ,0,-39.62,-70.356,102.969\C,0,-40.848,-70.116,102.328\C,0,-41.249,-68.
 855,102.662\C,0,-40.202,-68.315,103.536\C,0,-39.381,-66.598,105.075\C,
 0,-39.539,-65.428,105.862\C,0,-38.436,-65.353,106.738\C,0,-37.601,-66.
 442,106.413\C,0,-35.614,-67.833,106.694\C,0,-34.261,-68.015,107.238\C,
 0,-33.795,-69.2,106.768\C,0,-34.869,-69.687,105.894\C,0,-34.723,-70.9,
 105.267\H,0,-33.772,-71.427,105.345\C,0,-38.904,-71.573,102.897\H,0,-3
 9.372,-72.407,102.374\C,0,-40.263,-67.061,104.115\H,0,-41.061,-66.391,
 103.793\C,0,-36.399,-66.713,107.002\H,0,-36.028,-66.018,107.755\C,0,-3
 7.386,-74.229,102.584\H,0,-36.624,-75.035,102.654\H,0,-37.552,-73.983,
 101.514\H,0,-38.332,-74.587,103.043\C,0,-34.556,-73.76,104.198\H,0,-34
 .176,-73.675,105.238\H,0,-33.735,-73.507,103.493\H,0,-34.899,-74.802,1
 04.024\C,0,-41.606,-71.076,101.451\H,0,-41.264,-72.113,101.655\H,0,-41
 .417,-70.838,100.383\H,0,-42.693,-71.005,101.669\C,0,-42.406,-68.108,1
 02.162\H,0,-42.806,-67.282,102.767\C,0,-43.019,-68.36,101.009\H,0,-42.
 668,-69.173,100.356\H,0,-43.884,-67.759,100.694\C,0,-40.751,-64.525,10
 5.742\H,0,-41.665,-65.145,105.618\H,0,-40.641,-63.865,104.856\H,0,-40.
 854,-63.911,106.662\C,0,-38.043,-64.308,107.741\H,0,-37.235,-64.529,10
 8.454\C,0,-38.619,-63.103,107.829\H,0,-39.433,-62.822,107.144\H,0,-38.
 286,-62.379,108.587\C,0,-33.504,-67.126,108.174\H,0,-33.715,-67.426,10
 9.223\H,0,-33.823,-66.071,108.03\H,0,-32.414,-67.222,107.984\C,0,-32.4
 32,-69.828,107.047\H,0,-32.078,-69.514,108.052\H,0,-31.699,-69.488,106
 .284\H,0,-32.517,-70.935,107.025\O,0,-38.579,-70.173,106.416\H,0,-38.3
 84,-71.097,106.261\H,0,-39.08,-69.844,107.073\C,0,-34.302,-65.825,101.
 58\H,0,-33.668,-65.494,102.43\H,0,-34.786,-64.935,101.124\H,0,-33.66,-
 66.335,100.83\N,0,-36.326,-67.302,101.258\H,0,-36.426,-67.082,100.288\
 C,0,-35.355,-66.777,102.079\C,0,-37.089,-68.129,101.948\H,0,-37.931,-6
 8.683,101.535\N,0,-36.651,-68.157,103.195\C,0,-35.573,-67.313,103.304\
 H,0,-35.061,-67.173,104.247\\Version=ES64L-G16RevC.02\State=1-A\HF=-29
 83.9842742\RMSD=1.074e-09\Dipole=0.9701881,-0.0964309,-1.0684415\Quadr
 upole=-3.3496434,-3.4115801,6.7612235,3.2887321,-1.8140087,-6.9987108\
 PG=C01 [X(C34H36Fe1N6O1)]\\@
 The archive entry for this job was punched.


 The number of Unix installations has grown to 10,
  with more expected.
                  -- The Unix Programmer's Manual,
                     2nd Edition, June, 1972.
 Job cpu time:       0 days  0 hours 44 minutes 31.7 seconds.
 Elapsed time:       0 days  0 hours  0 minutes 53.7 seconds.
 File lengths (MBytes):  RWF=    792 Int=      0 D2E=      0 Chk=    155 Scr=      1
 Normal termination of Gaussian 16 at Wed Oct 30 06:53:51 2024.
