 Entering Gaussian System, Link 0=g16
 Input=4pqc01.com
 Output=4pqc01.log
 Initial command:
 /sw/chem/gaussian/g16_C02/a100/g16/l1.exe "/local/bebjones_8064747/Gau-916984.inp" -scrdir="/local/bebjones_8064747/"
 Entering Link 1 = /sw/chem/gaussian/g16_C02/a100/g16/l1.exe PID=    916985.
  
 Copyright (c) 1988-2021, Gaussian, Inc.  All Rights Reserved.
  
 This is part of the Gaussian(R) 16 program.  It is based on
 the Gaussian(R) 09 system (copyright 2009, Gaussian, Inc.),
 the Gaussian(R) 03 system (copyright 2003, Gaussian, Inc.),
 the Gaussian(R) 98 system (copyright 1998, Gaussian, Inc.),
 the Gaussian(R) 94 system (copyright 1995, Gaussian, Inc.),
 the Gaussian 92(TM) system (copyright 1992, Gaussian, Inc.),
 the Gaussian 90(TM) system (copyright 1990, Gaussian, Inc.),
 the Gaussian 88(TM) system (copyright 1988, Gaussian, Inc.),
 the Gaussian 86(TM) system (copyright 1986, Carnegie Mellon
 University), and the Gaussian 82(TM) system (copyright 1983,
 Carnegie Mellon University). Gaussian is a federally registered
 trademark of Gaussian, Inc.
  
 This software contains proprietary and confidential information,
 including trade secrets, belonging to Gaussian, Inc.
  
 This software is provided under written license and may be
 used, copied, transmitted, or stored only in accord with that
 written license.
  
 The following legend is applicable only to US Government
 contracts under FAR:
  
                    RESTRICTED RIGHTS LEGEND
  
 Use, reproduction and disclosure by the US Government is
 subject to restrictions as set forth in subparagraphs (a)
 and (c) of the Commercial Computer Software - Restricted
 Rights clause in FAR 52.227-19.
  
 Gaussian, Inc.
 340 Quinnipiac St., Bldg. 40, Wallingford CT 06492
  
  
 ---------------------------------------------------------------
 Warning -- This program may not be used in any manner that
 competes with the business of Gaussian, Inc. or will provide
 assistance to any competitor of Gaussian, Inc.  The licensee
 of this program is prohibited from giving any competitor of
 Gaussian, Inc. access to this program.  By using this program,
 the user acknowledges that Gaussian, Inc. is engaged in the
 business of creating and licensing software in the field of
 computational chemistry and represents and warrants to the
 licensee that it is not a competitor of Gaussian, Inc. and that
 it will not use this program in any manner prohibited above.
 ---------------------------------------------------------------
  

 Cite this work as:
 Gaussian 16, Revision C.02,
 M. J. Frisch, G. W. Trucks, H. B. Schlegel, G. E. Scuseria, 
 M. A. Robb, J. R. Cheeseman, G. Scalmani, V. Barone, 
 G. A. Petersson, H. Nakatsuji, X. Li, M. Caricato, A. V. Marenich, 
 J. Bloino, B. G. Janesko, R. Gomperts, B. Mennucci, H. P. Hratchian, 
 J. V. Ortiz, A. F. Izmaylov, J. L. Sonnenberg, D. Williams-Young, 
 F. Ding, F. Lipparini, F. Egidi, J. Goings, B. Peng, A. Petrone, 
 T. Henderson, D. Ranasinghe, V. G. Zakrzewski, J. Gao, N. Rega, 
 G. Zheng, W. Liang, M. Hada, M. Ehara, K. Toyota, R. Fukuda, 
 J. Hasegawa, M. Ishida, T. Nakajima, Y. Honda, O. Kitao, H. Nakai, 
 T. Vreven, K. Throssell, J. A. Montgomery, Jr., J. E. Peralta, 
 F. Ogliaro, M. J. Bearpark, J. J. Heyd, E. N. Brothers, K. N. Kudin, 
 V. N. Staroverov, T. A. Keith, R. Kobayashi, J. Normand, 
 K. Raghavachari, A. P. Rendell, J. C. Burant, S. S. Iyengar, 
 J. Tomasi, M. Cossi, J. M. Millam, M. Klene, C. Adamo, R. Cammi, 
 J. W. Ochterski, R. L. Martin, K. Morokuma, O. Farkas, 
 J. B. Foresman, and D. J. Fox, Gaussian, Inc., Wallingford CT, 2019.
 
 ******************************************
 Gaussian 16:  ES64L-G16RevC.02  7-Dec-2021
                30-Oct-2024 
 ******************************************
 %mem=16GB
 %CPU=0-71
 SetSPE:  set environment variable "OMP_PROC_BIND" = "true"
 SetSPE:  set environment variable "OMP_PLACES" = "{0},{1},{2},{3},{4},{5},{6},{7},{8},{9},{10},{11},{12},{13},{14},{15},{16},{17},{18},{19},{20},{21},{22},{23},{24},{25},{26},{27},{28},{29},{30},{31},{32},{33},{34},{35},{36},{37},{38},{39},{40},{41},{42},{43},{44},{45},{46},{47},{48},{49},{50},{51},{52},{53},{54},{55},{56},{57},{58},{59},{60},{61},{62},{63},{64},{65},{66},{67},{68},{69},{70},{71}"
 Will use up to   72 processors via shared memory.
 %gpucpu=0,1,2,3=0,1,2,3
 Will use    4 GPUs:
 Thread  CPU   GPU
      0    0     0
      1    1     1
      2    2     2
      3    3     3
      4    4    -1
      5    5    -1
      6    6    -1
      7    7    -1
      8    8    -1
      9    9    -1
     10   10    -1
     11   11    -1
     12   12    -1
     13   13    -1
     14   14    -1
     15   15    -1
     16   16    -1
     17   17    -1
     18   18    -1
     19   19    -1
     20   20    -1
     21   21    -1
     22   22    -1
     23   23    -1
     24   24    -1
     25   25    -1
     26   26    -1
     27   27    -1
     28   28    -1
     29   29    -1
     30   30    -1
     31   31    -1
     32   32    -1
     33   33    -1
     34   34    -1
     35   35    -1
     36   36    -1
     37   37    -1
     38   38    -1
     39   39    -1
     40   40    -1
     41   41    -1
     42   42    -1
     43   43    -1
     44   44    -1
     45   45    -1
     46   46    -1
     47   47    -1
     48   48    -1
     49   49    -1
     50   50    -1
     51   51    -1
     52   52    -1
     53   53    -1
     54   54    -1
     55   55    -1
     56   56    -1
     57   57    -1
     58   58    -1
     59   59    -1
     60   60    -1
     61   61    -1
     62   62    -1
     63   63    -1
     64   64    -1
     65   65    -1
     66   66    -1
     67   67    -1
     68   68    -1
     69   69    -1
     70   70    -1
     71   71    -1
 SetGPE:  set environment variable "OMP_PROC_BIND" = "true"
 SetGPE:  set environment variable "OMP_PLACES" = "{0},{1},{2},{3},{4},{5},{6},{7},{8},{9},{10},{11},{12},{13},{14},{15},{16},{17},{18},{19},{20},{21},{22},{23},{24},{25},{26},{27},{28},{29},{30},{31},{32},{33},{34},{35},{36},{37},{38},{39},{40},{41},{42},{43},{44},{45},{46},{47},{48},{49},{50},{51},{52},{53},{54},{55},{56},{57},{58},{59},{60},{61},{62},{63},{64},{65},{66},{67},{68},{69},{70},{71}"
 %chk=4pqc_II_O.chk
 Properties for Device   0
 Minimum vector length:                              32
 Maximum vector length:                            1024
 Number of SMPs:                                    108
 Maximum number of threads per SMP:                2048
 Number of ASync Engines:                             5
 Memory:                                           9207742464
 Properties for Device   1
 Minimum vector length:                              32
 Maximum vector length:                            1024
 Number of SMPs:                                    108
 Maximum number of threads per SMP:                2048
 Number of ASync Engines:                             5
 Memory:                                           9207742464
 Properties for Device   2
 Minimum vector length:                              32
 Maximum vector length:                            1024
 Number of SMPs:                                    108
 Maximum number of threads per SMP:                2048
 Number of ASync Engines:                             5
 Memory:                                           9207742464
 Properties for Device   3
 Minimum vector length:                              32
 Maximum vector length:                            1024
 Number of SMPs:                                    108
 Maximum number of threads per SMP:                2048
 Number of ASync Engines:                             5
 Memory:                                           9207742464
   8286968217 words of memory will be used on each GPU.
 ------------------------------------------
 # polar def2tzvp apfd int=(grid=ultrafine)
 ------------------------------------------
 1/38=1,172=1/1;
 2/12=2,17=6,18=5,40=1/2;
 3/5=44,7=101,11=2,25=1,30=1,74=-44,75=-5/1,2,3;
 4//1;
 5/5=2,38=5,98=1/2;
 8/6=4,10=90,11=11/1;
 10/6=1,13=10/2;
 6/7=2,8=2,9=2,10=2,28=1/1;
 99/5=1,9=1/99;
 ---------
 4pqc_II_S
 ---------
 Symbolic Z-matrix:
 Charge =  0 Multiplicity = 1
 Fe                   -5.75473   5.72228  -8.64759 
 N                    -5.64831   7.52531  -7.77214 
 N                    -5.21532   4.82754  -6.97411 
 N                    -5.7867    3.9816   -9.63212 
 N                    -6.24545   6.66721  -10.38014 
 C                    -5.91469   8.74549  -8.30387 
 C                    -5.78439   9.7828   -7.30441 
 C                    -5.42816   9.15726  -6.15096 
 C                    -5.35242   7.74597  -6.46179 
 C                    -4.97247   5.41685  -5.77424 
 C                    -4.65278   4.42831  -4.77515 
 C                    -4.71025   3.21193  -5.40288 
 C                    -5.06199   3.49149  -6.78305 
 C                    -5.48625   2.76503  -9.09504 
 C                    -5.43335   1.75612  -10.11805 
 C                    -5.68162   2.3963   -11.30452 
 C                    -5.9424    3.78082  -10.96467 
 C                    -6.49446   6.08054  -11.58217 
 C                    -6.85246   7.07031  -12.57495 
 C                    -6.81081   8.27353  -11.9444 
 C                    -6.42422   8.00017  -10.57741 
 C                    -6.2651    8.98322  -9.61952 
 H                    -6.43913   10.00639  -9.91612 
 C                    -5.0255    6.77862  -5.53176 
 H                    -4.80036   7.11393  -4.53068 
 C                    -5.20605   2.52297  -7.75834 
 H                    -5.0294    1.49659  -7.47348 
 C                    -6.38858   4.73257  -11.86196 
 H                    -6.60734   4.40669  -12.86655 
 C                    -5.16183   9.74027  -4.80531 
 H                    -5.27404   10.82167  -4.82264 
 H                    -4.14803   9.50633  -4.47995 
 H                    -5.85518   9.33514  -4.06766 
 C                    -6.00899   11.23364  -7.56333 
 H                    -7.01999   11.40724  -7.9333 
 H                    -5.30803   11.6026  -8.31241 
 H                    -5.87404   11.81415  -6.65392 
 C                    -4.39494   4.71515  -3.33701 
 H                    -5.03258   5.52472  -2.98531 
 H                    -3.35635   5.01091  -3.17911 
 H                    -4.59425   3.82906  -2.73759 
 C                    -4.49351   1.88917  -4.8611 
 H                    -5.08439   1.09798  -5.30863 
 C                    -3.6405    1.58025  -3.88938 
 H                    -2.99248   2.31249  -3.44072 
 H                    -3.54242   0.57048  -3.52627 
 C                    -5.09159   0.32379  -9.8912 
 H                    -5.76652  -0.1204   -9.15902 
 H                    -4.07348   0.2248   -9.5124 
 H                    -5.16529  -0.23912  -10.81829 
 C                    -5.67284   1.80992  -12.62768 
 H                    -6.04172   0.79142  -12.68679 
 C                    -5.21875   2.39533  -13.73056 
 H                    -4.79259   3.38412  -13.71783 
 H                    -5.23811   1.89411  -14.68417 
 C                    -7.18778   6.75643  -13.99267 
 H                    -8.02216   6.0568   -14.0433 
 H                    -6.33536   6.30007  -14.4965 
 H                    -7.46192   7.65829  -14.53482 
 C                    -7.08292   9.63521  -12.48685 
 H                    -7.36307   9.58385  -13.53614 
 H                    -6.19936   10.26782  -12.39882 
 H                    -7.89555   10.11261  -11.93823 
 O                    -3.556     5.788    -9.235 
 H                    -3.347     4.905    -9.539 
 H                    -3.014     6.493    -9.255 
 C                    -10.76903   3.83132  -7.11863 
 H                    -10.41042   2.82166  -6.94422 
 H                    -11.55456   3.79829  -7.87351 
 H                    -11.20119   4.21245  -6.19313 
 N                    -9.80815   6.00371  -7.91249 
 H                    -10.67845   6.50967  -7.90015 
 C                    -9.64236   4.688    -7.56764 
 C                    -8.59781   6.48916  -8.27155 
 H                    -8.4252    7.49603  -8.59189 
 N                    -7.67686   5.56103  -8.17464 
 C                    -8.31124   4.43543  -7.73707 
 H                    -7.77151   3.52558  -7.57559 
 
 Stoichiometry    C34H36FeN6O
 Framework group  C1[X(C34H36FeN6O)]
 Deg. of freedom   228
 Full point group                 C1      NOp   1
 Largest Abelian subgroup         C1      NOp   1
 Largest concise Abelian subgroup C1      NOp   1
                         Standard orientation:                         
 ---------------------------------------------------------------------
 Center     Atomic      Atomic             Coordinates (Angstroms)
 Number     Number       Type             X           Y           Z
 ---------------------------------------------------------------------
      1         26           0       -0.058074    0.140227   -0.330698
      2          7           0        0.107177    2.132299   -0.512456
      3          7           0        1.901335   -0.075173   -0.410654
      4          7           0       -0.327319   -1.840026   -0.250804
      5          7           0       -2.077790    0.376734   -0.316292
      6          6           0       -0.874886    3.069302   -0.522789
      7          6           0       -0.315782    4.401030   -0.599139
      8          6           0        1.034354    4.245242   -0.637918
      9          6           0        1.279979    2.820392   -0.578195
     10          6           0        2.829074    0.913693   -0.496541
     11          6           0        4.162265    0.366035   -0.479829
     12          6           0        4.020514   -0.992832   -0.378277
     13          6           0        2.591298   -1.243086   -0.340119
     14          6           0        0.666102   -2.773510   -0.273041
     15          6           0        0.117545   -4.097977   -0.383135
     16          6           0       -1.242930   -3.947155   -0.457615
     17          6           0       -1.495155   -2.525873   -0.328279
     18          6           0       -3.009856   -0.610186   -0.225193
     19          6           0       -4.346584   -0.056912   -0.203631
     20          6           0       -4.201173    1.291753   -0.287475
     21          6           0       -2.778103    1.540809   -0.362880
     22          6           0       -2.230382    2.805026   -0.467800
     23          1           0       -2.907610    3.645098   -0.495702
     24          6           0        2.544754    2.265512   -0.584694
     25          1           0        3.380378    2.945072   -0.656845
     26          6           0        2.026065   -2.501374   -0.255162
     27          1           0        2.694443   -3.349026   -0.231620
     28          6           0       -2.752103   -1.966401   -0.197464
     29          1           0       -3.592840   -2.638950   -0.133474
     30          6           0        2.101535    5.282722   -0.717718
     31          1           0        1.669934    6.279849   -0.759964
     32          1           0        2.712884    5.136158   -1.608318
     33          1           0        2.755246    5.228412    0.153320
     34          6           0       -1.124870    5.652781   -0.629164
     35          1           0       -1.754127    5.726483    0.258383
     36          1           0       -1.774115    5.668937   -1.504855
     37          1           0       -0.481286    6.528429   -0.664857
     38          6           0        5.417956    1.166081   -0.493087
     39          1           0        5.297326    2.081927    0.083414
     40          1           0        5.692510    1.442866   -1.512441
     41          1           0        6.233707    0.588425   -0.062904
     42          6           0        5.037271   -2.017932   -0.303734
     43          1           0        4.782486   -2.886743    0.292642
     44          6           0        6.222998   -1.978021   -0.903524
     45          1           0        6.513195   -1.166267   -1.547145
     46          1           0        6.938070   -2.776186   -0.790861
     47          6           0        0.917879   -5.351264   -0.475648
     48          1           0        1.584962   -5.444693    0.381784
     49          1           0        1.529828   -5.353152   -1.378618
     50          1           0        0.266027   -6.220755   -0.505295
     51          6           0       -2.225380   -4.994090   -0.640360
     52          1           0       -1.996054   -5.936261   -0.153923
     53          6           0       -3.329218   -4.900007   -1.373801
     54          1           0       -3.576588   -4.006065   -1.920753
     55          1           0       -4.014811   -5.725664   -1.469788
     56          6           0       -5.591855   -0.869885   -0.107462
     57          1           0       -5.576833   -1.489378    0.789329
     58          1           0       -5.686851   -1.529663   -0.970250
     59          1           0       -6.470269   -0.230111   -0.068712
     60          6           0       -5.245292    2.355520   -0.313657
     61          1           0       -6.239586    1.922485   -0.236174
     62          1           0       -5.191033    2.924791   -1.241885
     63          1           0       -5.108269    3.049645    0.516201
     64          8           0       -0.107768   -0.142916   -2.589273
     65          1           0       -0.015974   -1.085015   -2.730019
     66          1           0       -0.255728    0.470418   -3.216265
     67          6           0        0.854596   -0.747941    5.094688
     68          1           0        1.458900   -1.632248    4.917882
     69          1           0        0.003749   -1.024149    5.717382
     70          1           0        1.454417   -0.019291    5.640460
     71          7           0       -0.426097    0.900757    3.711067
     72          1           0       -0.797378    1.419498    4.489936
     73          6           0        0.398410   -0.190312    3.796286
     74          6           0       -0.647826    1.145733    2.399461
     75          1           0       -1.261018    1.942871    2.032366
     76          7           0       -0.013845    0.276502    1.650138
     77          6           0        0.642105   -0.560318    2.504750
     78          1           0        1.240300   -1.367313    2.135790
 ---------------------------------------------------------------------
 Rotational constants (GHZ):           0.0952086           0.0904200           0.0600609
 Standard basis: def2TZVP (5D, 7F)
 There are  1744 symmetry adapted cartesian basis functions of A   symmetry.
 There are  1532 symmetry adapted basis functions of A   symmetry.
  1532 basis functions,  2481 primitive gaussians,  1744 cartesian basis functions
   158 alpha electrons      158 beta electrons
       nuclear repulsion energy      5977.7406611521 Hartrees.
 NAtoms=   78 NActive=   78 NUniq=   78 SFac= 1.00D+00 NAtFMM=   60 NAOKFM=T Big=T
 Integral buffers will be    131072 words long.
 Raffenetti 2 integral format.
 Two-electron integral symmetry is turned on.
 R6APFD:  NTU= -4 IXU= 1 FactS= 1.050
 Nuclear repulsion after empirical dispersion term =     5977.5870377565 Hartrees.
 One-electron integrals computed using PRISM.
   1 Symmetry operations used in ECPInt.
 ECPInt:  NShTT=  186355 NPrTT=  576197 LenC2=  147583 LenP2D=  302026.
 LDataN:  DoStor=T MaxTD1= 6 Len=  172
 Number of processors reduced to  23 by ecpmxn.
 NBasis=  1532 RedAO= T EigKep=  3.22D-06  NBF=  1532
 NBsUse=  1532 1.00D-06 EigRej= -1.00D+00 NBFU=  1532
 ExpMin= 4.20D-02 ExpMax= 3.01D+05 ExpMxC= 2.91D+03 IAcc=3 IRadAn=         5 AccDes= 0.00D+00
 Harris functional with IExCor= 3731 and IRadAn=       5 diagonalized for initial guess.
 HarFok:  IExCor= 3731 AccDes= 0.00D+00 IRadAn=         5 IDoV= 1 UseB2=F ITyADJ=14
 ICtDFT=  3500011 ScaDFX=  1.000000  1.000000  1.000000  1.000000
 FoFCou: FMM=F IPFlag=           0 FMFlag=      100000 FMFlg1=        2001
         NFxFlg=           0 DoJE=T BraDBF=F KetDBF=T FulRan=T
         wScrn=  0.000000 ICntrl=       500 IOpCl=  0 I1Cent=   200000004 NGrid=           0
         NMat0=    1 NMatS0=      1 NMatT0=    0 NMatD0=    1 NMtDS0=    0 NMtDT0=    0
 Petite list used in FoFCou.
 Requested convergence on RMS density matrix=1.00D-08 within 128 cycles.
 Requested convergence on MAX density matrix=1.00D-06.
 Requested convergence on             energy=1.00D-06.
 No special actions if energy rises.
 EnCoef did     4 forward-backward iterations
 EnCoef did   100 forward-backward iterations
 EnCoef did   100 forward-backward iterations
 EnCoef did   100 forward-backward iterations
 EnCoef did     6 forward-backward iterations
 EnCoef did   100 forward-backward iterations
 EnCoef did     8 forward-backward iterations
 Restarting incremental Fock formation.
 SCF Done:  E(RAPFD) =  -2984.02535264     A.U. after   28 cycles
            NFock= 28  Conv=0.18D-08     -V/T= 2.0034
 DoSCS=F DFT=T ScalE2(SS,OS)=  1.000000  1.000000
 Range of M.O.s used for correlation:     1  1532
 NBasis=  1532 NAE=   158 NBE=   158 NFC=     0 NFV=     0
 NROrb=   1532 NOA=   158 NOB=   158 NVA=  1374 NVB=  1374

 **** Warning!!: The largest alpha MO coefficient is  0.44773319D+02

          Differentiating once with respect to electric field.
                with respect to dipole field.
          Electric field/nuclear overlap derivatives assumed to be zero.
          There are     3 degrees of freedom in the 1st order CPHF.  IDoFFX=0 NUNeed=     3.
      3 vectors produced by pass  0 Test12= 7.24D-12 3.33D-08 XBig12= 1.87D+03 2.36D+01.
 AX will form     3 AO Fock derivatives at one time.
      3 vectors produced by pass  1 Test12= 7.24D-12 3.33D-08 XBig12= 1.21D+03 7.56D+00.
      3 vectors produced by pass  2 Test12= 7.24D-12 3.33D-08 XBig12= 3.94D+02 6.02D+00.
      3 vectors produced by pass  3 Test12= 7.24D-12 3.33D-08 XBig12= 2.50D+02 3.18D+00.
      3 vectors produced by pass  4 Test12= 7.24D-12 3.33D-08 XBig12= 1.58D+02 2.21D+00.
      3 vectors produced by pass  5 Test12= 7.24D-12 3.33D-08 XBig12= 6.87D+01 1.38D+00.
      3 vectors produced by pass  6 Test12= 7.24D-12 3.33D-08 XBig12= 4.57D+01 1.94D+00.
      3 vectors produced by pass  7 Test12= 7.24D-12 3.33D-08 XBig12= 1.95D+01 1.03D+00.
      3 vectors produced by pass  8 Test12= 7.24D-12 3.33D-08 XBig12= 1.08D+01 7.77D-01.
      3 vectors produced by pass  9 Test12= 7.24D-12 3.33D-08 XBig12= 4.28D+00 5.79D-01.
      3 vectors produced by pass 10 Test12= 7.24D-12 3.33D-08 XBig12= 1.57D+00 3.29D-01.
      3 vectors produced by pass 11 Test12= 7.24D-12 3.33D-08 XBig12= 8.03D-01 1.49D-01.
      3 vectors produced by pass 12 Test12= 7.24D-12 3.33D-08 XBig12= 3.68D-01 9.75D-02.
      3 vectors produced by pass 13 Test12= 7.24D-12 3.33D-08 XBig12= 1.23D-01 5.45D-02.
      3 vectors produced by pass 14 Test12= 7.24D-12 3.33D-08 XBig12= 3.07D-02 3.20D-02.
      3 vectors produced by pass 15 Test12= 7.24D-12 3.33D-08 XBig12= 1.25D-02 3.13D-02.
      3 vectors produced by pass 16 Test12= 7.24D-12 3.33D-08 XBig12= 4.35D-03 1.49D-02.
      3 vectors produced by pass 17 Test12= 7.24D-12 3.33D-08 XBig12= 1.64D-03 1.29D-02.
      3 vectors produced by pass 18 Test12= 7.24D-12 3.33D-08 XBig12= 6.13D-04 4.66D-03.
      3 vectors produced by pass 19 Test12= 7.24D-12 3.33D-08 XBig12= 1.49D-04 1.97D-03.
      3 vectors produced by pass 20 Test12= 7.24D-12 3.33D-08 XBig12= 3.80D-05 1.05D-03.
      3 vectors produced by pass 21 Test12= 7.24D-12 3.33D-08 XBig12= 6.55D-06 3.77D-04.
      3 vectors produced by pass 22 Test12= 7.24D-12 3.33D-08 XBig12= 2.02D-06 2.76D-04.
      3 vectors produced by pass 23 Test12= 7.24D-12 3.33D-08 XBig12= 3.59D-07 1.03D-04.
      3 vectors produced by pass 24 Test12= 7.24D-12 3.33D-08 XBig12= 7.12D-08 4.74D-05.
      3 vectors produced by pass 25 Test12= 7.24D-12 3.33D-08 XBig12= 1.29D-08 1.62D-05.
      3 vectors produced by pass 26 Test12= 7.24D-12 3.33D-08 XBig12= 2.75D-09 7.91D-06.
      3 vectors produced by pass 27 Test12= 7.24D-12 3.33D-08 XBig12= 5.68D-10 2.91D-06.
      3 vectors produced by pass 28 Test12= 7.24D-12 3.33D-08 XBig12= 8.02D-11 1.27D-06.
      3 vectors produced by pass 29 Test12= 7.24D-12 3.33D-08 XBig12= 1.38D-11 4.69D-07.
      3 vectors produced by pass 30 Test12= 7.24D-12 3.33D-08 XBig12= 1.77D-12 1.50D-07.
      1 vectors produced by pass 31 Test12= 7.24D-12 3.33D-08 XBig12= 3.17D-14 4.49D-08.
 InvSVY:  IOpt=1 It=  1 EMax= 2.84D-14
 Solved reduced A of dimension    94 with     3 vectors.
 Isotropic polarizability for W=    0.000000      570.56 Bohr**3.
 End of Minotr F.D. properties file   721 does not exist.
 End of Minotr F.D. properties file   722 does not exist.
 End of Minotr F.D. properties file   788 does not exist.

 **********************************************************************

            Population analysis using the SCF Density.

 **********************************************************************

 Orbital symmetries:
       Occupied  (A) (A) (A) (A) (A) (A) (A) (A) (A) (A) (A) (A)
                 (A) (A) (A) (A) (A) (A) (A) (A) (A) (A) (A) (A)
                 (A) (A) (A) (A) (A) (A) (A) (A) (A) (A) (A) (A)
                 (A) (A) (A) (A) (A) (A) (A) (A) (A) (A) (A) (A)
                 (A) (A) (A) (A) (A) (A) (A) (A) (A) (A) (A) (A)
                 (A) (A) (A) (A) (A) (A) (A) (A) (A) (A) (A) (A)
                 (A) (A) (A) (A) (A) (A) (A) (A) (A) (A) (A) (A)
                 (A) (A) (A) (A) (A) (A) (A) (A) (A) (A) (A) (A)
                 (A) (A) (A) (A) (A) (A) (A) (A) (A) (A) (A) (A)
                 (A) (A) (A) (A) (A) (A) (A) (A) (A) (A) (A) (A)
                 (A) (A) (A) (A) (A) (A) (A) (A) (A) (A) (A) (A)
                 (A) (A) (A) (A) (A) (A) (A) (A) (A) (A) (A) (A)
                 (A) (A) (A) (A) (A) (A) (A) (A) (A) (A) (A) (A)
                 (A) (A)
       Virtual   (A) (A) (A) (A) (A) (A) (A) (A) (A) (A) (A) (A)
                 (A) (A) (A) (A) (A) (A) (A) (A) (A) (A) (A) (A)
                 (A) (A) (A) (A) (A) (A) (A) (A) (A) (A) (A) (A)
                 (A) (A) (A) (A) (A) (A) (A) (A) (A) (A) (A) (A)
                 (A) (A) (A) (A) (A) (A) (A) (A) (A) (A) (A) (A)
                 (A) (A) (A) (A) (A) (A) (A) (A) (A) (A) (A) (A)
                 (A) (A) (A) (A) (A) (A) (A) (A) (A) (A) (A) (A)
                 (A) (A) (A) (A) (A) (A) (A) (A) (A) (A) (A) (A)
                 (A) (A) (A) (A) (A) (A) (A) (A) (A) (A) (A) (A)
                 (A) (A) (A) (A) (A) (A) (A) (A) (A) (A) (A) (A)
                 (A) (A) (A) (A) (A) (A) (A) (A) (A) (A) (A) (A)
                 (A) (A) (A) (A) (A) (A) (A) (A) (A) (A) (A) (A)
                 (A) (A) (A) (A) (A) (A) (A) (A) (A) (A) (A) (A)
                 (A) (A) (A) (A) (A) (A) (A) (A) (A) (A) (A) (A)
                 (A) (A) (A) (A) (A) (A) (A) (A) (A) (A) (A) (A)
                 (A) (A) (A) (A) (A) (A) (A) (A) (A) (A) (A) (A)
                 (A) (A) (A) (A) (A) (A) (A) (A) (A) (A) (A) (A)
                 (A) (A) (A) (A) (A) (A) (A) (A) (A) (A) (A) (A)
                 (A) (A) (A) (A) (A) (A) (A) (A) (A) (A) (A) (A)
                 (A) (A) (A) (A) (A) (A) (A) (A) (A) (A) (A) (A)
                 (A) (A) (A) (A) (A) (A) (A) (A) (A) (A) (A) (A)
                 (A) (A) (A) (A) (A) (A) (A) (A) (A) (A) (A) (A)
                 (A) (A) (A) (A) (A) (A) (A) (A) (A) (A) (A) (A)
                 (A) (A) (A) (A) (A) (A) (A) (A) (A) (A) (A) (A)
                 (A) (A) (A) (A) (A) (A) (A) (A) (A) (A) (A) (A)
                 (A) (A) (A) (A) (A) (A) (A) (A) (A) (A) (A) (A)
                 (A) (A) (A) (A) (A) (A) (A) (A) (A) (A) (A) (A)
                 (A) (A) (A) (A) (A) (A) (A) (A) (A) (A) (A) (A)
                 (A) (A) (A) (A) (A) (A) (A) (A) (A) (A) (A) (A)
                 (A) (A) (A) (A) (A) (A) (A) (A) (A) (A) (A) (A)
                 (A) (A) (A) (A) (A) (A) (A) (A) (A) (A) (A) (A)
                 (A) (A) (A) (A) (A) (A) (A) (A) (A) (A) (A) (A)
                 (A) (A) (A) (A) (A) (A) (A) (A) (A) (A) (A) (A)
                 (A) (A) (A) (A) (A) (A) (A) (A) (A) (A) (A) (A)
                 (A) (A) (A) (A) (A) (A) (A) (A) (A) (A) (A) (A)
                 (A) (A) (A) (A) (A) (A) (A) (A) (A) (A) (A) (A)
                 (A) (A) (A) (A) (A) (A) (A) (A) (A) (A) (A) (A)
                 (A) (A) (A) (A) (A) (A) (A) (A) (A) (A) (A) (A)
                 (A) (A) (A) (A) (A) (A) (A) (A) (A) (A) (A) (A)
                 (A) (A) (A) (A) (A) (A) (A) (A) (A) (A) (A) (A)
                 (A) (A) (A) (A) (A) (A) (A) (A) (A) (A) (A) (A)
                 (A) (A) (A) (A) (A) (A) (A) (A) (A) (A) (A) (A)
                 (A) (A) (A) (A) (A) (A) (A) (A) (A) (A) (A) (A)
                 (A) (A) (A) (A) (A) (A) (A) (A) (A) (A) (A) (A)
                 (A) (A) (A) (A) (A) (A) (A) (A) (A) (A) (A) (A)
                 (A) (A) (A) (A) (A) (A) (A) (A) (A) (A) (A) (A)
                 (A) (A) (A) (A) (A) (A) (A) (A) (A) (A) (A) (A)
                 (A) (A) (A) (A) (A) (A) (A) (A) (A) (A) (A) (A)
                 (A) (A) (A) (A) (A) (A) (A) (A) (A) (A) (A) (A)
                 (A) (A) (A) (A) (A) (A) (A) (A) (A) (A) (A) (A)
                 (A) (A) (A) (A) (A) (A) (A) (A) (A) (A) (A) (A)
                 (A) (A) (A) (A) (A) (A) (A) (A) (A) (A) (A) (A)
                 (A) (A) (A) (A) (A) (A) (A) (A) (A) (A) (A) (A)
                 (A) (A) (A) (A) (A) (A) (A) (A) (A) (A) (A) (A)
                 (A) (A) (A) (A) (A) (A) (A) (A) (A) (A) (A) (A)
                 (A) (A) (A) (A) (A) (A) (A) (A) (A) (A) (A) (A)
                 (A) (A) (A) (A) (A) (A) (A) (A) (A) (A) (A) (A)
                 (A) (A) (A) (A) (A) (A) (A) (A) (A) (A) (A) (A)
                 (A) (A) (A) (A) (A) (A) (A) (A) (A) (A) (A) (A)
                 (A) (A) (A) (A) (A) (A) (A) (A) (A) (A) (A) (A)
                 (A) (A) (A) (A) (A) (A) (A) (A) (A) (A) (A) (A)
                 (A) (A) (A) (A) (A) (A) (A) (A) (A) (A) (A) (A)
                 (A) (A) (A) (A) (A) (A) (A) (A) (A) (A) (A) (A)
                 (A) (A) (A) (A) (A) (A) (A) (A) (A) (A) (A) (A)
                 (A) (A) (A) (A) (A) (A) (A) (A) (A) (A) (A) (A)
                 (A) (A) (A) (A) (A) (A) (A) (A) (A) (A) (A) (A)
                 (A) (A) (A) (A) (A) (A) (A) (A) (A) (A) (A) (A)
                 (A) (A) (A) (A) (A) (A) (A) (A) (A) (A) (A) (A)
                 (A) (A) (A) (A) (A) (A) (A) (A) (A) (A) (A) (A)
                 (A) (A) (A) (A) (A) (A) (A) (A) (A) (A) (A) (A)
                 (A) (A) (A) (A) (A) (A) (A) (A) (A) (A) (A) (A)
                 (A) (A) (A) (A) (A) (A) (A) (A) (A) (A) (A) (A)
                 (A) (A) (A) (A) (A) (A) (A) (A) (A) (A) (A) (A)
                 (A) (A) (A) (A) (A) (A) (A) (A) (A) (A) (A) (A)
                 (A) (A) (A) (A) (A) (A) (A) (A) (A) (A) (A) (A)
                 (A) (A) (A) (A) (A) (A) (A) (A) (A) (A) (A) (A)
                 (A) (A) (A) (A) (A) (A) (A) (A) (A) (A) (A) (A)
                 (A) (A) (A) (A) (A) (A) (A) (A) (A) (A) (A) (A)
                 (A) (A) (A) (A) (A) (A) (A) (A) (A) (A) (A) (A)
                 (A) (A) (A) (A) (A) (A) (A) (A) (A) (A) (A) (A)
                 (A) (A) (A) (A) (A) (A) (A) (A) (A) (A) (A) (A)
                 (A) (A) (A) (A) (A) (A) (A) (A) (A) (A) (A) (A)
                 (A) (A) (A) (A) (A) (A) (A) (A) (A) (A) (A) (A)
                 (A) (A) (A) (A) (A) (A) (A) (A) (A) (A) (A) (A)
                 (A) (A) (A) (A) (A) (A) (A) (A) (A) (A) (A) (A)
                 (A) (A) (A) (A) (A) (A) (A) (A) (A) (A) (A) (A)
                 (A) (A) (A) (A) (A) (A) (A) (A) (A) (A) (A) (A)
                 (A) (A) (A) (A) (A) (A) (A) (A) (A) (A) (A) (A)
                 (A) (A) (A) (A) (A) (A) (A) (A) (A) (A) (A) (A)
                 (A) (A) (A) (A) (A) (A) (A) (A) (A) (A) (A) (A)
                 (A) (A) (A) (A) (A) (A) (A) (A) (A) (A) (A) (A)
                 (A) (A) (A) (A) (A) (A) (A) (A) (A) (A) (A) (A)
                 (A) (A) (A) (A) (A) (A) (A) (A) (A) (A) (A) (A)
                 (A) (A) (A) (A) (A) (A) (A) (A) (A) (A) (A) (A)
                 (A) (A) (A) (A) (A) (A) (A) (A) (A) (A) (A) (A)
                 (A) (A) (A) (A) (A) (A) (A) (A) (A) (A) (A) (A)
                 (A) (A) (A) (A) (A) (A) (A) (A) (A) (A) (A) (A)
                 (A) (A) (A) (A) (A) (A) (A) (A) (A) (A) (A) (A)
                 (A) (A) (A) (A) (A) (A) (A) (A) (A) (A) (A) (A)
                 (A) (A) (A) (A) (A) (A) (A) (A) (A) (A) (A) (A)
                 (A) (A) (A) (A) (A) (A) (A) (A) (A) (A) (A) (A)
                 (A) (A) (A) (A) (A) (A) (A) (A) (A) (A) (A) (A)
                 (A) (A) (A) (A) (A) (A) (A) (A) (A) (A) (A) (A)
                 (A) (A) (A) (A) (A) (A) (A) (A) (A) (A) (A) (A)
                 (A) (A) (A) (A) (A) (A) (A) (A) (A) (A) (A) (A)
                 (A) (A) (A) (A) (A) (A) (A) (A) (A) (A) (A) (A)
                 (A) (A) (A) (A) (A) (A) (A) (A) (A) (A) (A) (A)
                 (A) (A) (A) (A) (A) (A) (A) (A) (A) (A) (A) (A)
                 (A) (A) (A) (A) (A) (A) (A) (A) (A) (A) (A) (A)
                 (A) (A) (A) (A) (A) (A) (A) (A) (A) (A) (A) (A)
                 (A) (A) (A) (A) (A) (A) (A) (A) (A) (A) (A) (A)
                 (A) (A) (A) (A) (A) (A) (A) (A) (A) (A) (A) (A)
                 (A) (A) (A) (A) (A) (A) (A) (A) (A) (A) (A) (A)
                 (A) (A) (A) (A) (A) (A) (A) (A) (A) (A) (A) (A)
                 (A) (A) (A) (A) (A) (A)
 The electronic state is 1-A.
 Alpha  occ. eigenvalues -- -256.17467 -30.02433 -25.86604 -25.86199 -25.86174
 Alpha  occ. eigenvalues --  -19.17082 -14.41552 -14.36243 -14.33239 -14.33026
 Alpha  occ. eigenvalues --  -14.32907 -14.32670 -10.25242 -10.23524 -10.20975
 Alpha  occ. eigenvalues --  -10.20830 -10.20757 -10.20664 -10.20601 -10.20580
 Alpha  occ. eigenvalues --  -10.20499 -10.20478 -10.20431 -10.20275 -10.19563
 Alpha  occ. eigenvalues --  -10.19400 -10.18816 -10.18735 -10.18633 -10.18580
 Alpha  occ. eigenvalues --  -10.18525 -10.18509 -10.18456 -10.18438 -10.18364
 Alpha  occ. eigenvalues --  -10.18346 -10.18334 -10.18277 -10.18262 -10.18202
 Alpha  occ. eigenvalues --  -10.18142 -10.18084 -10.18052 -10.18052 -10.17958
 Alpha  occ. eigenvalues --  -10.17833  -3.40022  -2.16665  -2.15880  -2.15815
 Alpha  occ. eigenvalues --   -1.05139  -1.04875  -0.96668  -0.95798  -0.95593
 Alpha  occ. eigenvalues --   -0.94693  -0.90735  -0.82031  -0.81646  -0.81317
 Alpha  occ. eigenvalues --   -0.80481  -0.80126  -0.80073  -0.79406  -0.79288
 Alpha  occ. eigenvalues --   -0.76695  -0.75636  -0.74003  -0.73689  -0.72952
 Alpha  occ. eigenvalues --   -0.71661  -0.70701  -0.69808  -0.68004  -0.67646
 Alpha  occ. eigenvalues --   -0.67637  -0.64415  -0.64023  -0.63759  -0.61140
 Alpha  occ. eigenvalues --   -0.60823  -0.60397  -0.59781  -0.57346  -0.56370
 Alpha  occ. eigenvalues --   -0.55764  -0.54374  -0.53909  -0.53070  -0.51802
 Alpha  occ. eigenvalues --   -0.50876  -0.50560  -0.50199  -0.48388  -0.47651
 Alpha  occ. eigenvalues --   -0.47620  -0.47312  -0.47099  -0.45925  -0.44597
 Alpha  occ. eigenvalues --   -0.44451  -0.44312  -0.43858  -0.43574  -0.43216
 Alpha  occ. eigenvalues --   -0.43187  -0.43100  -0.42762  -0.42547  -0.42430
 Alpha  occ. eigenvalues --   -0.42327  -0.41834  -0.41607  -0.41317  -0.41242
 Alpha  occ. eigenvalues --   -0.41169  -0.41080  -0.40075  -0.39855  -0.39750
 Alpha  occ. eigenvalues --   -0.39403  -0.39297  -0.39090  -0.38775  -0.38506
 Alpha  occ. eigenvalues --   -0.38195  -0.37564  -0.37285  -0.36994  -0.36861
 Alpha  occ. eigenvalues --   -0.36027  -0.35732  -0.35549  -0.35096  -0.34313
 Alpha  occ. eigenvalues --   -0.34065  -0.33732  -0.33529  -0.33297  -0.31966
 Alpha  occ. eigenvalues --   -0.31437  -0.31015  -0.29936  -0.29385  -0.28635
 Alpha  occ. eigenvalues --   -0.28395  -0.26565  -0.26323  -0.24187  -0.23827
 Alpha  occ. eigenvalues --   -0.22831  -0.22560  -0.21876  -0.19004  -0.18209
 Alpha  occ. eigenvalues --   -0.17784  -0.17632  -0.17512
 Alpha virt. eigenvalues --   -0.06366  -0.06103  -0.01710   0.00613   0.01197
 Alpha virt. eigenvalues --    0.01685   0.02181   0.03106   0.03778   0.04495
 Alpha virt. eigenvalues --    0.05032   0.05398   0.05609   0.05749   0.06136
 Alpha virt. eigenvalues --    0.06255   0.06652   0.07378   0.07911   0.08276
 Alpha virt. eigenvalues --    0.08596   0.08856   0.09175   0.09466   0.09745
 Alpha virt. eigenvalues --    0.10096   0.10621   0.10656   0.11076   0.11189
 Alpha virt. eigenvalues --    0.11567   0.11766   0.11989   0.12480   0.12502
 Alpha virt. eigenvalues --    0.12633   0.13050   0.13258   0.13368   0.13700
 Alpha virt. eigenvalues --    0.13915   0.14218   0.14572   0.14699   0.14951
 Alpha virt. eigenvalues --    0.15082   0.15344   0.15459   0.15636   0.15816
 Alpha virt. eigenvalues --    0.15923   0.16173   0.16307   0.16609   0.17034
 Alpha virt. eigenvalues --    0.17084   0.17371   0.17594   0.18006   0.18118
 Alpha virt. eigenvalues --    0.18518   0.18858   0.19419   0.19590   0.19863
 Alpha virt. eigenvalues --    0.19923   0.20139   0.20517   0.20753   0.20888
 Alpha virt. eigenvalues --    0.21262   0.21535   0.21700   0.22365   0.22591
 Alpha virt. eigenvalues --    0.22714   0.23020   0.23225   0.23442   0.23612
 Alpha virt. eigenvalues --    0.23882   0.24447   0.25063   0.25451   0.25655
 Alpha virt. eigenvalues --    0.25749   0.26042   0.26142   0.26693   0.26886
 Alpha virt. eigenvalues --    0.27074   0.27372   0.27862   0.28010   0.28198
 Alpha virt. eigenvalues --    0.28523   0.28894   0.29109   0.29247   0.29283
 Alpha virt. eigenvalues --    0.29639   0.29954   0.30323   0.30421   0.30606
 Alpha virt. eigenvalues --    0.31229   0.31259   0.31508   0.32330   0.32476
 Alpha virt. eigenvalues --    0.32506   0.32793   0.33058   0.33484   0.33587
 Alpha virt. eigenvalues --    0.33957   0.34200   0.34459   0.34677   0.34814
 Alpha virt. eigenvalues --    0.34855   0.35259   0.35666   0.35933   0.36102
 Alpha virt. eigenvalues --    0.36803   0.36907   0.37078   0.37221   0.37585
 Alpha virt. eigenvalues --    0.37983   0.38283   0.38396   0.39063   0.39299
 Alpha virt. eigenvalues --    0.39393   0.39593   0.39776   0.39993   0.40191
 Alpha virt. eigenvalues --    0.40358   0.40652   0.40816   0.41129   0.41303
 Alpha virt. eigenvalues --    0.41617   0.42039   0.42070   0.42176   0.42501
 Alpha virt. eigenvalues --    0.42519   0.42893   0.43284   0.43401   0.43598
 Alpha virt. eigenvalues --    0.43743   0.43933   0.44043   0.44476   0.44587
 Alpha virt. eigenvalues --    0.44793   0.45187   0.45395   0.45421   0.45644
 Alpha virt. eigenvalues --    0.46043   0.46365   0.46464   0.46750   0.46892
 Alpha virt. eigenvalues --    0.47318   0.47408   0.47439   0.47648   0.47842
 Alpha virt. eigenvalues --    0.47976   0.48249   0.48383   0.48575   0.48691
 Alpha virt. eigenvalues --    0.49074   0.49230   0.49509   0.49659   0.49790
 Alpha virt. eigenvalues --    0.50065   0.50394   0.50488   0.50936   0.51295
 Alpha virt. eigenvalues --    0.51399   0.51605   0.51678   0.51881   0.52145
 Alpha virt. eigenvalues --    0.52459   0.52635   0.53201   0.53340   0.53498
 Alpha virt. eigenvalues --    0.53708   0.53923   0.54412   0.54533   0.54671
 Alpha virt. eigenvalues --    0.54890   0.55158   0.55445   0.55846   0.56083
 Alpha virt. eigenvalues --    0.56157   0.56401   0.56639   0.56787   0.56930
 Alpha virt. eigenvalues --    0.57548   0.57713   0.58272   0.58688   0.58805
 Alpha virt. eigenvalues --    0.59099   0.59321   0.59597   0.60082   0.60344
 Alpha virt. eigenvalues --    0.60596   0.60919   0.61319   0.61742   0.62091
 Alpha virt. eigenvalues --    0.62179   0.62327   0.62647   0.63290   0.63514
 Alpha virt. eigenvalues --    0.63857   0.63889   0.64099   0.64651   0.65153
 Alpha virt. eigenvalues --    0.65325   0.65628   0.65896   0.66077   0.66254
 Alpha virt. eigenvalues --    0.66466   0.66734   0.66961   0.67075   0.67496
 Alpha virt. eigenvalues --    0.68141   0.68568   0.68745   0.69225   0.69345
 Alpha virt. eigenvalues --    0.69940   0.70459   0.70610   0.70933   0.71565
 Alpha virt. eigenvalues --    0.71682   0.72184   0.72785   0.72974   0.73147
 Alpha virt. eigenvalues --    0.73432   0.73593   0.73934   0.74147   0.74572
 Alpha virt. eigenvalues --    0.74909   0.75250   0.75308   0.75689   0.75972
 Alpha virt. eigenvalues --    0.76174   0.76624   0.77016   0.77441   0.77632
 Alpha virt. eigenvalues --    0.77905   0.78455   0.78498   0.78909   0.79085
 Alpha virt. eigenvalues --    0.79664   0.79833   0.80089   0.80830   0.81001
 Alpha virt. eigenvalues --    0.81072   0.81603   0.81891   0.82649   0.82884
 Alpha virt. eigenvalues --    0.83526   0.84048   0.84426   0.84633   0.85148
 Alpha virt. eigenvalues --    0.85328   0.85460   0.86381   0.86435   0.86656
 Alpha virt. eigenvalues --    0.87124   0.87780   0.87933   0.88576   0.88926
 Alpha virt. eigenvalues --    0.89569   0.89860   0.90115   0.90387   0.90769
 Alpha virt. eigenvalues --    0.91038   0.91817   0.92130   0.92331   0.92772
 Alpha virt. eigenvalues --    0.93059   0.93310   0.93654   0.94072   0.94217
 Alpha virt. eigenvalues --    0.94423   0.95524   0.95587   0.95946   0.96090
 Alpha virt. eigenvalues --    0.96602   0.97189   0.97277   0.97605   0.97808
 Alpha virt. eigenvalues --    0.98129   0.98201   0.98879   0.99397   0.99767
 Alpha virt. eigenvalues --    1.00263   1.00316   1.00566   1.01063   1.01495
 Alpha virt. eigenvalues --    1.01855   1.01877   1.02309   1.02440   1.02999
 Alpha virt. eigenvalues --    1.03259   1.03836   1.03935   1.04205   1.04536
 Alpha virt. eigenvalues --    1.04937   1.05041   1.05403   1.05927   1.05995
 Alpha virt. eigenvalues --    1.06488   1.07183   1.07583   1.08098   1.08490
 Alpha virt. eigenvalues --    1.08582   1.08800   1.09297   1.09546   1.10027
 Alpha virt. eigenvalues --    1.10141   1.10954   1.11494   1.12001   1.12085
 Alpha virt. eigenvalues --    1.12441   1.12734   1.13292   1.13611   1.14075
 Alpha virt. eigenvalues --    1.14796   1.15907   1.16081   1.16685   1.17092
 Alpha virt. eigenvalues --    1.17277   1.17730   1.18299   1.18506   1.18906
 Alpha virt. eigenvalues --    1.19268   1.19442   1.19986   1.20489   1.20802
 Alpha virt. eigenvalues --    1.21269   1.21451   1.21727   1.22096   1.22424
 Alpha virt. eigenvalues --    1.22606   1.23339   1.24415   1.24664   1.25034
 Alpha virt. eigenvalues --    1.25513   1.26086   1.26290   1.26584   1.27286
 Alpha virt. eigenvalues --    1.27363   1.27847   1.28397   1.28723   1.29312
 Alpha virt. eigenvalues --    1.29388   1.29626   1.30033   1.30376   1.30624
 Alpha virt. eigenvalues --    1.31504   1.31756   1.31856   1.32135   1.32258
 Alpha virt. eigenvalues --    1.33036   1.33156   1.33595   1.34689   1.35187
 Alpha virt. eigenvalues --    1.35589   1.36055   1.36859   1.37860   1.37999
 Alpha virt. eigenvalues --    1.38708   1.38927   1.39671   1.39865   1.40330
 Alpha virt. eigenvalues --    1.40879   1.41022   1.41855   1.42438   1.42456
 Alpha virt. eigenvalues --    1.43303   1.44327   1.44501   1.44932   1.45408
 Alpha virt. eigenvalues --    1.46146   1.46421   1.47254   1.47287   1.47805
 Alpha virt. eigenvalues --    1.48184   1.48569   1.48993   1.49361   1.49652
 Alpha virt. eigenvalues --    1.50007   1.50155   1.50481   1.50995   1.51304
 Alpha virt. eigenvalues --    1.51564   1.51673   1.52067   1.52164   1.52254
 Alpha virt. eigenvalues --    1.52320   1.52525   1.53341   1.53614   1.53690
 Alpha virt. eigenvalues --    1.53963   1.54107   1.54487   1.54577   1.54773
 Alpha virt. eigenvalues --    1.55078   1.55499   1.55699   1.55763   1.56313
 Alpha virt. eigenvalues --    1.56427   1.56494   1.57166   1.57362   1.57454
 Alpha virt. eigenvalues --    1.57964   1.58115   1.58210   1.58475   1.58554
 Alpha virt. eigenvalues --    1.58817   1.59252   1.59514   1.59929   1.60389
 Alpha virt. eigenvalues --    1.60731   1.61076   1.61369   1.61818   1.61940
 Alpha virt. eigenvalues --    1.62117   1.62738   1.62841   1.63071   1.63942
 Alpha virt. eigenvalues --    1.64204   1.64522   1.64716   1.64830   1.65330
 Alpha virt. eigenvalues --    1.65595   1.65973   1.65994   1.66350   1.67251
 Alpha virt. eigenvalues --    1.67467   1.68079   1.68317   1.68516   1.68548
 Alpha virt. eigenvalues --    1.68966   1.69163   1.70025   1.70111   1.70568
 Alpha virt. eigenvalues --    1.71159   1.71504   1.71682   1.71941   1.72101
 Alpha virt. eigenvalues --    1.72347   1.72729   1.73225   1.73412   1.73871
 Alpha virt. eigenvalues --    1.74752   1.75248   1.75550   1.76362   1.76677
 Alpha virt. eigenvalues --    1.77011   1.77398   1.78064   1.78527   1.79087
 Alpha virt. eigenvalues --    1.79596   1.79987   1.81040   1.81459   1.82244
 Alpha virt. eigenvalues --    1.82706   1.83265   1.83925   1.84152   1.84540
 Alpha virt. eigenvalues --    1.85265   1.85369   1.85723   1.86480   1.86700
 Alpha virt. eigenvalues --    1.86831   1.87170   1.87827   1.88085   1.88538
 Alpha virt. eigenvalues --    1.88690   1.88915   1.88968   1.89796   1.90717
 Alpha virt. eigenvalues --    1.91110   1.91605   1.92347   1.92991   1.93852
 Alpha virt. eigenvalues --    1.94252   1.94613   1.94912   1.95518   1.95756
 Alpha virt. eigenvalues --    1.96169   1.96803   1.97209   1.97879   1.98356
 Alpha virt. eigenvalues --    1.98440   1.99097   1.99480   1.99842   2.00165
 Alpha virt. eigenvalues --    2.00227   2.00483   2.00889   2.01387   2.01972
 Alpha virt. eigenvalues --    2.02366   2.03341   2.03351   2.04334   2.04430
 Alpha virt. eigenvalues --    2.05087   2.05596   2.05880   2.07076   2.07206
 Alpha virt. eigenvalues --    2.07911   2.08092   2.08419   2.09202   2.09432
 Alpha virt. eigenvalues --    2.09761   2.10266   2.10940   2.11183   2.11357
 Alpha virt. eigenvalues --    2.12110   2.12425   2.13070   2.13496   2.13649
 Alpha virt. eigenvalues --    2.14018   2.15056   2.15283   2.15641   2.16284
 Alpha virt. eigenvalues --    2.16494   2.17150   2.17545   2.18174   2.18907
 Alpha virt. eigenvalues --    2.18980   2.19366   2.19925   2.20380   2.20792
 Alpha virt. eigenvalues --    2.21102   2.21341   2.21636   2.22180   2.22791
 Alpha virt. eigenvalues --    2.23374   2.23707   2.24383   2.24807   2.25545
 Alpha virt. eigenvalues --    2.25902   2.26442   2.26713   2.27064   2.27854
 Alpha virt. eigenvalues --    2.28119   2.28492   2.28892   2.29531   2.30012
 Alpha virt. eigenvalues --    2.30350   2.31294   2.31407   2.31695   2.32324
 Alpha virt. eigenvalues --    2.32744   2.32845   2.33300   2.34061   2.34248
 Alpha virt. eigenvalues --    2.35235   2.35638   2.35762   2.36024   2.36335
 Alpha virt. eigenvalues --    2.36548   2.37254   2.37566   2.37717   2.38197
 Alpha virt. eigenvalues --    2.38352   2.39014   2.39661   2.39743   2.40212
 Alpha virt. eigenvalues --    2.40620   2.41340   2.41419   2.41837   2.42641
 Alpha virt. eigenvalues --    2.43164   2.43434   2.44054   2.44332   2.44557
 Alpha virt. eigenvalues --    2.45105   2.45742   2.46217   2.46361   2.46755
 Alpha virt. eigenvalues --    2.47451   2.48041   2.48378   2.48759   2.49263
 Alpha virt. eigenvalues --    2.49663   2.50609   2.50910   2.51222   2.51534
 Alpha virt. eigenvalues --    2.52399   2.52649   2.52904   2.53249   2.53420
 Alpha virt. eigenvalues --    2.53641   2.54114   2.54590   2.54734   2.55648
 Alpha virt. eigenvalues --    2.56217   2.56409   2.56550   2.56793   2.57334
 Alpha virt. eigenvalues --    2.57607   2.57967   2.58134   2.58641   2.59114
 Alpha virt. eigenvalues --    2.59604   2.60055   2.60292   2.60651   2.61044
 Alpha virt. eigenvalues --    2.61266   2.61824   2.61980   2.62342   2.62664
 Alpha virt. eigenvalues --    2.63030   2.63218   2.63747   2.64799   2.65076
 Alpha virt. eigenvalues --    2.65920   2.66298   2.66818   2.67126   2.67564
 Alpha virt. eigenvalues --    2.67685   2.68169   2.68388   2.69008   2.69228
 Alpha virt. eigenvalues --    2.69397   2.70263   2.70525   2.71090   2.71151
 Alpha virt. eigenvalues --    2.71328   2.71789   2.72072   2.72361   2.72958
 Alpha virt. eigenvalues --    2.73820   2.73963   2.75488   2.75690   2.76010
 Alpha virt. eigenvalues --    2.76646   2.76755   2.77091   2.77697   2.77881
 Alpha virt. eigenvalues --    2.78470   2.78843   2.78974   2.79404   2.80104
 Alpha virt. eigenvalues --    2.80319   2.80454   2.81085   2.81146   2.81834
 Alpha virt. eigenvalues --    2.82361   2.82906   2.83089   2.83789   2.83947
 Alpha virt. eigenvalues --    2.84387   2.84920   2.85403   2.85986   2.86281
 Alpha virt. eigenvalues --    2.86732   2.87166   2.87256   2.87840   2.88376
 Alpha virt. eigenvalues --    2.88732   2.89190   2.89222   2.89697   2.89871
 Alpha virt. eigenvalues --    2.90415   2.90821   2.91169   2.91256   2.91786
 Alpha virt. eigenvalues --    2.92519   2.92714   2.93030   2.93528   2.93648
 Alpha virt. eigenvalues --    2.94164   2.94582   2.94761   2.95773   2.95865
 Alpha virt. eigenvalues --    2.96022   2.96186   2.96714   2.96926   2.97272
 Alpha virt. eigenvalues --    2.97508   2.97759   2.98107   2.98346   2.98969
 Alpha virt. eigenvalues --    2.99526   3.00057   3.00455   3.00582   3.00923
 Alpha virt. eigenvalues --    3.01733   3.02285   3.02562   3.02975   3.03556
 Alpha virt. eigenvalues --    3.03786   3.04400   3.04533   3.04866   3.05306
 Alpha virt. eigenvalues --    3.05879   3.06023   3.06134   3.06784   3.07001
 Alpha virt. eigenvalues --    3.07822   3.07985   3.08092   3.08268   3.08701
 Alpha virt. eigenvalues --    3.08935   3.09148   3.09340   3.09803   3.10125
 Alpha virt. eigenvalues --    3.10708   3.11001   3.11539   3.11689   3.12228
 Alpha virt. eigenvalues --    3.12392   3.12755   3.12902   3.13484   3.13910
 Alpha virt. eigenvalues --    3.13973   3.14625   3.14874   3.15351   3.15778
 Alpha virt. eigenvalues --    3.15903   3.16267   3.16450   3.16631   3.16849
 Alpha virt. eigenvalues --    3.17234   3.17610   3.17942   3.18626   3.18824
 Alpha virt. eigenvalues --    3.18912   3.19607   3.19847   3.20296   3.20633
 Alpha virt. eigenvalues --    3.21056   3.21185   3.21414   3.22355   3.22477
 Alpha virt. eigenvalues --    3.23206   3.23394   3.23543   3.24092   3.24308
 Alpha virt. eigenvalues --    3.24394   3.24653   3.25355   3.25432   3.25538
 Alpha virt. eigenvalues --    3.25679   3.26073   3.26305   3.26560   3.26922
 Alpha virt. eigenvalues --    3.27336   3.27413   3.27635   3.27864   3.28034
 Alpha virt. eigenvalues --    3.28366   3.28719   3.29304   3.29791   3.30279
 Alpha virt. eigenvalues --    3.30352   3.30586   3.30620   3.30754   3.30830
 Alpha virt. eigenvalues --    3.30944   3.31189   3.31591   3.31860   3.32203
 Alpha virt. eigenvalues --    3.32518   3.32641   3.32907   3.33473   3.33623
 Alpha virt. eigenvalues --    3.34217   3.34662   3.35118   3.35401   3.35571
 Alpha virt. eigenvalues --    3.35681   3.35942   3.36168   3.36373   3.36733
 Alpha virt. eigenvalues --    3.36952   3.37159   3.37690   3.38118   3.38295
 Alpha virt. eigenvalues --    3.38320   3.38608   3.38821   3.39081   3.39493
 Alpha virt. eigenvalues --    3.39727   3.40289   3.40418   3.40783   3.41032
 Alpha virt. eigenvalues --    3.41502   3.41830   3.42200   3.42349   3.42736
 Alpha virt. eigenvalues --    3.43550   3.43947   3.44312   3.44554   3.44962
 Alpha virt. eigenvalues --    3.45476   3.45937   3.46455   3.46754   3.46884
 Alpha virt. eigenvalues --    3.47303   3.47880   3.48263   3.49165   3.49628
 Alpha virt. eigenvalues --    3.49694   3.50326   3.50938   3.51166   3.51528
 Alpha virt. eigenvalues --    3.51775   3.52713   3.53410   3.53835   3.54037
 Alpha virt. eigenvalues --    3.54824   3.55039   3.55516   3.55743   3.56159
 Alpha virt. eigenvalues --    3.56655   3.57003   3.57060   3.58158   3.58472
 Alpha virt. eigenvalues --    3.59283   3.59729   3.60028   3.60528   3.60691
 Alpha virt. eigenvalues --    3.61096   3.61896   3.62330   3.62939   3.63295
 Alpha virt. eigenvalues --    3.63829   3.64262   3.64417   3.65107   3.65801
 Alpha virt. eigenvalues --    3.66273   3.66595   3.67618   3.67801   3.67965
 Alpha virt. eigenvalues --    3.68525   3.69488   3.69948   3.70137   3.70493
 Alpha virt. eigenvalues --    3.70616   3.70910   3.71314   3.71540   3.71852
 Alpha virt. eigenvalues --    3.72086   3.72439   3.73112   3.73313   3.74319
 Alpha virt. eigenvalues --    3.74704   3.75116   3.75363   3.75449   3.75924
 Alpha virt. eigenvalues --    3.76518   3.76916   3.77402   3.78201   3.79205
 Alpha virt. eigenvalues --    3.79602   3.79908   3.80038   3.80909   3.81578
 Alpha virt. eigenvalues --    3.82033   3.83017   3.83219   3.84057   3.84299
 Alpha virt. eigenvalues --    3.84598   3.85362   3.86051   3.87055   3.87508
 Alpha virt. eigenvalues --    3.87800   3.88394   3.88730   3.89863   3.90876
 Alpha virt. eigenvalues --    3.91262   3.91323   3.91510   3.92001   3.92768
 Alpha virt. eigenvalues --    3.93114   3.93663   3.94827   3.95325   3.95870
 Alpha virt. eigenvalues --    3.96527   3.97390   3.98114   3.98819   3.99473
 Alpha virt. eigenvalues --    3.99940   4.00382   4.00968   4.01252   4.02003
 Alpha virt. eigenvalues --    4.02199   4.02552   4.03059   4.03590   4.04261
 Alpha virt. eigenvalues --    4.04645   4.05004   4.05856   4.06770   4.07138
 Alpha virt. eigenvalues --    4.07486   4.08813   4.09419   4.10305   4.10961
 Alpha virt. eigenvalues --    4.11457   4.12167   4.12792   4.14293   4.14938
 Alpha virt. eigenvalues --    4.15333   4.16446   4.16822   4.17513   4.17574
 Alpha virt. eigenvalues --    4.18251   4.18891   4.19292   4.19500   4.19823
 Alpha virt. eigenvalues --    4.20147   4.20493   4.20811   4.21355   4.21747
 Alpha virt. eigenvalues --    4.22544   4.23462   4.24005   4.24496   4.24821
 Alpha virt. eigenvalues --    4.25445   4.26242   4.27140   4.27389   4.27951
 Alpha virt. eigenvalues --    4.28958   4.29557   4.30144   4.31073   4.31489
 Alpha virt. eigenvalues --    4.31911   4.32857   4.33270   4.33739   4.33991
 Alpha virt. eigenvalues --    4.34888   4.34917   4.35601   4.36923   4.37623
 Alpha virt. eigenvalues --    4.38249   4.38581   4.39174   4.40353   4.40838
 Alpha virt. eigenvalues --    4.41027   4.41273   4.41654   4.41827   4.41969
 Alpha virt. eigenvalues --    4.42791   4.43103   4.43698   4.44408   4.44626
 Alpha virt. eigenvalues --    4.45263   4.45375   4.46021   4.46283   4.46933
 Alpha virt. eigenvalues --    4.47728   4.48286   4.49460   4.49728   4.50150
 Alpha virt. eigenvalues --    4.50485   4.51325   4.51638   4.53102   4.54089
 Alpha virt. eigenvalues --    4.55363   4.56423   4.56616   4.56960   4.58173
 Alpha virt. eigenvalues --    4.58969   4.59929   4.61952   4.62405   4.64036
 Alpha virt. eigenvalues --    4.64878   4.65785   4.66484   4.67911   4.68292
 Alpha virt. eigenvalues --    4.68702   4.69532   4.70100   4.70812   4.72037
 Alpha virt. eigenvalues --    4.72377   4.72931   4.73272   4.74563   4.74908
 Alpha virt. eigenvalues --    4.75302   4.76092   4.77823   4.78074   4.79447
 Alpha virt. eigenvalues --    4.80953   4.81614   4.82556   4.83931   4.83978
 Alpha virt. eigenvalues --    4.84605   4.84744   4.85111   4.85629   4.86856
 Alpha virt. eigenvalues --    4.87196   4.87374   4.88202   4.89825   4.90817
 Alpha virt. eigenvalues --    4.91463   4.92139   4.93690   4.94116   4.94798
 Alpha virt. eigenvalues --    4.95867   4.95950   4.96937   4.97221   4.98416
 Alpha virt. eigenvalues --    4.98933   5.00074   5.01871   5.02052   5.02716
 Alpha virt. eigenvalues --    5.03297   5.04141   5.05173   5.06648   5.07346
 Alpha virt. eigenvalues --    5.07856   5.08332   5.09466   5.09565   5.09857
 Alpha virt. eigenvalues --    5.10806   5.11828   5.13414   5.14362   5.16677
 Alpha virt. eigenvalues --    5.18022   5.19983   5.20070   5.21015   5.21437
 Alpha virt. eigenvalues --    5.21906   5.22399   5.24285   5.24932   5.26496
 Alpha virt. eigenvalues --    5.27232   5.28984   5.29298   5.30591   5.31338
 Alpha virt. eigenvalues --    5.33798   5.36176   5.37058   5.37880   5.39000
 Alpha virt. eigenvalues --    5.39583   5.39893   5.40594   5.41230   5.41618
 Alpha virt. eigenvalues --    5.42627   5.43249   5.44126   5.45142   5.47799
 Alpha virt. eigenvalues --    5.49527   5.50586   5.51027   5.51609   5.52965
 Alpha virt. eigenvalues --    5.53071   5.53618   5.57204   5.57939   5.60975
 Alpha virt. eigenvalues --    5.62626   5.62876   5.63161   5.63506   5.64419
 Alpha virt. eigenvalues --    5.66196   5.66815   5.68052   5.68722   5.69611
 Alpha virt. eigenvalues --    5.71216   5.75130   5.77416   5.78191   5.78902
 Alpha virt. eigenvalues --    5.82084   5.82459   5.90499   5.93223   5.95079
 Alpha virt. eigenvalues --    5.95212   5.98232   6.02161   6.03882   6.04222
 Alpha virt. eigenvalues --    6.09314   6.12298   6.13639   6.15059   6.16131
 Alpha virt. eigenvalues --    6.18546   6.19876   6.24952   6.28322   6.35298
 Alpha virt. eigenvalues --    6.36029   6.42275   6.47469   6.52048   6.54048
 Alpha virt. eigenvalues --    6.67349   6.97307   7.28203  22.35711  22.37109
 Alpha virt. eigenvalues --   22.44162  22.46365  22.47276  22.53258  22.54498
 Alpha virt. eigenvalues --   22.63026  22.63365  22.78273  22.86395  22.87584
 Alpha virt. eigenvalues --   22.91421  22.94331  22.96012  22.97175  22.97778
 Alpha virt. eigenvalues --   23.04782  23.05264  23.09563  23.16341  23.27434
 Alpha virt. eigenvalues --   23.29066  23.30388  23.32785  23.41822  23.43305
 Alpha virt. eigenvalues --   23.52086  23.53190  23.57411  23.75418  23.79547
 Alpha virt. eigenvalues --   23.81474  23.90513  32.41356  32.76395  32.91258
 Alpha virt. eigenvalues --   32.97191  33.04014  33.13208  44.07676
          Condensed to atoms (all electrons):
 Mulliken charges:
               1
     1  Fe  -0.265824
     2  N   -0.038324
     3  N    0.026126
     4  N   -0.065471
     5  N   -0.033557
     6  C    0.228490
     7  C   -0.047191
     8  C   -0.047593
     9  C    0.247886
    10  C    0.272002
    11  C   -0.053900
    12  C    0.042947
    13  C    0.234479
    14  C    0.214495
    15  C   -0.100033
    16  C    0.111138
    17  C    0.210326
    18  C    0.259791
    19  C   -0.038516
    20  C   -0.056812
    21  C    0.237561
    22  C   -0.496599
    23  H    0.135235
    24  C   -0.462750
    25  H    0.128511
    26  C   -0.510495
    27  H    0.108753
    28  C   -0.496720
    29  H    0.182538
    30  C   -0.415429
    31  H    0.118497
    32  H    0.135163
    33  H    0.134703
    34  C   -0.413556
    35  H    0.129449
    36  H    0.135506
    37  H    0.120052
    38  C   -0.451092
    39  H    0.125718
    40  H    0.141783
    41  H    0.155346
    42  C   -0.212208
    43  H    0.107763
    44  C   -0.286331
    45  H    0.138774
    46  H    0.120569
    47  C   -0.390720
    48  H    0.131680
    49  H    0.140781
    50  H    0.122039
    51  C   -0.238846
    52  H    0.112461
    53  C   -0.315117
    54  H    0.149166
    55  H    0.121569
    56  C   -0.414306
    57  H    0.135559
    58  H    0.136184
    59  H    0.117354
    60  C   -0.413144
    61  H    0.119996
    62  H    0.135012
    63  H    0.129070
    64  O   -0.578459
    65  H    0.359906
    66  H    0.324197
    67  C   -0.392223
    68  H    0.145818
    69  H    0.133871
    70  H    0.135631
    71  N   -0.233530
    72  H    0.234532
    73  C    0.176520
    74  C    0.008036
    75  H    0.178891
    76  N    0.075864
    77  C   -0.221780
    78  H    0.162787
 Sum of Mulliken charges =  -0.00000
 Mulliken charges with hydrogens summed into heavy atoms:
               1
     1  Fe  -0.265824
     2  N   -0.038324
     3  N    0.026126
     4  N   -0.065471
     5  N   -0.033557
     6  C    0.228490
     7  C   -0.047191
     8  C   -0.047593
     9  C    0.247886
    10  C    0.272002
    11  C   -0.053900
    12  C    0.042947
    13  C    0.234479
    14  C    0.214495
    15  C   -0.100033
    16  C    0.111138
    17  C    0.210326
    18  C    0.259791
    19  C   -0.038516
    20  C   -0.056812
    21  C    0.237561
    22  C   -0.361364
    24  C   -0.334239
    26  C   -0.401742
    28  C   -0.314182
    30  C   -0.027066
    34  C   -0.028548
    38  C   -0.028244
    42  C   -0.104445
    44  C   -0.026988
    47  C    0.003779
    51  C   -0.126385
    53  C   -0.044382
    56  C   -0.025208
    60  C   -0.029066
    64  O    0.105643
    67  C    0.023097
    71  N    0.001003
    73  C    0.176520
    74  C    0.186926
    76  N    0.075864
    77  C   -0.058993
 Electronic spatial extent (au):  <R**2>=          19829.0278
 Charge=              0.0000 electrons
 Dipole moment (field-independent basis, Debye):
    X=             -0.9313    Y=              1.6055    Z=              3.2727  Tot=              3.7624
 Quadrupole moment (field-independent basis, Debye-Ang):
   XX=           -247.0518   YY=           -238.2197   ZZ=           -222.9572
   XY=             -3.6998   XZ=             -1.4053   YZ=              2.8266
 Traceless Quadrupole moment (field-independent basis, Debye-Ang):
   XX=            -10.9756   YY=             -2.1435   ZZ=             13.1191
   XY=             -3.6998   XZ=             -1.4053   YZ=              2.8266
 Octapole moment (field-independent basis, Debye-Ang**2):
  XXX=            -36.0709  YYY=             21.5911  ZZZ=             92.3518  XYY=              4.7295
  XXY=             17.8271  XXZ=            -11.9316  XZZ=            -15.6191  YZZ=             34.2500
  YYZ=             11.0464  XYZ=            -19.8367
 Hexadecapole moment (field-independent basis, Debye-Ang**3):
 XXXX=         -12192.9482 YYYY=         -11189.2949 ZZZZ=          -2800.5656 XXXY=             20.8691
 XXXZ=            -54.6117 YYYX=            -24.6730 YYYZ=            -64.9395 ZZZX=            -29.7392
 ZZZY=             88.8796 XXYY=          -3871.4169 XXZZ=          -2702.3990 YYZZ=          -2541.2160
 XXYZ=             -8.7489 YYXZ=             13.9925 ZZXY=            -42.4675
 N-N= 5.977587037757D+03 E-N=-1.896958848977D+04  KE= 2.973870006742D+03
  Exact polarizability:     719.932      -3.873     676.849      -3.542      -2.512     314.907
 Approx polarizability:    1329.727     -21.338    1278.952     -10.762     -23.931     500.659

 ----------------------------------------------------------------------

 Electric dipole moment (input orientation):
 (Debye = 10**-18 statcoulomb cm , SI units = C m)
                  (au)            (Debye)         (10**-30 SI)
   Tot        0.148024D+01      0.376240D+01      0.125500D+02
   x         -0.136966D+01     -0.348133D+01     -0.116125D+02
   y          0.538782D+00      0.136945D+01      0.456798D+01
   z          0.157695D+00      0.400820D+00      0.133699D+01

 Dipole polarizability, Alpha (input orientation).
 (esu units = cm**3 , SI units = C**2 m**2 J**-1)
 Alpha(0;0):
               (au)            (10**-24 esu)      (10**-40 SI)
   iso        0.570562D+03      0.845486D+02      0.940730D+02
   aniso      0.385426D+03      0.571143D+02      0.635482D+02
   xx         0.338751D+03      0.501976D+02      0.558524D+02
   yx        -0.514842D+02     -0.762917D+01     -0.848860D+01
   yy         0.678545D+03      0.100550D+03      0.111877D+03
   zx         0.803423D+02      0.119055D+02      0.132467D+02
   zy        -0.685528D+01     -0.101585D+01     -0.113028D+01
   zz         0.694391D+03      0.102898D+03      0.114490D+03

 First dipole hyperpolarizability, Beta (input orientation).
 ||, _|_  parallel and perpendicular components, (z) with respect to z axis,
 vector components x,y,z.  Values do not include the 1/n! factor of 1/2.
 (esu units = statvolt**-1 cm**4 , SI units = C**3 m**3 J**-2)
 Beta(0;0,0):
               (au)            (10**-30 esu)      (10**-50 SI)
   || (z)     0.353438D+03      0.305343D+01      0.113325D+01
   _|_(z)     0.117813D+03      0.101781D+01      0.377750D+00
   x          0.121439D+04      0.104914D+02      0.389377D+01
   y         -0.429474D+04     -0.371032D+02     -0.137705D+02
   z          0.176719D+04      0.152671D+02      0.566624D+01
   ||         0.960053D+03      0.829411D+01      0.307828D+01
   xxx       -0.235958D+03     -0.203849D+01     -0.756566D+00
   xxy       -0.117357D+03     -0.101387D+01     -0.376290D+00
   yxy        0.230383D+03      0.199033D+01      0.738691D+00
   yyy       -0.204192D+03     -0.176406D+01     -0.654713D+00
   xxz        0.190327D+03      0.164428D+01      0.610258D+00
   yxz       -0.118737D+03     -0.102580D+01     -0.380714D+00
   yyz        0.379455D+02      0.327820D+00      0.121667D+00
   zxz        0.410371D+03      0.354528D+01      0.131580D+01
   zyz       -0.111003D+04     -0.958982D+01     -0.355917D+01
   zzz        0.360790D+03      0.311694D+01      0.115682D+01

 ----------------------------------------------------------------------

 Dipole orientation:
    26        -14.29005535         12.15696087         12.25745976
     7        -11.67672625         14.61532033         13.48779171
     7        -11.64785740          9.82778327         11.03575314
     7        -17.02640389          9.92019041         10.91786803
     7        -16.98581675         14.63827597         13.41665201
     6        -12.01857910         16.85757591         14.68579612
     6         -9.61862305         17.97060645         15.37265581
     6         -7.80924460         16.34155217         14.55171113
     6         -9.13208574         14.25125614         13.38598930
     6         -9.10704988         10.12245867         11.25800986
     6         -7.79197232          7.97471432         10.22020560
     6         -9.61378443          6.35001925          9.35765777
     6        -12.01667564          7.56207433          9.88714170
     6        -16.65855943          7.69984689          9.66384975
     6        -19.00501702          6.75563074          8.67144205
     6        -20.81755538          8.49385196          9.30704635
     6        -19.53847807         10.41320991         10.78374875
     6        -19.53152840         14.34594083         13.20655314
     6        -20.85125141         16.46934215         14.31345483
     6        -19.03884283         18.06112102         15.19517356
     6        -16.64051923         16.88850061         14.60637266
     6        -14.33215124         17.95642832         15.19715382
     1        -14.33667789         19.76235297         16.14551729
     6         -7.92248754         12.19043963         12.33621036
     1         -5.88293358         12.18914373         12.37471372
     6        -14.34068736          6.53892970          9.27651875
     1        -14.35740272          4.73724997          8.31901530
     6        -20.75079809         12.35697541         12.03791303
     1        -22.78834677         12.38003911         11.99404167
     6         -5.00710431         16.53898037         14.75794775
     1         -4.46338685         18.28524503         15.69448146
     1         -4.13927186         16.50914812         12.88984192
     1         -4.24675247         14.95888279         15.84014004
     6         -9.33292168         20.43293409         16.71118702
     1        -10.31225903         20.39469216         18.52389624
     1        -10.13081238         21.96510377         15.58849049
     1         -7.35117535         20.85070670         17.05757641
     6         -5.00208091          7.61099166         10.25617344
     1         -4.19411907          8.34902282         11.99877174
     1         -4.11180984          8.59172935          8.67536103
     1         -4.54884651          5.61006062         10.11587881
     6         -9.33458139          3.90166176          8.17792916
     1        -10.82483175          2.55350787          8.57681007
     6         -7.44845263          3.21002053          6.66953228
     1         -5.96570501          4.49220198          6.13041745
     1         -7.35237780          1.33696787          5.87658728
     6        -19.28604890          4.41352181          7.13434340
     1        -18.54985719          2.78282003          8.15636904
     1        -18.24532749          4.57389365          5.36228849
     1        -21.26240171          4.07243269          6.68938135
     6        -23.46468335          8.43357120          8.62198656
     1        -24.31155641          6.56781917          8.55453597
     6        -24.86225895         10.42714903          8.00860781
     1        -24.08906442         12.30833161          7.94613396
     1        -26.82625132         10.23816338          7.50572953
     6        -23.65410359         16.72949224         14.39847511
     1        -24.50180213         15.12059954         15.36600506
     1        -24.43310089         16.80717939         12.49264853
     1        -24.20058123         18.44493803         15.38899042
     6        -19.32049124         20.54283714         16.49837734
     1        -21.30456307         21.01800616         16.74165846
     1        -18.42492903         22.04280430         15.40626265
     1        -18.43408989         20.49221766         18.35811114
     8        -14.33924715         13.93496473          8.33981172
     1        -15.28931656         12.79542688          7.30581329
     1        -13.73698205         15.43321026          7.87298811
     6        -14.84817381          5.07569142         20.03237806
     1        -14.97059810          3.48244191         18.74596467
     1        -16.52297852          5.08816872         21.23122175
     1        -13.19543753          4.82454963         21.23649474
     7        -14.57594604          9.78810946         19.68662150
     1        -14.63547262         10.12070677         21.55889009
     6        -14.65881308          7.45761508         18.56117677
     6        -14.40705314         11.53875619         17.83191766
     1        -14.31425998         13.53327090         18.15815018
     7        -14.37766713         10.45788266         15.60269392
     6        -14.53119802          7.91961955         16.02582512
     1        -14.54138476          6.60548899         14.48875742

 Electric dipole moment (dipole orientation):
 (Debye = 10**-18 statcoulomb cm , SI units = C m)
                  (au)            (Debye)         (10**-30 SI)
   Tot        0.148024D+01      0.376240D+01      0.125500D+02
   x          0.000000D+00      0.000000D+00      0.000000D+00
   y          0.000000D+00      0.000000D+00      0.000000D+00
   z          0.148024D+01      0.376240D+01      0.125500D+02

 Dipole polarizability, Alpha (dipole orientation).
 (esu units = cm**3 , SI units = C**2 m**2 J**-1)
 Alpha(0;0):
               (au)            (10**-24 esu)      (10**-40 SI)
   iso        0.570562D+03      0.845486D+02      0.940730D+02
   aniso      0.385426D+03      0.571143D+02      0.635482D+02
   xx         0.697405D+03      0.103345D+03      0.114987D+03
   yx        -0.325750D+02     -0.482712D+01     -0.537089D+01
   yy         0.608170D+03      0.901216D+02      0.100274D+03
   zx         0.135790D+02      0.201221D+01      0.223888D+01
   zy         0.161241D+03      0.238934D+02      0.265850D+02
   zz         0.406111D+03      0.601795D+02      0.669587D+02

 First dipole hyperpolarizability, Beta (dipole orientation).
 ||, _|_  parallel and perpendicular components, (z) with respect to z axis,
 vector components x,y,z.  Values do not include the 1/n! factor of 1/2.
 (esu units = statvolt**-1 cm**4 , SI units = C**3 m**3 J**-2)
 Beta(0;0,0):
               (au)            (10**-30 esu)      (10**-50 SI)
   || (z)    -0.499722D+03     -0.431721D+01     -0.160229D+01
   _|_(z)    -0.166574D+03     -0.143907D+01     -0.534097D+00
   x          0.602765D+03      0.520742D+01      0.193268D+01
   y         -0.405415D+04     -0.350247D+02     -0.129991D+02
   z         -0.249861D+04     -0.215860D+02     -0.801145D+01
   ||         0.960053D+03      0.829411D+01      0.307828D+01
   xxx       -0.351556D+03     -0.303717D+01     -0.112722D+01
   xxy       -0.693085D+03     -0.598772D+01     -0.222228D+01
   yxy        0.586067D+03      0.506316D+01      0.187914D+01
   yyy       -0.349638D+03     -0.302060D+01     -0.112106D+01
   xxz       -0.700052D+03     -0.604790D+01     -0.224462D+01
   yxz        0.209848D+03      0.181292D+01      0.672848D+00
   yyz       -0.168457D+03     -0.145534D+01     -0.540135D+00
   zxz       -0.335895D+02     -0.290187D+00     -0.107700D+00
   zyz       -0.308661D+03     -0.266659D+01     -0.989678D+00
   zzz        0.356387D+02      0.307891D+00      0.114271D+00

 ----------------------------------------------------------------------
 Unable to Open any file for archive entry.
 1\1\GINC-BGN1024\SP\RAPFD\def2TZVP\C34H36Fe1N6O1\BEBJONES\30-Oct-2024\
 0\\# polar def2tzvp apfd int=(grid=ultrafine)\\4pqc_II_S\\0,1\Fe,0,-5.
 7547345232,5.7222752055,-8.6475937142\N,0,-5.6483090078,7.5253143607,-
 7.7721394974\N,0,-5.2153216134,4.8275443395,-6.9741052952\N,0,-5.78670
 11972,3.9815981112,-9.6321236513\N,0,-6.2454471647,6.6672067133,-10.38
 01367511\C,0,-5.914691027,8.7454906173,-8.3038714034\C,0,-5.784387924,
 9.7828034935,-7.3044071515\C,0,-5.4281569687,9.1572586825,-6.150962475
 \C,0,-5.3524241792,7.7459654209,-6.4617874337\C,0,-4.9724707424,5.4168
 494241,-5.7742417041\C,0,-4.652781272,4.4283052671,-4.7751486178\C,0,-
 4.7102475782,3.2119270449,-5.4028802652\C,0,-5.0619921921,3.4914937758
 ,-6.7830474511\C,0,-5.4862510545,2.7650263336,-9.0950433823\C,0,-5.433
 3491004,1.7561153043,-10.1180531447\C,0,-5.681624792,2.3963047222,-11.
 304520335\C,0,-5.9423991672,3.7808211408,-10.9646680537\C,0,-6.4944613
 101,6.0805436289,-11.5821669795\C,0,-6.8524609078,7.0703090263,-12.574
 9505924\C,0,-6.8108090094,8.2735321896,-11.9444025567\C,0,-6.424215605
 4,8.0001741411,-10.5774114033\C,0,-6.2650986469,8.9832199847,-9.619521
 8255\H,0,-6.4391334706,10.0063918171,-9.9161152788\C,0,-5.0254997749,6
 .7786187042,-5.5317600274\H,0,-4.8003613446,7.1139280915,-4.5306840789
 \C,0,-5.2060538902,2.5229674113,-7.7583411799\H,0,-5.029403384,1.49659
 11843,-7.4734816388\C,0,-6.3885781473,4.7325716354,-11.8619606837\H,0,
 -6.607342083,4.4066911591,-12.8665500986\C,0,-5.1618349645,9.740269494
 1,-4.8053110706\H,0,-5.274044012,10.8216738717,-4.8226357235\H,0,-4.14
 80252827,9.5063311938,-4.4799501243\H,0,-5.8551810012,9.335135226,-4.0
 676567075\C,0,-6.0089941986,11.2336365333,-7.5633269007\H,0,-7.0199942
 038,11.407235208,-7.9332967133\H,0,-5.3080295202,11.6025973472,-8.3124
 139316\H,0,-5.8740353278,11.8141479374,-6.6539162752\C,0,-4.3949354303
 ,4.7151523475,-3.337009886\H,0,-5.0325799841,5.5247183256,-2.985310244
 3\H,0,-3.356345153,5.0109075708,-3.1791127105\H,0,-4.5942504214,3.8290
 558114,-2.7375941697\C,0,-4.4935108044,1.8891739514,-4.8610966878\H,0,
 -5.084389177,1.0979814685,-5.3086330592\C,0,-3.6405007525,1.580245661,
 -3.8893826937\H,0,-2.992481701,2.3124878628,-3.4407186515\H,0,-3.54241
 62715,0.570484591,-3.5262719245\C,0,-5.0915935493,0.3237883561,-9.8911
 966542\H,0,-5.766522544,-0.1203984176,-9.1590171192\H,0,-4.0734794226,
 0.2247973996,-9.512402172\H,0,-5.1652902366,-0.2391198216,-10.81829347
 19\C,0,-5.6728444808,1.8099201016,-12.6276805414\H,0,-6.0417193854,0.7
 914238721,-12.6867852604\C,0,-5.2187500003,2.3953271058,-13.7305593372
 \H,0,-4.7925947415,3.3841194353,-13.7178274488\H,0,-5.2381101423,1.894
 1072696,-14.6841657532\C,0,-7.1877814166,6.7564319078,-13.9926655926\H
 ,0,-8.0221567988,6.0568015017,-14.0433015548\H,0,-6.3353629844,6.30006
 93586,-14.4965011623\H,0,-7.461917384,7.658287489,-14.534818677\C,0,-7
 .0829246298,9.635213207,-12.4868478356\H,0,-7.3630707271,9.5838542696,
 -13.5361448723\H,0,-6.199360121,10.2678166149,-12.3988188993\H,0,-7.89
 55546853,10.1126052763,-11.9382344982\O,0,-3.556,5.788,-9.235\H,0,-3.3
 47,4.905,-9.539\H,0,-3.014,6.493,-9.255\C,0,-10.7690338963,3.831320717
 8,-7.1186333423\H,0,-10.4104208831,2.8216579807,-6.9442217469\H,0,-11.
 5545589971,3.7982940726,-7.8735103564\H,0,-11.2011866888,4.2124547348,
 -6.1931260965\N,0,-9.8081451603,6.0037083893,-7.9124938664\H,0,-10.678
 4486662,6.5096707373,-7.9001537334\C,0,-9.6423561864,4.6879978245,-7.5
 676372768\C,0,-8.5978137339,6.4891607138,-8.2715488065\H,0,-8.42519855
 1,7.4960269577,-8.5918872276\N,0,-7.6768576989,5.5610283741,-8.1746441
 909\C,0,-8.3112445195,4.4354263243,-7.7370684867\H,0,-7.7715058886,3.5
 255813247,-7.5755923896\\Version=ES64L-G16RevC.02\State=1-A\HF=-2984.0
 253526\RMSD=1.782e-09\Dipole=-1.3696597,0.538782,0.1576948\Polar=338.7
 505178,-51.4841998,678.5450257,80.3423103,-6.8552753,694.3914158\Hyper
 Polar=-235.957744,-117.357189,230.3828612,-204.1917826,190.3273291,-11
 8.7372087,37.9455005,410.3706958,-1110.0325754,360.7897437\Quadrupole=
 9.5320138,-1.0384937,-8.4935201,-0.7857768,-3.5205011,0.3929796\PG=C01
  [X(C34H36Fe1N6O1)]\\@
 The archive entry for this job was punched.


 MISERY NO LONGER LOVES COMPANY.  NOWADAYS IT INSISTS ON IT.

                                              -- BAKER'S LAW
 Job cpu time:       2 days  5 hours 51 minutes 29.1 seconds.
 Elapsed time:       0 days  0 hours 46 minutes 40.5 seconds.
 File lengths (MBytes):  RWF=   1208 Int=      0 D2E=      0 Chk=    155 Scr=      1
 Normal termination of Gaussian 16 at Wed Oct 30 07:40:46 2024.
 Initial command:
 /sw/chem/gaussian/g16_C02/a100/g16/l1.exe "/local/bebjones_8064747/Gau-916984.inp" -scrdir="/local/bebjones_8064747/"
 Entering Link 1 = /sw/chem/gaussian/g16_C02/a100/g16/l1.exe PID=    918781.
  
 Copyright (c) 1988-2021, Gaussian, Inc.  All Rights Reserved.
  
 This is part of the Gaussian(R) 16 program.  It is based on
 the Gaussian(R) 09 system (copyright 2009, Gaussian, Inc.),
 the Gaussian(R) 03 system (copyright 2003, Gaussian, Inc.),
 the Gaussian(R) 98 system (copyright 1998, Gaussian, Inc.),
 the Gaussian(R) 94 system (copyright 1995, Gaussian, Inc.),
 the Gaussian 92(TM) system (copyright 1992, Gaussian, Inc.),
 the Gaussian 90(TM) system (copyright 1990, Gaussian, Inc.),
 the Gaussian 88(TM) system (copyright 1988, Gaussian, Inc.),
 the Gaussian 86(TM) system (copyright 1986, Carnegie Mellon
 University), and the Gaussian 82(TM) system (copyright 1983,
 Carnegie Mellon University). Gaussian is a federally registered
 trademark of Gaussian, Inc.
  
 This software contains proprietary and confidential information,
 including trade secrets, belonging to Gaussian, Inc.
  
 This software is provided under written license and may be
 used, copied, transmitted, or stored only in accord with that
 written license.
  
 The following legend is applicable only to US Government
 contracts under FAR:
  
                    RESTRICTED RIGHTS LEGEND
  
 Use, reproduction and disclosure by the US Government is
 subject to restrictions as set forth in subparagraphs (a)
 and (c) of the Commercial Computer Software - Restricted
 Rights clause in FAR 52.227-19.
  
 Gaussian, Inc.
 340 Quinnipiac St., Bldg. 40, Wallingford CT 06492
  
  
 ---------------------------------------------------------------
 Warning -- This program may not be used in any manner that
 competes with the business of Gaussian, Inc. or will provide
 assistance to any competitor of Gaussian, Inc.  The licensee
 of this program is prohibited from giving any competitor of
 Gaussian, Inc. access to this program.  By using this program,
 the user acknowledges that Gaussian, Inc. is engaged in the
 business of creating and licensing software in the field of
 computational chemistry and represents and warrants to the
 licensee that it is not a competitor of Gaussian, Inc. and that
 it will not use this program in any manner prohibited above.
 ---------------------------------------------------------------
  

 Cite this work as:
 Gaussian 16, Revision C.02,
 M. J. Frisch, G. W. Trucks, H. B. Schlegel, G. E. Scuseria, 
 M. A. Robb, J. R. Cheeseman, G. Scalmani, V. Barone, 
 G. A. Petersson, H. Nakatsuji, X. Li, M. Caricato, A. V. Marenich, 
 J. Bloino, B. G. Janesko, R. Gomperts, B. Mennucci, H. P. Hratchian, 
 J. V. Ortiz, A. F. Izmaylov, J. L. Sonnenberg, D. Williams-Young, 
 F. Ding, F. Lipparini, F. Egidi, J. Goings, B. Peng, A. Petrone, 
[...]
   140. CR (   1) C  67                  1.99940   -10.05859  1526(v),1332(v),1524(v)
                                                    1324(v)
   141. CR (   1) N  71                  1.99938   -14.21992  1352(v),1326(v),1320(v)
                                                    1327(v),1522(v)
   142. CR (   1) C  73                  1.99915   -10.08766  1409(v),1526(g),1532(v)
                                                    1254(v)
   143. CR (   1) C  74                  1.99935   -10.11984  1382(v),1523(v),1531(v)
                                                    151(r),150(r),154(r)
   144. CR (   1) N  76                  1.99931   -14.15119  150(r),151(r),154(r),1350(v)
                                                    1407(v),1528(v),172(r)
                                                    168(r),175(r)
   145. CR (   1) C  77                  1.99898   -10.05747  1522(v),1324(v),1526(g)
                                                    1383(v),1327(v),1434(v)
                                                    150(r),151(r)
   163. LP (   1) N  71                  1.57965    -0.28290  1530(v),1527(v),1353(v)
                                                    1325(v),1319(v),1351(v)
   164. LP (   1) N  76                  1.61081    -0.36343  150(r),151(r),154(r),1525(v)
                                                    1526(v),1350(v),1528(v)
                                                    1532(v),1529(g),1407(v)
                                                    1384(g),1531(g),170(r)
                                                    195(r),273(r),247(r),221(r)
                                                    183(r),272(r),194(r),246(r)
                                                    1438(r),1442(r),244(r)
                                                    1445(r),220(r),1441(r)
                                                    1447(r),1444(r),1446(r)
                                                    1439(r),218(r),270(r),184(r)
                                                    1443(r),192(r),177(r),175(r)
                                                    153(r),152(r)
  1252. RY*(   1) C  67                  0.00118     1.16052   
  1253. RY*(   2) C  67                  0.00078     2.01050   
  1254. RY*(   3) C  67                  0.00051     1.33490   
  1255. RY*(   4) C  67                  0.00012     1.26332   
  1256. RY*(   5) C  67                  0.00007     1.17261   
  1257. RY*(   6) C  67                  0.00008     2.34245   
  1258. RY*(   7) C  67                  0.00001     1.66955   
  1259. RY*(   8) C  67                  0.00001     1.89470   
  1260. RY*(   9) C  67                  0.00000     1.46123   
  1261. RY*(  10) C  67                  0.00000     3.02173   
  1262. RY*(  11) C  67                  0.00000     2.46454   
  1263. RY*(  12) C  67                  0.00001     1.52073   
  1264. RY*(  13) C  67                  0.00000     2.45538   
  1265. RY*(  14) C  67                  0.00000     3.04378   
  1266. RY*(  15) C  67                  0.00000     2.60868   
  1267. RY*(  16) C  67                  0.00000     2.47199   
  1268. RY*(  17) C  67                  0.00001     2.57334   
  1269. RY*(  18) C  67                  0.00000    21.60163   
  1270. RY*(  19) C  67                  0.00000     2.65561   
  1271. RY*(  20) C  67                  0.00000     3.70804   
  1272. RY*(  21) C  67                  0.00000     3.40162   
  1273. RY*(  22) C  67                  0.00001     3.40740   
  1274. RY*(  23) C  67                  0.00000     3.42155   
  1275. RY*(  24) C  67                  0.00000     3.63471   
  1276. RY*(  25) C  67                  0.00000     3.49615   
  1277. RY*(  26) C  67                  0.00000     3.21641   
  1278. RY*(   1) H  68                  0.00024     1.38017   
  1279. RY*(   2) H  68                  0.00012     1.74694   
  1280. RY*(   3) H  68                  0.00008     2.05700   
  1281. RY*(   4) H  68                  0.00002     1.59869   
  1282. RY*(   5) H  68                  0.00001     2.86670   
  1283. RY*(   1) H  69                  0.00074     0.98971   
  1284. RY*(   2) H  69                  0.00015     1.69708   
  1285. RY*(   3) H  69                  0.00008     1.96997   
  1286. RY*(   4) H  69                  0.00006     2.01352   
  1287. RY*(   5) H  69                  0.00000     2.88147   
  1288. RY*(   1) H  70                  0.00075     1.00241   
  1289. RY*(   2) H  70                  0.00015     1.69781   
  1290. RY*(   3) H  70                  0.00008     1.95263   
  1291. RY*(   4) H  70                  0.00006     2.01599   
  1292. RY*(   5) H  70                  0.00000     2.88304   
  1293. RY*(   1) N  71                  0.00282     0.66968   
  1294. RY*(   2) N  71                  0.00224     1.78051   
  1295. RY*(   3) N  71                  0.00100     2.08950   
  1296. RY*(   4) N  71                  0.00078     2.15648   
  1297. RY*(   5) N  71                  0.00052     1.16523   
  1298. RY*(   6) N  71                  0.00027     2.03515   
  1299. RY*(   7) N  71                  0.00020     1.70567   
  1300. RY*(   8) N  71                  0.00006     3.89486   
  1301. RY*(   9) N  71                  0.00007     2.36756   
  1302. RY*(  10) N  71                  0.00007     2.21874   
  1303. RY*(  11) N  71                  0.00004     2.91326   
  1304. RY*(  12) N  71                  0.00001     3.83118   
  1305. RY*(  13) N  71                  0.00001     3.50056   
  1306. RY*(  14) N  71                  0.00000     2.59627   
  1307. RY*(  15) N  71                  0.00001     3.93021   
  1308. RY*(  16) N  71                  0.00000     2.17979   
  1309. RY*(  17) N  71                  0.00000     4.15005   
  1310. RY*(  18) N  71                  0.00000     4.54150   
  1311. RY*(  19) N  71                  0.00000    30.71079   
  1312. RY*(  20) N  71                  0.00000     4.61694   
  1313. RY*(  21) N  71                  0.00000     4.48289   
  1314. RY*(  22) N  71                  0.00000     4.57939   
  1315. RY*(  23) N  71                  0.00000     4.31447   
  1316. RY*(  24) N  71                  0.00000     4.57611   
  1317. RY*(  25) N  71                  0.00000     4.47837   
  1318. RY*(  26) N  71                  0.00000     4.41738   
  1319. RY*(   1) H  72                  0.00058     2.15209   
  1320. RY*(   2) H  72                  0.00039     2.13569   
  1321. RY*(   3) H  72                  0.00030     1.04090   
  1322. RY*(   4) H  72                  0.00021     2.52479   
  1323. RY*(   5) H  72                  0.00001     3.08078   
  1324. RY*(   1) C  73                  0.00406     1.69501   
  1325. RY*(   2) C  73                  0.00262     0.98121   
  1326. RY*(   3) C  73                  0.00191     1.49620   
  1327. RY*(   4) C  73                  0.00162     2.02528   
  1328. RY*(   5) C  73                  0.00122     1.76769   
  1329. RY*(   6) C  73                  0.00111     1.73041   
  1330. RY*(   7) C  73                  0.00037     2.85293   
  1331. RY*(   8) C  73                  0.00019     2.73443   
  1332. RY*(   9) C  73                  0.00016     2.55149   
  1333. RY*(  10) C  73                  0.00007     3.63444   
  1334. RY*(  11) C  73                  0.00003     2.68564   
  1335. RY*(  12) C  73                  0.00001     1.98739   
  1336. RY*(  13) C  73                  0.00001     2.75900   
  1337. RY*(  14) C  73                  0.00000    21.11952   
  1338. RY*(  15) C  73                  0.00001     1.61038   
  1339. RY*(  16) C  73                  0.00000     1.14678   
  1340. RY*(  17) C  73                  0.00001     1.93468   
  1341. RY*(  18) C  73                  0.00001     1.46203   
  1342. RY*(  19) C  73                  0.00000     3.57422   
  1343. RY*(  20) C  73                  0.00000     4.08883   
  1344. RY*(  21) C  73                  0.00000     3.59838   
  1345. RY*(  22) C  73                  0.00000     3.61587   
  1346. RY*(  23) C  73                  0.00000     3.41080   
  1347. RY*(  24) C  73                  0.00000     3.72369   
  1348. RY*(  25) C  73                  0.00000     3.53057   
  1349. RY*(  26) C  73                  0.00000     3.49876   
  1350. RY*(   1) C  74                  0.00411     1.59587   
  1351. RY*(   2) C  74                  0.00330     0.67480   
  1352. RY*(   3) C  74                  0.00202     1.33365   
  1353. RY*(   4) C  74                  0.00128     2.56109   
  1354. RY*(   5) C  74                  0.00080     1.65062   
  1355. RY*(   6) C  74                  0.00039     1.66165   
  1356. RY*(   7) C  74                  0.00027     1.85229   
  1357. RY*(   8) C  74                  0.00009     2.66867   
  1358. RY*(   9) C  74                  0.00005     1.93661   
  1359. RY*(  10) C  74                  0.00006     2.64515   
  1360. RY*(  11) C  74                  0.00004     2.75517   
  1361. RY*(  12) C  74                  0.00004     2.36683   
  1362. RY*(  13) C  74                  0.00002     2.65239   
  1363. RY*(  14) C  74                  0.00002     3.81389   
  1364. RY*(  15) C  74                  0.00001     2.48966   
  1365. RY*(  16) C  74                  0.00000     3.21037   
  1366. RY*(  17) C  74                  0.00000     2.93702   
  1367. RY*(  18) C  74                  0.00000    21.52002   
  1368. RY*(  19) C  74                  0.00001     2.50551   
  1369. RY*(  20) C  74                  0.00001     3.65493   
  1370. RY*(  21) C  74                  0.00000     3.74278   
  1371. RY*(  22) C  74                  0.00000     3.92003   
  1372. RY*(  23) C  74                  0.00000     3.53830   
  1373. RY*(  24) C  74                  0.00000     3.74419   
  1374. RY*(  25) C  74                  0.00000     3.49831   
  1375. RY*(  26) C  74                  0.00000     3.36401   
  1376. RY*(   1) H  75                  0.00062     0.81050   
  1377. RY*(   2) H  75                  0.00030     2.40673   
  1378. RY*(   3) H  75                  0.00021     2.12258   
  1379. RY*(   4) H  75                  0.00012     2.40411   
  1380. RY*(   5) H  75                  0.00002     3.14362   
  1381. RY*(   1) N  76                  0.00760     0.85754   
  1382. RY*(   2) N  76                  0.00735     1.31063   
  1383. RY*(   3) N  76                  0.00594     1.42495   
  1384. RY*(   4) N  76                  0.00077     1.56911   
  1385. RY*(   5) N  76                  0.00073     1.68441   
  1386. RY*(   6) N  76                  0.00058     1.95416   
  1387. RY*(   7) N  76                  0.00038     3.49286   
  1388. RY*(   8) N  76                  0.00033     3.18533   
  1389. RY*(   9) N  76                  0.00012     2.83546   
  1390. RY*(  10) N  76                  0.00009     2.43229   
  1391. RY*(  11) N  76                  0.00009     3.27691   
  1392. RY*(  12) N  76                  0.00008     3.41457   
  1393. RY*(  13) N  76                  0.00006     3.05198   
  1394. RY*(  14) N  76                  0.00004     3.70428   
  1395. RY*(  15) N  76                  0.00002     4.72648   
  1396. RY*(  16) N  76                  0.00001     4.46451   
  1397. RY*(  17) N  76                  0.00001     4.29352   
  1398. RY*(  18) N  76                  0.00000    31.57027   
  1399. RY*(  19) N  76                  0.00000     4.83878   
  1400. RY*(  20) N  76                  0.00000     4.36155   
  1401. RY*(  21) N  76                  0.00001     4.22569   
  1402. RY*(  22) N  76                  0.00001     4.51442   
  1403. RY*(  23) N  76                  0.00000     4.67411   
  1404. RY*(  24) N  76                  0.00000     4.66541   
  1405. RY*(  25) N  76                  0.00000     4.69631   
  1406. RY*(  26) N  76                  0.00000     4.53282   
  1407. RY*(   1) C  77                  0.00399     1.49706   
  1408. RY*(   2) C  77                  0.00259     0.72051   
  1409. RY*(   3) C  77                  0.00169     1.83178   
  1410. RY*(   4) C  77                  0.00069     2.05349   
  1411. RY*(   5) C  77                  0.00056     1.58521   
  1412. RY*(   6) C  77                  0.00045     2.09556   
  1413. RY*(   7) C  77                  0.00043     1.87387   
  1414. RY*(   8) C  77                  0.00024     1.47985   
  1415. RY*(   9) C  77                  0.00022     1.61097   
  1416. RY*(  10) C  77                  0.00015     1.75282   
  1417. RY*(  11) C  77                  0.00010     1.34764   
  1418. RY*(  12) C  77                  0.00006     2.36946   
  1419. RY*(  13) C  77                  0.00005     1.80474   
  1420. RY*(  14) C  77                  0.00005     2.91050   
  1421. RY*(  15) C  77                  0.00002     3.35505   
  1422. RY*(  16) C  77                  0.00002     1.37479   
  1423. RY*(  17) C  77                  0.00000     3.27033   
  1424. RY*(  18) C  77                  0.00000     3.67385   
  1425. RY*(  19) C  77                  0.00000    19.10471   
  1426. RY*(  20) C  77                  0.00001     6.57648   
  1427. RY*(  21) C  77                  0.00000     3.70545   
  1428. RY*(  22) C  77                  0.00001     3.87761   
  1429. RY*(  23) C  77                  0.00000     3.43154   
  1430. RY*(  24) C  77                  0.00000     3.74949   
  1431. RY*(  25) C  77                  0.00000     3.68004   
  1432. RY*(  26) C  77                  0.00000     3.41403   
  1433. RY*(   1) H  78                  0.00050     0.80400   
  1434. RY*(   2) H  78                  0.00033     2.25796   
  1435. RY*(   3) H  78                  0.00025     2.31403   
  1436. RY*(   4) H  78                  0.00008     2.75271   
  1437. RY*(   5) H  78                  0.00001     3.12032   
  1519. BD*(   1) C  67 - H  68          0.00345     0.37334   
  1520. BD*(   1) C  67 - H  69          0.01155     0.35989   
  1521. BD*(   1) C  67 - H  70          0.01228     0.35987   
  1522. BD*(   1) C  67 - C  73          0.01373     0.38995   
  1523. BD*(   1) N  71 - H  72          0.01423     0.36763   
  1524. BD*(   1) N  71 - C  73          0.02720     0.43106   
  1525. BD*(   1) N  71 - C  74          0.02242     0.44821   
  1526. BD*(   1) C  73 - C  77          0.02113     0.56748   
  1527. BD*(   2) C  73 - C  77          0.29985     0.03606  1530(v),1521(v),1520(v)
                                                    1328(g),1412(g)
  1528. BD*(   1) C  74 - H  75          0.01831     0.39342   
  1529. BD*(   1) C  74 - N  76          0.01636     0.53837   
  1530. BD*(   2) C  74 - N  76          0.41882    -0.00433  1527(v),1351(g),1381(g)
                                                    1408(v),153(r),1443(r)
                                                    1448(r)
  1531. BD*(   1) N  76 - C  77          0.01652     0.48259   
  1532. BD*(   1) C  77 - H  78          0.01500     0.43455   
       -------------------------------
              Total Lewis   42.68970  ( 97.7340%)
        Valence non-Lewis    0.91084  (  2.0853%)
        Rydberg non-Lewis    0.07891  (  0.1807%)
       -------------------------------
            Total unit  4   43.67946  (100.0000%)
           Charge unit  4    0.32054
 Unable to Open any file for archive entry.
 1\1\GINC-BGN1024\SP\RAPFD\def2TZVP\C34H36Fe1N6O1\BEBJONES\30-Oct-2024\
 0\\# apfd/def2TZVP int=(grid=ultrafine) geom=check guess=read pop=nbo 
 scf=qc\\4pqc_II_S_nbo\\0,1\Fe,0,-5.7547345232,5.7222752055,-8.64759371
 42\N,0,-5.6483090078,7.5253143607,-7.7721394974\N,0,-5.2153216134,4.82
 75443395,-6.9741052952\N,0,-5.7867011972,3.9815981112,-9.6321236513\N,
 0,-6.2454471647,6.6672067133,-10.3801367511\C,0,-5.914691027,8.7454906
 173,-8.3038714034\C,0,-5.784387924,9.7828034935,-7.3044071515\C,0,-5.4
 281569687,9.1572586825,-6.150962475\C,0,-5.3524241792,7.7459654209,-6.
 4617874337\C,0,-4.9724707424,5.4168494241,-5.7742417041\C,0,-4.6527812
 72,4.4283052671,-4.7751486178\C,0,-4.7102475782,3.2119270449,-5.402880
 2652\C,0,-5.0619921921,3.4914937758,-6.7830474511\C,0,-5.4862510545,2.
 7650263336,-9.0950433823\C,0,-5.4333491004,1.7561153043,-10.1180531447
 \C,0,-5.681624792,2.3963047222,-11.304520335\C,0,-5.9423991672,3.78082
 11408,-10.9646680537\C,0,-6.4944613101,6.0805436289,-11.5821669795\C,0
 ,-6.8524609078,7.0703090263,-12.5749505924\C,0,-6.8108090094,8.2735321
 896,-11.9444025567\C,0,-6.4242156054,8.0001741411,-10.5774114033\C,0,-
 6.2650986469,8.9832199847,-9.6195218255\H,0,-6.4391334706,10.006391817
 1,-9.9161152788\C,0,-5.0254997749,6.7786187042,-5.5317600274\H,0,-4.80
 03613446,7.1139280915,-4.5306840789\C,0,-5.2060538902,2.5229674113,-7.
 7583411799\H,0,-5.029403384,1.4965911843,-7.4734816388\C,0,-6.38857814
 73,4.7325716354,-11.8619606837\H,0,-6.607342083,4.4066911591,-12.86655
 00986\C,0,-5.1618349645,9.7402694941,-4.8053110706\H,0,-5.274044012,10
 .8216738717,-4.8226357235\H,0,-4.1480252827,9.5063311938,-4.4799501243
 \H,0,-5.8551810012,9.335135226,-4.0676567075\C,0,-6.0089941986,11.2336
 365333,-7.5633269007\H,0,-7.0199942038,11.407235208,-7.9332967133\H,0,
 -5.3080295202,11.6025973472,-8.3124139316\H,0,-5.8740353278,11.8141479
 374,-6.6539162752\C,0,-4.3949354303,4.7151523475,-3.337009886\H,0,-5.0
 325799841,5.5247183256,-2.9853102443\H,0,-3.356345153,5.0109075708,-3.
 1791127105\H,0,-4.5942504214,3.8290558114,-2.7375941697\C,0,-4.4935108
 044,1.8891739514,-4.8610966878\H,0,-5.084389177,1.0979814685,-5.308633
 0592\C,0,-3.6405007525,1.580245661,-3.8893826937\H,0,-2.992481701,2.31
 24878628,-3.4407186515\H,0,-3.5424162715,0.570484591,-3.5262719245\C,0
 ,-5.0915935493,0.3237883561,-9.8911966542\H,0,-5.766522544,-0.12039841
 76,-9.1590171192\H,0,-4.0734794226,0.2247973996,-9.512402172\H,0,-5.16
 52902366,-0.2391198216,-10.8182934719\C,0,-5.6728444808,1.8099201016,-
 12.6276805414\H,0,-6.0417193854,0.7914238721,-12.6867852604\C,0,-5.218
 7500003,2.3953271058,-13.7305593372\H,0,-4.7925947415,3.3841194353,-13
 .7178274488\H,0,-5.2381101423,1.8941072696,-14.6841657532\C,0,-7.18778
 14166,6.7564319078,-13.9926655926\H,0,-8.0221567988,6.0568015017,-14.0
 433015548\H,0,-6.3353629844,6.3000693586,-14.4965011623\H,0,-7.4619173
 84,7.658287489,-14.534818677\C,0,-7.0829246298,9.635213207,-12.4868478
 356\H,0,-7.3630707271,9.5838542696,-13.5361448723\H,0,-6.199360121,10.
 2678166149,-12.3988188993\H,0,-7.8955546853,10.1126052763,-11.93823449
 82\O,0,-3.556,5.788,-9.235\H,0,-3.347,4.905,-9.539\H,0,-3.014,6.493,-9
 .255\C,0,-10.7690338963,3.8313207178,-7.1186333423\H,0,-10.4104208831,
 2.8216579807,-6.9442217469\H,0,-11.5545589971,3.7982940726,-7.87351035
 64\H,0,-11.2011866888,4.2124547348,-6.1931260965\N,0,-9.8081451603,6.0
 037083893,-7.9124938664\H,0,-10.6784486662,6.5096707373,-7.9001537334\
 C,0,-9.6423561864,4.6879978245,-7.5676372768\C,0,-8.5978137339,6.48916
 07138,-8.2715488065\H,0,-8.425198551,7.4960269577,-8.5918872276\N,0,-7
 .6768576989,5.5610283741,-8.1746441909\C,0,-8.3112445195,4.4354263243,
 -7.7370684867\H,0,-7.7715058886,3.5255813247,-7.5755923896\\Version=ES
 64L-G16RevC.02\State=1-A\HF=-2984.0253526\RMSD=1.120e-09\Dipole=-1.369
 6597,0.538782,0.1576948\Quadrupole=9.5320138,-1.0384937,-8.4935201,-0.
 7857768,-3.5205011,0.3929796\PG=C01 [X(C34H36Fe1N6O1)]\\@
 The archive entry for this job was punched.


 You don't have to suffer to be a poet.
 Adolescence is enough suffering for anyone.
                             -- John Ciardi
 Job cpu time:       0 days  0 hours 45 minutes 13.0 seconds.
 Elapsed time:       0 days  0 hours  0 minutes 54.3 seconds.
 File lengths (MBytes):  RWF=    792 Int=      0 D2E=      0 Chk=    155 Scr=      1
 Normal termination of Gaussian 16 at Wed Oct 30 07:41:42 2024.
