 Entering Gaussian System, Link 0=g16
 Input=4xmc01.com
 Output=4xmc01.log
 Initial command:
 /sw/chem/gaussian/g16_C02/a100/g16/l1.exe "/local/bebjones_8064783/Gau-1092872.inp" -scrdir="/local/bebjones_8064783/"
 Entering Link 1 = /sw/chem/gaussian/g16_C02/a100/g16/l1.exe PID=   1092873.
  
 Copyright (c) 1988-2021, Gaussian, Inc.  All Rights Reserved.
  
 This is part of the Gaussian(R) 16 program.  It is based on
 the Gaussian(R) 09 system (copyright 2009, Gaussian, Inc.),
 the Gaussian(R) 03 system (copyright 2003, Gaussian, Inc.),
 the Gaussian(R) 98 system (copyright 1998, Gaussian, Inc.),
 the Gaussian(R) 94 system (copyright 1995, Gaussian, Inc.),
 the Gaussian 92(TM) system (copyright 1992, Gaussian, Inc.),
 the Gaussian 90(TM) system (copyright 1990, Gaussian, Inc.),
 the Gaussian 88(TM) system (copyright 1988, Gaussian, Inc.),
 the Gaussian 86(TM) system (copyright 1986, Carnegie Mellon
 University), and the Gaussian 82(TM) system (copyright 1983,
 Carnegie Mellon University). Gaussian is a federally registered
 trademark of Gaussian, Inc.
  
 This software contains proprietary and confidential information,
 including trade secrets, belonging to Gaussian, Inc.
  
 This software is provided under written license and may be
 used, copied, transmitted, or stored only in accord with that
 written license.
  
 The following legend is applicable only to US Government
 contracts under FAR:
  
                    RESTRICTED RIGHTS LEGEND
  
 Use, reproduction and disclosure by the US Government is
 subject to restrictions as set forth in subparagraphs (a)
 and (c) of the Commercial Computer Software - Restricted
 Rights clause in FAR 52.227-19.
  
 Gaussian, Inc.
 340 Quinnipiac St., Bldg. 40, Wallingford CT 06492
  
  
 ---------------------------------------------------------------
 Warning -- This program may not be used in any manner that
 competes with the business of Gaussian, Inc. or will provide
 assistance to any competitor of Gaussian, Inc.  The licensee
 of this program is prohibited from giving any competitor of
 Gaussian, Inc. access to this program.  By using this program,
 the user acknowledges that Gaussian, Inc. is engaged in the
 business of creating and licensing software in the field of
 computational chemistry and represents and warrants to the
 licensee that it is not a competitor of Gaussian, Inc. and that
 it will not use this program in any manner prohibited above.
 ---------------------------------------------------------------
  

 Cite this work as:
 Gaussian 16, Revision C.02,
 M. J. Frisch, G. W. Trucks, H. B. Schlegel, G. E. Scuseria, 
 M. A. Robb, J. R. Cheeseman, G. Scalmani, V. Barone, 
 G. A. Petersson, H. Nakatsuji, X. Li, M. Caricato, A. V. Marenich, 
 J. Bloino, B. G. Janesko, R. Gomperts, B. Mennucci, H. P. Hratchian, 
 J. V. Ortiz, A. F. Izmaylov, J. L. Sonnenberg, D. Williams-Young, 
 F. Ding, F. Lipparini, F. Egidi, J. Goings, B. Peng, A. Petrone, 
 T. Henderson, D. Ranasinghe, V. G. Zakrzewski, J. Gao, N. Rega, 
 G. Zheng, W. Liang, M. Hada, M. Ehara, K. Toyota, R. Fukuda, 
 J. Hasegawa, M. Ishida, T. Nakajima, Y. Honda, O. Kitao, H. Nakai, 
 T. Vreven, K. Throssell, J. A. Montgomery, Jr., J. E. Peralta, 
 F. Ogliaro, M. J. Bearpark, J. J. Heyd, E. N. Brothers, K. N. Kudin, 
 V. N. Staroverov, T. A. Keith, R. Kobayashi, J. Normand, 
 K. Raghavachari, A. P. Rendell, J. C. Burant, S. S. Iyengar, 
 J. Tomasi, M. Cossi, J. M. Millam, M. Klene, C. Adamo, R. Cammi, 
 J. W. Ochterski, R. L. Martin, K. Morokuma, O. Farkas, 
 J. B. Foresman, and D. J. Fox, Gaussian, Inc., Wallingford CT, 2019.
 
 ******************************************
 Gaussian 16:  ES64L-G16RevC.02  7-Dec-2021
                30-Oct-2024 
 ******************************************
 %mem=16GB
 %CPU=0-71
 SetSPE:  set environment variable "OMP_PROC_BIND" = "true"
 SetSPE:  set environment variable "OMP_PLACES" = "{0},{1},{2},{3},{4},{5},{6},{7},{8},{9},{10},{11},{12},{13},{14},{15},{16},{17},{18},{19},{20},{21},{22},{23},{24},{25},{26},{27},{28},{29},{30},{31},{32},{33},{34},{35},{36},{37},{38},{39},{40},{41},{42},{43},{44},{45},{46},{47},{48},{49},{50},{51},{52},{53},{54},{55},{56},{57},{58},{59},{60},{61},{62},{63},{64},{65},{66},{67},{68},{69},{70},{71}"
 Will use up to   72 processors via shared memory.
 %gpucpu=0,1,2,3=0,1,2,3
 Will use    4 GPUs:
 Thread  CPU   GPU
      0    0     0
      1    1     1
      2    2     2
      3    3     3
      4    4    -1
      5    5    -1
      6    6    -1
      7    7    -1
      8    8    -1
      9    9    -1
     10   10    -1
     11   11    -1
     12   12    -1
     13   13    -1
     14   14    -1
     15   15    -1
     16   16    -1
     17   17    -1
     18   18    -1
     19   19    -1
     20   20    -1
     21   21    -1
     22   22    -1
     23   23    -1
     24   24    -1
     25   25    -1
     26   26    -1
     27   27    -1
     28   28    -1
     29   29    -1
     30   30    -1
     31   31    -1
     32   32    -1
     33   33    -1
     34   34    -1
     35   35    -1
     36   36    -1
     37   37    -1
     38   38    -1
     39   39    -1
     40   40    -1
     41   41    -1
     42   42    -1
     43   43    -1
     44   44    -1
     45   45    -1
     46   46    -1
     47   47    -1
     48   48    -1
     49   49    -1
     50   50    -1
     51   51    -1
     52   52    -1
     53   53    -1
     54   54    -1
     55   55    -1
     56   56    -1
     57   57    -1
     58   58    -1
     59   59    -1
     60   60    -1
     61   61    -1
     62   62    -1
     63   63    -1
     64   64    -1
     65   65    -1
     66   66    -1
     67   67    -1
     68   68    -1
     69   69    -1
     70   70    -1
     71   71    -1
 SetGPE:  set environment variable "OMP_PROC_BIND" = "true"
 SetGPE:  set environment variable "OMP_PLACES" = "{0},{1},{2},{3},{4},{5},{6},{7},{8},{9},{10},{11},{12},{13},{14},{15},{16},{17},{18},{19},{20},{21},{22},{23},{24},{25},{26},{27},{28},{29},{30},{31},{32},{33},{34},{35},{36},{37},{38},{39},{40},{41},{42},{43},{44},{45},{46},{47},{48},{49},{50},{51},{52},{53},{54},{55},{56},{57},{58},{59},{60},{61},{62},{63},{64},{65},{66},{67},{68},{69},{70},{71}"
 %chk=4xmc_II_O.chk
 Properties for Device   0
 Minimum vector length:                              32
 Maximum vector length:                            1024
 Number of SMPs:                                    108
 Maximum number of threads per SMP:                2048
 Number of ASync Engines:                             5
 Memory:                                           9207742464
 Properties for Device   1
 Minimum vector length:                              32
 Maximum vector length:                            1024
 Number of SMPs:                                    108
 Maximum number of threads per SMP:                2048
 Number of ASync Engines:                             5
 Memory:                                           9207742464
 Properties for Device   2
 Minimum vector length:                              32
 Maximum vector length:                            1024
 Number of SMPs:                                    108
 Maximum number of threads per SMP:                2048
 Number of ASync Engines:                             5
 Memory:                                           9207742464
 Properties for Device   3
 Minimum vector length:                              32
 Maximum vector length:                            1024
 Number of SMPs:                                    108
 Maximum number of threads per SMP:                2048
 Number of ASync Engines:                             5
 Memory:                                           9207742464
   8286968217 words of memory will be used on each GPU.
 ------------------------------------------
 # polar def2tzvp apfd int=(grid=ultrafine)
 ------------------------------------------
 1/38=1,172=1/1;
 2/12=2,17=6,18=5,40=1/2;
 3/5=44,7=101,11=2,25=1,30=1,74=-44,75=-5/1,2,3;
 4//1;
 5/5=2,38=5,98=1/2;
 8/6=4,10=90,11=11/1;
 10/6=1,13=10/2;
 6/7=2,8=2,9=2,10=2,28=1/1;
 99/5=1,9=1/99;
 ---------
 4xmc_II_S
 ---------
 Symbolic Z-matrix:
 Charge =  0 Multiplicity = 1
 Fe                    8.04412  -6.97829   9.03765 
 N                     8.78094  -8.82423   9.05187 
 N                     9.60075  -6.32652   10.14056 
 N                     7.24398  -5.13415   9.11364 
 N                     6.41502  -7.62455   8.06818 
 C                     8.18819  -9.94569   8.56786 
 C                     8.98479  -11.11684   8.8655 
 C                     10.0738  -10.67408   9.54743 
 C                     9.92799  -9.23772   9.65581 
 C                     10.70982  -7.05115   10.45486 
 C                     11.7224  -6.21028   11.03345 
 C                     11.2101  -4.93994   11.04677 
 C                     9.87639  -5.04298   10.49016 
 C                     7.76583  -4.04258   9.74009 
 C                     6.88632  -2.90805   9.61483 
 C                     5.80686  -3.33648   8.88896 
 C                     6.05707  -4.73402   8.59102 
 C                     5.38458  -6.87297   7.60013 
 C                     4.47988  -7.67768   6.80935 
 C                     4.98903  -8.93898   6.81484 
 C                     6.19679  -8.8853    7.60844 
 C                     7.00604  -9.97931   7.8526 
 H                     6.68154  -10.93479   7.46914 
 C                     10.84846  -8.41918   10.27991 
 H                     11.75202  -8.87732   10.65348 
 C                     8.99799  -3.9843    10.36609 
 H                     9.30202  -3.03821   10.78561 
 C                     5.19403  -5.52877   7.85907 
 H                     4.30694  -5.06573   7.45413 
 C                     11.21952  -11.44729   10.10525 
 H                     12.15706  -11.12884   9.64808 
 H                     11.09437  -12.51155   9.92115 
 H                     11.2992  -11.29227   11.18144 
 C                     8.61494  -12.50627   8.47351 
 H                     8.53956  -12.59083   7.38903 
 H                     7.6506   -12.78156   8.90121 
 H                     9.35977  -13.21841   8.82075 
 C                     13.06918  -6.67006   11.47454 
 H                     13.63269  -7.07378   10.63268 
 H                     12.98072  -7.45505   12.22652 
 H                     13.63548  -5.8445    11.89836 
 C                     11.87762  -3.7411    11.51241 
 H                     12.49049  -3.86866   12.39895 
 C                     11.82914  -2.54811   10.93111 
 H                     12.35818  -1.70154   11.33708 
 H                     11.28197  -2.37857   10.01943 
 C                     7.11181  -1.57616   10.2411 
 H                     7.76981  -0.9617    9.62428 
 H                     7.57425  -1.68432   11.22093 
 H                     6.16453  -1.05336   10.35766 
 C                     4.62185  -2.60844   8.49345 
 H                     3.70958  -3.19173   8.44324 
 C                     4.57422  -1.31507   8.18993 
 H                     5.4544   -0.69626   8.17709 
 H                     3.64914  -0.83406   7.91796 
 C                     3.24808  -7.15757   6.15031 
 H                     3.49135  -6.34422   5.46609 
 H                     2.54838  -6.77434   6.89366 
 H                     2.75021  -7.94243   5.5861 
 C                     4.46505  -10.17177   6.16122 
 H                     3.55576  -9.95845   5.60445 
 H                     4.23892  -10.93469   6.9067 
 H                     5.20255  -10.58256   5.47132 
 O                     7.043    -7.413     11.025 
 H                     7.589    -7.035     11.715 
 H                     6.297    -7.883     11.143 
 C                     11.75745  -6.50037   4.90645 
 H                     12.12764  -5.50427   4.66419 
 H                     11.55383  -7.02471   3.97285 
 H                     12.53148  -7.03738   5.44555 
 N                     9.38753  -5.80199   5.31629 
 H                     9.25837  -5.35275   4.42461 
 C                     10.53377  -6.4195    5.74371 
 C                     8.47221  -5.90569   6.30663 
 H                     7.47864  -5.51069   6.25067 
 N                     8.96919  -6.55128   7.33413 
 C                     10.25094  -6.877     6.9987 
 H                     10.87848  -7.41487   7.67857 
 
 Stoichiometry    C34H36FeN6O
 Framework group  C1[X(C34H36FeN6O)]
 Deg. of freedom   228
 Full point group                 C1      NOp   1
 Largest Abelian subgroup         C1      NOp   1
 Largest concise Abelian subgroup C1      NOp   1
                         Standard orientation:                         
 ---------------------------------------------------------------------
 Center     Atomic      Atomic             Coordinates (Angstroms)
 Number     Number       Type             X           Y           Z
 ---------------------------------------------------------------------
      1         26           0       -0.177902   -0.120514   -0.422621
      2          7           0       -2.159083    0.026065   -0.486180
      3          7           0       -0.003355    1.878596   -0.616051
      4          7           0        1.827013   -0.279628   -0.465968
      5          7           0       -0.316462   -2.118052   -0.376809
      6          6           0       -3.054229   -0.993909   -0.526763
      7          6           0       -4.401417   -0.488846   -0.684039
      8          6           0       -4.296753    0.864903   -0.742553
      9          6           0       -2.886512    1.168302   -0.618780
     10          6           0       -1.028549    2.773395   -0.569058
     11          6           0       -0.528782    4.119194   -0.490312
     12          6           0        0.837601    4.024541   -0.469238
     13          6           0        1.139835    2.610352   -0.558287
     14          6           0        2.724674    0.738101   -0.587244
     15          6           0        4.073559    0.232644   -0.624707
     16          6           0        3.976924   -1.129513   -0.520464
     17          6           0        2.559186   -1.421645   -0.424783
     18          6           0        0.700315   -3.010044   -0.249240
     19          6           0        0.188149   -4.352772   -0.087552
     20          6           0       -1.167633   -4.249737   -0.124847
     21          6           0       -1.462745   -2.845967   -0.308386
     22          6           0       -2.744093   -2.334585   -0.397880
     23          1           0       -3.563403   -3.037262   -0.382017
     24          6           0       -2.375592    2.451152   -0.623515
     25          1           0       -3.079397    3.269049   -0.663414
     26          6           0        2.416755    2.086476   -0.611181
     27          1           0        3.235803    2.785967   -0.669435
     28          6           0        2.046239   -2.699315   -0.295697
     29          1           0        2.747622   -3.516424   -0.220120
     30          6           0       -5.366202    1.890327   -0.905289
     31          1           0       -5.393168    2.557721   -0.043169
     32          1           0       -6.341602    1.420006   -1.003297
     33          1           0       -5.185866    2.494864   -1.794430
     34          6           0       -5.616599   -1.347793   -0.764681
     35          1           0       -5.732200   -1.934024    0.147411
     36          1           0       -5.541825   -2.040170   -1.603535
     37          1           0       -6.510625   -0.743253   -0.897840
     38          6           0       -1.373425    5.343465   -0.403628
     39          1           0       -1.983348    5.326878    0.500245
     40          1           0       -2.044969    5.409246   -1.260489
     41          1           0       -0.752667    6.235602   -0.378802
     42          6           0        1.780712    5.119734   -0.365739
     43          1           0        1.511478    6.014579   -0.917649
     44          6           0        2.891408    5.123685    0.362154
     45          1           0        3.543052    5.981525    0.391198
     46          1           0        3.177718    4.283951    0.972216
     47          6           0        5.293931    1.062182   -0.823621
     48          1           0        5.628030    1.496706    0.120070
     49          1           0        5.096735    1.877634   -1.517715
     50          1           0        6.100069    0.450247   -1.223529
     51          6           0        5.025357   -2.125233   -0.526852
     52          1           0        4.765843   -3.074725   -0.980842
     53          6           0        6.246002   -1.966103   -0.024955
     54          1           0        6.545947   -1.063572    0.478312
     55          1           0        6.983978   -2.749375   -0.079616
     56          6           0        1.040624   -5.564268    0.079014
     57          1           0        1.692759   -5.460136    0.946634
     58          1           0        1.669686   -5.713921   -0.799003
     59          1           0        0.428463   -6.452466    0.215315
     60          6           0       -2.199550   -5.318868   -0.008049
     61          1           0       -1.735371   -6.290365    0.143751
     62          1           0       -2.806174   -5.366984   -0.912828
     63          1           0       -2.863884   -5.119761    0.833153
     64          8           0       -0.155560   -0.166626   -2.689365
     65          1           0        0.063597    0.713592   -2.996428
     66          1           0       -0.352375   -0.867875   -3.200103
     67          6           0       -1.153351    1.247103    4.893603
     68          1           0       -0.345035    1.710599    5.459062
     69          1           0       -1.634762    0.506332    5.531965
     70          1           0       -1.880711    2.010844    4.637113
     71          7           0        0.294018   -0.389320    3.669081
     72          1           0        0.710819   -0.792111    4.492265
     73          6           0       -0.635696    0.617268    3.652521
     74          6           0        0.546249   -0.735627    2.386196
     75          1           0        1.237012   -1.499909    2.094555
     76          7           0       -0.167262   -0.009978    1.559236
     77          6           0       -0.907234    0.836245    2.332436
     78          1           0       -1.580338    1.540509    1.889410
 ---------------------------------------------------------------------
 Rotational constants (GHZ):           0.0956664           0.0915705           0.0599999
 Standard basis: def2TZVP (5D, 7F)
 There are  1744 symmetry adapted cartesian basis functions of A   symmetry.
 There are  1532 symmetry adapted basis functions of A   symmetry.
  1532 basis functions,  2481 primitive gaussians,  1744 cartesian basis functions
   158 alpha electrons      158 beta electrons
       nuclear repulsion energy      5982.6087144008 Hartrees.
 NAtoms=   78 NActive=   78 NUniq=   78 SFac= 1.00D+00 NAtFMM=   60 NAOKFM=T Big=T
 Integral buffers will be    131072 words long.
 Raffenetti 2 integral format.
 Two-electron integral symmetry is turned on.
 R6APFD:  NTU= -4 IXU= 1 FactS= 1.050
 Nuclear repulsion after empirical dispersion term =     5982.4553955531 Hartrees.
 One-electron integrals computed using PRISM.
   1 Symmetry operations used in ECPInt.
 ECPInt:  NShTT=  186355 NPrTT=  576197 LenC2=  147873 LenP2D=  302639.
 LDataN:  DoStor=T MaxTD1= 6 Len=  172
 Number of processors reduced to  23 by ecpmxn.
 NBasis=  1532 RedAO= T EigKep=  3.07D-06  NBF=  1532
 NBsUse=  1532 1.00D-06 EigRej= -1.00D+00 NBFU=  1532
 ExpMin= 4.20D-02 ExpMax= 3.01D+05 ExpMxC= 2.91D+03 IAcc=3 IRadAn=         5 AccDes= 0.00D+00
 Harris functional with IExCor= 3731 and IRadAn=       5 diagonalized for initial guess.
 HarFok:  IExCor= 3731 AccDes= 0.00D+00 IRadAn=         5 IDoV= 1 UseB2=F ITyADJ=14
 ICtDFT=  3500011 ScaDFX=  1.000000  1.000000  1.000000  1.000000
 FoFCou: FMM=F IPFlag=           0 FMFlag=      100000 FMFlg1=        2001
         NFxFlg=           0 DoJE=T BraDBF=F KetDBF=T FulRan=T
         wScrn=  0.000000 ICntrl=       500 IOpCl=  0 I1Cent=   200000004 NGrid=           0
         NMat0=    1 NMatS0=      1 NMatT0=    0 NMatD0=    1 NMtDS0=    0 NMtDT0=    0
 Petite list used in FoFCou.
 Requested convergence on RMS density matrix=1.00D-08 within 128 cycles.
 Requested convergence on MAX density matrix=1.00D-06.
 Requested convergence on             energy=1.00D-06.
 No special actions if energy rises.
 EnCoef did     5 forward-backward iterations
 EnCoef did   100 forward-backward iterations
 EnCoef did   100 forward-backward iterations
 EnCoef did   100 forward-backward iterations
 EnCoef did     7 forward-backward iterations
 Restarting incremental Fock formation.
 SCF Done:  E(RAPFD) =  -2984.02662649     A.U. after   26 cycles
            NFock= 26  Conv=0.43D-08     -V/T= 2.0034
 DoSCS=F DFT=T ScalE2(SS,OS)=  1.000000  1.000000
 Range of M.O.s used for correlation:     1  1532
 NBasis=  1532 NAE=   158 NBE=   158 NFC=     0 NFV=     0
 NROrb=   1532 NOA=   158 NOB=   158 NVA=  1374 NVB=  1374

 **** Warning!!: The largest alpha MO coefficient is  0.55517774D+02

          Differentiating once with respect to electric field.
                with respect to dipole field.
          Electric field/nuclear overlap derivatives assumed to be zero.
          There are     3 degrees of freedom in the 1st order CPHF.  IDoFFX=0 NUNeed=     3.
      3 vectors produced by pass  0 Test12= 7.24D-12 3.33D-08 XBig12= 1.86D+03 2.21D+01.
 AX will form     3 AO Fock derivatives at one time.
      3 vectors produced by pass  1 Test12= 7.24D-12 3.33D-08 XBig12= 1.19D+03 7.79D+00.
      3 vectors produced by pass  2 Test12= 7.24D-12 3.33D-08 XBig12= 4.22D+02 5.85D+00.
      3 vectors produced by pass  3 Test12= 7.24D-12 3.33D-08 XBig12= 2.50D+02 3.37D+00.
      3 vectors produced by pass  4 Test12= 7.24D-12 3.33D-08 XBig12= 1.50D+02 2.58D+00.
      3 vectors produced by pass  5 Test12= 7.24D-12 3.33D-08 XBig12= 5.22D+01 1.58D+00.
      3 vectors produced by pass  6 Test12= 7.24D-12 3.33D-08 XBig12= 3.42D+01 1.92D+00.
      3 vectors produced by pass  7 Test12= 7.24D-12 3.33D-08 XBig12= 1.67D+01 9.39D-01.
      3 vectors produced by pass  8 Test12= 7.24D-12 3.33D-08 XBig12= 7.95D+00 5.57D-01.
      3 vectors produced by pass  9 Test12= 7.24D-12 3.33D-08 XBig12= 3.14D+00 4.83D-01.
      3 vectors produced by pass 10 Test12= 7.24D-12 3.33D-08 XBig12= 1.52D+00 2.30D-01.
      3 vectors produced by pass 11 Test12= 7.24D-12 3.33D-08 XBig12= 5.48D-01 1.54D-01.
      3 vectors produced by pass 12 Test12= 7.24D-12 3.33D-08 XBig12= 2.41D-01 7.77D-02.
      3 vectors produced by pass 13 Test12= 7.24D-12 3.33D-08 XBig12= 9.99D-02 5.48D-02.
      3 vectors produced by pass 14 Test12= 7.24D-12 3.33D-08 XBig12= 5.26D-02 4.70D-02.
      3 vectors produced by pass 15 Test12= 7.24D-12 3.33D-08 XBig12= 2.13D-02 4.26D-02.
      3 vectors produced by pass 16 Test12= 7.24D-12 3.33D-08 XBig12= 1.18D-02 2.87D-02.
      3 vectors produced by pass 17 Test12= 7.24D-12 3.33D-08 XBig12= 2.78D-03 8.66D-03.
      3 vectors produced by pass 18 Test12= 7.24D-12 3.33D-08 XBig12= 7.32D-04 3.43D-03.
      3 vectors produced by pass 19 Test12= 7.24D-12 3.33D-08 XBig12= 1.67D-04 2.43D-03.
      3 vectors produced by pass 20 Test12= 7.24D-12 3.33D-08 XBig12= 3.61D-05 1.35D-03.
      3 vectors produced by pass 21 Test12= 7.24D-12 3.33D-08 XBig12= 1.04D-05 1.01D-03.
      3 vectors produced by pass 22 Test12= 7.24D-12 3.33D-08 XBig12= 2.68D-06 5.36D-04.
      3 vectors produced by pass 23 Test12= 7.24D-12 3.33D-08 XBig12= 7.13D-07 2.80D-04.
      3 vectors produced by pass 24 Test12= 7.24D-12 3.33D-08 XBig12= 1.04D-07 8.55D-05.
      3 vectors produced by pass 25 Test12= 7.24D-12 3.33D-08 XBig12= 1.57D-08 1.86D-05.
      3 vectors produced by pass 26 Test12= 7.24D-12 3.33D-08 XBig12= 3.23D-09 8.27D-06.
      3 vectors produced by pass 27 Test12= 7.24D-12 3.33D-08 XBig12= 3.87D-10 1.87D-06.
      3 vectors produced by pass 28 Test12= 7.24D-12 3.33D-08 XBig12= 7.17D-11 9.78D-07.
      3 vectors produced by pass 29 Test12= 7.24D-12 3.33D-08 XBig12= 1.60D-11 3.24D-07.
      3 vectors produced by pass 30 Test12= 7.24D-12 3.33D-08 XBig12= 1.67D-12 1.34D-07.
      2 vectors produced by pass 31 Test12= 7.24D-12 3.33D-08 XBig12= 1.57D-13 6.12D-08.
 InvSVY:  IOpt=1 It=  1 EMax= 1.42D-14
 Solved reduced A of dimension    95 with     3 vectors.
 Isotropic polarizability for W=    0.000000      568.29 Bohr**3.
 End of Minotr F.D. properties file   721 does not exist.
 End of Minotr F.D. properties file   722 does not exist.
 End of Minotr F.D. properties file   788 does not exist.

 **********************************************************************

            Population analysis using the SCF Density.

 **********************************************************************

 Orbital symmetries:
       Occupied  (A) (A) (A) (A) (A) (A) (A) (A) (A) (A) (A) (A)
                 (A) (A) (A) (A) (A) (A) (A) (A) (A) (A) (A) (A)
                 (A) (A) (A) (A) (A) (A) (A) (A) (A) (A) (A) (A)
                 (A) (A) (A) (A) (A) (A) (A) (A) (A) (A) (A) (A)
                 (A) (A) (A) (A) (A) (A) (A) (A) (A) (A) (A) (A)
                 (A) (A) (A) (A) (A) (A) (A) (A) (A) (A) (A) (A)
                 (A) (A) (A) (A) (A) (A) (A) (A) (A) (A) (A) (A)
                 (A) (A) (A) (A) (A) (A) (A) (A) (A) (A) (A) (A)
                 (A) (A) (A) (A) (A) (A) (A) (A) (A) (A) (A) (A)
                 (A) (A) (A) (A) (A) (A) (A) (A) (A) (A) (A) (A)
                 (A) (A) (A) (A) (A) (A) (A) (A) (A) (A) (A) (A)
                 (A) (A) (A) (A) (A) (A) (A) (A) (A) (A) (A) (A)
                 (A) (A) (A) (A) (A) (A) (A) (A) (A) (A) (A) (A)
                 (A) (A)
       Virtual   (A) (A) (A) (A) (A) (A) (A) (A) (A) (A) (A) (A)
                 (A) (A) (A) (A) (A) (A) (A) (A) (A) (A) (A) (A)
                 (A) (A) (A) (A) (A) (A) (A) (A) (A) (A) (A) (A)
                 (A) (A) (A) (A) (A) (A) (A) (A) (A) (A) (A) (A)
                 (A) (A) (A) (A) (A) (A) (A) (A) (A) (A) (A) (A)
                 (A) (A) (A) (A) (A) (A) (A) (A) (A) (A) (A) (A)
                 (A) (A) (A) (A) (A) (A) (A) (A) (A) (A) (A) (A)
                 (A) (A) (A) (A) (A) (A) (A) (A) (A) (A) (A) (A)
                 (A) (A) (A) (A) (A) (A) (A) (A) (A) (A) (A) (A)
                 (A) (A) (A) (A) (A) (A) (A) (A) (A) (A) (A) (A)
                 (A) (A) (A) (A) (A) (A) (A) (A) (A) (A) (A) (A)
                 (A) (A) (A) (A) (A) (A) (A) (A) (A) (A) (A) (A)
                 (A) (A) (A) (A) (A) (A) (A) (A) (A) (A) (A) (A)
                 (A) (A) (A) (A) (A) (A) (A) (A) (A) (A) (A) (A)
                 (A) (A) (A) (A) (A) (A) (A) (A) (A) (A) (A) (A)
                 (A) (A) (A) (A) (A) (A) (A) (A) (A) (A) (A) (A)
                 (A) (A) (A) (A) (A) (A) (A) (A) (A) (A) (A) (A)
                 (A) (A) (A) (A) (A) (A) (A) (A) (A) (A) (A) (A)
                 (A) (A) (A) (A) (A) (A) (A) (A) (A) (A) (A) (A)
                 (A) (A) (A) (A) (A) (A) (A) (A) (A) (A) (A) (A)
                 (A) (A) (A) (A) (A) (A) (A) (A) (A) (A) (A) (A)
                 (A) (A) (A) (A) (A) (A) (A) (A) (A) (A) (A) (A)
                 (A) (A) (A) (A) (A) (A) (A) (A) (A) (A) (A) (A)
                 (A) (A) (A) (A) (A) (A) (A) (A) (A) (A) (A) (A)
                 (A) (A) (A) (A) (A) (A) (A) (A) (A) (A) (A) (A)
                 (A) (A) (A) (A) (A) (A) (A) (A) (A) (A) (A) (A)
                 (A) (A) (A) (A) (A) (A) (A) (A) (A) (A) (A) (A)
                 (A) (A) (A) (A) (A) (A) (A) (A) (A) (A) (A) (A)
                 (A) (A) (A) (A) (A) (A) (A) (A) (A) (A) (A) (A)
                 (A) (A) (A) (A) (A) (A) (A) (A) (A) (A) (A) (A)
                 (A) (A) (A) (A) (A) (A) (A) (A) (A) (A) (A) (A)
                 (A) (A) (A) (A) (A) (A) (A) (A) (A) (A) (A) (A)
                 (A) (A) (A) (A) (A) (A) (A) (A) (A) (A) (A) (A)
                 (A) (A) (A) (A) (A) (A) (A) (A) (A) (A) (A) (A)
                 (A) (A) (A) (A) (A) (A) (A) (A) (A) (A) (A) (A)
                 (A) (A) (A) (A) (A) (A) (A) (A) (A) (A) (A) (A)
                 (A) (A) (A) (A) (A) (A) (A) (A) (A) (A) (A) (A)
                 (A) (A) (A) (A) (A) (A) (A) (A) (A) (A) (A) (A)
                 (A) (A) (A) (A) (A) (A) (A) (A) (A) (A) (A) (A)
                 (A) (A) (A) (A) (A) (A) (A) (A) (A) (A) (A) (A)
                 (A) (A) (A) (A) (A) (A) (A) (A) (A) (A) (A) (A)
                 (A) (A) (A) (A) (A) (A) (A) (A) (A) (A) (A) (A)
                 (A) (A) (A) (A) (A) (A) (A) (A) (A) (A) (A) (A)
                 (A) (A) (A) (A) (A) (A) (A) (A) (A) (A) (A) (A)
                 (A) (A) (A) (A) (A) (A) (A) (A) (A) (A) (A) (A)
                 (A) (A) (A) (A) (A) (A) (A) (A) (A) (A) (A) (A)
                 (A) (A) (A) (A) (A) (A) (A) (A) (A) (A) (A) (A)
                 (A) (A) (A) (A) (A) (A) (A) (A) (A) (A) (A) (A)
                 (A) (A) (A) (A) (A) (A) (A) (A) (A) (A) (A) (A)
                 (A) (A) (A) (A) (A) (A) (A) (A) (A) (A) (A) (A)
                 (A) (A) (A) (A) (A) (A) (A) (A) (A) (A) (A) (A)
                 (A) (A) (A) (A) (A) (A) (A) (A) (A) (A) (A) (A)
                 (A) (A) (A) (A) (A) (A) (A) (A) (A) (A) (A) (A)
                 (A) (A) (A) (A) (A) (A) (A) (A) (A) (A) (A) (A)
                 (A) (A) (A) (A) (A) (A) (A) (A) (A) (A) (A) (A)
                 (A) (A) (A) (A) (A) (A) (A) (A) (A) (A) (A) (A)
                 (A) (A) (A) (A) (A) (A) (A) (A) (A) (A) (A) (A)
                 (A) (A) (A) (A) (A) (A) (A) (A) (A) (A) (A) (A)
                 (A) (A) (A) (A) (A) (A) (A) (A) (A) (A) (A) (A)
                 (A) (A) (A) (A) (A) (A) (A) (A) (A) (A) (A) (A)
                 (A) (A) (A) (A) (A) (A) (A) (A) (A) (A) (A) (A)
                 (A) (A) (A) (A) (A) (A) (A) (A) (A) (A) (A) (A)
                 (A) (A) (A) (A) (A) (A) (A) (A) (A) (A) (A) (A)
                 (A) (A) (A) (A) (A) (A) (A) (A) (A) (A) (A) (A)
                 (A) (A) (A) (A) (A) (A) (A) (A) (A) (A) (A) (A)
                 (A) (A) (A) (A) (A) (A) (A) (A) (A) (A) (A) (A)
                 (A) (A) (A) (A) (A) (A) (A) (A) (A) (A) (A) (A)
                 (A) (A) (A) (A) (A) (A) (A) (A) (A) (A) (A) (A)
                 (A) (A) (A) (A) (A) (A) (A) (A) (A) (A) (A) (A)
                 (A) (A) (A) (A) (A) (A) (A) (A) (A) (A) (A) (A)
                 (A) (A) (A) (A) (A) (A) (A) (A) (A) (A) (A) (A)
                 (A) (A) (A) (A) (A) (A) (A) (A) (A) (A) (A) (A)
                 (A) (A) (A) (A) (A) (A) (A) (A) (A) (A) (A) (A)
                 (A) (A) (A) (A) (A) (A) (A) (A) (A) (A) (A) (A)
                 (A) (A) (A) (A) (A) (A) (A) (A) (A) (A) (A) (A)
                 (A) (A) (A) (A) (A) (A) (A) (A) (A) (A) (A) (A)
                 (A) (A) (A) (A) (A) (A) (A) (A) (A) (A) (A) (A)
                 (A) (A) (A) (A) (A) (A) (A) (A) (A) (A) (A) (A)
                 (A) (A) (A) (A) (A) (A) (A) (A) (A) (A) (A) (A)
                 (A) (A) (A) (A) (A) (A) (A) (A) (A) (A) (A) (A)
                 (A) (A) (A) (A) (A) (A) (A) (A) (A) (A) (A) (A)
                 (A) (A) (A) (A) (A) (A) (A) (A) (A) (A) (A) (A)
                 (A) (A) (A) (A) (A) (A) (A) (A) (A) (A) (A) (A)
                 (A) (A) (A) (A) (A) (A) (A) (A) (A) (A) (A) (A)
                 (A) (A) (A) (A) (A) (A) (A) (A) (A) (A) (A) (A)
                 (A) (A) (A) (A) (A) (A) (A) (A) (A) (A) (A) (A)
                 (A) (A) (A) (A) (A) (A) (A) (A) (A) (A) (A) (A)
                 (A) (A) (A) (A) (A) (A) (A) (A) (A) (A) (A) (A)
                 (A) (A) (A) (A) (A) (A) (A) (A) (A) (A) (A) (A)
                 (A) (A) (A) (A) (A) (A) (A) (A) (A) (A) (A) (A)
                 (A) (A) (A) (A) (A) (A) (A) (A) (A) (A) (A) (A)
                 (A) (A) (A) (A) (A) (A) (A) (A) (A) (A) (A) (A)
                 (A) (A) (A) (A) (A) (A) (A) (A) (A) (A) (A) (A)
                 (A) (A) (A) (A) (A) (A) (A) (A) (A) (A) (A) (A)
                 (A) (A) (A) (A) (A) (A) (A) (A) (A) (A) (A) (A)
                 (A) (A) (A) (A) (A) (A) (A) (A) (A) (A) (A) (A)
                 (A) (A) (A) (A) (A) (A) (A) (A) (A) (A) (A) (A)
                 (A) (A) (A) (A) (A) (A) (A) (A) (A) (A) (A) (A)
                 (A) (A) (A) (A) (A) (A) (A) (A) (A) (A) (A) (A)
                 (A) (A) (A) (A) (A) (A) (A) (A) (A) (A) (A) (A)
                 (A) (A) (A) (A) (A) (A) (A) (A) (A) (A) (A) (A)
                 (A) (A) (A) (A) (A) (A) (A) (A) (A) (A) (A) (A)
                 (A) (A) (A) (A) (A) (A) (A) (A) (A) (A) (A) (A)
                 (A) (A) (A) (A) (A) (A) (A) (A) (A) (A) (A) (A)
                 (A) (A) (A) (A) (A) (A) (A) (A) (A) (A) (A) (A)
                 (A) (A) (A) (A) (A) (A) (A) (A) (A) (A) (A) (A)
                 (A) (A) (A) (A) (A) (A) (A) (A) (A) (A) (A) (A)
                 (A) (A) (A) (A) (A) (A) (A) (A) (A) (A) (A) (A)
                 (A) (A) (A) (A) (A) (A) (A) (A) (A) (A) (A) (A)
                 (A) (A) (A) (A) (A) (A) (A) (A) (A) (A) (A) (A)
                 (A) (A) (A) (A) (A) (A) (A) (A) (A) (A) (A) (A)
                 (A) (A) (A) (A) (A) (A) (A) (A) (A) (A) (A) (A)
                 (A) (A) (A) (A) (A) (A) (A) (A) (A) (A) (A) (A)
                 (A) (A) (A) (A) (A) (A) (A) (A) (A) (A) (A) (A)
                 (A) (A) (A) (A) (A) (A)
 The electronic state is 1-A.
 Alpha  occ. eigenvalues -- -256.17385 -30.02349 -25.86518 -25.86119 -25.86090
 Alpha  occ. eigenvalues --  -19.17019 -14.41561 -14.36275 -14.33123 -14.32916
 Alpha  occ. eigenvalues --  -14.32846 -14.32794 -10.25240 -10.23561 -10.21009
 Alpha  occ. eigenvalues --  -10.20819 -10.20691 -10.20641 -10.20595 -10.20496
 Alpha  occ. eigenvalues --  -10.20469 -10.20441 -10.20410 -10.20397 -10.19590
 Alpha  occ. eigenvalues --  -10.19388 -10.18764 -10.18666 -10.18612 -10.18554
 Alpha  occ. eigenvalues --  -10.18501 -10.18474 -10.18469 -10.18429 -10.18415
 Alpha  occ. eigenvalues --  -10.18337 -10.18329 -10.18252 -10.18190 -10.18169
 Alpha  occ. eigenvalues --  -10.18117 -10.18091 -10.18042 -10.17962 -10.17959
 Alpha  occ. eigenvalues --  -10.17956  -3.39942  -2.16579  -2.15790  -2.15751
 Alpha  occ. eigenvalues --   -1.05150  -1.04796  -0.96610  -0.95743  -0.95561
 Alpha  occ. eigenvalues --   -0.94683  -0.90748  -0.82000  -0.81613  -0.81298
 Alpha  occ. eigenvalues --   -0.80439  -0.80187  -0.80069  -0.79404  -0.79240
 Alpha  occ. eigenvalues --   -0.76712  -0.75542  -0.74065  -0.73662  -0.72930
 Alpha  occ. eigenvalues --   -0.71699  -0.70578  -0.69867  -0.67990  -0.67667
 Alpha  occ. eigenvalues --   -0.67602  -0.64397  -0.64076  -0.63708  -0.61143
 Alpha  occ. eigenvalues --   -0.60591  -0.60205  -0.60017  -0.57346  -0.56332
 Alpha  occ. eigenvalues --   -0.55774  -0.54157  -0.53940  -0.53117  -0.51847
 Alpha  occ. eigenvalues --   -0.50973  -0.50442  -0.50124  -0.48255  -0.47809
 Alpha  occ. eigenvalues --   -0.47672  -0.47356  -0.47025  -0.45910  -0.44690
 Alpha  occ. eigenvalues --   -0.44318  -0.44264  -0.43918  -0.43574  -0.43225
 Alpha  occ. eigenvalues --   -0.43115  -0.42959  -0.42776  -0.42573  -0.42439
 Alpha  occ. eigenvalues --   -0.42322  -0.41917  -0.41626  -0.41365  -0.41283
 Alpha  occ. eigenvalues --   -0.41156  -0.41044  -0.40022  -0.39919  -0.39826
 Alpha  occ. eigenvalues --   -0.39283  -0.39168  -0.38948  -0.38822  -0.38443
 Alpha  occ. eigenvalues --   -0.38152  -0.37520  -0.37363  -0.36945  -0.36607
 Alpha  occ. eigenvalues --   -0.36505  -0.35646  -0.35439  -0.35013  -0.34326
 Alpha  occ. eigenvalues --   -0.34024  -0.33737  -0.33477  -0.33362  -0.31818
 Alpha  occ. eigenvalues --   -0.31393  -0.30912  -0.29610  -0.29523  -0.28730
 Alpha  occ. eigenvalues --   -0.28485  -0.26537  -0.26346  -0.24198  -0.23522
 Alpha  occ. eigenvalues --   -0.23198  -0.22483  -0.21797  -0.18974  -0.18218
 Alpha  occ. eigenvalues --   -0.17711  -0.17594  -0.17469
 Alpha virt. eigenvalues --   -0.06279  -0.06144  -0.01708   0.00503   0.01313
 Alpha virt. eigenvalues --    0.01685   0.02321   0.03098   0.03812   0.04707
 Alpha virt. eigenvalues --    0.04884   0.05259   0.05502   0.05917   0.06225
 Alpha virt. eigenvalues --    0.06321   0.06610   0.07235   0.08109   0.08233
 Alpha virt. eigenvalues --    0.08489   0.09161   0.09288   0.09545   0.09759
 Alpha virt. eigenvalues --    0.09891   0.10220   0.10859   0.10951   0.11495
 Alpha virt. eigenvalues --    0.11619   0.11828   0.11873   0.12325   0.12356
 Alpha virt. eigenvalues --    0.12554   0.12875   0.13037   0.13472   0.13706
 Alpha virt. eigenvalues --    0.14014   0.14158   0.14440   0.14638   0.15062
 Alpha virt. eigenvalues --    0.15188   0.15328   0.15448   0.15598   0.15845
 Alpha virt. eigenvalues --    0.16014   0.16157   0.16318   0.16673   0.16905
 Alpha virt. eigenvalues --    0.17244   0.17480   0.17557   0.17992   0.18038
 Alpha virt. eigenvalues --    0.18653   0.18912   0.19480   0.19714   0.19783
 Alpha virt. eigenvalues --    0.19827   0.20243   0.20483   0.20728   0.20902
 Alpha virt. eigenvalues --    0.21051   0.21209   0.21881   0.22156   0.22589
 Alpha virt. eigenvalues --    0.22748   0.23046   0.23251   0.23346   0.23762
 Alpha virt. eigenvalues --    0.24027   0.24401   0.24927   0.25467   0.25510
 Alpha virt. eigenvalues --    0.25794   0.25965   0.26270   0.26306   0.26899
 Alpha virt. eigenvalues --    0.27027   0.27413   0.27695   0.27808   0.28037
 Alpha virt. eigenvalues --    0.28548   0.28719   0.29227   0.29286   0.29486
 Alpha virt. eigenvalues --    0.29564   0.29906   0.29982   0.30452   0.30839
 Alpha virt. eigenvalues --    0.31179   0.31320   0.31478   0.32024   0.32218
 Alpha virt. eigenvalues --    0.32586   0.32621   0.33232   0.33519   0.33640
 Alpha virt. eigenvalues --    0.34034   0.34284   0.34589   0.34810   0.35068
 Alpha virt. eigenvalues --    0.35373   0.35443   0.36187   0.36371   0.36626
 Alpha virt. eigenvalues --    0.36784   0.37044   0.37141   0.37272   0.37595
 Alpha virt. eigenvalues --    0.38029   0.38121   0.38455   0.38838   0.39266
 Alpha virt. eigenvalues --    0.39355   0.39601   0.39692   0.39932   0.40108
 Alpha virt. eigenvalues --    0.40488   0.40719   0.40901   0.40939   0.41346
 Alpha virt. eigenvalues --    0.41428   0.41667   0.42138   0.42357   0.42563
 Alpha virt. eigenvalues --    0.42820   0.42942   0.43119   0.43144   0.43491
 Alpha virt. eigenvalues --    0.43636   0.43805   0.44152   0.44175   0.44370
 Alpha virt. eigenvalues --    0.44709   0.44921   0.45353   0.45445   0.45918
 Alpha virt. eigenvalues --    0.46080   0.46443   0.46472   0.46832   0.46888
 Alpha virt. eigenvalues --    0.47108   0.47144   0.47451   0.47610   0.47876
 Alpha virt. eigenvalues --    0.48062   0.48247   0.48517   0.48621   0.48690
 Alpha virt. eigenvalues --    0.49097   0.49249   0.49331   0.49594   0.49790
 Alpha virt. eigenvalues --    0.50051   0.50114   0.50641   0.50962   0.51143
 Alpha virt. eigenvalues --    0.51353   0.51531   0.51768   0.51915   0.52274
 Alpha virt. eigenvalues --    0.52485   0.52722   0.53046   0.53308   0.53571
 Alpha virt. eigenvalues --    0.53905   0.54204   0.54292   0.54406   0.54577
 Alpha virt. eigenvalues --    0.54793   0.55221   0.55473   0.55831   0.56179
 Alpha virt. eigenvalues --    0.56261   0.56590   0.56893   0.57152   0.57434
 Alpha virt. eigenvalues --    0.57650   0.58118   0.58370   0.58458   0.58751
 Alpha virt. eigenvalues --    0.59250   0.59385   0.59597   0.60152   0.60216
 Alpha virt. eigenvalues --    0.60534   0.60784   0.61324   0.61473   0.61560
 Alpha virt. eigenvalues --    0.62371   0.62388   0.62900   0.63323   0.63574
 Alpha virt. eigenvalues --    0.63721   0.64198   0.64323   0.64577   0.64771
 Alpha virt. eigenvalues --    0.64975   0.65265   0.65674   0.66081   0.66351
 Alpha virt. eigenvalues --    0.66442   0.66732   0.67202   0.67355   0.67516
 Alpha virt. eigenvalues --    0.67820   0.68237   0.68415   0.68947   0.69524
 Alpha virt. eigenvalues --    0.69927   0.70498   0.70547   0.70911   0.71696
 Alpha virt. eigenvalues --    0.71820   0.71992   0.72283   0.73101   0.73296
 Alpha virt. eigenvalues --    0.73474   0.73668   0.73958   0.74246   0.74516
 Alpha virt. eigenvalues --    0.75104   0.75247   0.75505   0.75803   0.76156
 Alpha virt. eigenvalues --    0.76446   0.76843   0.77152   0.77379   0.77792
 Alpha virt. eigenvalues --    0.77853   0.78401   0.78792   0.79172   0.79299
 Alpha virt. eigenvalues --    0.79545   0.80161   0.80479   0.80565   0.80819
 Alpha virt. eigenvalues --    0.81161   0.81443   0.82175   0.82253   0.83179
 Alpha virt. eigenvalues --    0.83444   0.83770   0.84115   0.84626   0.85216
 Alpha virt. eigenvalues --    0.85677   0.85768   0.85838   0.86342   0.86794
 Alpha virt. eigenvalues --    0.87411   0.87696   0.88176   0.88627   0.88842
 Alpha virt. eigenvalues --    0.89407   0.89710   0.90012   0.90315   0.90906
 Alpha virt. eigenvalues --    0.91190   0.91491   0.91773   0.92448   0.92577
 Alpha virt. eigenvalues --    0.92943   0.93559   0.93916   0.94335   0.94558
 Alpha virt. eigenvalues --    0.95282   0.95371   0.95610   0.96124   0.96177
 Alpha virt. eigenvalues --    0.96569   0.96653   0.97083   0.97823   0.98068
 Alpha virt. eigenvalues --    0.98160   0.98847   0.98992   0.99458   0.99817
 Alpha virt. eigenvalues --    1.00319   1.00780   1.00968   1.01263   1.01587
 Alpha virt. eigenvalues --    1.01943   1.02134   1.02487   1.02706   1.03189
 Alpha virt. eigenvalues --    1.03566   1.03604   1.03695   1.03915   1.04174
 Alpha virt. eigenvalues --    1.04370   1.05153   1.05451   1.05722   1.06230
 Alpha virt. eigenvalues --    1.06601   1.06865   1.07238   1.07723   1.08778
 Alpha virt. eigenvalues --    1.08913   1.09080   1.09654   1.09853   1.09868
 Alpha virt. eigenvalues --    1.10327   1.10661   1.11248   1.11669   1.11736
 Alpha virt. eigenvalues --    1.12846   1.13296   1.13780   1.14327   1.14764
 Alpha virt. eigenvalues --    1.14971   1.15597   1.15760   1.16562   1.17139
 Alpha virt. eigenvalues --    1.17253   1.17814   1.18034   1.18443   1.18753
 Alpha virt. eigenvalues --    1.18901   1.19328   1.19949   1.20428   1.20738
 Alpha virt. eigenvalues --    1.20962   1.21279   1.21648   1.22226   1.22339
 Alpha virt. eigenvalues --    1.22744   1.23747   1.24146   1.24369   1.24760
 Alpha virt. eigenvalues --    1.25472   1.25730   1.25963   1.26904   1.27365
 Alpha virt. eigenvalues --    1.27606   1.27793   1.28429   1.28839   1.29078
 Alpha virt. eigenvalues --    1.29374   1.29840   1.30035   1.30459   1.30778
 Alpha virt. eigenvalues --    1.31282   1.31323   1.31962   1.32299   1.32506
 Alpha virt. eigenvalues --    1.32787   1.34001   1.34203   1.34598   1.34935
 Alpha virt. eigenvalues --    1.35168   1.35774   1.36987   1.37329   1.37998
 Alpha virt. eigenvalues --    1.38348   1.38959   1.39888   1.40151   1.40405
 Alpha virt. eigenvalues --    1.41000   1.41234   1.42142   1.42812   1.43099
 Alpha virt. eigenvalues --    1.43463   1.44095   1.44414   1.45398   1.45680
 Alpha virt. eigenvalues --    1.46179   1.46310   1.46936   1.47410   1.47746
 Alpha virt. eigenvalues --    1.48303   1.48489   1.49005   1.49411   1.49823
 Alpha virt. eigenvalues --    1.50056   1.50369   1.50713   1.50890   1.51190
 Alpha virt. eigenvalues --    1.51226   1.51570   1.51911   1.52150   1.52247
 Alpha virt. eigenvalues --    1.52891   1.52949   1.53020   1.53463   1.53734
 Alpha virt. eigenvalues --    1.54058   1.54204   1.54299   1.54405   1.54947
 Alpha virt. eigenvalues --    1.55267   1.55457   1.55577   1.55997   1.56005
 Alpha virt. eigenvalues --    1.56227   1.56637   1.56883   1.56988   1.57555
 Alpha virt. eigenvalues --    1.57767   1.57903   1.58294   1.58379   1.58831
 Alpha virt. eigenvalues --    1.59079   1.59423   1.59570   1.59973   1.60341
 Alpha virt. eigenvalues --    1.60972   1.61099   1.61369   1.61640   1.61936
 Alpha virt. eigenvalues --    1.62540   1.62769   1.62900   1.63013   1.63587
 Alpha virt. eigenvalues --    1.64015   1.64207   1.64377   1.64832   1.65020
 Alpha virt. eigenvalues --    1.65359   1.65616   1.66410   1.66627   1.66908
 Alpha virt. eigenvalues --    1.67307   1.67413   1.67825   1.68316   1.68752
 Alpha virt. eigenvalues --    1.69563   1.69681   1.69861   1.70339   1.70454
 Alpha virt. eigenvalues --    1.70844   1.71193   1.71534   1.71826   1.72288
 Alpha virt. eigenvalues --    1.72655   1.72774   1.73024   1.73675   1.74111
 Alpha virt. eigenvalues --    1.74615   1.74774   1.75975   1.76372   1.76830
 Alpha virt. eigenvalues --    1.77345   1.77937   1.78147   1.78309   1.79756
 Alpha virt. eigenvalues --    1.80331   1.80869   1.81383   1.81584   1.81767
 Alpha virt. eigenvalues --    1.82599   1.83453   1.83921   1.84210   1.84317
 Alpha virt. eigenvalues --    1.85067   1.85312   1.85691   1.86281   1.86325
 Alpha virt. eigenvalues --    1.86711   1.87345   1.87457   1.88100   1.88146
 Alpha virt. eigenvalues --    1.89168   1.89379   1.89914   1.90268   1.90604
 Alpha virt. eigenvalues --    1.90940   1.92219   1.92306   1.92542   1.93418
 Alpha virt. eigenvalues --    1.94074   1.94432   1.94982   1.95547   1.96140
 Alpha virt. eigenvalues --    1.96643   1.96954   1.97170   1.97672   1.98231
 Alpha virt. eigenvalues --    1.98725   1.98927   1.99239   1.99421   1.99947
 Alpha virt. eigenvalues --    2.00527   2.01340   2.01585   2.01870   2.02224
 Alpha virt. eigenvalues --    2.02562   2.03277   2.03422   2.03970   2.04001
 Alpha virt. eigenvalues --    2.05352   2.05684   2.06025   2.06696   2.07516
 Alpha virt. eigenvalues --    2.07694   2.08306   2.08476   2.08962   2.09365
 Alpha virt. eigenvalues --    2.09856   2.10338   2.10970   2.11075   2.11560
 Alpha virt. eigenvalues --    2.11974   2.12348   2.12971   2.13269   2.14354
 Alpha virt. eigenvalues --    2.14655   2.14773   2.15269   2.15658   2.16326
 Alpha virt. eigenvalues --    2.16692   2.17068   2.17593   2.18037   2.18380
 Alpha virt. eigenvalues --    2.19115   2.19230   2.19910   2.20251   2.20494
 Alpha virt. eigenvalues --    2.21065   2.21502   2.21931   2.22225   2.22674
 Alpha virt. eigenvalues --    2.23407   2.23823   2.24511   2.25162   2.25429
 Alpha virt. eigenvalues --    2.25883   2.26610   2.27421   2.27647   2.27758
 Alpha virt. eigenvalues --    2.28471   2.28660   2.29347   2.29815   2.29936
 Alpha virt. eigenvalues --    2.30876   2.31061   2.31233   2.31775   2.32469
 Alpha virt. eigenvalues --    2.32529   2.33015   2.33725   2.34127   2.34304
 Alpha virt. eigenvalues --    2.34690   2.35010   2.35728   2.35904   2.36148
 Alpha virt. eigenvalues --    2.36276   2.36913   2.37450   2.37489   2.37840
 Alpha virt. eigenvalues --    2.38276   2.38669   2.39432   2.39872   2.40481
 Alpha virt. eigenvalues --    2.41074   2.41476   2.41697   2.42743   2.42986
 Alpha virt. eigenvalues --    2.43055   2.43189   2.43821   2.44636   2.44801
 Alpha virt. eigenvalues --    2.45458   2.45537   2.46159   2.46853   2.47083
 Alpha virt. eigenvalues --    2.47488   2.47825   2.48190   2.48732   2.49538
 Alpha virt. eigenvalues --    2.49782   2.49983   2.50705   2.51356   2.51717
 Alpha virt. eigenvalues --    2.51937   2.52275   2.52839   2.53160   2.53340
 Alpha virt. eigenvalues --    2.53728   2.53947   2.54975   2.55246   2.55508
 Alpha virt. eigenvalues --    2.56038   2.56495   2.56571   2.56693   2.57261
 Alpha virt. eigenvalues --    2.57764   2.57809   2.58315   2.59021   2.59399
 Alpha virt. eigenvalues --    2.59628   2.59999   2.60349   2.60747   2.60959
 Alpha virt. eigenvalues --    2.61365   2.61624   2.61951   2.62123   2.62567
 Alpha virt. eigenvalues --    2.62808   2.63575   2.64426   2.64773   2.65253
 Alpha virt. eigenvalues --    2.65422   2.66042   2.66381   2.66805   2.67292
 Alpha virt. eigenvalues --    2.67771   2.68214   2.68435   2.68765   2.69019
 Alpha virt. eigenvalues --    2.69422   2.70030   2.70439   2.70530   2.71521
 Alpha virt. eigenvalues --    2.71776   2.72043   2.72574   2.72762   2.73360
 Alpha virt. eigenvalues --    2.73737   2.74677   2.75199   2.75477   2.75861
 Alpha virt. eigenvalues --    2.76431   2.76696   2.77270   2.77510   2.77888
 Alpha virt. eigenvalues --    2.78601   2.78810   2.78992   2.79466   2.79781
 Alpha virt. eigenvalues --    2.80426   2.80602   2.81371   2.81717   2.82109
 Alpha virt. eigenvalues --    2.82352   2.82605   2.83349   2.83736   2.84213
 Alpha virt. eigenvalues --    2.84600   2.84904   2.85326   2.85578   2.85683
 Alpha virt. eigenvalues --    2.86276   2.86705   2.87389   2.87770   2.88187
 Alpha virt. eigenvalues --    2.88696   2.88995   2.89250   2.89429   2.90099
 Alpha virt. eigenvalues --    2.90573   2.90957   2.91296   2.91485   2.92129
 Alpha virt. eigenvalues --    2.92625   2.92902   2.93017   2.93336   2.94160
 Alpha virt. eigenvalues --    2.94221   2.94756   2.95179   2.95200   2.95491
 Alpha virt. eigenvalues --    2.95787   2.96133   2.96570   2.96992   2.97422
 Alpha virt. eigenvalues --    2.97735   2.98153   2.98845   2.98923   2.99335
 Alpha virt. eigenvalues --    2.99887   2.99923   3.00468   3.01004   3.01220
 Alpha virt. eigenvalues --    3.01265   3.01898   3.02507   3.02662   3.02810
 Alpha virt. eigenvalues --    3.03680   3.04199   3.04357   3.05021   3.05112
 Alpha virt. eigenvalues --    3.05647   3.06318   3.06340   3.06748   3.07124
 Alpha virt. eigenvalues --    3.07227   3.07665   3.08144   3.08617   3.09095
 Alpha virt. eigenvalues --    3.09215   3.09493   3.09631   3.09978   3.10457
 Alpha virt. eigenvalues --    3.10738   3.10853   3.11147   3.11528   3.11768
 Alpha virt. eigenvalues --    3.12345   3.12399   3.12970   3.13240   3.14085
 Alpha virt. eigenvalues --    3.14464   3.14841   3.15048   3.15340   3.15565
 Alpha virt. eigenvalues --    3.15913   3.16033   3.16276   3.16902   3.17157
 Alpha virt. eigenvalues --    3.17507   3.17822   3.17994   3.18775   3.18894
 Alpha virt. eigenvalues --    3.19325   3.19661   3.19893   3.20158   3.20399
 Alpha virt. eigenvalues --    3.21038   3.21291   3.21713   3.22124   3.22253
 Alpha virt. eigenvalues --    3.22643   3.23219   3.23369   3.23799   3.23995
 Alpha virt. eigenvalues --    3.24591   3.24924   3.25045   3.25231   3.25490
 Alpha virt. eigenvalues --    3.25739   3.26091   3.26416   3.26477   3.26844
 Alpha virt. eigenvalues --    3.27079   3.27292   3.27415   3.27778   3.28286
 Alpha virt. eigenvalues --    3.28359   3.28709   3.28935   3.29549   3.29734
 Alpha virt. eigenvalues --    3.30001   3.30031   3.30418   3.30612   3.30693
 Alpha virt. eigenvalues --    3.30963   3.31265   3.31914   3.32064   3.32342
 Alpha virt. eigenvalues --    3.32422   3.33071   3.33365   3.33402   3.33888
 Alpha virt. eigenvalues --    3.34157   3.34376   3.34479   3.34931   3.35191
 Alpha virt. eigenvalues --    3.35657   3.36076   3.36316   3.36477   3.36668
 Alpha virt. eigenvalues --    3.36845   3.36961   3.37772   3.37860   3.38009
 Alpha virt. eigenvalues --    3.38581   3.38721   3.38876   3.39137   3.39670
 Alpha virt. eigenvalues --    3.39803   3.40246   3.40479   3.40718   3.40973
 Alpha virt. eigenvalues --    3.41352   3.41652   3.42051   3.42316   3.42876
 Alpha virt. eigenvalues --    3.43411   3.43840   3.44288   3.44830   3.45407
 Alpha virt. eigenvalues --    3.45480   3.45727   3.46733   3.46844   3.47022
 Alpha virt. eigenvalues --    3.47427   3.48120   3.48545   3.48813   3.49093
 Alpha virt. eigenvalues --    3.49491   3.50710   3.50794   3.51668   3.51978
 Alpha virt. eigenvalues --    3.52931   3.53113   3.53590   3.54099   3.54173
 Alpha virt. eigenvalues --    3.54740   3.55199   3.55491   3.55976   3.56058
 Alpha virt. eigenvalues --    3.56523   3.57206   3.57915   3.58276   3.58989
 Alpha virt. eigenvalues --    3.59374   3.59879   3.60129   3.60376   3.60610
 Alpha virt. eigenvalues --    3.61143   3.61317   3.62004   3.62587   3.63212
 Alpha virt. eigenvalues --    3.63600   3.64115   3.64572   3.65351   3.66194
 Alpha virt. eigenvalues --    3.66573   3.66667   3.67437   3.67949   3.68209
 Alpha virt. eigenvalues --    3.68565   3.68733   3.69379   3.69674   3.70203
 Alpha virt. eigenvalues --    3.71009   3.71269   3.71506   3.71528   3.71885
 Alpha virt. eigenvalues --    3.72265   3.72502   3.73061   3.73496   3.74417
 Alpha virt. eigenvalues --    3.74551   3.75047   3.75301   3.75667   3.76160
 Alpha virt. eigenvalues --    3.76720   3.77140   3.77353   3.77898   3.78442
 Alpha virt. eigenvalues --    3.79570   3.79841   3.80442   3.80776   3.81580
 Alpha virt. eigenvalues --    3.82377   3.82587   3.82981   3.83650   3.84547
 Alpha virt. eigenvalues --    3.85246   3.85584   3.86290   3.86593   3.87678
 Alpha virt. eigenvalues --    3.88223   3.88659   3.89097   3.89902   3.90649
 Alpha virt. eigenvalues --    3.90959   3.91274   3.91367   3.91948   3.92160
 Alpha virt. eigenvalues --    3.92420   3.94091   3.94894   3.95595   3.95641
 Alpha virt. eigenvalues --    3.96582   3.97228   3.97435   3.98698   3.99136
 Alpha virt. eigenvalues --    3.99900   4.00069   4.00718   4.01411   4.01658
 Alpha virt. eigenvalues --    4.02224   4.03067   4.03266   4.04013   4.04816
 Alpha virt. eigenvalues --    4.05373   4.05738   4.06148   4.06386   4.06616
 Alpha virt. eigenvalues --    4.06929   4.09261   4.09361   4.10224   4.10517
 Alpha virt. eigenvalues --    4.11468   4.12716   4.13784   4.14264   4.14713
 Alpha virt. eigenvalues --    4.15482   4.15856   4.16496   4.17036   4.17570
 Alpha virt. eigenvalues --    4.18161   4.18781   4.19230   4.19373   4.19758
 Alpha virt. eigenvalues --    4.20121   4.20652   4.21096   4.21130   4.21666
 Alpha virt. eigenvalues --    4.22672   4.23119   4.23831   4.24214   4.24605
 Alpha virt. eigenvalues --    4.25335   4.26673   4.26996   4.27345   4.27582
 Alpha virt. eigenvalues --    4.28662   4.29439   4.30173   4.30624   4.30943
 Alpha virt. eigenvalues --    4.32314   4.32808   4.33718   4.34112   4.34438
 Alpha virt. eigenvalues --    4.34876   4.35311   4.35477   4.36268   4.36436
 Alpha virt. eigenvalues --    4.38397   4.38752   4.39502   4.40062   4.40689
 Alpha virt. eigenvalues --    4.41115   4.41459   4.41562   4.42139   4.42416
 Alpha virt. eigenvalues --    4.42510   4.43242   4.43411   4.44209   4.44895
 Alpha virt. eigenvalues --    4.45076   4.45401   4.45758   4.46547   4.46896
 Alpha virt. eigenvalues --    4.47455   4.47917   4.48199   4.48761   4.49329
 Alpha virt. eigenvalues --    4.51139   4.51511   4.52808   4.53814   4.54110
 Alpha virt. eigenvalues --    4.54699   4.55969   4.56850   4.57488   4.58357
 Alpha virt. eigenvalues --    4.58928   4.60167   4.61521   4.63150   4.63925
 Alpha virt. eigenvalues --    4.64829   4.65949   4.66755   4.67748   4.68324
 Alpha virt. eigenvalues --    4.69268   4.69826   4.70159   4.70833   4.71947
 Alpha virt. eigenvalues --    4.72571   4.73216   4.73536   4.73715   4.74767
 Alpha virt. eigenvalues --    4.75493   4.75990   4.76626   4.78384   4.79975
 Alpha virt. eigenvalues --    4.80580   4.81851   4.83352   4.83626   4.83907
 Alpha virt. eigenvalues --    4.84324   4.84903   4.85706   4.85882   4.86652
 Alpha virt. eigenvalues --    4.87062   4.88102   4.88131   4.89198   4.90475
 Alpha virt. eigenvalues --    4.91610   4.92848   4.94080   4.94679   4.94940
 Alpha virt. eigenvalues --    4.95278   4.95927   4.96554   4.97334   4.97548
 Alpha virt. eigenvalues --    4.98883   5.00144   5.02198   5.02572   5.02947
 Alpha virt. eigenvalues --    5.04176   5.04730   5.04992   5.05717   5.07153
 Alpha virt. eigenvalues --    5.07416   5.08868   5.09162   5.09943   5.10868
 Alpha virt. eigenvalues --    5.11422   5.11976   5.12265   5.15234   5.17091
 Alpha virt. eigenvalues --    5.17156   5.19934   5.20424   5.21286   5.21437
 Alpha virt. eigenvalues --    5.22139   5.23202   5.24527   5.24598   5.26375
 Alpha virt. eigenvalues --    5.27430   5.28806   5.29882   5.30880   5.31347
 Alpha virt. eigenvalues --    5.33998   5.36719   5.37039   5.38434   5.38883
 Alpha virt. eigenvalues --    5.39362   5.39836   5.40234   5.40880   5.41728
 Alpha virt. eigenvalues --    5.42045   5.43613   5.43766   5.45304   5.47589
 Alpha virt. eigenvalues --    5.49799   5.50648   5.51010   5.51935   5.52350
 Alpha virt. eigenvalues --    5.53354   5.53501   5.57294   5.58128   5.60623
 Alpha virt. eigenvalues --    5.62633   5.63238   5.63648   5.63880   5.64404
 Alpha virt. eigenvalues --    5.65397   5.66393   5.68236   5.68992   5.69515
 Alpha virt. eigenvalues --    5.71363   5.75641   5.77991   5.78748   5.78878
 Alpha virt. eigenvalues --    5.81138   5.81872   5.91054   5.92689   5.94246
 Alpha virt. eigenvalues --    5.94535   5.98088   6.02403   6.03158   6.03957
 Alpha virt. eigenvalues --    6.09088   6.13036   6.13535   6.14883   6.15051
 Alpha virt. eigenvalues --    6.18398   6.19881   6.24613   6.28581   6.35426
 Alpha virt. eigenvalues --    6.36140   6.42422   6.49720   6.51551   6.54043
 Alpha virt. eigenvalues --    6.69237   6.97240   7.28213  22.35193  22.36757
 Alpha virt. eigenvalues --   22.44200  22.46353  22.47125  22.53745  22.54869
 Alpha virt. eigenvalues --   22.62911  22.63538  22.78898  22.86344  22.87671
 Alpha virt. eigenvalues --   22.92791  22.95163  22.95646  22.97145  22.98450
 Alpha virt. eigenvalues --   23.04997  23.05598  23.09459  23.17012  23.27890
 Alpha virt. eigenvalues --   23.28924  23.30841  23.32543  23.41918  23.43485
 Alpha virt. eigenvalues --   23.52263  23.53140  23.57786  23.75587  23.80219
 Alpha virt. eigenvalues --   23.81584  23.90811  32.41105  32.75672  32.91987
 Alpha virt. eigenvalues --   32.98449  33.02104  33.12289  44.06832
          Condensed to atoms (all electrons):
 Mulliken charges:
               1
     1  Fe  -0.242006
     2  N    0.002659
     3  N   -0.099395
     4  N   -0.012939
     5  N   -0.040970
     6  C    0.244170
     7  C   -0.049546
     8  C   -0.050174
     9  C    0.259699
    10  C    0.235873
    11  C   -0.101018
    12  C    0.103490
    13  C    0.229155
    14  C    0.252619
    15  C   -0.056417
    16  C    0.028914
    17  C    0.256405
    18  C    0.203259
    19  C   -0.050883
    20  C   -0.043037
    21  C    0.243144
    22  C   -0.453783
    23  H    0.136687
    24  C   -0.516229
    25  H    0.133115
    26  C   -0.491767
    27  H    0.171003
    28  C   -0.483032
    29  H    0.119480
    30  C   -0.416691
    31  H    0.130811
    32  H    0.119410
    33  H    0.136337
    34  C   -0.416995
    35  H    0.132840
    36  H    0.135399
    37  H    0.118824
    38  C   -0.397249
    39  H    0.135491
    40  H    0.134055
    41  H    0.124070
    42  C   -0.252860
    43  H    0.114699
    44  C   -0.306638
    45  H    0.121637
    46  H    0.146061
    47  C   -0.451099
    48  H    0.138571
    49  H    0.133476
    50  H    0.156054
    51  C   -0.212267
    52  H    0.110184
    53  C   -0.289443
    54  H    0.137824
    55  H    0.121051
    56  C   -0.414681
    57  H    0.131899
    58  H    0.135617
    59  H    0.119490
    60  C   -0.415127
    61  H    0.118911
    62  H    0.133238
    63  H    0.135083
    64  O   -0.575355
    65  H    0.358610
    66  H    0.325688
    67  C   -0.392791
    68  H    0.135641
    69  H    0.134454
    70  H    0.145030
    71  N   -0.232959
    72  H    0.235116
    73  C    0.177627
    74  C    0.007574
    75  H    0.182914
    76  N    0.077622
    77  C   -0.218488
    78  H    0.162861
 Sum of Mulliken charges =  -0.00000
 Mulliken charges with hydrogens summed into heavy atoms:
               1
     1  Fe  -0.242006
     2  N    0.002659
     3  N   -0.099395
     4  N   -0.012939
     5  N   -0.040970
     6  C    0.244170
     7  C   -0.049546
     8  C   -0.050174
     9  C    0.259699
    10  C    0.235873
    11  C   -0.101018
    12  C    0.103490
    13  C    0.229155
    14  C    0.252619
    15  C   -0.056417
    16  C    0.028914
    17  C    0.256405
    18  C    0.203259
    19  C   -0.050883
    20  C   -0.043037
    21  C    0.243144
    22  C   -0.317096
    24  C   -0.383114
    26  C   -0.320764
    28  C   -0.363552
    30  C   -0.030134
    34  C   -0.029931
    38  C   -0.003632
    42  C   -0.138161
    44  C   -0.038941
    47  C   -0.022999
    51  C   -0.102083
    53  C   -0.030568
    56  C   -0.027676
    60  C   -0.027895
    64  O    0.108943
    67  C    0.022333
    71  N    0.002157
    73  C    0.177627
    74  C    0.190489
    76  N    0.077622
    77  C   -0.055627
 Electronic spatial extent (au):  <R**2>=          19739.9637
 Charge=              0.0000 electrons
 Dipole moment (field-independent basis, Debye):
    X=             -1.1456    Y=             -0.4643    Z=              3.2601  Tot=              3.4866
 Quadrupole moment (field-independent basis, Debye-Ang):
   XX=           -246.1970   YY=           -239.9651   ZZ=           -222.8828
   XY=             -2.1655   XZ=              4.3523   YZ=             -2.1437
 Traceless Quadrupole moment (field-independent basis, Debye-Ang):
   XX=             -9.8487   YY=             -3.6168   ZZ=             13.4655
   XY=             -2.1655   XZ=              4.3523   YZ=             -2.1437
 Octapole moment (field-independent basis, Debye-Ang**2):
  XXX=            -49.7705  YYY=            -23.2557  ZZZ=             80.9625  XYY=            -14.9906
  XXY=              7.5116  XXZ=              6.0586  XZZ=             -6.8287  YZZ=            -11.9280
  YYZ=            -14.4173  XYZ=             -6.7205
 Hexadecapole moment (field-independent basis, Debye-Ang**3):
 XXXX=         -12133.6361 YYYY=         -11286.7715 ZZZZ=          -2651.7373 XXXY=             41.5697
 XXXZ=            115.4965 YYYX=            -23.1209 YYYZ=            -66.8860 ZZZX=             55.5728
 ZZZY=            -18.8537 XXYY=          -3866.9813 XXZZ=          -2690.7294 YYZZ=          -2532.4251
 XXYZ=             33.4267 YYXZ=             -5.8248 ZZXY=            -28.4320
 N-N= 5.982455395553D+03 E-N=-1.897938691992D+04  KE= 2.973864357839D+03
  Exact polarizability:     717.071      -2.565     677.425      15.431      -6.066     310.383
 Approx polarizability:    1328.149     -16.773    1275.560      39.486     -32.999     499.466

 ----------------------------------------------------------------------

 Electric dipole moment (input orientation):
 (Debye = 10**-18 statcoulomb cm , SI units = C m)
                  (au)            (Debye)         (10**-30 SI)
   Tot        0.137171D+01      0.348655D+01      0.116299D+02
   x          0.530882D+00      0.134937D+01      0.450101D+01
   y         -0.222766D+00     -0.566214D+00     -0.188869D+01
   z         -0.124505D+01     -0.316459D+01     -0.105559D+02

 Dipole polarizability, Alpha (input orientation).
 (esu units = cm**3 , SI units = C**2 m**2 J**-1)
 Alpha(0;0):
               (au)            (10**-24 esu)      (10**-40 SI)
   iso        0.568293D+03      0.842123D+02      0.936988D+02
   aniso      0.389471D+03      0.577137D+02      0.642152D+02
   xx         0.609304D+03      0.902895D+02      0.100461D+03
   yx        -0.407006D+02     -0.603121D+01     -0.671063D+01
   yy         0.702569D+03      0.104110D+03      0.115838D+03
   zx         0.144616D+03      0.214299D+02      0.238440D+02
   zy         0.526631D+02      0.780387D+01      0.868297D+01
   zz         0.393005D+03      0.582374D+02      0.647978D+02

 First dipole hyperpolarizability, Beta (input orientation).
 ||, _|_  parallel and perpendicular components, (z) with respect to z axis,
 vector components x,y,z.  Values do not include the 1/n! factor of 1/2.
 (esu units = statvolt**-1 cm**4 , SI units = C**3 m**3 J**-2)
 Beta(0;0,0):
               (au)            (10**-30 esu)      (10**-50 SI)
   || (z)     0.373475D+02      0.322654D+00      0.119750D+00
   _|_(z)     0.124492D+02      0.107551D+00      0.399166D-01
   x         -0.315238D+02     -0.272341D+00     -0.101077D+00
   y          0.482815D+04      0.417115D+02      0.154808D+02
   z          0.186738D+03      0.161327D+01      0.598748D+00
   ||         0.966373D+03      0.834871D+01      0.309854D+01
   xxx        0.220460D+03      0.190460D+01      0.706874D+00
   xxy        0.789211D+03      0.681817D+01      0.253050D+01
   yxy       -0.437697D+03     -0.378136D+01     -0.140342D+01
   yyy        0.761517D+03      0.657891D+01      0.244170D+01
   xxz        0.150721D+03      0.130211D+01      0.483265D+00
   yxz        0.904580D+02      0.781487D+00      0.290041D+00
   yyz        0.835397D+02      0.721718D+00      0.267859D+00
   zxz        0.206730D+03      0.178598D+01      0.662850D+00
   zyz        0.586565D+02      0.506746D+00      0.188074D+00
   zzz       -0.172015D+03     -0.148607D+01     -0.551541D+00

 ----------------------------------------------------------------------

 Dipole orientation:
    26         20.18294309         15.27748539         -7.47684985
     7         21.36147514         18.67606663         -6.39584808
     7         23.74079110         14.30440047         -8.43014923
     7         18.96001806         11.91386641         -8.75833191
     7         16.59685120         16.28574737         -6.80712706
     6         19.90549326         20.65438824         -5.65501804
     6         21.43740645         22.87868368         -5.22350636
     6         23.86006064         22.19503174         -5.73259838
     6         23.77485060         19.56055882         -6.46593324
     6         25.85681775         15.68221298         -7.93572988
     6         28.09558818         14.22969418         -8.44562420
     6         27.29232881         11.89826493         -9.23300829
     6         24.55637907         12.00251306         -9.22210496
     6         20.39486467         10.03938865         -9.78615786
     6         18.84235549          7.94139847        -10.56272068
     6         16.40508632          8.58426791         -9.97569580
     6         16.53588936         11.08169908         -8.85277642
     6         14.50696519         14.80561999         -6.98858128
     6         12.30311608         16.11892406         -6.04692331
     6         13.11521865         18.43947490         -5.29689290
     6         15.80209012         18.50779127         -5.79124988
     6         17.32174800         20.57113730         -5.28244390
     1         16.41673841         22.25428149         -4.56882174
     6         25.88510660         18.16934821         -7.11441624
     1         27.70322740         19.08153571         -6.95374183
     6         23.00195507         10.04617737         -9.97661213
     1         23.89710285          8.39285715        -10.76417141
     6         14.44823690         12.39190980         -7.98461244
     1         12.63617573         11.45993493         -8.08094059
     6         26.21499491         23.73584004         -5.61415784
     1         27.53303356         22.94369835         -4.24204953
     1         25.79615502         25.67049306         -5.06329770
     1         27.15047003         23.77225507         -7.44936181
     6         20.42017320         25.37075950         -4.39526209
     1         19.49049189         25.20021465         -2.56430605
     1         19.03658742         26.07507360         -5.74965844
     1         21.92680058         26.75808475         -4.22755914
     6         30.73477514         15.13805275         -8.07610444
     1         31.07520083         15.59698713         -6.09609353
     1         31.08182589         16.83724353         -9.18971097
     1         32.08226713         13.69434634         -8.64222426
     6         28.86990828          9.76544344         -9.91138475
     1         30.57757336         10.23707475        -10.94462279
     6         28.43462657          7.36680725         -9.31589763
     1         29.70549243          5.88079570         -9.88511019
     1         26.82558981          6.80513319         -8.20437985
     6         19.77597965          5.63744005        -11.88075196
     1         20.50891197          4.26207082        -10.53010065
     1         21.29112403          6.11091880        -13.18997219
     1         18.24423284          4.75789423        -12.93392680
     6         14.09764448          7.17988935        -10.38739938
     1         12.43602257          8.30830037        -10.78947202
     6         13.87325768          4.67938319        -10.29856493
     1         15.43508558          3.46741734         -9.82270762
     1         12.09340872          3.75710321        -10.65625784
     6          9.70850272         15.02409532         -5.97703775
     1          9.68235865         13.28319986         -4.87513218
     1          9.05760632         14.58159245         -7.88140742
     1          8.38003419         16.34461066         -5.13254258
     6         11.64800135         20.56893009         -4.18067752
     1          9.67068354         20.05713862         -3.95617495
     1         11.75193454         22.23357633         -5.39059909
     1         12.40208984         21.07683649         -2.33190230
     8         19.86605853         16.75983094        -11.48436736
     1         21.34501042         16.23314970        -12.38455164
     1         18.62405033         17.71838304        -12.08812223
     6         23.65749965         12.88779637          2.17821278
     1         24.18697264         10.93406518          2.55878728
     1         22.58748160         13.59113189          3.79153794
     1         25.36620484         14.00582648          1.98443692
     7         19.87386735         11.85963936         -0.47235185
     1         19.02477934         10.75682557          0.82474803
     6         22.14401954         13.07022922         -0.17764893
     6         18.99782527         12.41379800         -2.80862272
     1         17.25133530         11.72236909         -3.56051066
     7         20.57451496         13.90131298         -4.00941042
     6         22.54089140         14.32558097         -2.39669118
     1         24.09739240         15.49753501         -2.93879194

 Electric dipole moment (dipole orientation):
 (Debye = 10**-18 statcoulomb cm , SI units = C m)
                  (au)            (Debye)         (10**-30 SI)
   Tot        0.137171D+01      0.348655D+01      0.116299D+02
   x          0.000000D+00      0.000000D+00      0.000000D+00
   y          0.000000D+00      0.000000D+00      0.000000D+00
   z          0.137171D+01      0.348655D+01      0.116299D+02

 Dipole polarizability, Alpha (dipole orientation).
 (esu units = cm**3 , SI units = C**2 m**2 J**-1)
 Alpha(0;0):
               (au)            (10**-24 esu)      (10**-40 SI)
   iso        0.568293D+03      0.842123D+02      0.936988D+02
   aniso      0.389471D+03      0.577137D+02      0.642152D+02
   xx         0.679028D+03      0.100622D+03      0.111957D+03
   yx         0.203848D+02      0.302072D+01      0.336101D+01
   yy         0.673242D+03      0.997642D+02      0.111003D+03
   zx        -0.231245D+02     -0.342670D+01     -0.381272D+01
   zy         0.121301D+03      0.179749D+02      0.199998D+02
   zz         0.352607D+03      0.522510D+02      0.581371D+02

 First dipole hyperpolarizability, Beta (dipole orientation).
 ||, _|_  parallel and perpendicular components, (z) with respect to z axis,
 vector components x,y,z.  Values do not include the 1/n! factor of 1/2.
 (esu units = statvolt**-1 cm**4 , SI units = C**3 m**3 J**-2)
 Beta(0;0,0):
               (au)            (10**-30 esu)      (10**-50 SI)
   || (z)    -0.193157D+03     -0.166872D+01     -0.619330D+00
   _|_(z)    -0.643855D+02     -0.556241D+00     -0.206443D+00
   x          0.202297D+03      0.174769D+01      0.648637D+00
   y         -0.473004D+04     -0.408639D+02     -0.151662D+02
   z         -0.965783D+03     -0.834361D+01     -0.309665D+01
   ||         0.966373D+03      0.834871D+01      0.309854D+01
   xxx        0.469027D+03      0.405203D+01      0.150387D+01
   xxy       -0.680551D+03     -0.587943D+01     -0.218209D+01
   yxy       -0.321409D+03     -0.277673D+01     -0.103055D+01
   yyy       -0.654161D+03     -0.565144D+01     -0.209748D+01
   xxz       -0.204644D+03     -0.176796D+01     -0.656162D+00
   yxz       -0.243934D+03     -0.210740D+01     -0.782139D+00
   yyz       -0.322124D+03     -0.278290D+01     -0.103285D+01
   zxz       -0.801854D+02     -0.692740D+00     -0.257103D+00
   zyz       -0.241968D+03     -0.209042D+01     -0.775838D+00
   zzz        0.204840D+03      0.176966D+01      0.656791D+00

 ----------------------------------------------------------------------
 Unable to Open any file for archive entry.
 1\1\GINC-BGN1020\SP\RAPFD\def2TZVP\C34H36Fe1N6O1\BEBJONES\30-Oct-2024\
 0\\# polar def2tzvp apfd int=(grid=ultrafine)\\4xmc_II_S\\0,1\Fe,0,8.0
 441160083,-6.9782946365,9.0376523817\N,0,8.7809385102,-8.8242341902,9.
 0518686925\N,0,9.6007475561,-6.326523882,10.1405643684\N,0,7.243977832
 7,-5.1341456358,9.1136418407\N,0,6.4150214476,-7.6245453435,8.06818409
 82\C,0,8.1881939529,-9.9456940265,8.5678638153\C,0,8.9847910837,-11.11
 68422134,8.8654951851\C,0,10.0737996261,-10.6740816289,9.5474319911\C,
 0,9.9279917865,-9.2377164772,9.6558084169\C,0,10.7098163976,-7.0511476
 071,10.4548633081\C,0,11.7223989896,-6.2102822279,11.0334506862\C,0,11
 .2100976842,-4.9399380637,11.0467722139\C,0,9.8763891802,-5.0429791486
 ,10.4901645669\C,0,7.7658282508,-4.0425825044,9.7400897101\C,0,6.88631
 84656,-2.9080542129,9.614826671\C,0,5.8068551455,-3.3364841969,8.88895
 98667\C,0,6.0570726002,-4.7340177878,8.5910219985\C,0,5.3845794099,-6.
 8729673056,7.6001253586\C,0,4.4798789079,-7.6776779861,6.80934509\C,0,
 4.9890319323,-8.9389808412,6.8148412071\C,0,6.1967873371,-8.8853031052
 ,7.6084356709\C,0,7.0060446539,-9.9793142133,7.8526001068\H,0,6.681543
 408,-10.9347880446,7.4691370576\C,0,10.8484550068,-8.4191760628,10.279
 9101465\H,0,11.752023107,-8.8773206904,10.6534838099\C,0,8.9979930025,
 -3.9843036497,10.3660892978\H,0,9.3020228707,-3.0382117248,10.78560847
 88\C,0,5.1940349418,-5.5287723625,7.8590732722\H,0,4.3069449517,-5.065
 7256123,7.4541339021\C,0,11.2195231231,-11.4472903307,10.1052542879\H,
 0,12.1570570646,-11.1288386912,9.6480775578\H,0,11.0943724211,-12.5115
 53111,9.9211506789\H,0,11.2991970173,-11.2922701612,11.1814408934\C,0,
 8.6149377702,-12.5062731494,8.4735121333\H,0,8.5395576505,-12.59083008
 37,7.3890255888\H,0,7.6505999798,-12.7815559089,8.9012096535\H,0,9.359
 7686404,-13.2184086458,8.8207476686\C,0,13.0691802438,-6.670061241,11.
 4745409467\H,0,13.63269097,-7.0737843094,10.6326790376\H,0,12.98071699
 04,-7.4550511517,12.226520928\H,0,13.6354823018,-5.8445021463,11.89835
 5286\C,0,11.8776208992,-3.741097821,11.5124060018\H,0,12.490492485,-3.
 8686565115,12.3989473218\C,0,11.829142899,-2.5481065608,10.9311057989\
 H,0,12.3581841426,-1.7015402368,11.337076763\H,0,11.2819669566,-2.3785
 656756,10.0194270606\C,0,7.1118122498,-1.5761608384,10.2411031108\H,0,
 7.7698063941,-0.96170263,9.6242797099\H,0,7.5742514025,-1.6843228487,1
 1.2209318669\H,0,6.1645324619,-1.0533579916,10.3576629049\C,0,4.621850
 5962,-2.6084424164,8.4934462387\H,0,3.7095790315,-3.1917333102,8.44323
 53341\C,0,4.574223048,-1.3150714873,8.1899344227\H,0,5.4544003857,-0.6
 962573722,8.1770870973\H,0,3.6491434103,-0.8340613345,7.9179618401\C,0
 ,3.2480753894,-7.1575719083,6.1503073347\H,0,3.4913522526,-6.344217406
 3,5.4660859509\H,0,2.5483756796,-6.774337292,6.8936647861\H,0,2.750209
 4999,-7.9424337152,5.5860953848\C,0,4.4650535564,-10.171767214,6.16122
 15398\H,0,3.5557610107,-9.958450711,5.6044482587\H,0,4.2389162417,-10.
 9346912669,6.9067029417\H,0,5.202546363,-10.5825565729,5.4713213903\O,
 0,7.043,-7.413,11.025\H,0,7.589,-7.035,11.715\H,0,6.297,-7.883,11.143\
 C,0,11.7574504969,-6.5003671535,4.9064482306\H,0,12.1276417589,-5.5042
 650158,4.6641915267\H,0,11.5538309631,-7.0247124012,3.972850534\H,0,12
 .5314833833,-7.0373799606,5.445549529\N,0,9.3875311945,-5.8019947207,5
 .3162893288\H,0,9.2583694784,-5.3527528974,4.4246083498\C,0,10.5337689
 428,-6.4195010128,5.7437088721\C,0,8.4722131251,-5.9056878045,6.306634
 6032\H,0,7.4786432273,-5.5106919214,6.2506692978\N,0,8.9691910948,-6.5
 512815,7.3341309037\C,0,10.2509420438,-6.877000906,6.9987031105\H,0,10
 .8784780067,-7.4148738218,7.6785711494\\Version=ES64L-G16RevC.02\State
 =1-A\HF=-2984.0266265\RMSD=4.333e-09\Dipole=0.5308821,-0.2227656,-1.24
 50467\Polar=609.3039885,-40.7006489,702.5687766,144.616377,52.6631129,
 393.0052901\HyperPolar=220.4597843,789.2114981,-437.6973707,761.516504
 7,150.7207275,90.4580005,83.5397488,206.7296546,58.656473,-172.014589\
 Quadrupole=-2.0551563,-6.1041933,8.1593496,1.9498164,-2.6038219,-5.614
 8861\PG=C01 [X(C34H36Fe1N6O1)]\\@
 The archive entry for this job was punched.


    UPON JULIA'S CLOTHES

 WHENAS IN SILKS MY JULIA GOES,
 THEN, THEN, METHINKS, HOW SWEETLY FLOWS
 THAT LIQUEFACTION OF HER CLOTHES.

 NEXT, WHEN I CAST MINE EYES, AND SEE
 THAT BRAVE VIBRATION, EACH WAY FREE,
 O, HOW THAT GLITTERING TAKETH ME!
     -- ROBERT HERRICK, 1648
 Job cpu time:       2 days  5 hours 55 minutes  2.9 seconds.
 Elapsed time:       0 days  0 hours 46 minutes 40.1 seconds.
 File lengths (MBytes):  RWF=   1208 Int=      0 D2E=      0 Chk=    155 Scr=      1
 Normal termination of Gaussian 16 at Wed Oct 30 11:52:40 2024.
 Initial command:
 /sw/chem/gaussian/g16_C02/a100/g16/l1.exe "/local/bebjones_8064783/Gau-1092872.inp" -scrdir="/local/bebjones_8064783/"
 Entering Link 1 = /sw/chem/gaussian/g16_C02/a100/g16/l1.exe PID=   1094611.
  
 Copyright (c) 1988-2021, Gaussian, Inc.  All Rights Reserved.
  
 This is part of the Gaussian(R) 16 program.  It is based on
 the Gaussian(R) 09 system (copyright 2009, Gaussian, Inc.),
 the Gaussian(R) 03 system (copyright 2003, Gaussian, Inc.),
 the Gaussian(R) 98 system (copyright 1998, Gaussian, Inc.),
 the Gaussian(R) 94 system (copyright 1995, Gaussian, Inc.),
 the Gaussian 92(TM) system (copyright 1992, Gaussian, Inc.),
 the Gaussian 90(TM) system (copyright 1990, Gaussian, Inc.),
 the Gaussian 88(TM) system (copyright 1988, Gaussian, Inc.),
 the Gaussian 86(TM) system (copyright 1986, Carnegie Mellon
 University), and the Gaussian 82(TM) system (copyright 1983,
 Carnegie Mellon University). Gaussian is a federally registered
 trademark of Gaussian, Inc.
  
 This software contains proprietary and confidential information,
 including trade secrets, belonging to Gaussian, Inc.
  
 This software is provided under written license and may be
 used, copied, transmitted, or stored only in accord with that
 written license.
  
 The following legend is applicable only to US Government
 contracts under FAR:
  
                    RESTRICTED RIGHTS LEGEND
  
 Use, reproduction and disclosure by the US Government is
 subject to restrictions as set forth in subparagraphs (a)
 and (c) of the Commercial Computer Software - Restricted
 Rights clause in FAR 52.227-19.
  
 Gaussian, Inc.
 340 Quinnipiac St., Bldg. 40, Wallingford CT 06492
  
  
 ---------------------------------------------------------------
 Warning -- This program may not be used in any manner that
 competes with the business of Gaussian, Inc. or will provide
 assistance to any competitor of Gaussian, Inc.  The licensee
 of this program is prohibited from giving any competitor of
 Gaussian, Inc. access to this program.  By using this program,
 the user acknowledges that Gaussian, Inc. is engaged in the
 business of creating and licensing software in the field of
 computational chemistry and represents and warrants to the
 licensee that it is not a competitor of Gaussian, Inc. and that
 it will not use this program in any manner prohibited above.
 ---------------------------------------------------------------
  

 Cite this work as:
 Gaussian 16, Revision C.02,
 M. J. Frisch, G. W. Trucks, H. B. Schlegel, G. E. Scuseria, 
 M. A. Robb, J. R. Cheeseman, G. Scalmani, V. Barone, 
 G. A. Petersson, H. Nakatsuji, X. Li, M. Caricato, A. V. Marenich, 
 J. Bloino, B. G. Janesko, R. Gomperts, B. Mennucci, H. P. Hratchian, 
 J. V. Ortiz, A. F. Izmaylov, J. L. Sonnenberg, D. Williams-Young, 
[...]
                                                    154(r),150(r),171(r)
   140. CR (   1) C  67                  1.99940   -10.05890  1526(v),1332(v),1324(v)
                                                    1524(v)
   141. CR (   1) N  71                  1.99938   -14.22001  1352(v),1326(v),1320(v)
                                                    1327(v),1522(v)
   142. CR (   1) C  73                  1.99915   -10.08804  1409(v),1526(g),1532(v)
                                                    1254(v)
   143. CR (   1) C  74                  1.99935   -10.11985  1382(v),1523(v),1531(v)
                                                    151(r),150(r),154(r)
   144. CR (   1) N  76                  1.99932   -14.15147  150(r),151(r),154(r),1350(v)
                                                    1407(v),1528(v),172(r)
                                                    168(r),174(r)
   145. CR (   1) C  77                  1.99898   -10.05792  1522(v),1324(v),1526(g)
                                                    1383(v),1434(v),1327(v)
                                                    150(r),151(r)
   163. LP (   1) N  71                  1.57935    -0.28298  1530(v),1527(v),1353(v)
                                                    1325(v),1319(v),1351(v)
   164. LP (   1) N  76                  1.61152    -0.36350  150(r),151(r),154(r),1525(v)
                                                    1526(v),1350(v),1528(v)
                                                    1532(v),1529(g),1407(v)
                                                    1384(g),157(r),1531(g)
                                                    170(r),1383(g),183(r),273(r)
                                                    221(r),195(r),247(r),272(r)
                                                    246(r),194(r),192(r),220(r)
                                                    1439(r),1444(r),1446(r)
                                                    1438(r),1443(r),1441(r)
                                                    1442(r),244(r),1447(r)
                                                    1448(r),178(r),149(r),270(r)
                                                    169(r)
  1252. RY*(   1) C  67                  0.00118     1.16004   
  1253. RY*(   2) C  67                  0.00079     2.00984   
  1254. RY*(   3) C  67                  0.00051     1.33346   
  1255. RY*(   4) C  67                  0.00012     1.25099   
  1256. RY*(   5) C  67                  0.00008     2.20679   
  1257. RY*(   6) C  67                  0.00007     1.30336   
  1258. RY*(   7) C  67                  0.00001     1.82917   
  1259. RY*(   8) C  67                  0.00001     1.89342   
  1260. RY*(   9) C  67                  0.00001     1.43751   
  1261. RY*(  10) C  67                  0.00000     3.19293   
  1262. RY*(  11) C  67                  0.00000     2.51292   
  1263. RY*(  12) C  67                  0.00001     1.48263   
  1264. RY*(  13) C  67                  0.00000     2.51009   
  1265. RY*(  14) C  67                  0.00000     2.97924   
  1266. RY*(  15) C  67                  0.00000     2.43457   
  1267. RY*(  16) C  67                  0.00000     2.66637   
  1268. RY*(  17) C  67                  0.00001     2.29175   
  1269. RY*(  18) C  67                  0.00000    21.60119   
  1270. RY*(  19) C  67                  0.00001     2.71377   
  1271. RY*(  20) C  67                  0.00000     3.67520   
  1272. RY*(  21) C  67                  0.00001     3.37028   
  1273. RY*(  22) C  67                  0.00001     3.42853   
  1274. RY*(  23) C  67                  0.00000     3.33787   
  1275. RY*(  24) C  67                  0.00000     3.75898   
  1276. RY*(  25) C  67                  0.00000     3.32920   
  1277. RY*(  26) C  67                  0.00000     3.29401   
  1278. RY*(   1) H  68                  0.00074     1.00274   
  1279. RY*(   2) H  68                  0.00015     1.69503   
  1280. RY*(   3) H  68                  0.00008     1.95880   
  1281. RY*(   4) H  68                  0.00006     2.01276   
  1282. RY*(   5) H  68                  0.00000     2.88258   
  1283. RY*(   1) H  69                  0.00075     0.99066   
  1284. RY*(   2) H  69                  0.00015     1.69643   
  1285. RY*(   3) H  69                  0.00008     1.96636   
  1286. RY*(   4) H  69                  0.00006     2.01487   
  1287. RY*(   5) H  69                  0.00000     2.88141   
  1288. RY*(   1) H  70                  0.00024     1.37445   
  1289. RY*(   2) H  70                  0.00012     1.74228   
  1290. RY*(   3) H  70                  0.00008     2.05796   
  1291. RY*(   4) H  70                  0.00002     1.59902   
  1292. RY*(   5) H  70                  0.00001     2.87424   
  1293. RY*(   1) N  71                  0.00282     0.66864   
  1294. RY*(   2) N  71                  0.00225     1.78059   
  1295. RY*(   3) N  71                  0.00100     2.08818   
  1296. RY*(   4) N  71                  0.00077     2.16268   
  1297. RY*(   5) N  71                  0.00053     1.16021   
  1298. RY*(   6) N  71                  0.00027     2.03794   
  1299. RY*(   7) N  71                  0.00020     1.71852   
  1300. RY*(   8) N  71                  0.00007     2.54101   
  1301. RY*(   9) N  71                  0.00007     2.24222   
  1302. RY*(  10) N  71                  0.00006     3.73260   
  1303. RY*(  11) N  71                  0.00004     2.89541   
  1304. RY*(  12) N  71                  0.00000    30.54647   
  1305. RY*(  13) N  71                  0.00000     2.35272   
  1306. RY*(  14) N  71                  0.00001     3.45845   
  1307. RY*(  15) N  71                  0.00001     4.09241   
  1308. RY*(  16) N  71                  0.00000     2.48812   
  1309. RY*(  17) N  71                  0.00000     4.06137   
  1310. RY*(  18) N  71                  0.00001     3.77572   
  1311. RY*(  19) N  71                  0.00000     4.59008   
  1312. RY*(  20) N  71                  0.00000     4.62364   
  1313. RY*(  21) N  71                  0.00000     4.63005   
  1314. RY*(  22) N  71                  0.00000     4.56055   
  1315. RY*(  23) N  71                  0.00000     4.29538   
  1316. RY*(  24) N  71                  0.00000     4.56400   
  1317. RY*(  25) N  71                  0.00000     4.44930   
  1318. RY*(  26) N  71                  0.00000     4.37093   
  1319. RY*(   1) H  72                  0.00057     2.15210   
  1320. RY*(   2) H  72                  0.00039     2.13525   
  1321. RY*(   3) H  72                  0.00030     1.04707   
  1322. RY*(   4) H  72                  0.00021     2.52232   
  1323. RY*(   5) H  72                  0.00001     3.08029   
  1324. RY*(   1) C  73                  0.00406     1.69488   
  1325. RY*(   2) C  73                  0.00261     0.98480   
  1326. RY*(   3) C  73                  0.00191     1.49232   
  1327. RY*(   4) C  73                  0.00162     2.03247   
  1328. RY*(   5) C  73                  0.00123     1.76089   
  1329. RY*(   6) C  73                  0.00110     1.73102   
  1330. RY*(   7) C  73                  0.00037     2.86016   
  1331. RY*(   8) C  73                  0.00019     2.73091   
  1332. RY*(   9) C  73                  0.00016     2.54952   
  1333. RY*(  10) C  73                  0.00007     3.64683   
  1334. RY*(  11) C  73                  0.00003     2.66735   
  1335. RY*(  12) C  73                  0.00001     1.62796   
  1336. RY*(  13) C  73                  0.00001     2.73274   
  1337. RY*(  14) C  73                  0.00001     1.89247   
  1338. RY*(  15) C  73                  0.00001     1.59408   
  1339. RY*(  16) C  73                  0.00000     1.07966   
  1340. RY*(  17) C  73                  0.00001     1.92951   
  1341. RY*(  18) C  73                  0.00000    21.14456   
  1342. RY*(  19) C  73                  0.00000     3.60642   
  1343. RY*(  20) C  73                  0.00000     4.10145   
  1344. RY*(  21) C  73                  0.00000     3.58299   
  1345. RY*(  22) C  73                  0.00000     3.57753   
  1346. RY*(  23) C  73                  0.00000     3.32473   
  1347. RY*(  24) C  73                  0.00000     3.80364   
  1348. RY*(  25) C  73                  0.00000     3.51555   
  1349. RY*(  26) C  73                  0.00000     3.53529   
  1350. RY*(   1) C  74                  0.00409     1.60012   
  1351. RY*(   2) C  74                  0.00327     0.67269   
  1352. RY*(   3) C  74                  0.00201     1.33815   
  1353. RY*(   4) C  74                  0.00128     2.56483   
  1354. RY*(   5) C  74                  0.00080     1.65524   
  1355. RY*(   6) C  74                  0.00039     1.66304   
  1356. RY*(   7) C  74                  0.00027     1.91037   
  1357. RY*(   8) C  74                  0.00009     2.75404   
  1358. RY*(   9) C  74                  0.00005     1.99869   
  1359. RY*(  10) C  74                  0.00005     2.62231   
  1360. RY*(  11) C  74                  0.00003     1.57115   
  1361. RY*(  12) C  74                  0.00004     3.47738   
  1362. RY*(  13) C  74                  0.00002     3.67597   
  1363. RY*(  14) C  74                  0.00002     2.76145   
  1364. RY*(  15) C  74                  0.00001     2.47735   
  1365. RY*(  16) C  74                  0.00000     3.15193   
  1366. RY*(  17) C  74                  0.00000     2.91108   
  1367. RY*(  18) C  74                  0.00000    21.49040   
  1368. RY*(  19) C  74                  0.00001     3.66859   
  1369. RY*(  20) C  74                  0.00001     2.42169   
  1370. RY*(  21) C  74                  0.00000     3.80496   
  1371. RY*(  22) C  74                  0.00000     3.87884   
  1372. RY*(  23) C  74                  0.00000     3.61839   
  1373. RY*(  24) C  74                  0.00000     3.79758   
  1374. RY*(  25) C  74                  0.00000     3.47230   
  1375. RY*(  26) C  74                  0.00000     3.38275   
  1376. RY*(   1) H  75                  0.00058     0.89787   
  1377. RY*(   2) H  75                  0.00030     2.35272   
  1378. RY*(   3) H  75                  0.00021     2.12794   
  1379. RY*(   4) H  75                  0.00012     2.40898   
  1380. RY*(   5) H  75                  0.00002     3.14767   
  1381. RY*(   1) N  76                  0.00755     0.85784   
  1382. RY*(   2) N  76                  0.00715     1.30891   
  1383. RY*(   3) N  76                  0.00590     1.43277   
  1384. RY*(   4) N  76                  0.00079     1.57399   
  1385. RY*(   5) N  76                  0.00072     1.70127   
  1386. RY*(   6) N  76                  0.00055     1.97524   
  1387. RY*(   7) N  76                  0.00037     3.46732   
  1388. RY*(   8) N  76                  0.00033     3.18407   
  1389. RY*(   9) N  76                  0.00011     2.78118   
  1390. RY*(  10) N  76                  0.00009     3.24004   
  1391. RY*(  11) N  76                  0.00009     2.44395   
  1392. RY*(  12) N  76                  0.00007     3.42462   
  1393. RY*(  13) N  76                  0.00006     3.11875   
  1394. RY*(  14) N  76                  0.00004     3.65408   
  1395. RY*(  15) N  76                  0.00001     4.48896   
  1396. RY*(  16) N  76                  0.00001     4.00661   
  1397. RY*(  17) N  76                  0.00002     4.49599   
  1398. RY*(  18) N  76                  0.00001     4.65956   
  1399. RY*(  19) N  76                  0.00000     4.82768   
  1400. RY*(  20) N  76                  0.00000     4.35745   
  1401. RY*(  21) N  76                  0.00001     4.44692   
  1402. RY*(  22) N  76                  0.00000    31.57051   
  1403. RY*(  23) N  76                  0.00000     4.66580   
  1404. RY*(  24) N  76                  0.00000     4.82882   
  1405. RY*(  25) N  76                  0.00000     4.64221   
  1406. RY*(  26) N  76                  0.00000     4.59095   
  1407. RY*(   1) C  77                  0.00402     1.48981   
  1408. RY*(   2) C  77                  0.00259     0.72090   
  1409. RY*(   3) C  77                  0.00169     1.84306   
  1410. RY*(   4) C  77                  0.00069     2.03487   
  1411. RY*(   5) C  77                  0.00057     1.59237   
  1412. RY*(   6) C  77                  0.00047     1.96822   
  1413. RY*(   7) C  77                  0.00042     1.95830   
  1414. RY*(   8) C  77                  0.00024     1.46496   
  1415. RY*(   9) C  77                  0.00021     1.66203   
  1416. RY*(  10) C  77                  0.00015     1.74943   
  1417. RY*(  11) C  77                  0.00010     1.33101   
  1418. RY*(  12) C  77                  0.00005     1.84009   
  1419. RY*(  13) C  77                  0.00006     2.25143   
  1420. RY*(  14) C  77                  0.00005     3.04579   
  1421. RY*(  15) C  77                  0.00002     3.33423   
  1422. RY*(  16) C  77                  0.00003     1.60048   
  1423. RY*(  17) C  77                  0.00000     3.23594   
  1424. RY*(  18) C  77                  0.00001     3.70922   
  1425. RY*(  19) C  77                  0.00000    21.55303   
  1426. RY*(  20) C  77                  0.00001     3.93310   
  1427. RY*(  21) C  77                  0.00001     3.75588   
  1428. RY*(  22) C  77                  0.00001     3.77880   
  1429. RY*(  23) C  77                  0.00001     3.36607   
  1430. RY*(  24) C  77                  0.00000     3.78691   
  1431. RY*(  25) C  77                  0.00000     3.59191   
  1432. RY*(  26) C  77                  0.00000     3.53608   
  1433. RY*(   1) H  78                  0.00051     0.74633   
  1434. RY*(   2) H  78                  0.00034     2.32165   
  1435. RY*(   3) H  78                  0.00025     2.30144   
  1436. RY*(   4) H  78                  0.00008     2.75034   
  1437. RY*(   5) H  78                  0.00001     3.11424   
  1519. BD*(   1) C  67 - H  68          0.01198     0.35988   
  1520. BD*(   1) C  67 - H  69          0.01188     0.35956   
  1521. BD*(   1) C  67 - H  70          0.00345     0.37293   
  1522. BD*(   1) C  67 - C  73          0.01373     0.38959   
  1523. BD*(   1) N  71 - H  72          0.01419     0.36785   
  1524. BD*(   1) N  71 - C  73          0.02722     0.43065   
  1525. BD*(   1) N  71 - C  74          0.02243     0.44824   
  1526. BD*(   1) C  73 - C  77          0.02110     0.56709   
  1527. BD*(   2) C  73 - C  77          0.30024     0.03564  1530(v),1519(v),1520(v)
                                                    1328(g),1460(r)
  1528. BD*(   1) C  74 - H  75          0.01832     0.39378   
  1529. BD*(   1) C  74 - N  76          0.01629     0.53755   
  1530. BD*(   2) C  74 - N  76          0.41901    -0.00459  1527(v),1351(g),1381(g)
                                                    1408(v),153(r),1440(r)
                                                    157(r)
  1531. BD*(   1) N  76 - C  77          0.01655     0.48166   
  1532. BD*(   1) C  77 - H  78          0.01490     0.43378   
       -------------------------------
              Total Lewis   42.69060  ( 97.7339%)
        Valence non-Lewis    0.91129  (  2.0863%)
        Rydberg non-Lewis    0.07853  (  0.1798%)
       -------------------------------
            Total unit  4   43.68042  (100.0000%)
           Charge unit  4    0.31958
 Unable to Open any file for archive entry.
 1\1\GINC-BGN1020\SP\RAPFD\def2TZVP\C34H36Fe1N6O1\BEBJONES\30-Oct-2024\
 0\\# apfd/def2TZVP int=(grid=ultrafine) geom=check guess=read pop=nbo 
 scf=qc\\4xmc_II_S_nbo\\0,1\Fe,0,8.0441160083,-6.9782946365,9.037652381
 7\N,0,8.7809385102,-8.8242341902,9.0518686925\N,0,9.6007475561,-6.3265
 23882,10.1405643684\N,0,7.2439778327,-5.1341456358,9.1136418407\N,0,6.
 4150214476,-7.6245453435,8.0681840982\C,0,8.1881939529,-9.9456940265,8
 .5678638153\C,0,8.9847910837,-11.1168422134,8.8654951851\C,0,10.073799
 6261,-10.6740816289,9.5474319911\C,0,9.9279917865,-9.2377164772,9.6558
 084169\C,0,10.7098163976,-7.0511476071,10.4548633081\C,0,11.7223989896
 ,-6.2102822279,11.0334506862\C,0,11.2100976842,-4.9399380637,11.046772
 2139\C,0,9.8763891802,-5.0429791486,10.4901645669\C,0,7.7658282508,-4.
 0425825044,9.7400897101\C,0,6.8863184656,-2.9080542129,9.614826671\C,0
 ,5.8068551455,-3.3364841969,8.8889598667\C,0,6.0570726002,-4.734017787
 8,8.5910219985\C,0,5.3845794099,-6.8729673056,7.6001253586\C,0,4.47987
 89079,-7.6776779861,6.80934509\C,0,4.9890319323,-8.9389808412,6.814841
 2071\C,0,6.1967873371,-8.8853031052,7.6084356709\C,0,7.0060446539,-9.9
 793142133,7.8526001068\H,0,6.681543408,-10.9347880446,7.4691370576\C,0
 ,10.8484550068,-8.4191760628,10.2799101465\H,0,11.752023107,-8.8773206
 904,10.6534838099\C,0,8.9979930025,-3.9843036497,10.3660892978\H,0,9.3
 020228707,-3.0382117248,10.7856084788\C,0,5.1940349418,-5.5287723625,7
 .8590732722\H,0,4.3069449517,-5.0657256123,7.4541339021\C,0,11.2195231
 231,-11.4472903307,10.1052542879\H,0,12.1570570646,-11.1288386912,9.64
 80775578\H,0,11.0943724211,-12.511553111,9.9211506789\H,0,11.299197017
 3,-11.2922701612,11.1814408934\C,0,8.6149377702,-12.5062731494,8.47351
 21333\H,0,8.5395576505,-12.5908300837,7.3890255888\H,0,7.6505999798,-1
 2.7815559089,8.9012096535\H,0,9.3597686404,-13.2184086458,8.8207476686
 \C,0,13.0691802438,-6.670061241,11.4745409467\H,0,13.63269097,-7.07378
 43094,10.6326790376\H,0,12.9807169904,-7.4550511517,12.226520928\H,0,1
 3.6354823018,-5.8445021463,11.898355286\C,0,11.8776208992,-3.741097821
 ,11.5124060018\H,0,12.490492485,-3.8686565115,12.3989473218\C,0,11.829
 142899,-2.5481065608,10.9311057989\H,0,12.3581841426,-1.7015402368,11.
 337076763\H,0,11.2819669566,-2.3785656756,10.0194270606\C,0,7.11181224
 98,-1.5761608384,10.2411031108\H,0,7.7698063941,-0.96170263,9.62427970
 99\H,0,7.5742514025,-1.6843228487,11.2209318669\H,0,6.1645324619,-1.05
 33579916,10.3576629049\C,0,4.6218505962,-2.6084424164,8.4934462387\H,0
 ,3.7095790315,-3.1917333102,8.4432353341\C,0,4.574223048,-1.3150714873
 ,8.1899344227\H,0,5.4544003857,-0.6962573722,8.1770870973\H,0,3.649143
 4103,-0.8340613345,7.9179618401\C,0,3.2480753894,-7.1575719083,6.15030
 73347\H,0,3.4913522526,-6.3442174063,5.4660859509\H,0,2.5483756796,-6.
 774337292,6.8936647861\H,0,2.7502094999,-7.9424337152,5.5860953848\C,0
 ,4.4650535564,-10.171767214,6.1612215398\H,0,3.5557610107,-9.958450711
 ,5.6044482587\H,0,4.2389162417,-10.9346912669,6.9067029417\H,0,5.20254
 6363,-10.5825565729,5.4713213903\O,0,7.043,-7.413,11.025\H,0,7.589,-7.
 035,11.715\H,0,6.297,-7.883,11.143\C,0,11.7574504969,-6.5003671535,4.9
 064482306\H,0,12.1276417589,-5.5042650158,4.6641915267\H,0,11.55383096
 31,-7.0247124012,3.972850534\H,0,12.5314833833,-7.0373799606,5.4455495
 29\N,0,9.3875311945,-5.8019947207,5.3162893288\H,0,9.2583694784,-5.352
 7528974,4.4246083498\C,0,10.5337689428,-6.4195010128,5.7437088721\C,0,
 8.4722131251,-5.9056878045,6.3066346032\H,0,7.4786432273,-5.5106919214
 ,6.2506692978\N,0,8.9691910948,-6.5512815,7.3341309037\C,0,10.25094204
 38,-6.877000906,6.9987031105\H,0,10.8784780067,-7.4148738218,7.6785711
 494\\Version=ES64L-G16RevC.02\State=1-A\HF=-2984.0266265\RMSD=2.137e-0
 9\Dipole=0.5308821,-0.2227656,-1.2450467\Quadrupole=-2.0551563,-6.1041
 933,8.1593496,1.9498164,-2.6038219,-5.6148861\PG=C01 [X(C34H36Fe1N6O1)
 ]\\@
 The archive entry for this job was punched.


 ERROR IS THE FORCE THAT WELDS MEN TOGETHER....
 TRUTH IS COMMUNICATED TO MEN ONLY BY DEEDS OF TRUTH.
           TOLSTOI,MY RELIGION
 Job cpu time:       0 days  0 hours 45 minutes 58.4 seconds.
 Elapsed time:       0 days  0 hours  0 minutes 54.8 seconds.
 File lengths (MBytes):  RWF=    792 Int=      0 D2E=      0 Chk=    155 Scr=      1
 Normal termination of Gaussian 16 at Wed Oct 30 11:53:37 2024.
