 Entering Gaussian System, Link 0=g16
 Input=5a5i01.com
 Output=5a5i01.log
 Initial command:
 /sw/chem/gaussian/g16_C02/a100/g16/l1.exe "/local/becsleip_8014614/Gau-675392.inp" -scrdir="/local/becsleip_8014614/"
 Entering Link 1 = /sw/chem/gaussian/g16_C02/a100/g16/l1.exe PID=    675393.
  
 Copyright (c) 1988-2021, Gaussian, Inc.  All Rights Reserved.
  
 This is part of the Gaussian(R) 16 program.  It is based on
 the Gaussian(R) 09 system (copyright 2009, Gaussian, Inc.),
 the Gaussian(R) 03 system (copyright 2003, Gaussian, Inc.),
 the Gaussian(R) 98 system (copyright 1998, Gaussian, Inc.),
 the Gaussian(R) 94 system (copyright 1995, Gaussian, Inc.),
 the Gaussian 92(TM) system (copyright 1992, Gaussian, Inc.),
 the Gaussian 90(TM) system (copyright 1990, Gaussian, Inc.),
 the Gaussian 88(TM) system (copyright 1988, Gaussian, Inc.),
 the Gaussian 86(TM) system (copyright 1986, Carnegie Mellon
 University), and the Gaussian 82(TM) system (copyright 1983,
 Carnegie Mellon University). Gaussian is a federally registered
 trademark of Gaussian, Inc.
  
 This software contains proprietary and confidential information,
 including trade secrets, belonging to Gaussian, Inc.
  
 This software is provided under written license and may be
 used, copied, transmitted, or stored only in accord with that
 written license.
  
 The following legend is applicable only to US Government
 contracts under FAR:
  
                    RESTRICTED RIGHTS LEGEND
  
 Use, reproduction and disclosure by the US Government is
 subject to restrictions as set forth in subparagraphs (a)
 and (c) of the Commercial Computer Software - Restricted
 Rights clause in FAR 52.227-19.
  
 Gaussian, Inc.
 340 Quinnipiac St., Bldg. 40, Wallingford CT 06492
  
  
 ---------------------------------------------------------------
 Warning -- This program may not be used in any manner that
 competes with the business of Gaussian, Inc. or will provide
 assistance to any competitor of Gaussian, Inc.  The licensee
 of this program is prohibited from giving any competitor of
 Gaussian, Inc. access to this program.  By using this program,
 the user acknowledges that Gaussian, Inc. is engaged in the
 business of creating and licensing software in the field of
 computational chemistry and represents and warrants to the
 licensee that it is not a competitor of Gaussian, Inc. and that
 it will not use this program in any manner prohibited above.
 ---------------------------------------------------------------
  

 Cite this work as:
 Gaussian 16, Revision C.02,
 M. J. Frisch, G. W. Trucks, H. B. Schlegel, G. E. Scuseria, 
 M. A. Robb, J. R. Cheeseman, G. Scalmani, V. Barone, 
 G. A. Petersson, H. Nakatsuji, X. Li, M. Caricato, A. V. Marenich, 
 J. Bloino, B. G. Janesko, R. Gomperts, B. Mennucci, H. P. Hratchian, 
 J. V. Ortiz, A. F. Izmaylov, J. L. Sonnenberg, D. Williams-Young, 
 F. Ding, F. Lipparini, F. Egidi, J. Goings, B. Peng, A. Petrone, 
 T. Henderson, D. Ranasinghe, V. G. Zakrzewski, J. Gao, N. Rega, 
 G. Zheng, W. Liang, M. Hada, M. Ehara, K. Toyota, R. Fukuda, 
 J. Hasegawa, M. Ishida, T. Nakajima, Y. Honda, O. Kitao, H. Nakai, 
 T. Vreven, K. Throssell, J. A. Montgomery, Jr., J. E. Peralta, 
 F. Ogliaro, M. J. Bearpark, J. J. Heyd, E. N. Brothers, K. N. Kudin, 
 V. N. Staroverov, T. A. Keith, R. Kobayashi, J. Normand, 
 K. Raghavachari, A. P. Rendell, J. C. Burant, S. S. Iyengar, 
 J. Tomasi, M. Cossi, J. M. Millam, M. Klene, C. Adamo, R. Cammi, 
 J. W. Ochterski, R. L. Martin, K. Morokuma, O. Farkas, 
 J. B. Foresman, and D. J. Fox, Gaussian, Inc., Wallingford CT, 2019.
 
 ******************************************
 Gaussian 16:  ES64L-G16RevC.02  7-Dec-2021
                12-Sep-2024 
 ******************************************
 %mem=16GB
 %CPU=0-71
 SetSPE:  set environment variable "OMP_PROC_BIND" = "true"
 SetSPE:  set environment variable "OMP_PLACES" = "{0},{1},{2},{3},{4},{5},{6},{7},{8},{9},{10},{11},{12},{13},{14},{15},{16},{17},{18},{19},{20},{21},{22},{23},{24},{25},{26},{27},{28},{29},{30},{31},{32},{33},{34},{35},{36},{37},{38},{39},{40},{41},{42},{43},{44},{45},{46},{47},{48},{49},{50},{51},{52},{53},{54},{55},{56},{57},{58},{59},{60},{61},{62},{63},{64},{65},{66},{67},{68},{69},{70},{71}"
 Will use up to   72 processors via shared memory.
 %gpucpu=0,1,2,3=0,1,2,3
 Will use    4 GPUs:
 Thread  CPU   GPU
      0    0     0
      1    1     1
      2    2     2
      3    3     3
      4    4    -1
      5    5    -1
      6    6    -1
      7    7    -1
      8    8    -1
      9    9    -1
     10   10    -1
     11   11    -1
     12   12    -1
     13   13    -1
     14   14    -1
     15   15    -1
     16   16    -1
     17   17    -1
     18   18    -1
     19   19    -1
     20   20    -1
     21   21    -1
     22   22    -1
     23   23    -1
     24   24    -1
     25   25    -1
     26   26    -1
     27   27    -1
     28   28    -1
     29   29    -1
     30   30    -1
     31   31    -1
     32   32    -1
     33   33    -1
     34   34    -1
     35   35    -1
     36   36    -1
     37   37    -1
     38   38    -1
     39   39    -1
     40   40    -1
     41   41    -1
     42   42    -1
     43   43    -1
     44   44    -1
     45   45    -1
     46   46    -1
     47   47    -1
     48   48    -1
     49   49    -1
     50   50    -1
     51   51    -1
     52   52    -1
     53   53    -1
     54   54    -1
     55   55    -1
     56   56    -1
     57   57    -1
     58   58    -1
     59   59    -1
     60   60    -1
     61   61    -1
     62   62    -1
     63   63    -1
     64   64    -1
     65   65    -1
     66   66    -1
     67   67    -1
     68   68    -1
     69   69    -1
     70   70    -1
     71   71    -1
 SetGPE:  set environment variable "OMP_PROC_BIND" = "true"
 SetGPE:  set environment variable "OMP_PLACES" = "{0},{1},{2},{3},{4},{5},{6},{7},{8},{9},{10},{11},{12},{13},{14},{15},{16},{17},{18},{19},{20},{21},{22},{23},{24},{25},{26},{27},{28},{29},{30},{31},{32},{33},{34},{35},{36},{37},{38},{39},{40},{41},{42},{43},{44},{45},{46},{47},{48},{49},{50},{51},{52},{53},{54},{55},{56},{57},{58},{59},{60},{61},{62},{63},{64},{65},{66},{67},{68},{69},{70},{71}"
 %chk=5a5i_II_O.chk
 Properties for Device   0
 Minimum vector length:                              32
 Maximum vector length:                            1024
 Number of SMPs:                                    108
 Maximum number of threads per SMP:                2048
 Number of ASync Engines:                             5
 Memory:                                           9207742464
 Properties for Device   1
 Minimum vector length:                              32
 Maximum vector length:                            1024
 Number of SMPs:                                    108
 Maximum number of threads per SMP:                2048
 Number of ASync Engines:                             5
 Memory:                                           9207742464
 Properties for Device   2
 Minimum vector length:                              32
 Maximum vector length:                            1024
 Number of SMPs:                                    108
 Maximum number of threads per SMP:                2048
 Number of ASync Engines:                             5
 Memory:                                           9207742464
 Properties for Device   3
 Minimum vector length:                              32
 Maximum vector length:                            1024
 Number of SMPs:                                    108
 Maximum number of threads per SMP:                2048
 Number of ASync Engines:                             5
 Memory:                                           9207742464
   8286968217 words of memory will be used on each GPU.
 ------------------------------------------
 # polar def2tzvp apfd int=(grid=ultrafine)
 ------------------------------------------
 1/38=1,172=1/1;
 2/12=2,17=6,18=5,40=1/2;
 3/5=44,7=101,11=2,25=1,30=1,74=-44,75=-5/1,2,3;
 4//1;
 5/5=2,38=5,98=1/2;
 8/6=4,10=90,11=11/1;
 10/6=1,13=10/2;
 6/7=2,8=2,9=2,10=2,28=1/1;
 99/5=1,9=1/99;
 ---------
 5a5i_II_S
 ---------
 Symbolic Z-matrix:
 Charge =  0 Multiplicity = 1
 Fe                    64.64579   8.92326  -1.3057 
 N                     64.75006   9.26164  -3.29511 
 N                     65.43207   10.74904  -0.99013 
 N                     64.66104   8.55683   0.64937 
 N                     63.95964   7.08779  -1.65393 
 C                     64.47862   8.37409  -4.28875 
 C                     64.61632   8.99601  -5.58489 
 C                     65.02308   10.27392  -5.35429 
 C                     65.13162   10.41122  -3.92023 
 C                     65.75658   11.68738  -1.92215 
 C                     66.29202   12.8689  -1.29647 
 C                     66.30865   12.61702   0.04937 
 C                     65.7804   11.2766   0.21256 
 C                     65.04046   9.4152    1.63265 
 C                     64.7393   8.86598   2.92967 
 C                     64.23786   7.61238   2.71113 
 C                     64.20856   7.43967   1.2717 
 C                     63.77351   6.10363  -0.73628 
 C                     63.37439   4.86964  -1.37663 
 C                     63.40682   5.10923  -2.71349 
 C                     63.82137   6.4879   -2.86746 
 C                     64.02137   7.08392  -4.09675 
 H                     63.84455   6.48389  -4.97583 
 C                     65.5977   11.54735  -3.29006 
 H                     65.88454   12.37908  -3.91432 
 C                     65.57685   10.67512   1.43857 
 H                     65.87114   11.22441   2.31938 
 C                     63.81406   6.27883   0.63372 
 H                     63.58573   5.42673   1.25446 
 C                     65.32822   11.35948  -6.32819 
 H                     65.13278   11.03102  -7.34585 
 H                     66.37592   11.6541  -6.25873 
 H                     64.71642   12.23943  -6.12832 
 C                     64.35738   8.30612  -6.87959 
 H                     63.3193   7.97811  -6.93857 
 H                     64.99499   7.42758  -6.97984 
 H                     64.55506   8.96968  -7.71775 
 C                     66.66686   14.12092  -2.00933 
 H                     65.97094   14.32739  -2.82134 
 H                     67.66835   14.04152  -2.4354 
 H                     66.6539   14.96089  -1.31791 
 C                     66.73894   13.47268   1.13375 
 H                     66.18855   13.36643   2.06134 
 C                     67.73662   14.34822   1.07401 
 H                     68.34797   14.462    0.19586 
 H                     67.99497   14.96559   1.91827 
 C                     64.95773   9.56414   4.22666 
 H                     64.35707   10.47271   4.27671 
 H                     66.00495   9.84571   4.34209 
 H                     64.67497   8.92266   5.05737 
 C                     63.77653   6.67163   3.71313 
 H                     64.37906   6.62291   4.61402 
 C                     62.68464   5.92181   3.62328 
 H                     62.02417   5.97645   2.7747 
 H                     62.3985   5.2458    4.41207 
 C                     63.03044   3.61885  -0.64478 
 H                     62.16931   3.78082   0.00368 
 H                     63.86525   3.29756  -0.02196 
 H                     62.79101   2.81723  -1.33909 
 C                     63.10376   4.18965  -3.84609 
 H                     62.78026   3.21929  -3.47804 
 H                     63.98666   4.04295  -4.46902 
 H                     62.31186   4.60025  -4.47262 
 O                     66.735    8.161    -1.552 
 H                     66.929    8.448    -2.444 
 H                     67.253    7.653    -1.039 
 C                     61.86484   10.3229  -2.73583 
 H                     62.63174   10.918   -3.21846 
 H                     60.94489   10.88672  -2.61546 
 H                     61.682    9.4226   -3.31285 
 S                     62.44982   9.77426  -1.09303 
 H                     62.73857   11.00421  -0.65134 
 
 Stoichiometry    C31H34FeN4OS
 Framework group  C1[X(C31H34FeN4OS)]
 Deg. of freedom   210
 Full point group                 C1      NOp   1
 Largest Abelian subgroup         C1      NOp   1
 Largest concise Abelian subgroup C1      NOp   1
                         Standard orientation:                         
 ---------------------------------------------------------------------
 Center     Atomic      Atomic             Coordinates (Angstroms)
 Number     Number       Type             X           Y           Z
 ---------------------------------------------------------------------
      1         26           0       -0.065587    0.099154   -0.080803
      2          7           0        0.652837    1.987518   -0.113532
      3          7           0        1.827349   -0.583644   -0.124288
      4          7           0       -0.760352   -1.762590   -0.170468
      5          7           0       -1.925342    0.805831   -0.134860
      6          6           0       -0.070668    3.133686   -0.221147
      7          6           0        0.789571    4.292040   -0.158455
      8          6           0        2.061136    3.818576   -0.055305
      9          6           0        1.957817    2.377582   -0.060949
     10          6           0        2.975994    0.147618   -0.106501
     11          6           0        4.131804   -0.710672   -0.146346
     12          6           0        3.656071   -1.992914   -0.213629
     13          6           0        2.210195   -1.884145   -0.215019
     14          6           0       -0.022841   -2.904370   -0.174221
     15          6           0       -0.875429   -4.059460   -0.058210
     16          6           0       -2.160999   -3.592555   -0.064082
     17          6           0       -2.060623   -2.148269   -0.145284
     18          6           0       -3.063552    0.082636   -0.298525
     19          6           0       -4.215677    0.950567   -0.405120
     20          6           0       -3.735251    2.221214   -0.387659
     21          6           0       -2.296926    2.108251   -0.266259
     22          6           0       -1.450494    3.199098   -0.268929
     23          1           0       -1.898496    4.176898   -0.354288
     24          6           0        3.046392    1.529009   -0.053101
     25          1           0        4.026544    1.979043   -0.030362
     26          6           0        1.358108   -2.970534   -0.211178
     27          1           0        1.801552   -3.953237   -0.253617
     28          6           0       -3.144643   -1.294982   -0.228989
     29          1           0       -4.121763   -1.743964   -0.313689
     30          6           0        3.345285    4.568956    0.033726
     31          1           0        3.164827    5.640565    0.062032
     32          1           0        3.977774    4.350864   -0.827489
     33          1           0        3.893085    4.289483    0.933935
     34          6           0        0.307536    5.700526   -0.213699
     35          1           0       -0.353988    5.912804    0.626542
     36          1           0       -0.248317    5.879433   -1.134275
     37          1           0        1.141848    6.396582   -0.177121
     38          6           0        5.544442   -0.250423   -0.052270
     39          1           0        5.635139    0.581196    0.645218
     40          1           0        5.910858    0.083269   -1.024494
     41          1           0        6.178810   -1.064410    0.292398
     42          6           0        4.390481   -3.238481   -0.262494
     43          1           0        3.922537   -4.078439    0.237645
     44          6           0        5.560392   -3.419119   -0.865962
     45          1           0        6.047874   -2.634875   -1.418375
     46          1           0        6.060028   -4.373486   -0.850938
     47          6           0       -0.400800   -5.467591    0.037777
     48          1           0        0.205152   -5.605681    0.933623
     49          1           0        0.210987   -5.728655   -0.826418
     50          1           0       -1.244068   -6.151623    0.088131
     51          6           0       -3.374026   -4.378811    0.046406
     52          1           0       -3.370579   -5.314206   -0.503189
     53          6           0       -4.434839   -4.062519    0.779309
     54          1           0       -4.463441   -3.173807    1.386483
     55          1           0       -5.303066   -4.699454    0.818706
     56          6           0       -5.619654    0.468466   -0.526837
     57          1           0       -5.901707   -0.110674    0.352563
     58          1           0       -5.730165   -0.172278   -1.401632
     59          1           0       -6.308983    1.303650   -0.623085
     60          6           0       -4.473451    3.512110   -0.482073
     61          1           0       -5.545684    3.339716   -0.530061
     62          1           0       -4.174382    4.061575   -1.375228
     63          1           0       -4.265168    4.137817    0.385879
     64          8           0        0.033168    0.261180   -2.310261
     65          1           0        0.531852    1.071572   -2.411489
     66          1           0       -0.341290   -0.210561   -2.963559
     67          6           0        0.483364    1.547186    2.975307
     68          1           0        1.392964    1.849796    2.469088
     69          1           0        0.646309    1.427114    4.041947
     70          1           0       -0.297818    2.277707    2.793566
     71         16           0       -0.115233   -0.033856    2.279615
     72          1           0        1.030694   -0.695317    2.481035
 ---------------------------------------------------------------------
 Rotational constants (GHZ):           0.1116314           0.1056630           0.0602721
 Standard basis: def2TZVP (5D, 7F)
 There are  1594 symmetry adapted cartesian basis functions of A   symmetry.
 There are  1402 symmetry adapted basis functions of A   symmetry.
  1402 basis functions,  2279 primitive gaussians,  1594 cartesian basis functions
   149 alpha electrons      149 beta electrons
       nuclear repulsion energy      5416.6514115211 Hartrees.
 NAtoms=   72 NActive=   72 NUniq=   72 SFac= 1.00D+00 NAtFMM=   60 NAOKFM=T Big=T
 Integral buffers will be    131072 words long.
 Raffenetti 2 integral format.
 Two-electron integral symmetry is turned on.
 R6APFD:  NTU= -4 IXU= 1 FactS= 1.050
 Nuclear repulsion after empirical dispersion term =     5416.4994932906 Hartrees.
 One-electron integrals computed using PRISM.
   1 Symmetry operations used in ECPInt.
 ECPInt:  NShTT=  157080 NPrTT=  488567 LenC2=  124980 LenP2D=  259229.
 LDataN:  DoStor=T MaxTD1= 6 Len=  172
 Number of processors reduced to  25 by ecpmxn.
 NBasis=  1402 RedAO= T EigKep=  3.35D-06  NBF=  1402
 NBsUse=  1402 1.00D-06 EigRej= -1.00D+00 NBFU=  1402
 ExpMin= 4.20D-02 ExpMax= 3.01D+05 ExpMxC= 2.91D+03 IAcc=3 IRadAn=         5 AccDes= 0.00D+00
 Harris functional with IExCor= 3731 and IRadAn=       5 diagonalized for initial guess.
 HarFok:  IExCor= 3731 AccDes= 0.00D+00 IRadAn=         5 IDoV= 1 UseB2=F ITyADJ=14
 ICtDFT=  3500011 ScaDFX=  1.000000  1.000000  1.000000  1.000000
 FoFCou: FMM=F IPFlag=           0 FMFlag=      100000 FMFlg1=        2001
         NFxFlg=           0 DoJE=T BraDBF=F KetDBF=T FulRan=T
         wScrn=  0.000000 ICntrl=       500 IOpCl=  0 I1Cent=   200000004 NGrid=           0
         NMat0=    1 NMatS0=      1 NMatT0=    0 NMatD0=    1 NMtDS0=    0 NMtDT0=    0
 Petite list used in FoFCou.
 Requested convergence on RMS density matrix=1.00D-08 within 128 cycles.
 Requested convergence on MAX density matrix=1.00D-06.
 Requested convergence on             energy=1.00D-06.
 No special actions if energy rises.
 EnCoef did     3 forward-backward iterations
 EnCoef did   100 forward-backward iterations
 EnCoef did   100 forward-backward iterations
 EnCoef did   100 forward-backward iterations
 Restarting incremental Fock formation.
 SCF Done:  E(RAPFD) =  -3157.19231608     A.U. after   26 cycles
            NFock= 26  Conv=0.25D-08     -V/T= 2.0031
 DoSCS=F DFT=T ScalE2(SS,OS)=  1.000000  1.000000
 Range of M.O.s used for correlation:     1  1402
 NBasis=  1402 NAE=   149 NBE=   149 NFC=     0 NFV=     0
 NROrb=   1402 NOA=   149 NOB=   149 NVA=  1253 NVB=  1253

 **** Warning!!: The largest alpha MO coefficient is  0.54076462D+02

          Differentiating once with respect to electric field.
                with respect to dipole field.
          Electric field/nuclear overlap derivatives assumed to be zero.
          There are     3 degrees of freedom in the 1st order CPHF.  IDoFFX=0 NUNeed=     3.
      3 vectors produced by pass  0 Test12= 6.22D-12 3.33D-08 XBig12= 1.84D+03 2.84D+01.
 AX will form     3 AO Fock derivatives at one time.
      3 vectors produced by pass  1 Test12= 6.22D-12 3.33D-08 XBig12= 1.16D+03 8.94D+00.
      3 vectors produced by pass  2 Test12= 6.22D-12 3.33D-08 XBig12= 3.99D+02 4.50D+00.
      3 vectors produced by pass  3 Test12= 6.22D-12 3.33D-08 XBig12= 1.83D+02 3.05D+00.
      3 vectors produced by pass  4 Test12= 6.22D-12 3.33D-08 XBig12= 7.89D+01 2.13D+00.
      3 vectors produced by pass  5 Test12= 6.22D-12 3.33D-08 XBig12= 3.50D+01 1.34D+00.
      3 vectors produced by pass  6 Test12= 6.22D-12 3.33D-08 XBig12= 2.02D+01 1.18D+00.
      3 vectors produced by pass  7 Test12= 6.22D-12 3.33D-08 XBig12= 1.50D+01 1.40D+00.
      3 vectors produced by pass  8 Test12= 6.22D-12 3.33D-08 XBig12= 7.35D+00 9.14D-01.
      3 vectors produced by pass  9 Test12= 6.22D-12 3.33D-08 XBig12= 4.04D+00 4.65D-01.
      3 vectors produced by pass 10 Test12= 6.22D-12 3.33D-08 XBig12= 1.68D+00 3.70D-01.
      3 vectors produced by pass 11 Test12= 6.22D-12 3.33D-08 XBig12= 1.00D+00 2.17D-01.
      3 vectors produced by pass 12 Test12= 6.22D-12 3.33D-08 XBig12= 3.94D-01 1.08D-01.
      3 vectors produced by pass 13 Test12= 6.22D-12 3.33D-08 XBig12= 1.09D-01 4.61D-02.
      3 vectors produced by pass 14 Test12= 6.22D-12 3.33D-08 XBig12= 3.34D-02 2.83D-02.
      3 vectors produced by pass 15 Test12= 6.22D-12 3.33D-08 XBig12= 6.43D-03 2.34D-02.
      3 vectors produced by pass 16 Test12= 6.22D-12 3.33D-08 XBig12= 2.00D-03 1.61D-02.
      3 vectors produced by pass 17 Test12= 6.22D-12 3.33D-08 XBig12= 5.96D-04 5.30D-03.
      3 vectors produced by pass 18 Test12= 6.22D-12 3.33D-08 XBig12= 1.72D-04 1.79D-03.
      3 vectors produced by pass 19 Test12= 6.22D-12 3.33D-08 XBig12= 3.14D-05 7.35D-04.
      3 vectors produced by pass 20 Test12= 6.22D-12 3.33D-08 XBig12= 8.43D-06 4.39D-04.
      3 vectors produced by pass 21 Test12= 6.22D-12 3.33D-08 XBig12= 2.14D-06 2.98D-04.
      3 vectors produced by pass 22 Test12= 6.22D-12 3.33D-08 XBig12= 3.03D-07 1.31D-04.
      3 vectors produced by pass 23 Test12= 6.22D-12 3.33D-08 XBig12= 7.82D-08 8.45D-05.
      3 vectors produced by pass 24 Test12= 6.22D-12 3.33D-08 XBig12= 1.29D-08 2.99D-05.
      3 vectors produced by pass 25 Test12= 6.22D-12 3.33D-08 XBig12= 2.57D-09 1.07D-05.
      3 vectors produced by pass 26 Test12= 6.22D-12 3.33D-08 XBig12= 5.66D-10 4.04D-06.
      3 vectors produced by pass 27 Test12= 6.22D-12 3.33D-08 XBig12= 9.61D-11 1.37D-06.
      3 vectors produced by pass 28 Test12= 6.22D-12 3.33D-08 XBig12= 1.19D-11 5.09D-07.
      2 vectors produced by pass 29 Test12= 6.22D-12 3.33D-08 XBig12= 1.74D-12 1.93D-07.
      1 vectors produced by pass 30 Test12= 6.22D-12 3.33D-08 XBig12= 2.49D-13 7.90D-08.
 InvSVY:  IOpt=1 It=  1 EMax= 8.69D-15
 Solved reduced A of dimension    90 with     3 vectors.
 Isotropic polarizability for W=    0.000000      543.99 Bohr**3.
 End of Minotr F.D. properties file   721 does not exist.
 End of Minotr F.D. properties file   722 does not exist.
 End of Minotr F.D. properties file   788 does not exist.

 **********************************************************************

            Population analysis using the SCF Density.

 **********************************************************************

 Orbital symmetries:
       Occupied  (A) (A) (A) (A) (A) (A) (A) (A) (A) (A) (A) (A)
                 (A) (A) (A) (A) (A) (A) (A) (A) (A) (A) (A) (A)
                 (A) (A) (A) (A) (A) (A) (A) (A) (A) (A) (A) (A)
                 (A) (A) (A) (A) (A) (A) (A) (A) (A) (A) (A) (A)
                 (A) (A) (A) (A) (A) (A) (A) (A) (A) (A) (A) (A)
                 (A) (A) (A) (A) (A) (A) (A) (A) (A) (A) (A) (A)
                 (A) (A) (A) (A) (A) (A) (A) (A) (A) (A) (A) (A)
                 (A) (A) (A) (A) (A) (A) (A) (A) (A) (A) (A) (A)
                 (A) (A) (A) (A) (A) (A) (A) (A) (A) (A) (A) (A)
                 (A) (A) (A) (A) (A) (A) (A) (A) (A) (A) (A) (A)
                 (A) (A) (A) (A) (A) (A) (A) (A) (A) (A) (A) (A)
                 (A) (A) (A) (A) (A) (A) (A) (A) (A) (A) (A) (A)
                 (A) (A) (A) (A) (A)
       Virtual   (A) (A) (A) (A) (A) (A) (A) (A) (A) (A) (A) (A)
                 (A) (A) (A) (A) (A) (A) (A) (A) (A) (A) (A) (A)
                 (A) (A) (A) (A) (A) (A) (A) (A) (A) (A) (A) (A)
                 (A) (A) (A) (A) (A) (A) (A) (A) (A) (A) (A) (A)
                 (A) (A) (A) (A) (A) (A) (A) (A) (A) (A) (A) (A)
                 (A) (A) (A) (A) (A) (A) (A) (A) (A) (A) (A) (A)
                 (A) (A) (A) (A) (A) (A) (A) (A) (A) (A) (A) (A)
                 (A) (A) (A) (A) (A) (A) (A) (A) (A) (A) (A) (A)
                 (A) (A) (A) (A) (A) (A) (A) (A) (A) (A) (A) (A)
                 (A) (A) (A) (A) (A) (A) (A) (A) (A) (A) (A) (A)
                 (A) (A) (A) (A) (A) (A) (A) (A) (A) (A) (A) (A)
                 (A) (A) (A) (A) (A) (A) (A) (A) (A) (A) (A) (A)
                 (A) (A) (A) (A) (A) (A) (A) (A) (A) (A) (A) (A)
                 (A) (A) (A) (A) (A) (A) (A) (A) (A) (A) (A) (A)
                 (A) (A) (A) (A) (A) (A) (A) (A) (A) (A) (A) (A)
                 (A) (A) (A) (A) (A) (A) (A) (A) (A) (A) (A) (A)
                 (A) (A) (A) (A) (A) (A) (A) (A) (A) (A) (A) (A)
                 (A) (A) (A) (A) (A) (A) (A) (A) (A) (A) (A) (A)
                 (A) (A) (A) (A) (A) (A) (A) (A) (A) (A) (A) (A)
                 (A) (A) (A) (A) (A) (A) (A) (A) (A) (A) (A) (A)
                 (A) (A) (A) (A) (A) (A) (A) (A) (A) (A) (A) (A)
                 (A) (A) (A) (A) (A) (A) (A) (A) (A) (A) (A) (A)
                 (A) (A) (A) (A) (A) (A) (A) (A) (A) (A) (A) (A)
                 (A) (A) (A) (A) (A) (A) (A) (A) (A) (A) (A) (A)
                 (A) (A) (A) (A) (A) (A) (A) (A) (A) (A) (A) (A)
                 (A) (A) (A) (A) (A) (A) (A) (A) (A) (A) (A) (A)
                 (A) (A) (A) (A) (A) (A) (A) (A) (A) (A) (A) (A)
                 (A) (A) (A) (A) (A) (A) (A) (A) (A) (A) (A) (A)
                 (A) (A) (A) (A) (A) (A) (A) (A) (A) (A) (A) (A)
                 (A) (A) (A) (A) (A) (A) (A) (A) (A) (A) (A) (A)
                 (A) (A) (A) (A) (A) (A) (A) (A) (A) (A) (A) (A)
                 (A) (A) (A) (A) (A) (A) (A) (A) (A) (A) (A) (A)
                 (A) (A) (A) (A) (A) (A) (A) (A) (A) (A) (A) (A)
                 (A) (A) (A) (A) (A) (A) (A) (A) (A) (A) (A) (A)
                 (A) (A) (A) (A) (A) (A) (A) (A) (A) (A) (A) (A)
                 (A) (A) (A) (A) (A) (A) (A) (A) (A) (A) (A) (A)
                 (A) (A) (A) (A) (A) (A) (A) (A) (A) (A) (A) (A)
                 (A) (A) (A) (A) (A) (A) (A) (A) (A) (A) (A) (A)
                 (A) (A) (A) (A) (A) (A) (A) (A) (A) (A) (A) (A)
                 (A) (A) (A) (A) (A) (A) (A) (A) (A) (A) (A) (A)
                 (A) (A) (A) (A) (A) (A) (A) (A) (A) (A) (A) (A)
                 (A) (A) (A) (A) (A) (A) (A) (A) (A) (A) (A) (A)
                 (A) (A) (A) (A) (A) (A) (A) (A) (A) (A) (A) (A)
                 (A) (A) (A) (A) (A) (A) (A) (A) (A) (A) (A) (A)
                 (A) (A) (A) (A) (A) (A) (A) (A) (A) (A) (A) (A)
                 (A) (A) (A) (A) (A) (A) (A) (A) (A) (A) (A) (A)
                 (A) (A) (A) (A) (A) (A) (A) (A) (A) (A) (A) (A)
                 (A) (A) (A) (A) (A) (A) (A) (A) (A) (A) (A) (A)
                 (A) (A) (A) (A) (A) (A) (A) (A) (A) (A) (A) (A)
                 (A) (A) (A) (A) (A) (A) (A) (A) (A) (A) (A) (A)
                 (A) (A) (A) (A) (A) (A) (A) (A) (A) (A) (A) (A)
                 (A) (A) (A) (A) (A) (A) (A) (A) (A) (A) (A) (A)
                 (A) (A) (A) (A) (A) (A) (A) (A) (A) (A) (A) (A)
                 (A) (A) (A) (A) (A) (A) (A) (A) (A) (A) (A) (A)
                 (A) (A) (A) (A) (A) (A) (A) (A) (A) (A) (A) (A)
                 (A) (A) (A) (A) (A) (A) (A) (A) (A) (A) (A) (A)
                 (A) (A) (A) (A) (A) (A) (A) (A) (A) (A) (A) (A)
                 (A) (A) (A) (A) (A) (A) (A) (A) (A) (A) (A) (A)
                 (A) (A) (A) (A) (A) (A) (A) (A) (A) (A) (A) (A)
                 (A) (A) (A) (A) (A) (A) (A) (A) (A) (A) (A) (A)
                 (A) (A) (A) (A) (A) (A) (A) (A) (A) (A) (A) (A)
                 (A) (A) (A) (A) (A) (A) (A) (A) (A) (A) (A) (A)
                 (A) (A) (A) (A) (A) (A) (A) (A) (A) (A) (A) (A)
                 (A) (A) (A) (A) (A) (A) (A) (A) (A) (A) (A) (A)
                 (A) (A) (A) (A) (A) (A) (A) (A) (A) (A) (A) (A)
                 (A) (A) (A) (A) (A) (A) (A) (A) (A) (A) (A) (A)
                 (A) (A) (A) (A) (A) (A) (A) (A) (A) (A) (A) (A)
                 (A) (A) (A) (A) (A) (A) (A) (A) (A) (A) (A) (A)
                 (A) (A) (A) (A) (A) (A) (A) (A) (A) (A) (A) (A)
                 (A) (A) (A) (A) (A) (A) (A) (A) (A) (A) (A) (A)
                 (A) (A) (A) (A) (A) (A) (A) (A) (A) (A) (A) (A)
                 (A) (A) (A) (A) (A) (A) (A) (A) (A) (A) (A) (A)
                 (A) (A) (A) (A) (A) (A) (A) (A) (A) (A) (A) (A)
                 (A) (A) (A) (A) (A) (A) (A) (A) (A) (A) (A) (A)
                 (A) (A) (A) (A) (A) (A) (A) (A) (A) (A) (A) (A)
                 (A) (A) (A) (A) (A) (A) (A) (A) (A) (A) (A) (A)
                 (A) (A) (A) (A) (A) (A) (A) (A) (A) (A) (A) (A)
                 (A) (A) (A) (A) (A) (A) (A) (A) (A) (A) (A) (A)
                 (A) (A) (A) (A) (A) (A) (A) (A) (A) (A) (A) (A)
                 (A) (A) (A) (A) (A) (A) (A) (A) (A) (A) (A) (A)
                 (A) (A) (A) (A) (A) (A) (A) (A) (A) (A) (A) (A)
                 (A) (A) (A) (A) (A) (A) (A) (A) (A) (A) (A) (A)
                 (A) (A) (A) (A) (A) (A) (A) (A) (A) (A) (A) (A)
                 (A) (A) (A) (A) (A) (A) (A) (A) (A) (A) (A) (A)
                 (A) (A) (A) (A) (A) (A) (A) (A) (A) (A) (A) (A)
                 (A) (A) (A) (A) (A) (A) (A) (A) (A) (A) (A) (A)
                 (A) (A) (A) (A) (A) (A) (A) (A) (A) (A) (A) (A)
                 (A) (A) (A) (A) (A) (A) (A) (A) (A) (A) (A) (A)
                 (A) (A) (A) (A) (A) (A) (A) (A) (A) (A) (A) (A)
                 (A) (A) (A) (A) (A) (A) (A) (A) (A) (A) (A) (A)
                 (A) (A) (A) (A) (A) (A) (A) (A) (A) (A) (A) (A)
                 (A) (A) (A) (A) (A) (A) (A) (A) (A) (A) (A) (A)
                 (A) (A) (A) (A) (A) (A) (A) (A) (A) (A) (A) (A)
                 (A) (A) (A) (A) (A) (A) (A) (A) (A) (A) (A) (A)
                 (A) (A) (A) (A) (A) (A) (A) (A) (A) (A) (A) (A)
                 (A) (A) (A) (A) (A) (A) (A) (A) (A) (A) (A) (A)
                 (A) (A) (A) (A) (A) (A) (A) (A) (A) (A) (A) (A)
                 (A) (A) (A) (A) (A) (A) (A) (A) (A) (A) (A) (A)
                 (A) (A) (A) (A) (A) (A) (A) (A) (A) (A) (A) (A)
                 (A) (A) (A) (A) (A) (A) (A) (A) (A) (A) (A) (A)
                 (A) (A) (A) (A) (A) (A) (A) (A) (A) (A) (A) (A)
                 (A) (A) (A) (A) (A) (A) (A) (A) (A) (A) (A) (A)
                 (A) (A) (A) (A) (A) (A) (A) (A) (A) (A) (A) (A)
                 (A) (A) (A) (A) (A) (A) (A) (A) (A) (A) (A) (A)
                 (A) (A) (A) (A) (A)
 The electronic state is 1-A.
 Alpha  occ. eigenvalues -- -256.18863 -88.96249 -30.03774 -25.87965 -25.87549
 Alpha  occ. eigenvalues --  -25.87503 -19.17879 -14.33990 -14.33938 -14.33834
 Alpha  occ. eigenvalues --  -14.33650 -10.22010 -10.21436 -10.21424 -10.21414
 Alpha  occ. eigenvalues --  -10.21377 -10.21377 -10.21190 -10.21188 -10.20980
 Alpha  occ. eigenvalues --  -10.19877 -10.19873 -10.19378 -10.19323 -10.19252
 Alpha  occ. eigenvalues --  -10.19227 -10.19227 -10.19189 -10.18943 -10.18920
 Alpha  occ. eigenvalues --  -10.18896 -10.18874 -10.18853 -10.18832 -10.18819
 Alpha  occ. eigenvalues --  -10.18782 -10.18745 -10.18728 -10.18699 -10.18464
 Alpha  occ. eigenvalues --  -10.18441 -10.18412  -7.99010  -5.93579  -5.93294
 Alpha  occ. eigenvalues --   -5.92795  -3.41412  -2.18151  -2.17241  -2.17145
 Alpha  occ. eigenvalues --   -1.05733  -0.97456  -0.96627  -0.96358  -0.95513
 Alpha  occ. eigenvalues --   -0.82710  -0.82211  -0.81847  -0.81285  -0.80786
 Alpha  occ. eigenvalues --   -0.80244  -0.80073  -0.79970  -0.77226  -0.76157
 Alpha  occ. eigenvalues --   -0.74638  -0.74385  -0.73515  -0.71275  -0.70291
 Alpha  occ. eigenvalues --   -0.68765  -0.68295  -0.68230  -0.66395  -0.64686
 Alpha  occ. eigenvalues --   -0.64445  -0.61388  -0.61190  -0.60316  -0.58028
 Alpha  occ. eigenvalues --   -0.57059  -0.54983  -0.54582  -0.53716  -0.52469
 Alpha  occ. eigenvalues --   -0.51524  -0.51210  -0.50818  -0.49000  -0.48176
 Alpha  occ. eigenvalues --   -0.47781  -0.46559  -0.46406  -0.45848  -0.45143
 Alpha  occ. eigenvalues --   -0.44985  -0.44450  -0.44121  -0.43787  -0.43752
 Alpha  occ. eigenvalues --   -0.43581  -0.43267  -0.43076  -0.42447  -0.41979
 Alpha  occ. eigenvalues --   -0.41916  -0.41787  -0.41546  -0.40947  -0.40572
 Alpha  occ. eigenvalues --   -0.40473  -0.40164  -0.39993  -0.39828  -0.39699
 Alpha  occ. eigenvalues --   -0.39453  -0.39048  -0.38783  -0.38167  -0.37897
 Alpha  occ. eigenvalues --   -0.37647  -0.37584  -0.36734  -0.36502  -0.36277
 Alpha  occ. eigenvalues --   -0.35779  -0.34962  -0.34857  -0.34645  -0.34175
 Alpha  occ. eigenvalues --   -0.34093  -0.32404  -0.31569  -0.30859  -0.30367
 Alpha  occ. eigenvalues --   -0.29341  -0.29109  -0.28237  -0.27220  -0.27001
 Alpha  occ. eigenvalues --   -0.24795  -0.24311  -0.23155  -0.22559  -0.20322
 Alpha  occ. eigenvalues --   -0.19052  -0.18977  -0.18788  -0.18313
 Alpha virt. eigenvalues --   -0.06968  -0.06860  -0.02204  -0.01018   0.00240
 Alpha virt. eigenvalues --    0.01176   0.01773   0.03124   0.04036   0.04371
 Alpha virt. eigenvalues --    0.04719   0.05013   0.05213   0.05696   0.06152
 Alpha virt. eigenvalues --    0.06962   0.07240   0.07823   0.07937   0.08420
 Alpha virt. eigenvalues --    0.08441   0.09391   0.09482   0.09947   0.10113
 Alpha virt. eigenvalues --    0.10437   0.10531   0.11041   0.11137   0.11525
 Alpha virt. eigenvalues --    0.11915   0.12033   0.12429   0.12695   0.12833
 Alpha virt. eigenvalues --    0.13023   0.13228   0.13532   0.13836   0.14132
 Alpha virt. eigenvalues --    0.14187   0.14673   0.14798   0.15003   0.15060
 Alpha virt. eigenvalues --    0.15324   0.15677   0.15831   0.16193   0.16268
 Alpha virt. eigenvalues --    0.16535   0.16629   0.17066   0.17301   0.17457
 Alpha virt. eigenvalues --    0.17678   0.18277   0.18581   0.19023   0.19309
 Alpha virt. eigenvalues --    0.19500   0.19673   0.20025   0.20237   0.20390
 Alpha virt. eigenvalues --    0.20677   0.21045   0.21485   0.21680   0.22047
 Alpha virt. eigenvalues --    0.22159   0.22390   0.22868   0.23116   0.23682
 Alpha virt. eigenvalues --    0.24296   0.24400   0.24581   0.24731   0.25235
 Alpha virt. eigenvalues --    0.25638   0.25655   0.25889   0.26196   0.26469
 Alpha virt. eigenvalues --    0.27094   0.27150   0.27784   0.27966   0.28210
 Alpha virt. eigenvalues --    0.28511   0.28702   0.28762   0.29074   0.29319
 Alpha virt. eigenvalues --    0.29389   0.29688   0.30083   0.30507   0.30669
 Alpha virt. eigenvalues --    0.30759   0.31054   0.31293   0.32116   0.32308
 Alpha virt. eigenvalues --    0.32606   0.32691   0.32880   0.33493   0.33731
 Alpha virt. eigenvalues --    0.34055   0.34266   0.34748   0.35148   0.35743
 Alpha virt. eigenvalues --    0.36025   0.36170   0.36515   0.36629   0.36962
 Alpha virt. eigenvalues --    0.37243   0.37359   0.37634   0.37844   0.38336
 Alpha virt. eigenvalues --    0.38366   0.38805   0.39285   0.39436   0.39808
 Alpha virt. eigenvalues --    0.39858   0.40089   0.40267   0.40588   0.40929
 Alpha virt. eigenvalues --    0.41156   0.41450   0.41656   0.41862   0.41997
 Alpha virt. eigenvalues --    0.42201   0.42439   0.42491   0.43154   0.43393
 Alpha virt. eigenvalues --    0.43511   0.43692   0.44003   0.44244   0.44515
 Alpha virt. eigenvalues --    0.44841   0.45078   0.45320   0.45380   0.45586
 Alpha virt. eigenvalues --    0.45720   0.46119   0.46404   0.46595   0.46830
 Alpha virt. eigenvalues --    0.46963   0.47077   0.47470   0.47882   0.48021
 Alpha virt. eigenvalues --    0.48144   0.48476   0.48556   0.48804   0.48967
 Alpha virt. eigenvalues --    0.49083   0.49513   0.49666   0.50070   0.50405
 Alpha virt. eigenvalues --    0.50435   0.50766   0.51045   0.51248   0.51401
 Alpha virt. eigenvalues --    0.51646   0.51835   0.52141   0.52261   0.52450
 Alpha virt. eigenvalues --    0.52844   0.53285   0.53390   0.53829   0.54077
 Alpha virt. eigenvalues --    0.54181   0.54367   0.54496   0.55380   0.55571
 Alpha virt. eigenvalues --    0.55837   0.56076   0.56297   0.56409   0.56725
 Alpha virt. eigenvalues --    0.57418   0.57819   0.58154   0.58613   0.58855
 Alpha virt. eigenvalues --    0.59048   0.59493   0.59600   0.60127   0.60288
 Alpha virt. eigenvalues --    0.60865   0.61231   0.61519   0.61715   0.61901
 Alpha virt. eigenvalues --    0.62179   0.62550   0.62955   0.63652   0.63805
 Alpha virt. eigenvalues --    0.64161   0.64361   0.64768   0.64970   0.65649
 Alpha virt. eigenvalues --    0.65975   0.66344   0.66426   0.66963   0.67199
 Alpha virt. eigenvalues --    0.67290   0.67625   0.67939   0.68605   0.68795
 Alpha virt. eigenvalues --    0.68991   0.69319   0.69853   0.70245   0.70512
 Alpha virt. eigenvalues --    0.70929   0.71158   0.71328   0.71734   0.72229
 Alpha virt. eigenvalues --    0.72588   0.72669   0.72861   0.73198   0.73496
 Alpha virt. eigenvalues --    0.73720   0.74087   0.74490   0.75119   0.75193
 Alpha virt. eigenvalues --    0.75527   0.75769   0.76297   0.76334   0.76994
 Alpha virt. eigenvalues --    0.77411   0.77620   0.77964   0.78544   0.78802
 Alpha virt. eigenvalues --    0.78962   0.79522   0.79786   0.80495   0.80721
 Alpha virt. eigenvalues --    0.81334   0.81518   0.81880   0.82769   0.83131
 Alpha virt. eigenvalues --    0.83554   0.83998   0.84488   0.84923   0.84978
 Alpha virt. eigenvalues --    0.85380   0.85946   0.86360   0.86855   0.87205
 Alpha virt. eigenvalues --    0.87440   0.87998   0.88137   0.88552   0.89037
 Alpha virt. eigenvalues --    0.89654   0.90133   0.90296   0.90691   0.90954
 Alpha virt. eigenvalues --    0.91357   0.91774   0.92354   0.92857   0.93258
 Alpha virt. eigenvalues --    0.93540   0.94161   0.94517   0.94708   0.94828
 Alpha virt. eigenvalues --    0.94997   0.95707   0.96138   0.96634   0.96876
 Alpha virt. eigenvalues --    0.97056   0.97607   0.97806   0.98262   0.98650
 Alpha virt. eigenvalues --    0.98930   0.99502   0.99963   1.00136   1.00748
 Alpha virt. eigenvalues --    1.01489   1.01737   1.02027   1.02226   1.02311
 Alpha virt. eigenvalues --    1.02659   1.02969   1.03475   1.03731   1.04001
 Alpha virt. eigenvalues --    1.04118   1.04456   1.04862   1.05426   1.05644
 Alpha virt. eigenvalues --    1.06085   1.06137   1.06741   1.07498   1.08188
 Alpha virt. eigenvalues --    1.08434   1.08569   1.08713   1.09478   1.10115
 Alpha virt. eigenvalues --    1.10354   1.10606   1.10947   1.11704   1.12592
 Alpha virt. eigenvalues --    1.12926   1.13410   1.13516   1.15002   1.15380
 Alpha virt. eigenvalues --    1.16156   1.16628   1.17050   1.17637   1.17763
 Alpha virt. eigenvalues --    1.18264   1.18691   1.19015   1.19301   1.19627
 Alpha virt. eigenvalues --    1.20388   1.20596   1.21542   1.21878   1.22013
 Alpha virt. eigenvalues --    1.22633   1.22830   1.23349   1.24043   1.24500
 Alpha virt. eigenvalues --    1.24969   1.25394   1.25760   1.26089   1.26592
 Alpha virt. eigenvalues --    1.26952   1.27075   1.27973   1.28366   1.28468
 Alpha virt. eigenvalues --    1.28877   1.29472   1.29499   1.30122   1.30451
 Alpha virt. eigenvalues --    1.30725   1.31595   1.31745   1.32393   1.32863
 Alpha virt. eigenvalues --    1.33741   1.33879   1.34991   1.35374   1.36864
 Alpha virt. eigenvalues --    1.37004   1.37565   1.38577   1.38668   1.39300
 Alpha virt. eigenvalues --    1.39991   1.40504   1.41239   1.41423   1.42331
 Alpha virt. eigenvalues --    1.43111   1.43542   1.44015   1.44836   1.45360
 Alpha virt. eigenvalues --    1.46039   1.46096   1.46743   1.46954   1.47257
 Alpha virt. eigenvalues --    1.47820   1.47848   1.48216   1.48851   1.49127
 Alpha virt. eigenvalues --    1.49260   1.49653   1.50185   1.50727   1.51093
 Alpha virt. eigenvalues --    1.51381   1.51600   1.51835   1.52325   1.52405
 Alpha virt. eigenvalues --    1.52893   1.52962   1.53516   1.53736   1.54172
 Alpha virt. eigenvalues --    1.54385   1.54494   1.54846   1.55127   1.55171
 Alpha virt. eigenvalues --    1.55245   1.55553   1.55588   1.56017   1.56353
 Alpha virt. eigenvalues --    1.56598   1.56778   1.56917   1.57310   1.57436
 Alpha virt. eigenvalues --    1.58108   1.58459   1.58492   1.59014   1.59280
 Alpha virt. eigenvalues --    1.59524   1.59973   1.60290   1.60494   1.61004
 Alpha virt. eigenvalues --    1.61383   1.61820   1.62253   1.62642   1.62862
 Alpha virt. eigenvalues --    1.63392   1.63663   1.64048   1.64249   1.64727
 Alpha virt. eigenvalues --    1.64843   1.65540   1.65681   1.65777   1.66002
 Alpha virt. eigenvalues --    1.66369   1.66749   1.66941   1.67427   1.68184
 Alpha virt. eigenvalues --    1.68350   1.68766   1.69195   1.69633   1.69907
 Alpha virt. eigenvalues --    1.70082   1.70799   1.70999   1.71398   1.71843
 Alpha virt. eigenvalues --    1.72050   1.72433   1.73543   1.73710   1.73785
 Alpha virt. eigenvalues --    1.74232   1.74542   1.75336   1.75503   1.76548
 Alpha virt. eigenvalues --    1.76754   1.77347   1.77713   1.78419   1.78767
 Alpha virt. eigenvalues --    1.79272   1.79437   1.79590   1.80647   1.80805
 Alpha virt. eigenvalues --    1.81608   1.82049   1.82205   1.82876   1.83313
 Alpha virt. eigenvalues --    1.83934   1.84781   1.85275   1.85989   1.86503
 Alpha virt. eigenvalues --    1.86856   1.87024   1.87108   1.87679   1.88368
 Alpha virt. eigenvalues --    1.88998   1.89340   1.89772   1.90004   1.90446
 Alpha virt. eigenvalues --    1.90976   1.91291   1.91871   1.92376   1.93396
 Alpha virt. eigenvalues --    1.93700   1.94230   1.95152   1.95437   1.96459
 Alpha virt. eigenvalues --    1.96709   1.96759   1.97405   1.97614   1.98477
 Alpha virt. eigenvalues --    1.99265   1.99467   1.99663   1.99959   2.00349
 Alpha virt. eigenvalues --    2.00633   2.00904   2.01253   2.01586   2.02005
 Alpha virt. eigenvalues --    2.02436   2.02804   2.02898   2.04431   2.04883
 Alpha virt. eigenvalues --    2.05457   2.05827   2.06823   2.07285   2.07791
 Alpha virt. eigenvalues --    2.07897   2.08798   2.09153   2.09487   2.10552
 Alpha virt. eigenvalues --    2.10959   2.11425   2.11517   2.12141   2.12966
 Alpha virt. eigenvalues --    2.13798   2.14231   2.14943   2.15682   2.16067
 Alpha virt. eigenvalues --    2.16639   2.16698   2.16869   2.17028   2.17660
 Alpha virt. eigenvalues --    2.18572   2.18973   2.19370   2.19679   2.20399
 Alpha virt. eigenvalues --    2.20766   2.21592   2.21720   2.22033   2.23222
 Alpha virt. eigenvalues --    2.23632   2.24548   2.24911   2.25465   2.25759
 Alpha virt. eigenvalues --    2.26817   2.27090   2.27107   2.27367   2.27811
 Alpha virt. eigenvalues --    2.28681   2.29001   2.29642   2.29674   2.30217
 Alpha virt. eigenvalues --    2.31023   2.31254   2.31816   2.32144   2.32728
 Alpha virt. eigenvalues --    2.32867   2.33164   2.34145   2.34795   2.34917
 Alpha virt. eigenvalues --    2.35383   2.35869   2.36409   2.36994   2.37208
 Alpha virt. eigenvalues --    2.37511   2.37679   2.38142   2.38461   2.39520
 Alpha virt. eigenvalues --    2.39877   2.40105   2.40643   2.40846   2.41165
 Alpha virt. eigenvalues --    2.42121   2.42168   2.42802   2.43070   2.43927
 Alpha virt. eigenvalues --    2.44501   2.44911   2.45303   2.45745   2.45799
 Alpha virt. eigenvalues --    2.46833   2.47266   2.47754   2.47980   2.48383
 Alpha virt. eigenvalues --    2.48760   2.49311   2.49682   2.50737   2.51063
 Alpha virt. eigenvalues --    2.51495   2.51981   2.52781   2.52894   2.53358
 Alpha virt. eigenvalues --    2.53956   2.54556   2.55053   2.55417   2.55733
 Alpha virt. eigenvalues --    2.55865   2.56518   2.56713   2.57037   2.57317
 Alpha virt. eigenvalues --    2.57478   2.57717   2.58363   2.58800   2.59065
 Alpha virt. eigenvalues --    2.59300   2.59782   2.59861   2.60742   2.61029
 Alpha virt. eigenvalues --    2.61719   2.61847   2.62297   2.62523   2.63202
 Alpha virt. eigenvalues --    2.63619   2.63994   2.64696   2.64876   2.65401
 Alpha virt. eigenvalues --    2.65690   2.65973   2.66730   2.67346   2.67642
 Alpha virt. eigenvalues --    2.68493   2.68867   2.69100   2.69565   2.69717
 Alpha virt. eigenvalues --    2.69817   2.70347   2.71614   2.71755   2.72353
 Alpha virt. eigenvalues --    2.72422   2.73002   2.73550   2.73758   2.74818
 Alpha virt. eigenvalues --    2.75259   2.75953   2.75961   2.76777   2.77074
 Alpha virt. eigenvalues --    2.77463   2.77862   2.78499   2.79249   2.79428
 Alpha virt. eigenvalues --    2.79931   2.80189   2.80366   2.80683   2.81618
 Alpha virt. eigenvalues --    2.81754   2.81944   2.82653   2.83096   2.83980
 Alpha virt. eigenvalues --    2.84262   2.85169   2.85415   2.85944   2.86110
 Alpha virt. eigenvalues --    2.86520   2.86708   2.86969   2.87490   2.87907
 Alpha virt. eigenvalues --    2.88308   2.88850   2.89394   2.89584   2.89812
 Alpha virt. eigenvalues --    2.90503   2.91010   2.91292   2.91965   2.92555
 Alpha virt. eigenvalues --    2.92666   2.93022   2.93550   2.93839   2.94028
 Alpha virt. eigenvalues --    2.94559   2.95337   2.95996   2.96444   2.96632
 Alpha virt. eigenvalues --    2.96906   2.97689   2.97833   2.98301   2.98615
 Alpha virt. eigenvalues --    2.99486   2.99945   3.00140   3.00660   3.00985
 Alpha virt. eigenvalues --    3.01497   3.01929   3.02085   3.03200   3.03791
 Alpha virt. eigenvalues --    3.04142   3.04169   3.04805   3.05268   3.05874
 Alpha virt. eigenvalues --    3.06273   3.06747   3.06965   3.07226   3.07620
 Alpha virt. eigenvalues --    3.07857   3.08239   3.08447   3.08804   3.08984
 Alpha virt. eigenvalues --    3.09432   3.10069   3.10486   3.10777   3.11059
 Alpha virt. eigenvalues --    3.11642   3.12028   3.12287   3.12597   3.13049
 Alpha virt. eigenvalues --    3.13115   3.13767   3.14080   3.14609   3.14844
 Alpha virt. eigenvalues --    3.15157   3.15609   3.15861   3.15976   3.16474
 Alpha virt. eigenvalues --    3.17040   3.17694   3.17990   3.18608   3.18957
 Alpha virt. eigenvalues --    3.19408   3.19598   3.20223   3.20464   3.20753
 Alpha virt. eigenvalues --    3.20872   3.21543   3.21859   3.22522   3.22868
 Alpha virt. eigenvalues --    3.23375   3.23667   3.23938   3.24078   3.24429
 Alpha virt. eigenvalues --    3.24713   3.25034   3.25130   3.25546   3.25794
 Alpha virt. eigenvalues --    3.26075   3.26171   3.26770   3.27088   3.27380
 Alpha virt. eigenvalues --    3.27837   3.28271   3.28586   3.28971   3.29167
 Alpha virt. eigenvalues --    3.29737   3.29923   3.30135   3.30304   3.30322
 Alpha virt. eigenvalues --    3.30683   3.30882   3.31261   3.31534   3.31607
 Alpha virt. eigenvalues --    3.32103   3.32391   3.32726   3.33106   3.33409
 Alpha virt. eigenvalues --    3.33725   3.34710   3.34788   3.35034   3.35268
 Alpha virt. eigenvalues --    3.35494   3.35911   3.36164   3.36303   3.36560
 Alpha virt. eigenvalues --    3.36777   3.36928   3.37409   3.37721   3.37947
 Alpha virt. eigenvalues --    3.38213   3.38765   3.38836   3.39324   3.39407
 Alpha virt. eigenvalues --    3.40101   3.40681   3.40787   3.40988   3.41587
 Alpha virt. eigenvalues --    3.41930   3.42532   3.42897   3.43207   3.43641
 Alpha virt. eigenvalues --    3.43915   3.44156   3.45116   3.45194   3.45543
 Alpha virt. eigenvalues --    3.45945   3.46382   3.46688   3.47018   3.47728
 Alpha virt. eigenvalues --    3.48654   3.49134   3.49260   3.49766   3.50336
 Alpha virt. eigenvalues --    3.50642   3.51236   3.51848   3.53040   3.53260
 Alpha virt. eigenvalues --    3.54256   3.54488   3.55057   3.55586   3.56452
 Alpha virt. eigenvalues --    3.56749   3.57177   3.57827   3.58151   3.58929
 Alpha virt. eigenvalues --    3.59199   3.59378   3.60232   3.60377   3.61070
 Alpha virt. eigenvalues --    3.61178   3.62007   3.62549   3.62652   3.63219
 Alpha virt. eigenvalues --    3.63754   3.64600   3.64902   3.65366   3.66460
 Alpha virt. eigenvalues --    3.67508   3.67734   3.68068   3.68312   3.69425
 Alpha virt. eigenvalues --    3.69912   3.70273   3.70696   3.71191   3.71459
 Alpha virt. eigenvalues --    3.71876   3.72225   3.72907   3.73180   3.73895
 Alpha virt. eigenvalues --    3.74125   3.74204   3.75094   3.75364   3.75575
 Alpha virt. eigenvalues --    3.75926   3.76427   3.77554   3.77933   3.78095
 Alpha virt. eigenvalues --    3.79126   3.79388   3.80287   3.80674   3.81134
 Alpha virt. eigenvalues --    3.82487   3.83545   3.84101   3.84429   3.85308
 Alpha virt. eigenvalues --    3.85535   3.86001   3.86414   3.87176   3.87804
 Alpha virt. eigenvalues --    3.88397   3.89648   3.89746   3.90279   3.90953
 Alpha virt. eigenvalues --    3.91774   3.92767   3.93186   3.93578   3.94456
 Alpha virt. eigenvalues --    3.96129   3.96772   3.97035   3.97918   3.98461
 Alpha virt. eigenvalues --    3.99645   3.99894   4.00304   4.00887   4.01249
 Alpha virt. eigenvalues --    4.01752   4.02261   4.03177   4.03407   4.04396
 Alpha virt. eigenvalues --    4.04690   4.05092   4.06087   4.06714   4.07773
 Alpha virt. eigenvalues --    4.08493   4.08843   4.10239   4.10892   4.11057
 Alpha virt. eigenvalues --    4.11723   4.12849   4.13434   4.14174   4.15391
 Alpha virt. eigenvalues --    4.15703   4.16472   4.16656   4.16922   4.17429
 Alpha virt. eigenvalues --    4.18004   4.18305   4.19447   4.19744   4.20009
 Alpha virt. eigenvalues --    4.20638   4.21247   4.21613   4.22319   4.22520
 Alpha virt. eigenvalues --    4.23356   4.24092   4.24883   4.25089   4.26064
 Alpha virt. eigenvalues --    4.27029   4.27753   4.27990   4.29188   4.29794
 Alpha virt. eigenvalues --    4.30780   4.30872   4.31414   4.32096   4.32496
 Alpha virt. eigenvalues --    4.33012   4.33417   4.33999   4.34673   4.35217
 Alpha virt. eigenvalues --    4.36564   4.37359   4.37893   4.38489   4.38957
 Alpha virt. eigenvalues --    4.39450   4.40174   4.40490   4.40987   4.41093
 Alpha virt. eigenvalues --    4.42061   4.42374   4.43574   4.44044   4.44541
 Alpha virt. eigenvalues --    4.44883   4.45216   4.45371   4.46189   4.46636
 Alpha virt. eigenvalues --    4.47021   4.48426   4.48547   4.49036   4.50547
 Alpha virt. eigenvalues --    4.50947   4.51787   4.52948   4.53712   4.54864
 Alpha virt. eigenvalues --    4.55387   4.55858   4.56353   4.57458   4.58929
 Alpha virt. eigenvalues --    4.61483   4.61713   4.63840   4.65450   4.65719
 Alpha virt. eigenvalues --    4.66806   4.67772   4.68146   4.68639   4.69285
 Alpha virt. eigenvalues --    4.70413   4.71827   4.72186   4.73493   4.74047
 Alpha virt. eigenvalues --    4.75374   4.75897   4.77664   4.78560   4.80384
 Alpha virt. eigenvalues --    4.81852   4.82989   4.83716   4.84416   4.84922
 Alpha virt. eigenvalues --    4.85220   4.85584   4.86308   4.86477   4.88058
 Alpha virt. eigenvalues --    4.88852   4.90295   4.92322   4.93107   4.93801
 Alpha virt. eigenvalues --    4.95422   4.95495   4.96741   4.96789   4.98196
 Alpha virt. eigenvalues --    5.00278   5.01336   5.02276   5.03286   5.03547
 Alpha virt. eigenvalues --    5.05193   5.06095   5.06702   5.07644   5.08621
 Alpha virt. eigenvalues --    5.09097   5.09820   5.11988   5.13233   5.16237
 Alpha virt. eigenvalues --    5.17497   5.19044   5.20640   5.21155   5.22121
 Alpha virt. eigenvalues --    5.22642   5.24373   5.25087   5.25321   5.26582
 Alpha virt. eigenvalues --    5.27157   5.28102   5.29704   5.35915   5.36191
 Alpha virt. eigenvalues --    5.38722   5.39033   5.39390   5.39708   5.40064
 Alpha virt. eigenvalues --    5.40410   5.40949   5.42137   5.48391   5.48634
 Alpha virt. eigenvalues --    5.49776   5.50267   5.51818   5.52426   5.53119
 Alpha virt. eigenvalues --    5.56133   5.60868   5.61254   5.62205   5.62784
 Alpha virt. eigenvalues --    5.63252   5.66037   5.67496   5.68162   5.68818
 Alpha virt. eigenvalues --    5.74098   5.76761   5.77330   5.77845   5.79076
 Alpha virt. eigenvalues --    5.86353   5.88345   5.89966   5.92566   6.00808
 Alpha virt. eigenvalues --    6.01931   6.02360   6.11152   6.12044   6.12557
 Alpha virt. eigenvalues --    6.13764   6.18586   6.23564   6.27034   6.33923
 Alpha virt. eigenvalues --    6.34226   6.41395   6.45286   6.51124   6.53620
 Alpha virt. eigenvalues --    6.63124   6.95704   7.27992   9.07134   9.23559
 Alpha virt. eigenvalues --    9.41361  19.59308  22.31530  22.35341  22.36245
 Alpha virt. eigenvalues --   22.46028  22.46861  22.52733  22.54686  22.62528
 Alpha virt. eigenvalues --   22.63218  22.85879  22.86804  22.91587  22.94007
 Alpha virt. eigenvalues --   22.95677  22.96338  22.97438  23.04097  23.04824
 Alpha virt. eigenvalues --   23.14812  23.27165  23.29983  23.31172  23.40134
 Alpha virt. eigenvalues --   23.42715  23.51558  23.52378  23.57175  23.74808
 Alpha virt. eigenvalues --   23.78840  23.80083  23.89229  32.88797  32.91067
 Alpha virt. eigenvalues --   32.96064  33.03211  43.91051
          Condensed to atoms (all electrons):
 Mulliken charges:
               1
     1  Fe  -0.244352
     2  N   -0.097528
     3  N   -0.011950
     4  N   -0.015228
     5  N    0.009920
     6  C    0.189420
     7  C   -0.009688
     8  C   -0.033944
     9  C    0.135004
    10  C    0.241654
    11  C   -0.059032
    12  C    0.051971
    13  C    0.233132
    14  C    0.216535
    15  C   -0.096020
    16  C    0.094777
    17  C    0.251186
    18  C    0.229696
    19  C   -0.052049
    20  C   -0.039684
    21  C    0.242973
    22  C   -0.461444
    23  H    0.140383
    24  C   -0.434052
    25  H    0.131783
    26  C   -0.427216
    27  H    0.118173
    28  C   -0.461869
    29  H    0.188596
    30  C   -0.409387
    31  H    0.121470
    32  H    0.136639
    33  H    0.134539
    34  C   -0.410625
    35  H    0.137149
    36  H    0.134074
    37  H    0.121247
    38  C   -0.450109
    39  H    0.126325
    40  H    0.142958
    41  H    0.157658
    42  C   -0.206255
    43  H    0.109026
    44  C   -0.285514
    45  H    0.139448
    46  H    0.122972
    47  C   -0.399692
    48  H    0.140855
    49  H    0.135546
    50  H    0.125733
    51  C   -0.245738
    52  H    0.117859
    53  C   -0.307886
    54  H    0.149895
    55  H    0.123010
    56  C   -0.409364
    57  H    0.136603
    58  H    0.136194
    59  H    0.119201
    60  C   -0.414108
    61  H    0.121501
    62  H    0.135881
    63  H    0.133211
    64  O   -0.578044
    65  H    0.361292
    66  H    0.324098
    67  C   -0.340357
    68  H    0.158202
    69  H    0.153948
    70  H    0.147895
    71  S   -0.043550
    72  H    0.165055
 Sum of Mulliken charges =  -0.00000
 Mulliken charges with hydrogens summed into heavy atoms:
               1
     1  Fe  -0.244352
     2  N   -0.097528
     3  N   -0.011950
     4  N   -0.015228
     5  N    0.009920
     6  C    0.189420
     7  C   -0.009688
     8  C   -0.033944
     9  C    0.135004
    10  C    0.241654
    11  C   -0.059032
    12  C    0.051971
    13  C    0.233132
    14  C    0.216535
    15  C   -0.096020
    16  C    0.094777
    17  C    0.251186
    18  C    0.229696
    19  C   -0.052049
    20  C   -0.039684
    21  C    0.242973
    22  C   -0.321062
    24  C   -0.302270
    26  C   -0.309043
    28  C   -0.273273
    30  C   -0.016739
    34  C   -0.018155
    38  C   -0.023168
    42  C   -0.097229
    44  C   -0.023093
    47  C    0.002443
    51  C   -0.127879
    53  C   -0.034981
    56  C   -0.017366
    60  C   -0.023516
    64  O    0.107346
    67  C    0.119688
    71  S    0.121505
 Electronic spatial extent (au):  <R**2>=          18192.9591
 Charge=             -0.0000 electrons
 Dipole moment (field-independent basis, Debye):
    X=              0.4915    Y=              2.0067    Z=             -0.3680  Tot=              2.0985
 Quadrupole moment (field-independent basis, Debye-Ang):
   XX=           -226.3622   YY=           -220.5380   ZZ=           -229.4013
   XY=              1.5742   XZ=              2.7543   YZ=              1.4366
 Traceless Quadrupole moment (field-independent basis, Debye-Ang):
   XX=             -0.9283   YY=              4.8958   ZZ=             -3.9674
   XY=              1.5742   XZ=              2.7543   YZ=              1.4366
 Octapole moment (field-independent basis, Debye-Ang**2):
  XXX=            -23.5181  YYY=             16.0572  ZZZ=            -17.6192  XYY=              0.4438
  XXY=             21.9269  XXZ=            -10.2025  XZZ=              6.0860  YZZ=             23.1391
  YYZ=             -6.6247  XYZ=             -3.4261
 Hexadecapole moment (field-independent basis, Debye-Ang**3):
 XXXX=         -11894.3563 YYYY=         -11022.6393 ZZZZ=          -1307.9792 XXXY=             44.1661
 XXXZ=            -92.2351 YYYX=              3.1309 YYYZ=             26.9879 ZZZX=             48.2417
 ZZZY=             26.3305 XXYY=          -3825.2524 XXZZ=          -2354.7137 YYZZ=          -2236.8837
 XXYZ=             -2.1448 YYXZ=             33.6920 ZZXY=              9.0779
 N-N= 5.416499493291D+03 E-N=-1.826872831950D+04  KE= 3.147458707246D+03
  Exact polarizability:     701.587      -6.945     664.977      -9.031       2.789     265.394
 Approx polarizability:    1294.510     -11.974    1250.519      -8.973       7.487     448.174

 ----------------------------------------------------------------------

 Electric dipole moment (input orientation):
 (Debye = 10**-18 statcoulomb cm , SI units = C m)
                  (au)            (Debye)         (10**-30 SI)
   Tot        0.825621D+00      0.209852D+01      0.699991D+01
   x          0.126877D+00      0.322489D+00      0.107571D+01
   y         -0.493816D-02     -0.125516D-01     -0.418675D-01
   z         -0.815799D+00     -0.207355D+01     -0.691663D+01

 Dipole polarizability, Alpha (input orientation).
 (esu units = cm**3 , SI units = C**2 m**2 J**-1)
 Alpha(0;0):
               (au)            (10**-24 esu)      (10**-40 SI)
   iso        0.543986D+03      0.806104D+02      0.896911D+02
   aniso      0.419581D+03      0.621756D+02      0.691796D+02
   xx         0.332383D+03      0.492541D+02      0.548026D+02
   yx         0.157294D+03      0.233086D+02      0.259344D+02
   yy         0.636313D+03      0.942918D+02      0.104914D+03
   zx         0.121746D+02      0.180410D+01      0.200733D+01
   zy        -0.545239D+01     -0.807961D+00     -0.898978D+00
   zz         0.663262D+03      0.982852D+02      0.109357D+03

 First dipole hyperpolarizability, Beta (input orientation).
 ||, _|_  parallel and perpendicular components, (z) with respect to z axis,
 vector components x,y,z.  Values do not include the 1/n! factor of 1/2.
 (esu units = statvolt**-1 cm**4 , SI units = C**3 m**3 J**-2)
 Beta(0;0,0):
               (au)            (10**-30 esu)      (10**-50 SI)
   || (z)     0.616487D+03      0.532597D+01      0.197668D+01
   _|_(z)     0.205496D+03      0.177532D+01      0.658894D+00
   x          0.135598D+04      0.117146D+02      0.434775D+01
   y          0.282952D+04      0.244449D+02      0.907248D+01
   z          0.308244D+04      0.266298D+02      0.988340D+01
   ||         0.879688D+03      0.759982D+01      0.282060D+01
   xxx        0.190229D+03      0.164343D+01      0.609944D+00
   xxy        0.327810D+03      0.283202D+01      0.105108D+01
   yxy        0.532335D+03      0.459896D+01      0.170686D+01
   yyy        0.925114D+03      0.799226D+01      0.296625D+01
   xxz        0.180292D+03      0.155758D+01      0.578081D+00
   yxz        0.313625D+03      0.270948D+01      0.100560D+01
   yyz        0.423593D+03      0.365951D+01      0.135819D+01
   zxz       -0.270572D+03     -0.233753D+01     -0.867552D+00
   zyz       -0.309749D+03     -0.267599D+01     -0.993166D+00
   zzz        0.423594D+03      0.365952D+01      0.135820D+01

 ----------------------------------------------------------------------

 Dipole orientation:
    26        120.34033445        -16.93345108         21.11054994
     7        119.95758783        -17.59546695         24.85171813
     7        121.90177746        -20.38074091         20.72899341
     7        120.93624886        -16.21893152         17.46851303
     7        118.95636703        -13.46832247         21.58226466
     6        119.16140365        -15.92926540         26.63828889
     6        119.04267808        -17.11926825         29.09146255
     6        119.87028190        -19.53187954         28.76455465
     6        120.48953393        -19.77521671         26.11677534
     6        122.23788477        -22.16472900         22.55293498
     6        123.42042409        -24.39082771         21.52677926
     6        123.84209069        -23.89964891         19.02145251
     6        122.90192917        -21.36437061         18.57847381
     6        121.93102801        -17.83020643         15.73297295
     6        121.74485207        -16.77742599         13.22986994
     6        120.74396099        -14.41053529         13.50649605
     6        120.27108301        -14.10040925         16.18769708
     6        118.87442857        -11.59801141         19.82585576
     6        117.94213035         -9.27304841         20.91958651
     6        117.61467263         -9.74094103         23.42254635
     6        118.34523197        -12.34830256         23.81483911
     6        118.36221832        -13.48867108         26.16157128
     1        117.77624150        -12.36458391         27.75846890
     6        121.54384085        -21.91543541         25.06261536
     1        121.89888491        -23.49445597         26.30214864
     6        122.87735338        -20.21371661         16.23690766
     1        123.68314001        -21.24201062         14.67147777
     6        119.34816680        -11.91363969         17.27752749
     1        119.10132565        -10.29623072         16.06176568
     6        120.15819862        -21.59452194         30.65941457
     1        119.49743644        -20.98516449         32.50658630
     1        122.13497128        -22.15140028         30.83063688
     1        119.07460629        -23.25456564         30.09858759
     6        118.18257135        -15.82999303         31.44157998
     1        116.22676954        -15.20992199         31.25394838
     1        119.34329762        -14.17150691         31.82386371
     1        118.30886627        -17.09356387         33.05654283
     6        123.91444133        -26.76514120         22.95256638
     1        122.37932249        -27.16387617         24.26435965
     1        125.66070150        -26.62079891         24.03988999
     1        124.09175636        -28.34461260         21.64825477
     6        124.96122260        -25.50470533         17.11194067
     1        124.20278130        -25.29296538         15.22126584
     6        126.80757586        -27.16075252         17.50331863
     1        127.69422089        -27.38622743         19.31928648
     1        127.53571174        -28.31808891         15.99492564
     6        122.52998062        -18.08226666         10.86361766
     1        121.42371896        -19.79809087         10.58545986
     1        124.51919976        -18.61394257         10.94901390
     1        122.24266763        -16.86042387          9.23761280
     6        120.17268537        -12.62108013         11.51217620
     1        121.55937334        -12.51935637         10.00552416
     6        118.10708430        -11.20421945         11.37133170
     1        116.62742297        -11.31647376         12.76341282
     1        117.80126537         -9.91759645          9.82301361
     6        117.51132071         -6.90085869         19.46730475
     1        116.09180008         -7.19886626         18.00454903
     1        119.25072738         -6.28742396         18.55040958
     1        116.86191152         -5.39369936         20.70328016
     6        116.71904830         -8.01574514         25.45976813
     1        116.22102862         -6.17762642         24.68954501
     1        118.18664203         -7.74634020         26.88098917
     1        115.05876283         -8.79803984         26.39503545
     8        124.16927433        -15.49762353         22.18577613
     1        124.27273755        -16.05021669         23.90445280
     1        125.28505773        -14.53231419         21.38405017
     6        114.73343093        -19.59207931         22.95752818
     1        116.02579818        -20.72275518         24.07470554
     1        113.05106790        -20.65535142         22.45924976
     1        114.22366714        -17.89713756         23.99204603
    16        116.30234205        -18.53725203         20.06610128
     1        116.97086950        -20.85673903         19.31130430

 Electric dipole moment (dipole orientation):
 (Debye = 10**-18 statcoulomb cm , SI units = C m)
                  (au)            (Debye)         (10**-30 SI)
   Tot        0.825621D+00      0.209852D+01      0.699991D+01
   x          0.000000D+00      0.000000D+00      0.000000D+00
   y          0.000000D+00      0.000000D+00      0.000000D+00
   z          0.825621D+00      0.209852D+01      0.699991D+01

 Dipole polarizability, Alpha (dipole orientation).
 (esu units = cm**3 , SI units = C**2 m**2 J**-1)
 Alpha(0;0):
               (au)            (10**-24 esu)      (10**-40 SI)
   iso        0.543986D+03      0.806104D+02      0.896911D+02
   aniso      0.419581D+03      0.621756D+02      0.691796D+02
   xx         0.344038D+03      0.509811D+02      0.567241D+02
   yx        -0.154351D+03     -0.228724D+02     -0.254490D+02
   yy         0.636524D+03      0.943232D+02      0.104949D+03
   zx        -0.627539D+02     -0.929917D+01     -0.103467D+02
   zy        -0.296795D+02     -0.439804D+01     -0.489348D+01
   zz         0.651396D+03      0.965269D+02      0.107401D+03

 First dipole hyperpolarizability, Beta (dipole orientation).
 ||, _|_  parallel and perpendicular components, (z) with respect to z axis,
 vector components x,y,z.  Values do not include the 1/n! factor of 1/2.
 (esu units = statvolt**-1 cm**4 , SI units = C**3 m**3 J**-2)
 Beta(0;0,0):
               (au)            (10**-30 esu)      (10**-50 SI)
   || (z)    -0.570862D+03     -0.493180D+01     -0.183039D+01
   _|_(z)    -0.190287D+03     -0.164393D+01     -0.610130D+00
   x          0.181487D+04      0.156791D+02      0.581913D+01
   y         -0.281166D+04     -0.242906D+02     -0.901521D+01
   z         -0.285431D+04     -0.246590D+02     -0.915195D+01
   ||         0.879688D+03      0.759982D+01      0.282060D+01
   xxx        0.247848D+03      0.214122D+01      0.794691D+00
   xxy       -0.408026D+03     -0.352503D+01     -0.130828D+01
   yxy        0.588709D+03      0.508599D+01      0.188762D+01
   yyy       -0.918163D+03     -0.793221D+01     -0.294396D+01
   xxz       -0.692846D+02     -0.598565D+00     -0.222151D+00
   yxz        0.207045D+03      0.178871D+01      0.663861D+00
   yyz       -0.346736D+03     -0.299553D+01     -0.111176D+01
   zxz       -0.231602D+03     -0.200086D+01     -0.742598D+00
   zyz        0.388968D+03      0.336038D+01      0.124717D+01
   zzz       -0.535416D+03     -0.462558D+01     -0.171674D+01

 ----------------------------------------------------------------------
 Unable to Open any file for archive entry.
 1\1\GINC-BGN1020\SP\RAPFD\def2TZVP\C31H34Fe1N4O1S1\BECSLEIP\12-Sep-202
 4\0\\# polar def2tzvp apfd int=(grid=ultrafine)\\5a5i_II_S\\0,1\Fe,0,6
 4.645793221,8.9232599726,-1.3057021618\N,0,64.7500564479,9.2616426197,
 -3.2951116386\N,0,65.4320729752,10.749044035,-0.9901258104\N,0,64.6610
 422044,8.5568324674,0.6493746027\N,0,63.9596413124,7.0877942677,-1.653
 9316073\C,0,64.4786170236,8.3740931558,-4.2887499135\C,0,64.6163225235
 ,8.9960106621,-5.5848911262\C,0,65.0230750948,10.2739237653,-5.3542913
 555\C,0,65.1316156466,10.411221886,-3.9202276481\C,0,65.7565820759,11.
 6873821845,-1.9221454953\C,0,66.2920180628,12.8688988766,-1.2964676744
 \C,0,66.3086476148,12.6170156649,0.0493671177\C,0,65.7804015143,11.276
 6003643,0.2125619614\C,0,65.040461647,9.4152035975,1.6326536828\C,0,64
 .7392990549,8.8659831942,2.9296727775\C,0,64.2378582903,7.6123806962,2
 .7111278098\C,0,64.2085570113,7.439670093,1.2717031913\C,0,63.77350561
 14,6.1036252271,-0.7362810064\C,0,63.3743896144,4.8696400857,-1.376629
 7664\C,0,63.4068228957,5.1092315448,-2.713492063\C,0,63.8213656318,6.4
 879001114,-2.8674573989\C,0,64.0213656279,7.0839228331,-4.09674894\H,0
 ,63.8445499989,6.4838945407,-4.9758321203\C,0,65.597701676,11.54735091
 55,-3.2900630963\H,0,65.8845377263,12.3790812078,-3.9143176237\C,0,65.
 5768506566,10.67511669,1.4385676654\H,0,65.8711384801,11.2244085138,2.
 3193753193\C,0,63.814063419,6.2788270935,0.6337194054\H,0,63.585729458
 8,5.4267341311,1.2544649529\C,0,65.3282210899,11.3594805208,-6.3281938
 312\H,0,65.1327793582,11.0310201311,-7.3458515797\H,0,66.3759185913,11
 .654104233,-6.2587319761\H,0,64.7164191034,12.2394319736,-6.1283207827
 \C,0,64.3573790428,8.306119116,-6.8795889553\H,0,63.319297138,7.978112
 9369,-6.9385653057\H,0,64.9949947354,7.4275758612,-6.9798372956\H,0,64
 .555057349,8.9696793801,-7.717752492\C,0,66.6668629372,14.1209169816,-
 2.0093266496\H,0,65.970936727,14.3273871373,-2.8213391516\H,0,67.66835
 43232,14.0415214619,-2.4354036098\H,0,66.6538977081,14.9608938543,-1.3
 17905556\C,0,66.7389409294,13.4726772349,1.1337450623\H,0,66.188554881
 5,13.3664298857,2.0613373569\C,0,67.7366154808,14.3482168673,1.0740067
 115\H,0,68.3479662481,14.4620001259,0.1958595383\H,0,67.994970284,14.9
 655942234,1.9182677288\C,0,64.9577288021,9.5641441949,4.2266606466\H,0
 ,64.3570738503,10.4727126693,4.2767110796\H,0,66.0049488144,9.84570628
 46,4.3420913223\H,0,64.6749678014,8.9226606235,5.057371603\C,0,63.7765
 250252,6.671631279,3.7131283337\H,0,64.3790645404,6.622910293,4.614018
 301\C,0,62.684639886,5.9218148163,3.6232807684\H,0,62.0241709463,5.976
 4481106,2.774703816\H,0,62.3985040213,5.2458012378,4.4120708304\C,0,63
 .0304413946,3.6188451356,-0.6447838273\H,0,62.1693062956,3.7808235742,
 0.0036842211\H,0,63.8652489794,3.2975628994,-0.0219638878\H,0,62.79101
 31939,2.8172342648,-1.3390932871\C,0,63.1037558801,4.1896465241,-3.846
 0910609\H,0,62.7802605715,3.2192894702,-3.4780371505\H,0,63.9866573333
 ,4.0429468947,-4.4690225541\H,0,62.3118554389,4.6002452074,-4.47261769
 25\O,0,66.7350000001,8.161,-1.552\H,0,66.929,8.448,-2.444\H,0,67.253,7
 .653,-1.0389999999\C,0,61.864840909,10.3229025397,-2.7358281648\H,0,62
 .6317353096,10.9179998969,-3.2184617461\H,0,60.9448874449,10.886717289
 7,-2.6154645173\H,0,61.6820033736,9.4225950819,-3.3128486609\S,0,62.44
 98186477,9.7742574833,-1.0930293817\H,0,62.7385723502,11.0042076112,-0
 .651335728\\Version=ES64L-G16RevC.02\State=1-A\HF=-3157.1923161\RMSD=2
 .493e-09\Dipole=0.1268771,-0.0049382,-0.8157993\Polar=332.3830733,157.
 2944933,636.3127107,12.1746392,-5.4523928,663.2616125\HyperPolar=190.2
 292805,327.8099656,532.3346005,925.1135082,180.2918869,313.6251137,423
 .5926037,-270.5721442,-309.7485561,423.5940525\Quadrupole=-3.8492615,0
 .0256846,3.8235769,-0.6702596,1.4357379,-0.8292555\PG=C01 [X(C31H34Fe1
 N4O1S1)]\\@
 The archive entry for this job was punched.


 THE WORLD IS NOT A HAMBURGER - YOU CAN'T HAVE IT YOUR WAY.
 Job cpu time:       1 days 18 hours  8 minutes  1.1 seconds.
 Elapsed time:       0 days  0 hours 36 minutes 42.8 seconds.
 File lengths (MBytes):  RWF=   1013 Int=      0 D2E=      0 Chk=    130 Scr=      1
 Normal termination of Gaussian 16 at Thu Sep 12 14:34:56 2024.
 Initial command:
 /sw/chem/gaussian/g16_C02/a100/g16/l1.exe "/local/becsleip_8014614/Gau-675392.inp" -scrdir="/local/becsleip_8014614/"
 Entering Link 1 = /sw/chem/gaussian/g16_C02/a100/g16/l1.exe PID=    676964.
  
 Copyright (c) 1988-2021, Gaussian, Inc.  All Rights Reserved.
  
 This is part of the Gaussian(R) 16 program.  It is based on
 the Gaussian(R) 09 system (copyright 2009, Gaussian, Inc.),
 the Gaussian(R) 03 system (copyright 2003, Gaussian, Inc.),
 the Gaussian(R) 98 system (copyright 1998, Gaussian, Inc.),
 the Gaussian(R) 94 system (copyright 1995, Gaussian, Inc.),
 the Gaussian 92(TM) system (copyright 1992, Gaussian, Inc.),
 the Gaussian 90(TM) system (copyright 1990, Gaussian, Inc.),
 the Gaussian 88(TM) system (copyright 1988, Gaussian, Inc.),
 the Gaussian 86(TM) system (copyright 1986, Carnegie Mellon
 University), and the Gaussian 82(TM) system (copyright 1983,
 Carnegie Mellon University). Gaussian is a federally registered
 trademark of Gaussian, Inc.
  
 This software contains proprietary and confidential information,
 including trade secrets, belonging to Gaussian, Inc.
  
 This software is provided under written license and may be
 used, copied, transmitted, or stored only in accord with that
 written license.
  
 The following legend is applicable only to US Government
 contracts under FAR:
  
                    RESTRICTED RIGHTS LEGEND
  
 Use, reproduction and disclosure by the US Government is
 subject to restrictions as set forth in subparagraphs (a)
 and (c) of the Commercial Computer Software - Restricted
 Rights clause in FAR 52.227-19.
  
 Gaussian, Inc.
 340 Quinnipiac St., Bldg. 40, Wallingford CT 06492
  
  
 ---------------------------------------------------------------
 Warning -- This program may not be used in any manner that
 competes with the business of Gaussian, Inc. or will provide
 assistance to any competitor of Gaussian, Inc.  The licensee
 of this program is prohibited from giving any competitor of
 Gaussian, Inc. access to this program.  By using this program,
 the user acknowledges that Gaussian, Inc. is engaged in the
 business of creating and licensing software in the field of
 computational chemistry and represents and warrants to the
 licensee that it is not a competitor of Gaussian, Inc. and that
 it will not use this program in any manner prohibited above.
 ---------------------------------------------------------------
  

 Cite this work as:
 Gaussian 16, Revision C.02,
 M. J. Frisch, G. W. Trucks, H. B. Schlegel, G. E. Scuseria, 
 M. A. Robb, J. R. Cheeseman, G. Scalmani, V. Barone, 
 G. A. Petersson, H. Nakatsuji, X. Li, M. Caricato, A. V. Marenich, 
 J. Bloino, B. G. Janesko, R. Gomperts, B. Mennucci, H. P. Hratchian, 
 J. V. Ortiz, A. F. Izmaylov, J. L. Sonnenberg, D. Williams-Young, 
 F. Ding, F. Lipparini, F. Egidi, J. Goings, B. Peng, A. Petrone, 
 T. Henderson, D. Ranasinghe, V. G. Zakrzewski, J. Gao, N. Rega, 
 G. Zheng, W. Liang, M. Hada, M. Ehara, K. Toyota, R. Fukuda, 
 J. Hasegawa, M. Ishida, T. Nakajima, Y. Honda, O. Kitao, H. Nakai, 
 T. Vreven, K. Throssell, J. A. Montgomery, Jr., J. E. Peralta, 
 F. Ogliaro, M. J. Bearpark, J. J. Heyd, E. N. Brothers, K. N. Kudin, 
 V. N. Staroverov, T. A. Keith, R. Kobayashi, J. Normand, 
 K. Raghavachari, A. P. Rendell, J. C. Burant, S. S. Iyengar, 
 J. Tomasi, M. Cossi, J. M. Millam, M. Klene, C. Adamo, R. Cammi, 
 J. W. Ochterski, R. L. Martin, K. Morokuma, O. Farkas, 
 J. B. Foresman, and D. J. Fox, Gaussian, Inc., Wallingford CT, 2019.
 
 ******************************************
 Gaussian 16:  ES64L-G16RevC.02  7-Dec-2021
                12-Sep-2024 
 ******************************************
 %mem=16GB
 %CPU=0-71
 SetSPE:  set environment variable "OMP_PROC_BIND" = "true"
 SetSPE:  set environment variable "OMP_PLACES" = "{0},{1},{2},{3},{4},{5},{6},{7},{8},{9},{10},{11},{12},{13},{14},{15},{16},{17},{18},{19},{20},{21},{22},{23},{24},{25},{26},{27},{28},{29},{30},{31},{32},{33},{34},{35},{36},{37},{38},{39},{40},{41},{42},{43},{44},{45},{46},{47},{48},{49},{50},{51},{52},{53},{54},{55},{56},{57},{58},{59},{60},{61},{62},{63},{64},{65},{66},{67},{68},{69},{70},{71}"
 Will use up to   72 processors via shared memory.
 %gpucpu=0,1,2,3=0,1,2,3
 Will use    4 GPUs:
 Thread  CPU   GPU
      0    0     0
      1    1     1
      2    2     2
      3    3     3
      4    4    -1
      5    5    -1
      6    6    -1
      7    7    -1
      8    8    -1
      9    9    -1
     10   10    -1
     11   11    -1
     12   12    -1
     13   13    -1
     14   14    -1
     15   15    -1
     16   16    -1
     17   17    -1
     18   18    -1
     19   19    -1
     20   20    -1
     21   21    -1
     22   22    -1
     23   23    -1
     24   24    -1
     25   25    -1
     26   26    -1
     27   27    -1
     28   28    -1
     29   29    -1
     30   30    -1
     31   31    -1
     32   32    -1
     33   33    -1
     34   34    -1
     35   35    -1
     36   36    -1
     37   37    -1
     38   38    -1
     39   39    -1
     40   40    -1
     41   41    -1
     42   42    -1
     43   43    -1
     44   44    -1
     45   45    -1
     46   46    -1
     47   47    -1
     48   48    -1
     49   49    -1
     50   50    -1
     51   51    -1
     52   52    -1
     53   53    -1
     54   54    -1
     55   55    -1
     56   56    -1
     57   57    -1
     58   58    -1
     59   59    -1
     60   60    -1
     61   61    -1
     62   62    -1
     63   63    -1
     64   64    -1
     65   65    -1
     66   66    -1
     67   67    -1
     68   68    -1
     69   69    -1
     70   70    -1
     71   71    -1
 SetGPE:  set environment variable "OMP_PROC_BIND" = "true"
 SetGPE:  set environment variable "OMP_PLACES" = "{0},{1},{2},{3},{4},{5},{6},{7},{8},{9},{10},{11},{12},{13},{14},{15},{16},{17},{18},{19},{20},{21},{22},{23},{24},{25},{26},{27},{28},{29},{30},{31},{32},{33},{34},{35},{36},{37},{38},{39},{40},{41},{42},{43},{44},{45},{46},{47},{48},{49},{50},{51},{52},{53},{54},{55},{56},{57},{58},{59},{60},{61},{62},{63},{64},{65},{66},{67},{68},{69},{70},{71}"
 %oldchk=5a5i_II_O.chk
 %chk=5a5i_II_Sn.chk
 Properties for Device   0
 Minimum vector length:                              32
 Maximum vector length:                            1024
 Number of SMPs:                                    108
 Maximum number of threads per SMP:                2048
 Number of ASync Engines:                             5
 Memory:                                           9207742464
 Properties for Device   1
 Minimum vector length:                              32
 Maximum vector length:                            1024
 Number of SMPs:                                    108
 Maximum number of threads per SMP:                2048
 Number of ASync Engines:                             5
 Memory:                                           9207742464
 Properties for Device   2
 Minimum vector length:                              32
 Maximum vector length:                            1024
 Number of SMPs:                                    108
 Maximum number of threads per SMP:                2048
 Number of ASync Engines:                             5
 Memory:                                           9207742464
 Properties for Device   3
 Minimum vector length:                              32
 Maximum vector length:                            1024
 Number of SMPs:                                    108
 Maximum number of threads per SMP:                2048
[...]
  1139. RY*(  16) C  56                  0.00001     2.72021   
  1140. RY*(  17) C  56                  0.00001     2.63185   
  1141. RY*(  18) C  56                  0.00000     3.31101   
  1142. RY*(  19) C  56                  0.00001     2.55556   
  1143. RY*(  20) C  56                  0.00000     3.23058   
  1144. RY*(  21) C  56                  0.00000     3.64289   
  1145. RY*(  22) C  56                  0.00000     3.78808   
  1146. RY*(  23) C  56                  0.00000     3.37634   
  1147. RY*(  24) C  56                  0.00000     3.39032   
  1148. RY*(  25) C  56                  0.00000     3.86156   
  1149. RY*(  26) C  56                  0.00001     3.66289   
  1150. RY*(   1) H  57                  0.00093     0.91460   
  1151. RY*(   2) H  57                  0.00017     1.83615   
  1152. RY*(   3) H  57                  0.00006     2.08744   
  1153. RY*(   4) H  57                  0.00006     2.09317   
  1154. RY*(   5) H  57                  0.00001     2.97969   
  1155. RY*(   1) H  58                  0.00085     0.93405   
  1156. RY*(   2) H  58                  0.00018     1.84596   
  1157. RY*(   3) H  58                  0.00006     2.04407   
  1158. RY*(   4) H  58                  0.00006     2.10248   
  1159. RY*(   5) H  58                  0.00001     2.97689   
  1160. RY*(   1) H  59                  0.00073     0.86054   
  1161. RY*(   2) H  59                  0.00013     1.70554   
  1162. RY*(   3) H  59                  0.00011     2.16642   
  1163. RY*(   4) H  59                  0.00007     2.08315   
  1164. RY*(   5) H  59                  0.00001     3.00038   
  1165. RY*(   1) C  60                  0.00144     1.33487   
  1166. RY*(   2) C  60                  0.00142     1.21908   
  1167. RY*(   3) C  60                  0.00074     1.38290   
  1168. RY*(   4) C  60                  0.00015     1.08973   
  1169. RY*(   5) C  60                  0.00004     1.92750   
  1170. RY*(   6) C  60                  0.00005     1.47565   
  1171. RY*(   7) C  60                  0.00001     1.40825   
  1172. RY*(   8) C  60                  0.00001     3.16531   
  1173. RY*(   9) C  60                  0.00002     2.59688   
  1174. RY*(  10) C  60                  0.00001     2.81669   
  1175. RY*(  11) C  60                  0.00001     2.58936   
  1176. RY*(  12) C  60                  0.00000     2.20814   
  1177. RY*(  13) C  60                  0.00000     2.37610   
  1178. RY*(  14) C  60                  0.00001     2.86195   
  1179. RY*(  15) C  60                  0.00000     2.37262   
  1180. RY*(  16) C  60                  0.00001     1.78591   
  1181. RY*(  17) C  60                  0.00000    20.92780   
  1182. RY*(  18) C  60                  0.00000     3.53913   
  1183. RY*(  19) C  60                  0.00000     2.59754   
  1184. RY*(  20) C  60                  0.00000     3.21998   
  1185. RY*(  21) C  60                  0.00000     3.57107   
  1186. RY*(  22) C  60                  0.00000     3.91998   
  1187. RY*(  23) C  60                  0.00000     3.39616   
  1188. RY*(  24) C  60                  0.00000     3.34987   
  1189. RY*(  25) C  60                  0.00001     3.73590   
  1190. RY*(  26) C  60                  0.00000     3.87148   
  1191. RY*(   1) H  61                  0.00074     0.86542   
  1192. RY*(   2) H  61                  0.00013     1.70583   
  1193. RY*(   3) H  61                  0.00011     2.15700   
  1194. RY*(   4) H  61                  0.00007     2.08289   
  1195. RY*(   5) H  61                  0.00001     3.00572   
  1196. RY*(   1) H  62                  0.00093     0.91079   
  1197. RY*(   2) H  62                  0.00018     1.82723   
  1198. RY*(   3) H  62                  0.00007     2.14155   
  1199. RY*(   4) H  62                  0.00005     2.00409   
  1200. RY*(   5) H  62                  0.00001     2.97116   
  1201. RY*(   1) H  63                  0.00091     0.88813   
  1202. RY*(   2) H  63                  0.00018     1.84804   
  1203. RY*(   3) H  63                  0.00007     2.14760   
  1204. RY*(   4) H  63                  0.00006     2.00792   
  1205. RY*(   5) H  63                  0.00001     2.97077   
  1317. BD*(   1) N   2 - C   6          0.02650     0.51134   
  1318. BD*(   1) N   2 - C   9          0.02700     0.50552   
  1319. BD*(   2) N   2 - C   9          0.65016     0.00494  1339(v),1330(v),1332(v)
                                                    366(g),182(g),733(v),145(r)
                                                    1316(r),142(r),1398(r)
  1320. BD*(   1) N   3 - C  10          0.02645     0.51042   
  1321. BD*(   1) N   3 - C  13          0.02567     0.51536   
  1322. BD*(   2) N   3 - C  13          0.61153     0.01358  1348(v),1339(v),1341(v)
                                                    470(g),1327(r),208(g),145(r)
                                                    764(v),1316(r),142(r)
  1323. BD*(   1) N   4 - C  14          0.02679     0.51366   
  1324. BD*(   1) N   4 - C  17          0.02573     0.51860   
  1325. BD*(   1) N   5 - C  18          0.02639     0.51674   
  1326. BD*(   1) N   5 - C  21          0.02670     0.51261   
  1327. BD*(   2) N   5 - C  21          0.61445     0.01424  1330(v),1359(v),151(v)
                                                    678(g),1322(r),260(g),145(r)
                                                    702(v),680(g),1316(r)
                                                    1402(r),141(r)
  1328. BD*(   1) C   6 - C   7          0.03524     0.49239   
  1329. BD*(   1) C   6 - C  22          0.02154     0.57907   
  1330. BD*(   2) C   6 - C  22          0.42626     0.04553  1327(v),1332(v),1319(v)
                                                    1339(r),702(g),290(g)
  1331. BD*(   1) C   7 - C   8          0.02285     0.60448   
  1332. BD*(   2) C   7 - C   8          0.25559     0.06684  1330(v),1319(v),1369(v)
                                                    1371(v),1372(v),1370(v)
  1333. BD*(   1) C   7 - C  34          0.01732     0.41335   
  1334. BD*(   1) C   8 - C   9          0.03543     0.49214   
  1335. BD*(   1) C   8 - C  30          0.01739     0.41283   
  1336. BD*(   1) C   9 - C  24          0.02133     0.58042   
  1337. BD*(   1) C  10 - C  11          0.03434     0.49876   
  1338. BD*(   1) C  10 - C  24          0.02142     0.57492   
  1339. BD*(   2) C  10 - C  24          0.43573     0.04492  1319(v),1341(v),1322(v)
                                                    1330(r),733(g),1348(r)
                                                    392(g),394(g)
  1340. BD*(   1) C  11 - C  12          0.02469     0.59282   
  1341. BD*(   2) C  11 - C  12          0.28676     0.06612  1379(v),1339(v),1322(v)
                                                    1375(v),1374(v)
  1342. BD*(   1) C  11 - C  38          0.01647     0.41727   
  1343. BD*(   1) C  12 - C  13          0.03450     0.48878   
  1344. BD*(   1) C  12 - C  42          0.02671     0.49727   
  1345. BD*(   1) C  13 - C  26          0.02082     0.58135   
  1346. BD*(   1) C  14 - C  15          0.03399     0.49852   
  1347. BD*(   1) C  14 - C  26          0.02119     0.57845   
  1348. BD*(   2) C  14 - C  26          0.42176     0.04798  1322(v),1350(v),149(v)
                                                    1355(r),764(g),1339(r)
                                                    498(g),1379(r),496(g)
  1349. BD*(   1) C  15 - C  16          0.02221     0.59419   
  1350. BD*(   2) C  15 - C  16          0.27962     0.06732  1387(v),1355(v),1348(v)
                                                    1383(v),1382(v),1385(v)
  1351. BD*(   1) C  15 - C  47          0.01658     0.41709   
  1352. BD*(   1) C  16 - C  17          0.03783     0.48931   
  1353. BD*(   1) C  16 - C  51          0.02670     0.49436   
  1354. BD*(   1) C  17 - C  28          0.02071     0.57983   
  1355. BD*(   2) C  17 - C  28          0.41226     0.05096  1350(v),151(v),149(v)
                                                    1348(r),1387(r),795(g)
                                                    574(g),576(g)
  1356. BD*(   1) C  18 - C  19          0.03499     0.49410   
  1357. BD*(   1) C  18 - C  28          0.02148     0.58231   
  1358. BD*(   1) C  19 - C  20          0.02250     0.61250   
  1359. BD*(   2) C  19 - C  20          0.24413     0.07277  1327(v),151(v),1394(v)
                                                    1390(v),1391(v),1395(v)
  1360. BD*(   1) C  19 - C  56          0.01721     0.41849   
  1361. BD*(   1) C  20 - C  21          0.03514     0.49175   
  1362. BD*(   1) C  20 - C  60          0.01732     0.41666   
  1363. BD*(   1) C  21 - C  22          0.02094     0.58164   
  1364. BD*(   1) C  22 - H  23          0.01267     0.43467   
  1365. BD*(   1) C  24 - H  25          0.01297     0.43440   
  1366. BD*(   1) C  26 - H  27          0.01299     0.43516   
  1367. BD*(   1) C  28 - H  29          0.01437     0.44274   
  1368. BD*(   1) C  30 - H  31          0.00667     0.38841   
  1369. BD*(   1) C  30 - H  32          0.01123     0.37654   
  1370. BD*(   1) C  30 - H  33          0.01058     0.37720   
  1371. BD*(   1) C  34 - H  35          0.01108     0.37731   
  1372. BD*(   1) C  34 - H  36          0.01058     0.37748   
  1373. BD*(   1) C  34 - H  37          0.00671     0.38854   
  1374. BD*(   1) C  38 - H  39          0.01026     0.38519   
  1375. BD*(   1) C  38 - H  40          0.01266     0.37798   
  1376. BD*(   1) C  38 - H  41          0.00818     0.39383   
  1377. BD*(   1) C  42 - H  43          0.02152     0.42398   
  1378. BD*(   1) C  42 - C  44          0.00779     0.63262   
  1379. BD*(   2) C  42 - C  44          0.07604     0.05980   
  1380. BD*(   1) C  44 - H  45          0.01103     0.43587   
  1381. BD*(   1) C  44 - H  46          0.00862     0.43607   
  1382. BD*(   1) C  47 - H  48          0.01088     0.38130   
  1383. BD*(   1) C  47 - H  49          0.01046     0.38071   
  1384. BD*(   1) C  47 - H  50          0.00608     0.39261   
  1385. BD*(   1) C  51 - H  52          0.02204     0.42259   
  1386. BD*(   1) C  51 - C  53          0.00717     0.62521   
  1387. BD*(   2) C  51 - C  53          0.06697     0.06776   
  1388. BD*(   1) C  53 - H  54          0.01140     0.43732   
  1389. BD*(   1) C  53 - H  55          0.00894     0.43659   
  1390. BD*(   1) C  56 - H  57          0.01110     0.38266   
  1391. BD*(   1) C  56 - H  58          0.01043     0.38353   
  1392. BD*(   1) C  56 - H  59          0.00668     0.39300   
  1393. BD*(   1) C  60 - H  61          0.00672     0.39237   
  1394. BD*(   1) C  60 - H  62          0.01120     0.38017   
  1395. BD*(   1) C  60 - H  63          0.01082     0.38097   
       -------------------------------
              Total Lewis  230.17413  ( 97.2463%)
        Valence non-Lewis    6.01520  (  2.5414%)
        Rydberg non-Lewis    0.50265  (  0.2124%)
       -------------------------------
            Total unit  2  236.69198  (100.0000%)
           Charge unit  2   -0.69198
 
 Molecular unit  3  (H2O)
    81. BD (   1) O  64 - H  65          1.99010    -0.81743  145(r),156(r),1238(v),144(r)
                                                    159(r),1316(r),142(r),186(r)
                                                    163(r),143(r),234(r),1288(r)
                                                    237(r),236(r),162(r),158(r)
    82. BD (   1) O  64 - H  66          1.99510    -0.87946  145(r),156(r),1234(v)
                                                    1316(r),142(r),159(r),185(r)
                                                    186(r),212(r),161(r),144(r)
                                                    209(r),191(r),162(r),157(r)
                                                    160(r)
   131. CR (   1) O  64                  1.99980   -18.97231  145(r),1238(v),1234(v)
                                                    1239(v),142(r),1316(r)
                                                    144(r),159(r)
   152. LP (   1) O  64                  1.99213    -0.33952  143(r),1237(v),1233(v)
                                                    144(r),145(r),157(r),212(r)
                                                    268(r),216(r),1322(r)
   153. LP (   2) O  64                  1.83525    -0.50066  145(r),1238(v),1396(g)
                                                    1234(v),1397(g),160(r)
                                                    144(r),1316(r),163(r),142(r)
                                                    159(r),162(r),185(r),263(r)
                                                    211(r),208(r),234(r),260(r)
                                                    184(r),210(r),182(r),262(r)
                                                    143(r),1291(r),158(r),236(r)
                                                    1290(r),237(r)
  1206. RY*(   1) O  64                  0.00250     0.59536   
  1207. RY*(   2) O  64                  0.00193     1.12800   
  1208. RY*(   3) O  64                  0.00037     1.49494   
  1209. RY*(   4) O  64                  0.00024     0.90573   
  1210. RY*(   5) O  64                  0.00007     2.58256   
  1211. RY*(   6) O  64                  0.00003     2.04964   
  1212. RY*(   7) O  64                  0.00003     4.14624   
  1213. RY*(   8) O  64                  0.00002     2.15308   
  1214. RY*(   9) O  64                  0.00001     3.89879   
  1215. RY*(  10) O  64                  0.00001     2.87169   
  1216. RY*(  11) O  64                  0.00000     6.38861   
  1217. RY*(  12) O  64                  0.00000    41.79687   
  1218. RY*(  13) O  64                  0.00000     6.46246   
  1219. RY*(  14) O  64                  0.00000     3.23482   
  1220. RY*(  15) O  64                  0.00000     6.50052   
  1221. RY*(  16) O  64                  0.00000     2.97362   
  1222. RY*(  17) O  64                  0.00000     6.30367   
  1223. RY*(  18) O  64                  0.00000     2.80893   
  1224. RY*(  19) O  64                  0.00000     6.56425   
  1225. RY*(  20) O  64                  0.00000     5.36145   
  1226. RY*(  21) O  64                  0.00000     5.40511   
  1227. RY*(  22) O  64                  0.00000     5.60087   
  1228. RY*(  23) O  64                  0.00000     5.29676   
  1229. RY*(  24) O  64                  0.00000     5.59535   
  1230. RY*(  25) O  64                  0.00000     5.61367   
  1231. RY*(  26) O  64                  0.00000     5.34241   
  1232. RY*(   1) H  65                  0.00118     0.76012   
  1233. RY*(   2) H  65                  0.00080     2.02021   
  1234. RY*(   3) H  65                  0.00067     2.37472   
  1235. RY*(   4) H  65                  0.00020     2.08301   
  1236. RY*(   5) H  65                  0.00001     2.88587   
  1237. RY*(   1) H  66                  0.00097     2.00676   
  1238. RY*(   2) H  66                  0.00077     1.92777   
  1239. RY*(   3) H  66                  0.00046     1.84809   
  1240. RY*(   4) H  66                  0.00025     1.62042   
  1241. RY*(   5) H  66                  0.00001     3.01176   
  1396. BD*(   1) O  64 - H  65          0.00472     0.42651   
  1397. BD*(   1) O  64 - H  66          0.00244     0.60389   
       -------------------------------
              Total Lewis    9.81237  ( 99.8200%)
        Valence non-Lewis    0.00716  (  0.0728%)
        Rydberg non-Lewis    0.01053  (  0.1071%)
       -------------------------------
            Total unit  3    9.83006  (100.0000%)
           Charge unit  3    0.16994
 Unable to Open any file for archive entry.
 1\1\GINC-BGN1020\SP\RAPFD\def2TZVP\C31H34Fe1N4O1S1\BECSLEIP\12-Sep-202
 4\0\\# apfd/def2TZVP int=(grid=ultrafine) geom=check guess=read pop=nb
 o scf=qc\\5a5i_II_S_nbo\\0,1\Fe,0,64.645793221,8.9232599726,-1.3057021
 618\N,0,64.7500564479,9.2616426197,-3.2951116386\N,0,65.4320729752,10.
 749044035,-0.9901258104\N,0,64.6610422044,8.5568324674,0.6493746027\N,
 0,63.9596413124,7.0877942677,-1.6539316073\C,0,64.4786170236,8.3740931
 558,-4.2887499135\C,0,64.6163225235,8.9960106621,-5.5848911262\C,0,65.
 0230750948,10.2739237653,-5.3542913555\C,0,65.1316156466,10.411221886,
 -3.9202276481\C,0,65.7565820759,11.6873821845,-1.9221454953\C,0,66.292
 0180628,12.8688988766,-1.2964676744\C,0,66.3086476148,12.6170156649,0.
 0493671177\C,0,65.7804015143,11.2766003643,0.2125619614\C,0,65.0404616
 47,9.4152035975,1.6326536828\C,0,64.7392990549,8.8659831942,2.92967277
 75\C,0,64.2378582903,7.6123806962,2.7111278098\C,0,64.2085570113,7.439
 670093,1.2717031913\C,0,63.7735056114,6.1036252271,-0.7362810064\C,0,6
 3.3743896144,4.8696400857,-1.3766297664\C,0,63.4068228957,5.1092315448
 ,-2.713492063\C,0,63.8213656318,6.4879001114,-2.8674573989\C,0,64.0213
 656279,7.0839228331,-4.09674894\H,0,63.8445499989,6.4838945407,-4.9758
 321203\C,0,65.597701676,11.5473509155,-3.2900630963\H,0,65.8845377263,
 12.3790812078,-3.9143176237\C,0,65.5768506566,10.67511669,1.4385676654
 \H,0,65.8711384801,11.2244085138,2.3193753193\C,0,63.814063419,6.27882
 70935,0.6337194054\H,0,63.5857294588,5.4267341311,1.2544649529\C,0,65.
 3282210899,11.3594805208,-6.3281938312\H,0,65.1327793582,11.0310201311
 ,-7.3458515797\H,0,66.3759185913,11.654104233,-6.2587319761\H,0,64.716
 4191034,12.2394319736,-6.1283207827\C,0,64.3573790428,8.306119116,-6.8
 795889553\H,0,63.319297138,7.9781129369,-6.9385653057\H,0,64.994994735
 4,7.4275758612,-6.9798372956\H,0,64.555057349,8.9696793801,-7.71775249
 2\C,0,66.6668629372,14.1209169816,-2.0093266496\H,0,65.970936727,14.32
 73871373,-2.8213391516\H,0,67.6683543232,14.0415214619,-2.4354036098\H
 ,0,66.6538977081,14.9608938543,-1.317905556\C,0,66.7389409294,13.47267
 72349,1.1337450623\H,0,66.1885548815,13.3664298857,2.0613373569\C,0,67
 .7366154808,14.3482168673,1.0740067115\H,0,68.3479662481,14.4620001259
 ,0.1958595383\H,0,67.994970284,14.9655942234,1.9182677288\C,0,64.95772
 88021,9.5641441949,4.2266606466\H,0,64.3570738503,10.4727126693,4.2767
 110796\H,0,66.0049488144,9.8457062846,4.3420913223\H,0,64.6749678014,8
 .9226606235,5.057371603\C,0,63.7765250252,6.671631279,3.7131283337\H,0
 ,64.3790645404,6.622910293,4.614018301\C,0,62.684639886,5.9218148163,3
 .6232807684\H,0,62.0241709463,5.9764481106,2.774703816\H,0,62.39850402
 13,5.2458012378,4.4120708304\C,0,63.0304413946,3.6188451356,-0.6447838
 273\H,0,62.1693062956,3.7808235742,0.0036842211\H,0,63.8652489794,3.29
 75628994,-0.0219638878\H,0,62.7910131939,2.8172342648,-1.3390932871\C,
 0,63.1037558801,4.1896465241,-3.8460910609\H,0,62.7802605715,3.2192894
 702,-3.4780371505\H,0,63.9866573333,4.0429468947,-4.4690225541\H,0,62.
 3118554389,4.6002452074,-4.4726176925\O,0,66.7350000001,8.161,-1.552\H
 ,0,66.929,8.448,-2.444\H,0,67.253,7.653,-1.0389999999\C,0,61.864840909
 ,10.3229025397,-2.7358281648\H,0,62.6317353096,10.9179998969,-3.218461
 7461\H,0,60.9448874449,10.8867172897,-2.6154645173\H,0,61.6820033736,9
 .4225950819,-3.3128486609\S,0,62.4498186477,9.7742574833,-1.0930293817
 \H,0,62.7385723502,11.0042076112,-0.651335728\\Version=ES64L-G16RevC.0
 2\State=1-A\HF=-3157.1923161\RMSD=1.176e-09\Dipole=0.1268771,-0.004938
 2,-0.8157993\Quadrupole=-3.8492615,0.0256846,3.8235769,-0.6702596,1.43
 57379,-0.8292555\PG=C01 [X(C31H34Fe1N4O1S1)]\\@
 The archive entry for this job was punched.


 THE MOLECULE ALSO HAS A BODY.  WHEN THIS BODY IS HIT, THE MOLECULE
 FEELS HURT ALL OVER -- A. KITAIGORODSKI
 Job cpu time:       0 days  0 hours 39 minutes 11.3 seconds.
 Elapsed time:       0 days  0 hours  0 minutes 49.3 seconds.
 File lengths (MBytes):  RWF=    664 Int=      0 D2E=      0 Chk=    156 Scr=      1
 Normal termination of Gaussian 16 at Thu Sep 12 14:35:47 2024.
