 Entering Gaussian System, Link 0=g16
 Input=5abo05.com
 Output=5abo05.log
 Initial command:
 /sw/chem/gaussian/g16_C02/a100/g16/l1.exe "/local/becsleip_8015178/Gau-2977642.inp" -scrdir="/local/becsleip_8015178/"
 Entering Link 1 = /sw/chem/gaussian/g16_C02/a100/g16/l1.exe PID=   2977643.
  
 Copyright (c) 1988-2021, Gaussian, Inc.  All Rights Reserved.
  
 This is part of the Gaussian(R) 16 program.  It is based on
 the Gaussian(R) 09 system (copyright 2009, Gaussian, Inc.),
 the Gaussian(R) 03 system (copyright 2003, Gaussian, Inc.),
 the Gaussian(R) 98 system (copyright 1998, Gaussian, Inc.),
 the Gaussian(R) 94 system (copyright 1995, Gaussian, Inc.),
 the Gaussian 92(TM) system (copyright 1992, Gaussian, Inc.),
 the Gaussian 90(TM) system (copyright 1990, Gaussian, Inc.),
 the Gaussian 88(TM) system (copyright 1988, Gaussian, Inc.),
 the Gaussian 86(TM) system (copyright 1986, Carnegie Mellon
 University), and the Gaussian 82(TM) system (copyright 1983,
 Carnegie Mellon University). Gaussian is a federally registered
 trademark of Gaussian, Inc.
  
 This software contains proprietary and confidential information,
 including trade secrets, belonging to Gaussian, Inc.
  
 This software is provided under written license and may be
 used, copied, transmitted, or stored only in accord with that
 written license.
  
 The following legend is applicable only to US Government
 contracts under FAR:
  
                    RESTRICTED RIGHTS LEGEND
  
 Use, reproduction and disclosure by the US Government is
 subject to restrictions as set forth in subparagraphs (a)
 and (c) of the Commercial Computer Software - Restricted
 Rights clause in FAR 52.227-19.
  
 Gaussian, Inc.
 340 Quinnipiac St., Bldg. 40, Wallingford CT 06492
  
  
 ---------------------------------------------------------------
 Warning -- This program may not be used in any manner that
 competes with the business of Gaussian, Inc. or will provide
 assistance to any competitor of Gaussian, Inc.  The licensee
 of this program is prohibited from giving any competitor of
 Gaussian, Inc. access to this program.  By using this program,
 the user acknowledges that Gaussian, Inc. is engaged in the
 business of creating and licensing software in the field of
 computational chemistry and represents and warrants to the
 licensee that it is not a competitor of Gaussian, Inc. and that
 it will not use this program in any manner prohibited above.
 ---------------------------------------------------------------
  

 Cite this work as:
 Gaussian 16, Revision C.02,
 M. J. Frisch, G. W. Trucks, H. B. Schlegel, G. E. Scuseria, 
 M. A. Robb, J. R. Cheeseman, G. Scalmani, V. Barone, 
 G. A. Petersson, H. Nakatsuji, X. Li, M. Caricato, A. V. Marenich, 
 J. Bloino, B. G. Janesko, R. Gomperts, B. Mennucci, H. P. Hratchian, 
 J. V. Ortiz, A. F. Izmaylov, J. L. Sonnenberg, D. Williams-Young, 
 F. Ding, F. Lipparini, F. Egidi, J. Goings, B. Peng, A. Petrone, 
 T. Henderson, D. Ranasinghe, V. G. Zakrzewski, J. Gao, N. Rega, 
 G. Zheng, W. Liang, M. Hada, M. Ehara, K. Toyota, R. Fukuda, 
 J. Hasegawa, M. Ishida, T. Nakajima, Y. Honda, O. Kitao, H. Nakai, 
 T. Vreven, K. Throssell, J. A. Montgomery, Jr., J. E. Peralta, 
 F. Ogliaro, M. J. Bearpark, J. J. Heyd, E. N. Brothers, K. N. Kudin, 
 V. N. Staroverov, T. A. Keith, R. Kobayashi, J. Normand, 
 K. Raghavachari, A. P. Rendell, J. C. Burant, S. S. Iyengar, 
 J. Tomasi, M. Cossi, J. M. Millam, M. Klene, C. Adamo, R. Cammi, 
 J. W. Ochterski, R. L. Martin, K. Morokuma, O. Farkas, 
 J. B. Foresman, and D. J. Fox, Gaussian, Inc., Wallingford CT, 2019.
 
 ******************************************
 Gaussian 16:  ES64L-G16RevC.02  7-Dec-2021
                12-Sep-2024 
 ******************************************
 %mem=16GB
 %CPU=0-71
 SetSPE:  set environment variable "OMP_PROC_BIND" = "true"
 SetSPE:  set environment variable "OMP_PLACES" = "{0},{1},{2},{3},{4},{5},{6},{7},{8},{9},{10},{11},{12},{13},{14},{15},{16},{17},{18},{19},{20},{21},{22},{23},{24},{25},{26},{27},{28},{29},{30},{31},{32},{33},{34},{35},{36},{37},{38},{39},{40},{41},{42},{43},{44},{45},{46},{47},{48},{49},{50},{51},{52},{53},{54},{55},{56},{57},{58},{59},{60},{61},{62},{63},{64},{65},{66},{67},{68},{69},{70},{71}"
 Will use up to   72 processors via shared memory.
 %gpucpu=0,1,2,3=0,1,2,3
 Will use    4 GPUs:
 Thread  CPU   GPU
      0    0     0
      1    1     1
      2    2     2
      3    3     3
      4    4    -1
      5    5    -1
      6    6    -1
      7    7    -1
      8    8    -1
      9    9    -1
     10   10    -1
     11   11    -1
     12   12    -1
     13   13    -1
     14   14    -1
     15   15    -1
     16   16    -1
     17   17    -1
     18   18    -1
     19   19    -1
     20   20    -1
     21   21    -1
     22   22    -1
     23   23    -1
     24   24    -1
     25   25    -1
     26   26    -1
     27   27    -1
     28   28    -1
     29   29    -1
     30   30    -1
     31   31    -1
     32   32    -1
     33   33    -1
     34   34    -1
     35   35    -1
     36   36    -1
     37   37    -1
     38   38    -1
     39   39    -1
     40   40    -1
     41   41    -1
     42   42    -1
     43   43    -1
     44   44    -1
     45   45    -1
     46   46    -1
     47   47    -1
     48   48    -1
     49   49    -1
     50   50    -1
     51   51    -1
     52   52    -1
     53   53    -1
     54   54    -1
     55   55    -1
     56   56    -1
     57   57    -1
     58   58    -1
     59   59    -1
     60   60    -1
     61   61    -1
     62   62    -1
     63   63    -1
     64   64    -1
     65   65    -1
     66   66    -1
     67   67    -1
     68   68    -1
     69   69    -1
     70   70    -1
     71   71    -1
 SetGPE:  set environment variable "OMP_PROC_BIND" = "true"
 SetGPE:  set environment variable "OMP_PLACES" = "{0},{1},{2},{3},{4},{5},{6},{7},{8},{9},{10},{11},{12},{13},{14},{15},{16},{17},{18},{19},{20},{21},{22},{23},{24},{25},{26},{27},{28},{29},{30},{31},{32},{33},{34},{35},{36},{37},{38},{39},{40},{41},{42},{43},{44},{45},{46},{47},{48},{49},{50},{51},{52},{53},{54},{55},{56},{57},{58},{59},{60},{61},{62},{63},{64},{65},{66},{67},{68},{69},{70},{71}"
 %oldchk=5abo_II_Sre.chk
 %chk=5abo_II_Qn.chk
 Properties for Device   0
 Minimum vector length:                              32
 Maximum vector length:                            1024
 Number of SMPs:                                    108
 Maximum number of threads per SMP:                2048
 Number of ASync Engines:                             5
 Memory:                                           9207742464
 Properties for Device   1
 Minimum vector length:                              32
 Maximum vector length:                            1024
 Number of SMPs:                                    108
 Maximum number of threads per SMP:                2048
 Number of ASync Engines:                             5
 Memory:                                           9207742464
 Properties for Device   2
 Minimum vector length:                              32
 Maximum vector length:                            1024
 Number of SMPs:                                    108
 Maximum number of threads per SMP:                2048
 Number of ASync Engines:                             5
 Memory:                                           9207742464
 Properties for Device   3
 Minimum vector length:                              32
 Maximum vector length:                            1024
 Number of SMPs:                                    108
 Maximum number of threads per SMP:                2048
 Number of ASync Engines:                             5
 Memory:                                           9207742464
   8286968217 words of memory will be used on each GPU.
 Copying data from "5abo_II_Sre.chk" to current chk file "5abo_II_Qn.chk"
 IOpt=  2 FromEx=T IUOpen= 4 IOptOp= 5 NList=   0 IFRang= 0 IUIn= 4 IUOut= 2.
 --------------------------------------------------------------
 # apfd/def2TZVP guess=read scf=maxcycle=999 geom=check pop=nbo
 --------------------------------------------------------------
 1/29=2,38=1,172=1/1;
 2/12=2,40=1/2;
 3/5=44,7=101,11=2,14=-4,25=1,30=1,74=-44,116=-2/1,2,3;
 4/5=1/1;
 5/5=2,7=999,38=6/2;
 6/7=2,8=2,9=2,10=2,28=1,40=1/1,7;
 99/5=1,9=1/99;
 ---------
 5abo_II_Q
 ---------
 Structure from the checkpoint file:  "5abo_II_Qn.chk"
 Charge =  0 Multiplicity = 5
 Z-Matrix found in chk file.
 Fe,0,21.1684045352,-2.5312813515,-17.5274608608
 N,0,20.3048443257,-2.6255176456,-19.3546519214
 N,0,20.9422413231,-0.5350043882,-17.5426454937
 N,0,21.5466071646,-2.4642904528,-15.5624288564
 N,0,20.995266616,-4.5435801302,-17.4076297249
 C,0,20.0495989775,-3.7419242136,-20.0888948834
 C,0,19.4823925192,-3.3923960548,-21.3719598222
 C,0,19.408560881,-2.0341302629,-21.4007748274
 C,0,19.9391564171,-1.571488276,-20.1372447694
 C,0,20.5271748251,0.2376885431,-18.5819112838
 C,0,20.672138366,1.6357762354,-18.2723912437
 C,0,21.2118115311,1.6994975464,-17.0155477036
 C,0,21.3289848213,0.3262624047,-16.5645633156
 C,0,21.7583996739,-1.3440150581,-14.8173014238
 C,0,22.1016610392,-1.6884534488,-13.4627049594
 C,0,22.0709977742,-3.0556385901,-13.3911044552
 C,0,21.7450574949,-3.5168019556,-14.7272913839
 C,0,21.4582116875,-5.3063867911,-16.3814058424
 C,0,21.6149502903,-6.6843265659,-16.7932604406
 C,0,21.199127631,-6.7433671116,-18.0870849694
 C,0,20.8198149126,-5.3963338325,-18.4515346024
 C,0,20.3208935142,-5.0388624691,-19.6912020656
 H,0,20.1459686193,-5.8273922733,-20.4074786702
 C,0,20.0448343409,-0.2383011804,-19.7907984254
 H,0,19.7260729962,0.4918848895,-20.5195630592
 C,0,21.7014591912,-0.0428987291,-15.2863312662
 H,0,21.9110857139,0.7478796359,-14.5828384135
 C,0,21.7427272232,-4.8464519436,-15.1085236139
 H,0,22.0465520856,-5.5730684442,-14.3706635191
 C,0,18.8984716904,-1.1388085407,-22.4779349945
 H,0,18.5361724809,-1.7183244648,-23.3235797248
 H,0,19.6875194022,-0.4742226779,-22.8313986853
 H,0,18.0789390989,-0.5219369148,-22.1083856956
 C,0,19.0717654525,-4.3830192986,-22.4070638129
 H,0,18.3367555529,-5.0789300365,-22.0019208134
 H,0,19.9319927702,-4.9612103479,-22.7462382161
 H,0,18.6336270801,-3.8848089754,-23.268677108
 C,0,20.3339795275,2.7561360412,-19.1948699296
 H,0,19.2889810251,2.6978928284,-19.5018006258
 H,0,20.9509647446,2.7163464971,-20.0938553899
 H,0,20.5014407885,3.7148857587,-18.7100741562
 C,0,21.575439275,2.8971757763,-16.2866468509
 H,0,20.9140309943,3.7457440995,-16.4280529406
 C,0,22.649314752,3.0399533315,-15.5180870267
 H,0,23.3668701874,2.2477219395,-15.3866858992
 H,0,22.8598020792,3.966729978,-15.0100733412
 C,0,22.3717653901,-0.7081389442,-12.374056418
 H,0,21.4924441281,-0.0912486618,-12.186149477
 H,0,23.1929361121,-0.0456070068,-12.6491102966
 H,0,22.6317085483,-1.2211663288,-11.4515266214
 C,0,22.3032256454,-3.8691171551,-12.2161109645
 H,0,23.0677800818,-3.4983804172,-11.5414519796
 C,0,21.6426497523,-4.9757261734,-11.893482786
 H,0,20.8376637027,-5.3576816572,-12.4978737154
 H,0,21.8694260028,-5.5257269024,-10.9950874137
 C,0,22.1147448233,-7.774541812,-15.9085759939
 H,0,21.4479241414,-7.9127510938,-15.0570211551
 H,0,23.105472295,-7.5326985719,-15.5234468337
 H,0,22.1766047542,-8.7155391185,-16.4499642107
 C,0,21.1332724966,-7.9139874436,-19.0072278899
 H,0,21.5092940358,-8.8107382073,-18.5206089203
 H,0,21.7284760623,-7.732231204,-19.9023642282
 H,0,20.1044318031,-8.0990526561,-19.3177142214
 O,0,18.951,-2.55,-16.877
 H,0,18.439,-2.752,-17.66
 H,0,18.627,-2.374,-16.068
 C,0,26.5538495735,-3.648526183,-18.3723689595
 H,0,27.2867538352,-2.8719761015,-18.1532519004
 H,0,26.8257338173,-4.1162205023,-19.3186838878
 H,0,26.5965016335,-4.3983552451,-17.58864935
 N,0,24.8303738107,-2.1231880168,-19.3578734153
 H,0,25.4378336697,-1.7205866994,-20.0523351852
 C,0,25.1844034603,-3.0783198958,-18.441347553
 C,0,23.5250610336,-1.826198017,-19.1567023669
 H,0,22.9742981728,-1.108929952,-19.7298475236
 N,0,23.032332983,-2.5354783169,-18.1688681773
 C,0,24.0542377917,-3.3178225786,-17.7129879011
 H,0,23.9044043321,-3.996074964,-16.8978620913
 Recover connectivity data from disk.
 Stoichiometry    C34H36FeN6O(5)
 Framework group  C1[X(C34H36FeN6O)]
 Deg. of freedom   228
 Full point group                 C1      NOp   1
 Largest Abelian subgroup         C1      NOp   1
 Largest concise Abelian subgroup C1      NOp   1
                         Standard orientation:                         
 ---------------------------------------------------------------------
 Center     Atomic      Atomic             Coordinates (Angstroms)
 Number     Number       Type             X           Y           Z
 ---------------------------------------------------------------------
      1         26           0        0.083558   -0.133855   -0.269282
      2          7           0        1.140399   -1.839680   -0.527142
      3          7           0        1.790822    0.919742   -0.377380
      4          7           0       -0.963454    1.554816   -0.516321
      5          7           0       -1.605782   -1.204954   -0.573520
      6          6           0        0.653474   -3.107912   -0.598693
      7          6           0        1.730979   -4.063992   -0.721342
      8          6           0        2.885054   -3.343428   -0.713167
      9          6           0        2.497207   -1.956591   -0.577760
     10          6           0        3.058959    0.429643   -0.409622
     11          6           0        4.023223    1.492139   -0.296650
     12          6           0        3.307002    2.652389   -0.170913
     13          6           0        1.911829    2.269463   -0.269651
     14          6           0       -0.469676    2.823885   -0.489200
     15          6           0       -1.532162    3.788253   -0.601071
     16          6           0       -2.693460    3.072721   -0.722170
     17          6           0       -2.310481    1.675942   -0.640684
     18          6           0       -2.869224   -0.708690   -0.491278
     19          6           0       -3.828288   -1.771980   -0.285071
     20          6           0       -3.115514   -2.930564   -0.281526
     21          6           0       -1.730814   -2.553712   -0.459817
     22          6           0       -0.683929   -3.455096   -0.530698
     23          1           0       -0.926253   -4.506979   -0.514837
     24          6           0        3.397025   -0.910074   -0.516849
     25          1           0        4.447982   -1.154661   -0.556144
     26          6           0        0.862329    3.165920   -0.331366
     27          1           0        1.105720    4.216867   -0.310205
     28          6           0       -3.211439    0.627483   -0.592516
     29          1           0       -4.260971    0.877874   -0.570040
     30          6           0        4.294663   -3.816886   -0.817601
     31          1           0        4.332586   -4.897814   -0.928823
     32          1           0        4.858907   -3.544688    0.075004
     33          1           0        4.788347   -3.365814   -1.678729
     34          6           0        1.537752   -5.537021   -0.840660
     35          1           0        0.909161   -5.773193   -1.699595
     36          1           0        1.051548   -5.932899    0.051653
     37          1           0        2.491499   -6.044693   -0.963916
     38          6           0        5.501695    1.307346   -0.274361
     39          1           0        5.836994    0.790090   -1.174161
     40          1           0        5.803844    0.711359    0.588156
     41          1           0        6.006706    2.268556   -0.216821
     42          6           0        3.840690    3.986797    0.009331
     43          1           0        4.757682    4.197233   -0.531380
     44          6           0        3.329170    4.925486    0.797677
     45          1           0        2.451938    4.751541    1.397667
     46          1           0        3.786452    5.897171    0.887228
     47          6           0       -1.345179    5.265815   -0.632286
     48          1           0       -0.744255    5.558558   -1.493832
     49          1           0       -0.830272    5.606666    0.266389
     50          1           0       -2.304657    5.772700   -0.697844
     51          6           0       -4.026693    3.605977   -0.907680
     52          1           0       -4.234601    4.526414   -0.372215
     53          6           0       -4.967990    3.091294   -1.691322
     54          1           0       -4.797219    2.211211   -2.287536
     55          1           0       -5.938393    3.550640   -1.782767
     56          6           0       -5.296823   -1.563222   -0.140657
     57          1           0       -5.710843   -1.116111   -1.044856
     58          1           0       -5.509301   -0.893404    0.692741
     59          1           0       -5.806878   -2.506802    0.037960
     60          6           0       -3.591232   -4.333572   -0.118393
     61          1           0       -4.666347   -4.361824    0.041864
     62          1           0       -3.103200   -4.807463    0.733560
     63          1           0       -3.362428   -4.920949   -1.008225
     64          8           0        0.205152   -0.136515   -2.576995
     65          1           0        0.554797   -0.990638   -2.830491
     66          1           0       -0.000363    0.531486   -3.126515
     67          6           0       -1.555278   -0.193416    5.048217
     68          1           0       -1.184021    0.584339    5.715643
     69          1           0       -1.508452   -1.146023    5.575965
     70          1           0       -2.591877    0.020420    4.807350
     71          7           0        0.587725   -0.520225    3.795629
     72          1           0        1.151464   -0.707909    4.608246
     73          6           0       -0.754411   -0.244012    3.798686
     74          6           0        1.008485   -0.494002    2.509244
     75          1           0        2.017588   -0.675302    2.200780
     76          7           0        0.014053   -0.218111    1.698895
     77          6           0       -1.088877   -0.058238    2.487669
     78          1           0       -2.041359    0.176406    2.057986
 ---------------------------------------------------------------------
 Rotational constants (GHZ):           0.0935719           0.0919912           0.0608776
 Standard basis: def2TZVP (5D, 7F)
 There are  1744 symmetry adapted cartesian basis functions of A   symmetry.
 There are  1532 symmetry adapted basis functions of A   symmetry.
  1532 basis functions,  2481 primitive gaussians,  1744 cartesian basis functions
   160 alpha electrons      156 beta electrons
       nuclear repulsion energy      5973.7911333740 Hartrees.
 NAtoms=   78 NActive=   78 NUniq=   78 SFac= 1.00D+00 NAtFMM=   60 NAOKFM=T Big=T
 Integral buffers will be    131072 words long.
 Raffenetti 2 integral format.
 Two-electron integral symmetry is turned on.
 R6APFD:  NTU= -4 IXU= 1 FactS= 1.050
 Nuclear repulsion after empirical dispersion term =     5973.6389817298 Hartrees.
 One-electron integrals computed using PRISM.
   1 Symmetry operations used in ECPInt.
 ECPInt:  NShTT=  186355 NPrTT=  576197 LenC2=  147838 LenP2D=  302423.
 LDataN:  DoStor=T MaxTD1= 6 Len=  172
 Number of processors reduced to  23 by ecpmxn.
 NBasis=  1532 RedAO= T EigKep=  3.18D-06  NBF=  1532
 NBsUse=  1532 1.00D-06 EigRej= -1.00D+00 NBFU=  1532
 Initial guess from the checkpoint file:  "5abo_II_Qn.chk"
 B after Tr=     0.000000   -0.000000   -0.000000
         Rot=    1.000000    0.000000   -0.000000   -0.000000 Ang=   0.00 deg.
 Initial guess <Sx>= 0.0000 <Sy>= 0.0000 <Sz>= 2.0000 <S**2>= 6.0115 S= 2.0023
 Requested convergence on RMS density matrix=1.00D-08 within 999 cycles.
 Requested convergence on MAX density matrix=1.00D-06.
 Requested convergence on             energy=1.00D-06.
 No special actions if energy rises.
 Restarting incremental Fock formation.
 SCF Done:  E(UAPFD) =  -2984.00611411     A.U. after   32 cycles
            NFock= 32  Conv=0.20D-08     -V/T= 2.0031
 <Sx>= 0.0000 <Sy>= 0.0000 <Sz>= 2.0000 <S**2>= 6.0119 S= 2.0024
 <L.S>=  0.00000000000    
 Annihilation of the first spin contaminant:
 S**2 before annihilation     6.0119,   after     6.0000

 **********************************************************************

            Population analysis using the SCF Density.

 **********************************************************************

 Orbital symmetries:
 Alpha Orbitals:
       Occupied  (A) (A) (A) (A) (A) (A) (A) (A) (A) (A) (A) (A)
                 (A) (A) (A) (A) (A) (A) (A) (A) (A) (A) (A) (A)
                 (A) (A) (A) (A) (A) (A) (A) (A) (A) (A) (A) (A)
                 (A) (A) (A) (A) (A) (A) (A) (A) (A) (A) (A) (A)
                 (A) (A) (A) (A) (A) (A) (A) (A) (A) (A) (A) (A)
                 (A) (A) (A) (A) (A) (A) (A) (A) (A) (A) (A) (A)
                 (A) (A) (A) (A) (A) (A) (A) (A) (A) (A) (A) (A)
                 (A) (A) (A) (A) (A) (A) (A) (A) (A) (A) (A) (A)
                 (A) (A) (A) (A) (A) (A) (A) (A) (A) (A) (A) (A)
                 (A) (A) (A) (A) (A) (A) (A) (A) (A) (A) (A) (A)
                 (A) (A) (A) (A) (A) (A) (A) (A) (A) (A) (A) (A)
                 (A) (A) (A) (A) (A) (A) (A) (A) (A) (A) (A) (A)
                 (A) (A) (A) (A) (A) (A) (A) (A) (A) (A) (A) (A)
                 (A) (A) (A) (A)
       Virtual   (A) (A) (A) (A) (A) (A) (A) (A) (A) (A) (A) (A)
                 (A) (A) (A) (A) (A) (A) (A) (A) (A) (A) (A) (A)
                 (A) (A) (A) (A) (A) (A) (A) (A) (A) (A) (A) (A)
                 (A) (A) (A) (A) (A) (A) (A) (A) (A) (A) (A) (A)
                 (A) (A) (A) (A) (A) (A) (A) (A) (A) (A) (A) (A)
                 (A) (A) (A) (A) (A) (A) (A) (A) (A) (A) (A) (A)
                 (A) (A) (A) (A) (A) (A) (A) (A) (A) (A) (A) (A)
                 (A) (A) (A) (A) (A) (A) (A) (A) (A) (A) (A) (A)
                 (A) (A) (A) (A) (A) (A) (A) (A) (A) (A) (A) (A)
                 (A) (A) (A) (A) (A) (A) (A) (A) (A) (A) (A) (A)
                 (A) (A) (A) (A) (A) (A) (A) (A) (A) (A) (A) (A)
                 (A) (A) (A) (A) (A) (A) (A) (A) (A) (A) (A) (A)
                 (A) (A) (A) (A) (A) (A) (A) (A) (A) (A) (A) (A)
                 (A) (A) (A) (A) (A) (A) (A) (A) (A) (A) (A) (A)
                 (A) (A) (A) (A) (A) (A) (A) (A) (A) (A) (A) (A)
                 (A) (A) (A) (A) (A) (A) (A) (A) (A) (A) (A) (A)
                 (A) (A) (A) (A) (A) (A) (A) (A) (A) (A) (A) (A)
                 (A) (A) (A) (A) (A) (A) (A) (A) (A) (A) (A) (A)
                 (A) (A) (A) (A) (A) (A) (A) (A) (A) (A) (A) (A)
                 (A) (A) (A) (A) (A) (A) (A) (A) (A) (A) (A) (A)
                 (A) (A) (A) (A) (A) (A) (A) (A) (A) (A) (A) (A)
                 (A) (A) (A) (A) (A) (A) (A) (A) (A) (A) (A) (A)
                 (A) (A) (A) (A) (A) (A) (A) (A) (A) (A) (A) (A)
                 (A) (A) (A) (A) (A) (A) (A) (A) (A) (A) (A) (A)
                 (A) (A) (A) (A) (A) (A) (A) (A) (A) (A) (A) (A)
                 (A) (A) (A) (A) (A) (A) (A) (A) (A) (A) (A) (A)
                 (A) (A) (A) (A) (A) (A) (A) (A) (A) (A) (A) (A)
                 (A) (A) (A) (A) (A) (A) (A) (A) (A) (A) (A) (A)
                 (A) (A) (A) (A) (A) (A) (A) (A) (A) (A) (A) (A)
                 (A) (A) (A) (A) (A) (A) (A) (A) (A) (A) (A) (A)
                 (A) (A) (A) (A) (A) (A) (A) (A) (A) (A) (A) (A)
                 (A) (A) (A) (A) (A) (A) (A) (A) (A) (A) (A) (A)
                 (A) (A) (A) (A) (A) (A) (A) (A) (A) (A) (A) (A)
                 (A) (A) (A) (A) (A) (A) (A) (A) (A) (A) (A) (A)
                 (A) (A) (A) (A) (A) (A) (A) (A) (A) (A) (A) (A)
                 (A) (A) (A) (A) (A) (A) (A) (A) (A) (A) (A) (A)
                 (A) (A) (A) (A) (A) (A) (A) (A) (A) (A) (A) (A)
                 (A) (A) (A) (A) (A) (A) (A) (A) (A) (A) (A) (A)
                 (A) (A) (A) (A) (A) (A) (A) (A) (A) (A) (A) (A)
                 (A) (A) (A) (A) (A) (A) (A) (A) (A) (A) (A) (A)
                 (A) (A) (A) (A) (A) (A) (A) (A) (A) (A) (A) (A)
                 (A) (A) (A) (A) (A) (A) (A) (A) (A) (A) (A) (A)
                 (A) (A) (A) (A) (A) (A) (A) (A) (A) (A) (A) (A)
                 (A) (A) (A) (A) (A) (A) (A) (A) (A) (A) (A) (A)
                 (A) (A) (A) (A) (A) (A) (A) (A) (A) (A) (A) (A)
                 (A) (A) (A) (A) (A) (A) (A) (A) (A) (A) (A) (A)
                 (A) (A) (A) (A) (A) (A) (A) (A) (A) (A) (A) (A)
                 (A) (A) (A) (A) (A) (A) (A) (A) (A) (A) (A) (A)
                 (A) (A) (A) (A) (A) (A) (A) (A) (A) (A) (A) (A)
                 (A) (A) (A) (A) (A) (A) (A) (A) (A) (A) (A) (A)
                 (A) (A) (A) (A) (A) (A) (A) (A) (A) (A) (A) (A)
                 (A) (A) (A) (A) (A) (A) (A) (A) (A) (A) (A) (A)
                 (A) (A) (A) (A) (A) (A) (A) (A) (A) (A) (A) (A)
                 (A) (A) (A) (A) (A) (A) (A) (A) (A) (A) (A) (A)
                 (A) (A) (A) (A) (A) (A) (A) (A) (A) (A) (A) (A)
                 (A) (A) (A) (A) (A) (A) (A) (A) (A) (A) (A) (A)
                 (A) (A) (A) (A) (A) (A) (A) (A) (A) (A) (A) (A)
                 (A) (A) (A) (A) (A) (A) (A) (A) (A) (A) (A) (A)
                 (A) (A) (A) (A) (A) (A) (A) (A) (A) (A) (A) (A)
                 (A) (A) (A) (A) (A) (A) (A) (A) (A) (A) (A) (A)
                 (A) (A) (A) (A) (A) (A) (A) (A) (A) (A) (A) (A)
                 (A) (A) (A) (A) (A) (A) (A) (A) (A) (A) (A) (A)
                 (A) (A) (A) (A) (A) (A) (A) (A) (A) (A) (A) (A)
                 (A) (A) (A) (A) (A) (A) (A) (A) (A) (A) (A) (A)
                 (A) (A) (A) (A) (A) (A) (A) (A) (A) (A) (A) (A)
                 (A) (A) (A) (A) (A) (A) (A) (A) (A) (A) (A) (A)
                 (A) (A) (A) (A) (A) (A) (A) (A) (A) (A) (A) (A)
                 (A) (A) (A) (A) (A) (A) (A) (A) (A) (A) (A) (A)
                 (A) (A) (A) (A) (A) (A) (A) (A) (A) (A) (A) (A)
                 (A) (A) (A) (A) (A) (A) (A) (A) (A) (A) (A) (A)
                 (A) (A) (A) (A) (A) (A) (A) (A) (A) (A) (A) (A)
                 (A) (A) (A) (A) (A) (A) (A) (A) (A) (A) (A) (A)
                 (A) (A) (A) (A) (A) (A) (A) (A) (A) (A) (A) (A)
                 (A) (A) (A) (A) (A) (A) (A) (A) (A) (A) (A) (A)
                 (A) (A) (A) (A) (A) (A) (A) (A) (A) (A) (A) (A)
                 (A) (A) (A) (A) (A) (A) (A) (A) (A) (A) (A) (A)
                 (A) (A) (A) (A) (A) (A) (A) (A) (A) (A) (A) (A)
                 (A) (A) (A) (A) (A) (A) (A) (A) (A) (A) (A) (A)
                 (A) (A) (A) (A) (A) (A) (A) (A) (A) (A) (A) (A)
                 (A) (A) (A) (A) (A) (A) (A) (A) (A) (A) (A) (A)
                 (A) (A) (A) (A) (A) (A) (A) (A) (A) (A) (A) (A)
                 (A) (A) (A) (A) (A) (A) (A) (A) (A) (A) (A) (A)
                 (A) (A) (A) (A) (A) (A) (A) (A) (A) (A) (A) (A)
                 (A) (A) (A) (A) (A) (A) (A) (A) (A) (A) (A) (A)
                 (A) (A) (A) (A) (A) (A) (A) (A) (A) (A) (A) (A)
                 (A) (A) (A) (A) (A) (A) (A) (A) (A) (A) (A) (A)
                 (A) (A) (A) (A) (A) (A) (A) (A) (A) (A) (A) (A)
                 (A) (A) (A) (A) (A) (A) (A) (A) (A) (A) (A) (A)
                 (A) (A) (A) (A) (A) (A) (A) (A) (A) (A) (A) (A)
                 (A) (A) (A) (A) (A) (A) (A) (A) (A) (A) (A) (A)
                 (A) (A) (A) (A) (A) (A) (A) (A) (A) (A) (A) (A)
                 (A) (A) (A) (A) (A) (A) (A) (A) (A) (A) (A) (A)
                 (A) (A) (A) (A) (A) (A) (A) (A) (A) (A) (A) (A)
                 (A) (A) (A) (A) (A) (A) (A) (A) (A) (A) (A) (A)
                 (A) (A) (A) (A) (A) (A) (A) (A) (A) (A) (A) (A)
                 (A) (A) (A) (A) (A) (A) (A) (A) (A) (A) (A) (A)
                 (A) (A) (A) (A) (A) (A) (A) (A) (A) (A) (A) (A)
                 (A) (A) (A) (A) (A) (A) (A) (A) (A) (A) (A) (A)
                 (A) (A) (A) (A) (A) (A) (A) (A) (A) (A) (A) (A)
                 (A) (A) (A) (A) (A) (A) (A) (A) (A) (A) (A) (A)
                 (A) (A) (A) (A) (A) (A) (A) (A) (A) (A) (A) (A)
                 (A) (A) (A) (A) (A) (A) (A) (A) (A) (A) (A) (A)
                 (A) (A) (A) (A) (A) (A) (A) (A) (A) (A) (A) (A)
                 (A) (A) (A) (A) (A) (A) (A) (A) (A) (A) (A) (A)
                 (A) (A) (A) (A) (A) (A) (A) (A) (A) (A) (A) (A)
                 (A) (A) (A) (A) (A) (A) (A) (A) (A) (A) (A) (A)
                 (A) (A) (A) (A) (A) (A) (A) (A) (A) (A) (A) (A)
                 (A) (A) (A) (A) (A) (A) (A) (A) (A) (A) (A) (A)
                 (A) (A) (A) (A) (A) (A) (A) (A) (A) (A) (A) (A)
                 (A) (A) (A) (A) (A) (A) (A) (A) (A) (A) (A) (A)
                 (A) (A) (A) (A) (A) (A) (A) (A) (A) (A) (A) (A)
                 (A) (A) (A) (A) (A) (A) (A) (A) (A) (A) (A) (A)
                 (A) (A) (A) (A) (A) (A) (A) (A) (A) (A) (A) (A)
                 (A) (A) (A) (A) (A) (A) (A) (A) (A) (A) (A) (A)
                 (A) (A) (A) (A)
 Beta  Orbitals:
       Occupied  (A) (A) (A) (A) (A) (A) (A) (A) (A) (A) (A) (A)
                 (A) (A) (A) (A) (A) (A) (A) (A) (A) (A) (A) (A)
                 (A) (A) (A) (A) (A) (A) (A) (A) (A) (A) (A) (A)
                 (A) (A) (A) (A) (A) (A) (A) (A) (A) (A) (A) (A)
                 (A) (A) (A) (A) (A) (A) (A) (A) (A) (A) (A) (A)
                 (A) (A) (A) (A) (A) (A) (A) (A) (A) (A) (A) (A)
                 (A) (A) (A) (A) (A) (A) (A) (A) (A) (A) (A) (A)
                 (A) (A) (A) (A) (A) (A) (A) (A) (A) (A) (A) (A)
                 (A) (A) (A) (A) (A) (A) (A) (A) (A) (A) (A) (A)
                 (A) (A) (A) (A) (A) (A) (A) (A) (A) (A) (A) (A)
                 (A) (A) (A) (A) (A) (A) (A) (A) (A) (A) (A) (A)
                 (A) (A) (A) (A) (A) (A) (A) (A) (A) (A) (A) (A)
                 (A) (A) (A) (A) (A) (A) (A) (A) (A) (A) (A) (A)
       Virtual   (A) (A) (A) (A) (A) (A) (A) (A) (A) (A) (A) (A)
                 (A) (A) (A) (A) (A) (A) (A) (A) (A) (A) (A) (A)
                 (A) (A) (A) (A) (A) (A) (A) (A) (A) (A) (A) (A)
                 (A) (A) (A) (A) (A) (A) (A) (A) (A) (A) (A) (A)
                 (A) (A) (A) (A) (A) (A) (A) (A) (A) (A) (A) (A)
                 (A) (A) (A) (A) (A) (A) (A) (A) (A) (A) (A) (A)
                 (A) (A) (A) (A) (A) (A) (A) (A) (A) (A) (A) (A)
                 (A) (A) (A) (A) (A) (A) (A) (A) (A) (A) (A) (A)
                 (A) (A) (A) (A) (A) (A) (A) (A) (A) (A) (A) (A)
                 (A) (A) (A) (A) (A) (A) (A) (A) (A) (A) (A) (A)
                 (A) (A) (A) (A) (A) (A) (A) (A) (A) (A) (A) (A)
                 (A) (A) (A) (A) (A) (A) (A) (A) (A) (A) (A) (A)
                 (A) (A) (A) (A) (A) (A) (A) (A) (A) (A) (A) (A)
                 (A) (A) (A) (A) (A) (A) (A) (A) (A) (A) (A) (A)
                 (A) (A) (A) (A) (A) (A) (A) (A) (A) (A) (A) (A)
                 (A) (A) (A) (A) (A) (A) (A) (A) (A) (A) (A) (A)
                 (A) (A) (A) (A) (A) (A) (A) (A) (A) (A) (A) (A)
                 (A) (A) (A) (A) (A) (A) (A) (A) (A) (A) (A) (A)
                 (A) (A) (A) (A) (A) (A) (A) (A) (A) (A) (A) (A)
                 (A) (A) (A) (A) (A) (A) (A) (A) (A) (A) (A) (A)
                 (A) (A) (A) (A) (A) (A) (A) (A) (A) (A) (A) (A)
                 (A) (A) (A) (A) (A) (A) (A) (A) (A) (A) (A) (A)
                 (A) (A) (A) (A) (A) (A) (A) (A) (A) (A) (A) (A)
                 (A) (A) (A) (A) (A) (A) (A) (A) (A) (A) (A) (A)
                 (A) (A) (A) (A) (A) (A) (A) (A) (A) (A) (A) (A)
                 (A) (A) (A) (A) (A) (A) (A) (A) (A) (A) (A) (A)
                 (A) (A) (A) (A) (A) (A) (A) (A) (A) (A) (A) (A)
                 (A) (A) (A) (A) (A) (A) (A) (A) (A) (A) (A) (A)
                 (A) (A) (A) (A) (A) (A) (A) (A) (A) (A) (A) (A)
                 (A) (A) (A) (A) (A) (A) (A) (A) (A) (A) (A) (A)
                 (A) (A) (A) (A) (A) (A) (A) (A) (A) (A) (A) (A)
                 (A) (A) (A) (A) (A) (A) (A) (A) (A) (A) (A) (A)
                 (A) (A) (A) (A) (A) (A) (A) (A) (A) (A) (A) (A)
                 (A) (A) (A) (A) (A) (A) (A) (A) (A) (A) (A) (A)
                 (A) (A) (A) (A) (A) (A) (A) (A) (A) (A) (A) (A)
                 (A) (A) (A) (A) (A) (A) (A) (A) (A) (A) (A) (A)
                 (A) (A) (A) (A) (A) (A) (A) (A) (A) (A) (A) (A)
                 (A) (A) (A) (A) (A) (A) (A) (A) (A) (A) (A) (A)
                 (A) (A) (A) (A) (A) (A) (A) (A) (A) (A) (A) (A)
                 (A) (A) (A) (A) (A) (A) (A) (A) (A) (A) (A) (A)
                 (A) (A) (A) (A) (A) (A) (A) (A) (A) (A) (A) (A)
                 (A) (A) (A) (A) (A) (A) (A) (A) (A) (A) (A) (A)
                 (A) (A) (A) (A) (A) (A) (A) (A) (A) (A) (A) (A)
                 (A) (A) (A) (A) (A) (A) (A) (A) (A) (A) (A) (A)
                 (A) (A) (A) (A) (A) (A) (A) (A) (A) (A) (A) (A)
                 (A) (A) (A) (A) (A) (A) (A) (A) (A) (A) (A) (A)
                 (A) (A) (A) (A) (A) (A) (A) (A) (A) (A) (A) (A)
                 (A) (A) (A) (A) (A) (A) (A) (A) (A) (A) (A) (A)
                 (A) (A) (A) (A) (A) (A) (A) (A) (A) (A) (A) (A)
                 (A) (A) (A) (A) (A) (A) (A) (A) (A) (A) (A) (A)
                 (A) (A) (A) (A) (A) (A) (A) (A) (A) (A) (A) (A)
                 (A) (A) (A) (A) (A) (A) (A) (A) (A) (A) (A) (A)
                 (A) (A) (A) (A) (A) (A) (A) (A) (A) (A) (A) (A)
                 (A) (A) (A) (A) (A) (A) (A) (A) (A) (A) (A) (A)
                 (A) (A) (A) (A) (A) (A) (A) (A) (A) (A) (A) (A)
                 (A) (A) (A) (A) (A) (A) (A) (A) (A) (A) (A) (A)
                 (A) (A) (A) (A) (A) (A) (A) (A) (A) (A) (A) (A)
                 (A) (A) (A) (A) (A) (A) (A) (A) (A) (A) (A) (A)
                 (A) (A) (A) (A) (A) (A) (A) (A) (A) (A) (A) (A)
                 (A) (A) (A) (A) (A) (A) (A) (A) (A) (A) (A) (A)
                 (A) (A) (A) (A) (A) (A) (A) (A) (A) (A) (A) (A)
                 (A) (A) (A) (A) (A) (A) (A) (A) (A) (A) (A) (A)
                 (A) (A) (A) (A) (A) (A) (A) (A) (A) (A) (A) (A)
                 (A) (A) (A) (A) (A) (A) (A) (A) (A) (A) (A) (A)
                 (A) (A) (A) (A) (A) (A) (A) (A) (A) (A) (A) (A)
                 (A) (A) (A) (A) (A) (A) (A) (A) (A) (A) (A) (A)
                 (A) (A) (A) (A) (A) (A) (A) (A) (A) (A) (A) (A)
                 (A) (A) (A) (A) (A) (A) (A) (A) (A) (A) (A) (A)
                 (A) (A) (A) (A) (A) (A) (A) (A) (A) (A) (A) (A)
                 (A) (A) (A) (A) (A) (A) (A) (A) (A) (A) (A) (A)
                 (A) (A) (A) (A) (A) (A) (A) (A) (A) (A) (A) (A)
                 (A) (A) (A) (A) (A) (A) (A) (A) (A) (A) (A) (A)
                 (A) (A) (A) (A) (A) (A) (A) (A) (A) (A) (A) (A)
                 (A) (A) (A) (A) (A) (A) (A) (A) (A) (A) (A) (A)
                 (A) (A) (A) (A) (A) (A) (A) (A) (A) (A) (A) (A)
                 (A) (A) (A) (A) (A) (A) (A) (A) (A) (A) (A) (A)
                 (A) (A) (A) (A) (A) (A) (A) (A) (A) (A) (A) (A)
                 (A) (A) (A) (A) (A) (A) (A) (A) (A) (A) (A) (A)
                 (A) (A) (A) (A) (A) (A) (A) (A) (A) (A) (A) (A)
                 (A) (A) (A) (A) (A) (A) (A) (A) (A) (A) (A) (A)
                 (A) (A) (A) (A) (A) (A) (A) (A) (A) (A) (A) (A)
                 (A) (A) (A) (A) (A) (A) (A) (A) (A) (A) (A) (A)
                 (A) (A) (A) (A) (A) (A) (A) (A) (A) (A) (A) (A)
                 (A) (A) (A) (A) (A) (A) (A) (A) (A) (A) (A) (A)
                 (A) (A) (A) (A) (A) (A) (A) (A) (A) (A) (A) (A)
                 (A) (A) (A) (A) (A) (A) (A) (A) (A) (A) (A) (A)
                 (A) (A) (A) (A) (A) (A) (A) (A) (A) (A) (A) (A)
                 (A) (A) (A) (A) (A) (A) (A) (A) (A) (A) (A) (A)
                 (A) (A) (A) (A) (A) (A) (A) (A) (A) (A) (A) (A)
                 (A) (A) (A) (A) (A) (A) (A) (A) (A) (A) (A) (A)
                 (A) (A) (A) (A) (A) (A) (A) (A) (A) (A) (A) (A)
                 (A) (A) (A) (A) (A) (A) (A) (A) (A) (A) (A) (A)
                 (A) (A) (A) (A) (A) (A) (A) (A) (A) (A) (A) (A)
                 (A) (A) (A) (A) (A) (A) (A) (A) (A) (A) (A) (A)
                 (A) (A) (A) (A) (A) (A) (A) (A) (A) (A) (A) (A)
                 (A) (A) (A) (A) (A) (A) (A) (A) (A) (A) (A) (A)
                 (A) (A) (A) (A) (A) (A) (A) (A) (A) (A) (A) (A)
                 (A) (A) (A) (A) (A) (A) (A) (A) (A) (A) (A) (A)
                 (A) (A) (A) (A) (A) (A) (A) (A) (A) (A) (A) (A)
                 (A) (A) (A) (A) (A) (A) (A) (A) (A) (A) (A) (A)
                 (A) (A) (A) (A) (A) (A) (A) (A) (A) (A) (A) (A)
                 (A) (A) (A) (A) (A) (A) (A) (A) (A) (A) (A) (A)
                 (A) (A) (A) (A) (A) (A) (A) (A) (A) (A) (A) (A)
                 (A) (A) (A) (A) (A) (A) (A) (A) (A) (A) (A) (A)
                 (A) (A) (A) (A) (A) (A) (A) (A) (A) (A) (A) (A)
                 (A) (A) (A) (A) (A) (A) (A) (A) (A) (A) (A) (A)
                 (A) (A) (A) (A) (A) (A) (A) (A) (A) (A) (A) (A)
                 (A) (A) (A) (A) (A) (A) (A) (A) (A) (A) (A) (A)
                 (A) (A) (A) (A) (A) (A) (A) (A) (A) (A) (A) (A)
                 (A) (A) (A) (A) (A) (A) (A) (A) (A) (A) (A) (A)
                 (A) (A) (A) (A) (A) (A) (A) (A) (A) (A) (A) (A)
                 (A) (A) (A) (A) (A) (A) (A) (A) (A) (A) (A) (A)
                 (A) (A) (A) (A) (A) (A) (A) (A) (A) (A) (A) (A)
                 (A) (A) (A) (A) (A) (A) (A) (A) (A) (A) (A) (A)
                 (A) (A) (A) (A) (A) (A) (A) (A)
 The electronic state is 5-A.
 Alpha  occ. eigenvalues -- -256.14200 -30.02836 -25.88133 -25.85076 -25.84980
 Alpha  occ. eigenvalues --  -19.14897 -14.42434 -14.35945 -14.31397 -14.31366
 Alpha  occ. eigenvalues --  -14.31295 -14.30878 -10.26388 -10.24298 -10.21484
 Alpha  occ. eigenvalues --  -10.21462 -10.20612 -10.20535 -10.20461 -10.20438
 Alpha  occ. eigenvalues --  -10.20383 -10.20194 -10.20181 -10.20069 -10.19495
 Alpha  occ. eigenvalues --  -10.19372 -10.18657 -10.18602 -10.18558 -10.18552
 Alpha  occ. eigenvalues --  -10.18532 -10.18496 -10.18418 -10.18352 -10.18305
 Alpha  occ. eigenvalues --  -10.18246 -10.18239 -10.18234 -10.18181 -10.18105
 Alpha  occ. eigenvalues --  -10.18041 -10.18007 -10.17894 -10.17808 -10.17722
 Alpha  occ. eigenvalues --  -10.17671  -3.48611  -2.29651  -2.23448  -2.23223
 Alpha  occ. eigenvalues --   -1.05926  -1.03207  -0.96128  -0.95256  -0.95104
 Alpha  occ. eigenvalues --   -0.94190  -0.91587  -0.81817  -0.81459  -0.81069
 Alpha  occ. eigenvalues --   -0.80779  -0.80355  -0.79953  -0.79166  -0.79098
 Alpha  occ. eigenvalues --   -0.76701  -0.75582  -0.73935  -0.73382  -0.72836
 Alpha  occ. eigenvalues --   -0.72369  -0.70356  -0.69606  -0.67924  -0.67493
 Alpha  occ. eigenvalues --   -0.67414  -0.65312  -0.63786  -0.63697  -0.61917
 Alpha  occ. eigenvalues --   -0.60497  -0.60016  -0.58772  -0.57066  -0.56569
 Alpha  occ. eigenvalues --   -0.55863  -0.54200  -0.53509  -0.53326  -0.51306
 Alpha  occ. eigenvalues --   -0.50669  -0.49969  -0.49909  -0.48442  -0.48147
 Alpha  occ. eigenvalues --   -0.48003  -0.47571  -0.47060  -0.45930  -0.45602
 Alpha  occ. eigenvalues --   -0.44350  -0.44328  -0.43978  -0.43819  -0.43447
 Alpha  occ. eigenvalues --   -0.43222  -0.43183  -0.42963  -0.42842  -0.42611
 Alpha  occ. eigenvalues --   -0.42325  -0.41927  -0.41346  -0.41283  -0.41181
 Alpha  occ. eigenvalues --   -0.41033  -0.40737  -0.40131  -0.39882  -0.39713
 Alpha  occ. eigenvalues --   -0.39322  -0.39136  -0.38850  -0.38771  -0.38251
 Alpha  occ. eigenvalues --   -0.37954  -0.37715  -0.37391  -0.37102  -0.36777
 Alpha  occ. eigenvalues --   -0.36712  -0.36355  -0.36060  -0.35167  -0.35004
 Alpha  occ. eigenvalues --   -0.34170  -0.33943  -0.33415  -0.33012  -0.32790
 Alpha  occ. eigenvalues --   -0.32434  -0.31347  -0.30573  -0.29580  -0.28889
 Alpha  occ. eigenvalues --   -0.28791  -0.27477  -0.26674  -0.26029  -0.25829
 Alpha  occ. eigenvalues --   -0.24385  -0.22933  -0.21872  -0.21638  -0.20965
 Alpha  occ. eigenvalues --   -0.20902  -0.19674  -0.17491  -0.16904  -0.12686
 Alpha virt. eigenvalues --   -0.06239  -0.06211  -0.01578   0.00661   0.00755
 Alpha virt. eigenvalues --    0.02087   0.02262   0.03683   0.04420   0.04834
 Alpha virt. eigenvalues --    0.05338   0.05880   0.06216   0.06253   0.06405
 Alpha virt. eigenvalues --    0.07235   0.07945   0.08185   0.08532   0.08737
 Alpha virt. eigenvalues --    0.09073   0.09321   0.09717   0.10023   0.10526
 Alpha virt. eigenvalues --    0.10606   0.10812   0.11007   0.11545   0.11920
 Alpha virt. eigenvalues --    0.12101   0.12139   0.12292   0.12688   0.12991
 Alpha virt. eigenvalues --    0.13262   0.13519   0.13601   0.13923   0.14152
 Alpha virt. eigenvalues --    0.14496   0.14698   0.14932   0.15109   0.15310
 Alpha virt. eigenvalues --    0.15488   0.15659   0.15792   0.15857   0.16075
 Alpha virt. eigenvalues --    0.16500   0.16701   0.16782   0.17200   0.17381
 Alpha virt. eigenvalues --    0.17670   0.17785   0.18179   0.18344   0.18864
 Alpha virt. eigenvalues --    0.19237   0.19504   0.19694   0.20029   0.20107
 Alpha virt. eigenvalues --    0.20160   0.20300   0.20704   0.21218   0.21538
 Alpha virt. eigenvalues --    0.21696   0.22002   0.22346   0.22664   0.22966
 Alpha virt. eigenvalues --    0.23239   0.23326   0.23817   0.24156   0.24213
 Alpha virt. eigenvalues --    0.25061   0.25192   0.25488   0.25882   0.25893
 Alpha virt. eigenvalues --    0.26017   0.26223   0.26849   0.27114   0.27386
 Alpha virt. eigenvalues --    0.27753   0.27944   0.28122   0.28656   0.28690
 Alpha virt. eigenvalues --    0.28942   0.29083   0.29140   0.29680   0.29945
 Alpha virt. eigenvalues --    0.30003   0.30209   0.30669   0.30858   0.31125
 Alpha virt. eigenvalues --    0.31492   0.31784   0.32400   0.32432   0.32760
 Alpha virt. eigenvalues --    0.32942   0.33298   0.33796   0.34075   0.34177
 Alpha virt. eigenvalues --    0.34434   0.34640   0.34968   0.35083   0.35417
 Alpha virt. eigenvalues --    0.35595   0.35864   0.35992   0.36362   0.36825
 Alpha virt. eigenvalues --    0.37124   0.37274   0.37493   0.37833   0.38001
 Alpha virt. eigenvalues --    0.38501   0.38826   0.39140   0.39191   0.39552
 Alpha virt. eigenvalues --    0.39783   0.40005   0.40202   0.40295   0.40365
 Alpha virt. eigenvalues --    0.40712   0.41006   0.41117   0.41320   0.41539
 Alpha virt. eigenvalues --    0.42002   0.42290   0.42341   0.42816   0.42952
 Alpha virt. eigenvalues --    0.43114   0.43212   0.43322   0.43729   0.43848
 Alpha virt. eigenvalues --    0.44233   0.44325   0.44392   0.44640   0.44849
 Alpha virt. eigenvalues --    0.45013   0.45381   0.45538   0.45981   0.46309
 Alpha virt. eigenvalues --    0.46480   0.46842   0.46846   0.46998   0.47175
 Alpha virt. eigenvalues --    0.47325   0.47500   0.47528   0.47662   0.47954
 Alpha virt. eigenvalues --    0.48101   0.48512   0.48800   0.48918   0.49030
 Alpha virt. eigenvalues --    0.49357   0.49558   0.49839   0.50275   0.50453
 Alpha virt. eigenvalues --    0.50706   0.50776   0.50876   0.51134   0.51228
 Alpha virt. eigenvalues --    0.51548   0.51579   0.51671   0.52205   0.52284
 Alpha virt. eigenvalues --    0.52486   0.52568   0.53065   0.53250   0.53458
 Alpha virt. eigenvalues --    0.53624   0.54007   0.54471   0.54956   0.55084
 Alpha virt. eigenvalues --    0.55325   0.55621   0.55983   0.56435   0.56544
 Alpha virt. eigenvalues --    0.56835   0.56991   0.57080   0.57383   0.57754
 Alpha virt. eigenvalues --    0.58031   0.58215   0.58820   0.59037   0.59278
 Alpha virt. eigenvalues --    0.59563   0.59809   0.60232   0.60561   0.60893
 Alpha virt. eigenvalues --    0.61131   0.61185   0.61385   0.61920   0.62484
 Alpha virt. eigenvalues --    0.62712   0.63219   0.63754   0.63828   0.64322
 Alpha virt. eigenvalues --    0.64732   0.64882   0.65105   0.65286   0.65668
 Alpha virt. eigenvalues --    0.65935   0.66077   0.66157   0.66601   0.66910
 Alpha virt. eigenvalues --    0.67132   0.67558   0.67972   0.68109   0.68279
 Alpha virt. eigenvalues --    0.68551   0.69099   0.69279   0.69783   0.70392
 Alpha virt. eigenvalues --    0.70621   0.70744   0.71137   0.71459   0.71478
 Alpha virt. eigenvalues --    0.71910   0.72266   0.72817   0.73074   0.73711
 Alpha virt. eigenvalues --    0.73833   0.74456   0.74826   0.74947   0.75242
 Alpha virt. eigenvalues --    0.75360   0.75603   0.76148   0.76367   0.76608
 Alpha virt. eigenvalues --    0.76770   0.77324   0.77646   0.77918   0.78377
 Alpha virt. eigenvalues --    0.78775   0.79230   0.79334   0.79523   0.79626
 Alpha virt. eigenvalues --    0.80208   0.80388   0.80572   0.81067   0.81619
 Alpha virt. eigenvalues --    0.81757   0.82070   0.82514   0.82846   0.83525
 Alpha virt. eigenvalues --    0.83985   0.84071   0.84245   0.84800   0.85449
 Alpha virt. eigenvalues --    0.85770   0.86141   0.86512   0.87035   0.87450
 Alpha virt. eigenvalues --    0.87668   0.88115   0.88392   0.88958   0.89381
 Alpha virt. eigenvalues --    0.89804   0.90097   0.90822   0.91060   0.91377
 Alpha virt. eigenvalues --    0.91959   0.92500   0.92732   0.93162   0.93526
 Alpha virt. eigenvalues --    0.93900   0.94051   0.94470   0.94543   0.94921
 Alpha virt. eigenvalues --    0.95373   0.95736   0.96136   0.96449   0.96675
 Alpha virt. eigenvalues --    0.97236   0.97550   0.97843   0.98383   0.98544
 Alpha virt. eigenvalues --    0.98983   0.99388   0.99827   0.99904   1.00476
 Alpha virt. eigenvalues --    1.00912   1.01524   1.02031   1.02206   1.02437
 Alpha virt. eigenvalues --    1.02552   1.02909   1.03024   1.03445   1.03567
 Alpha virt. eigenvalues --    1.03865   1.04225   1.04387   1.04737   1.04816
 Alpha virt. eigenvalues --    1.05596   1.05819   1.06258   1.06456   1.06633
 Alpha virt. eigenvalues --    1.07206   1.07524   1.08221   1.08358   1.08831
 Alpha virt. eigenvalues --    1.09336   1.09767   1.09981   1.10563   1.10912
 Alpha virt. eigenvalues --    1.11363   1.11923   1.11984   1.12162   1.12747
 Alpha virt. eigenvalues --    1.13249   1.13548   1.13956   1.14493   1.15160
 Alpha virt. eigenvalues --    1.15699   1.16327   1.16620   1.17133   1.17384
 Alpha virt. eigenvalues --    1.18137   1.18375   1.18731   1.19263   1.19396
 Alpha virt. eigenvalues --    1.19687   1.20194   1.20285   1.20905   1.21498
 Alpha virt. eigenvalues --    1.21704   1.22068   1.22494   1.23087   1.23421
 Alpha virt. eigenvalues --    1.23695   1.24335   1.24936   1.25127   1.25801
 Alpha virt. eigenvalues --    1.25976   1.26412   1.26804   1.27358   1.27616
 Alpha virt. eigenvalues --    1.27747   1.28165   1.28604   1.29055   1.29332
 Alpha virt. eigenvalues --    1.29579   1.29712   1.30228   1.30919   1.31024
 Alpha virt. eigenvalues --    1.31541   1.31702   1.31991   1.32318   1.32770
 Alpha virt. eigenvalues --    1.33399   1.33919   1.34486   1.34952   1.35473
 Alpha virt. eigenvalues --    1.36498   1.37051   1.37459   1.38078   1.38418
 Alpha virt. eigenvalues --    1.39217   1.39284   1.40071   1.40451   1.40908
 Alpha virt. eigenvalues --    1.41464   1.42228   1.42852   1.42941   1.43543
 Alpha virt. eigenvalues --    1.44356   1.44720   1.45261   1.45577   1.45785
 Alpha virt. eigenvalues --    1.46435   1.46840   1.47393   1.47669   1.48104
 Alpha virt. eigenvalues --    1.48429   1.48801   1.49125   1.49450   1.49774
 Alpha virt. eigenvalues --    1.50276   1.50445   1.50914   1.51542   1.51676
 Alpha virt. eigenvalues --    1.51707   1.51951   1.52135   1.52362   1.52652
 Alpha virt. eigenvalues --    1.52994   1.53333   1.53592   1.53902   1.54020
 Alpha virt. eigenvalues --    1.54404   1.54491   1.54639   1.54744   1.55271
 Alpha virt. eigenvalues --    1.55426   1.55540   1.55909   1.56065   1.56410
 Alpha virt. eigenvalues --    1.56677   1.56721   1.57112   1.57333   1.57438
 Alpha virt. eigenvalues --    1.57890   1.58207   1.58531   1.58884   1.59006
 Alpha virt. eigenvalues --    1.59725   1.60031   1.60347   1.60754   1.61133
 Alpha virt. eigenvalues --    1.61339   1.61756   1.61935   1.62391   1.62658
 Alpha virt. eigenvalues --    1.62872   1.63381   1.63606   1.63745   1.63842
 Alpha virt. eigenvalues --    1.64299   1.64566   1.64919   1.65309   1.65613
 Alpha virt. eigenvalues --    1.65993   1.66179   1.66691   1.67003   1.67312
 Alpha virt. eigenvalues --    1.68150   1.68298   1.68517   1.69069   1.69305
 Alpha virt. eigenvalues --    1.69544   1.69853   1.70212   1.70498   1.70861
 Alpha virt. eigenvalues --    1.71333   1.71612   1.72221   1.72372   1.72832
 Alpha virt. eigenvalues --    1.73498   1.73755   1.74305   1.74406   1.75125
 Alpha virt. eigenvalues --    1.75310   1.75804   1.76993   1.77189   1.77419
 Alpha virt. eigenvalues --    1.77718   1.78608   1.78796   1.79652   1.80362
 Alpha virt. eigenvalues --    1.80620   1.81329   1.81683   1.81994   1.82140
 Alpha virt. eigenvalues --    1.83033   1.83336   1.83548   1.84266   1.84517
 Alpha virt. eigenvalues --    1.84966   1.85086   1.86002   1.86878   1.87337
 Alpha virt. eigenvalues --    1.87521   1.87782   1.88376   1.88994   1.89902
 Alpha virt. eigenvalues --    1.89985   1.90852   1.91294   1.91693   1.91961
 Alpha virt. eigenvalues --    1.92139   1.92397   1.92602   1.93165   1.94172
 Alpha virt. eigenvalues --    1.94945   1.95330   1.95935   1.96075   1.96226
 Alpha virt. eigenvalues --    1.97487   1.98095   1.98189   1.98497   1.99015
 Alpha virt. eigenvalues --    1.99599   1.99972   2.00010   2.00624   2.01171
 Alpha virt. eigenvalues --    2.01205   2.01518   2.01907   2.01964   2.02975
 Alpha virt. eigenvalues --    2.03434   2.03655   2.04048   2.04862   2.05277
 Alpha virt. eigenvalues --    2.05450   2.06467   2.06667   2.07189   2.07825
 Alpha virt. eigenvalues --    2.08316   2.08726   2.08842   2.08998   2.09872
 Alpha virt. eigenvalues --    2.10347   2.10839   2.10852   2.11379   2.11790
 Alpha virt. eigenvalues --    2.11956   2.12469   2.13197   2.13618   2.14161
 Alpha virt. eigenvalues --    2.14365   2.15706   2.16129   2.16565   2.16780
 Alpha virt. eigenvalues --    2.16838   2.17800   2.18067   2.18548   2.18796
 Alpha virt. eigenvalues --    2.19424   2.19636   2.19896   2.20448   2.21216
 Alpha virt. eigenvalues --    2.21584   2.21721   2.22706   2.23829   2.24132
 Alpha virt. eigenvalues --    2.24727   2.24981   2.25393   2.26151   2.26485
 Alpha virt. eigenvalues --    2.26875   2.27644   2.28139   2.28644   2.28729
 Alpha virt. eigenvalues --    2.29064   2.29914   2.30176   2.30727   2.31236
 Alpha virt. eigenvalues --    2.31540   2.31615   2.31933   2.32255   2.32706
 Alpha virt. eigenvalues --    2.33033   2.33288   2.33724   2.34224   2.34739
 Alpha virt. eigenvalues --    2.35283   2.35606   2.35843   2.36022   2.36485
 Alpha virt. eigenvalues --    2.36868   2.37209   2.37628   2.38130   2.38508
 Alpha virt. eigenvalues --    2.38894   2.39188   2.40069   2.40645   2.40957
 Alpha virt. eigenvalues --    2.41175   2.41707   2.41954   2.42306   2.43213
 Alpha virt. eigenvalues --    2.43842   2.43898   2.44213   2.44664   2.45514
 Alpha virt. eigenvalues --    2.45796   2.46027   2.46803   2.46991   2.47783
 Alpha virt. eigenvalues --    2.47921   2.48358   2.48546   2.49400   2.49483
 Alpha virt. eigenvalues --    2.49983   2.50894   2.51425   2.51534   2.51880
 Alpha virt. eigenvalues --    2.52036   2.52681   2.52911   2.53100   2.53634
 Alpha virt. eigenvalues --    2.54140   2.55373   2.55478   2.56132   2.56301
 Alpha virt. eigenvalues --    2.56698   2.56852   2.57307   2.57729   2.57808
 Alpha virt. eigenvalues --    2.58013   2.58329   2.58425   2.59407   2.59826
 Alpha virt. eigenvalues --    2.60438   2.60532   2.60976   2.61290   2.61843
 Alpha virt. eigenvalues --    2.62008   2.62090   2.62502   2.62687   2.63470
 Alpha virt. eigenvalues --    2.63631   2.64222   2.64886   2.65167   2.65365
 Alpha virt. eigenvalues --    2.65834   2.66199   2.66534   2.66896   2.67554
 Alpha virt. eigenvalues --    2.67831   2.68457   2.68782   2.69425   2.69793
 Alpha virt. eigenvalues --    2.70128   2.70546   2.70621   2.71473   2.71795
 Alpha virt. eigenvalues --    2.72056   2.72902   2.73172   2.73529   2.74518
 Alpha virt. eigenvalues --    2.74928   2.75807   2.76116   2.76610   2.77069
 Alpha virt. eigenvalues --    2.77325   2.78125   2.78351   2.78523   2.78656
 Alpha virt. eigenvalues --    2.79329   2.79734   2.80416   2.80756   2.80890
 Alpha virt. eigenvalues --    2.81321   2.81574   2.82270   2.82378   2.82681
 Alpha virt. eigenvalues --    2.83083   2.83800   2.84079   2.84674   2.84877
 Alpha virt. eigenvalues --    2.85433   2.85578   2.86273   2.86700   2.87149
 Alpha virt. eigenvalues --    2.87523   2.87620   2.88059   2.88160   2.88623
 Alpha virt. eigenvalues --    2.89131   2.89520   2.89830   2.90255   2.90653
 Alpha virt. eigenvalues --    2.91121   2.91389   2.91492   2.92065   2.92444
 Alpha virt. eigenvalues --    2.92705   2.93028   2.93514   2.93635   2.94329
 Alpha virt. eigenvalues --    2.94583   2.94866   2.95018   2.95242   2.95867
 Alpha virt. eigenvalues --    2.96271   2.96320   2.96672   2.97067   2.97705
 Alpha virt. eigenvalues --    2.98144   2.98704   2.98752   2.99306   2.99703
 Alpha virt. eigenvalues --    2.99957   3.00559   3.01043   3.01406   3.02162
 Alpha virt. eigenvalues --    3.02537   3.03080   3.03352   3.03867   3.04241
 Alpha virt. eigenvalues --    3.04443   3.05240   3.05617   3.05718   3.06318
 Alpha virt. eigenvalues --    3.06476   3.06672   3.07222   3.07457   3.08155
 Alpha virt. eigenvalues --    3.08229   3.08486   3.08759   3.09143   3.09217
 Alpha virt. eigenvalues --    3.09623   3.09859   3.10327   3.10643   3.11250
 Alpha virt. eigenvalues --    3.11497   3.11596   3.12308   3.12417   3.12750
 Alpha virt. eigenvalues --    3.13222   3.13530   3.13941   3.14064   3.14399
 Alpha virt. eigenvalues --    3.14486   3.14912   3.15351   3.15612   3.15884
 Alpha virt. eigenvalues --    3.16086   3.16453   3.16788   3.16937   3.17346
 Alpha virt. eigenvalues --    3.17545   3.17912   3.18339   3.18746   3.19126
 Alpha virt. eigenvalues --    3.19680   3.20123   3.20496   3.21168   3.21806
 Alpha virt. eigenvalues --    3.21890   3.22522   3.22756   3.23216   3.23332
 Alpha virt. eigenvalues --    3.23466   3.23872   3.24109   3.24308   3.24505
 Alpha virt. eigenvalues --    3.24974   3.25248   3.25349   3.25619   3.26041
 Alpha virt. eigenvalues --    3.26224   3.26459   3.26856   3.26943   3.27224
 Alpha virt. eigenvalues --    3.27412   3.27735   3.27839   3.28193   3.28342
 Alpha virt. eigenvalues --    3.28934   3.29371   3.29628   3.29870   3.30236
 Alpha virt. eigenvalues --    3.30683   3.30863   3.31081   3.31146   3.31494
 Alpha virt. eigenvalues --    3.31839   3.31905   3.32289   3.32484   3.32761
 Alpha virt. eigenvalues --    3.33149   3.33486   3.33677   3.33790   3.34241
 Alpha virt. eigenvalues --    3.34573   3.34759   3.34880   3.35306   3.35419
 Alpha virt. eigenvalues --    3.35635   3.35896   3.36500   3.36784   3.37136
 Alpha virt. eigenvalues --    3.37450   3.37810   3.37943   3.38208   3.38509
 Alpha virt. eigenvalues --    3.38550   3.39130   3.39291   3.39374   3.39619
 Alpha virt. eigenvalues --    3.39936   3.40367   3.40709   3.41081   3.41682
 Alpha virt. eigenvalues --    3.41801   3.42171   3.42514   3.43004   3.43530
 Alpha virt. eigenvalues --    3.43894   3.44446   3.44984   3.45772   3.46176
 Alpha virt. eigenvalues --    3.46400   3.46824   3.47284   3.47660   3.47806
 Alpha virt. eigenvalues --    3.48701   3.49026   3.49451   3.49934   3.50412
 Alpha virt. eigenvalues --    3.50485   3.51073   3.51368   3.52272   3.52488
 Alpha virt. eigenvalues --    3.52843   3.53153   3.53489   3.54438   3.54643
 Alpha virt. eigenvalues --    3.55143   3.55365   3.56170   3.56415   3.57144
 Alpha virt. eigenvalues --    3.57669   3.58233   3.58250   3.58606   3.58903
 Alpha virt. eigenvalues --    3.59236   3.60289   3.60486   3.61499   3.62147
 Alpha virt. eigenvalues --    3.62452   3.62798   3.62862   3.63484   3.64611
 Alpha virt. eigenvalues --    3.64753   3.64915   3.65454   3.65802   3.66564
 Alpha virt. eigenvalues --    3.66885   3.67536   3.67748   3.68132   3.68226
 Alpha virt. eigenvalues --    3.69187   3.69509   3.70124   3.70414   3.70712
 Alpha virt. eigenvalues --    3.70966   3.71118   3.71419   3.71868   3.72933
 Alpha virt. eigenvalues --    3.73011   3.73273   3.73641   3.74085   3.74625
 Alpha virt. eigenvalues --    3.75195   3.75404   3.75978   3.76206   3.76703
 Alpha virt. eigenvalues --    3.77046   3.78105   3.78402   3.79040   3.79518
 Alpha virt. eigenvalues --    3.79795   3.80110   3.81193   3.81947   3.82922
 Alpha virt. eigenvalues --    3.83069   3.83532   3.84089   3.84320   3.85110
 Alpha virt. eigenvalues --    3.85452   3.85826   3.87038   3.87486   3.87810
 Alpha virt. eigenvalues --    3.89159   3.89555   3.89655   3.90494   3.90887
 Alpha virt. eigenvalues --    3.91146   3.91878   3.92049   3.92941   3.93167
 Alpha virt. eigenvalues --    3.93273   3.94067   3.94269   3.94961   3.95405
 Alpha virt. eigenvalues --    3.97097   3.97826   3.98374   3.99294   3.99807
 Alpha virt. eigenvalues --    4.00064   4.00618   4.01453   4.01693   4.02580
 Alpha virt. eigenvalues --    4.02762   4.03499   4.03816   4.04008   4.04377
 Alpha virt. eigenvalues --    4.04938   4.05223   4.05519   4.07021   4.07643
 Alpha virt. eigenvalues --    4.08816   4.09730   4.10336   4.10938   4.11571
 Alpha virt. eigenvalues --    4.12134   4.12416   4.12979   4.14312   4.14933
 Alpha virt. eigenvalues --    4.15698   4.16184   4.16551   4.17025   4.17765
 Alpha virt. eigenvalues --    4.18214   4.18971   4.19555   4.19987   4.20237
 Alpha virt. eigenvalues --    4.20785   4.21277   4.21820   4.22335   4.23049
 Alpha virt. eigenvalues --    4.23985   4.24145   4.24358   4.24558   4.25336
 Alpha virt. eigenvalues --    4.25802   4.26488   4.26915   4.27518   4.28193
 Alpha virt. eigenvalues --    4.28313   4.29092   4.29793   4.30870   4.31749
 Alpha virt. eigenvalues --    4.32192   4.32734   4.33114   4.34026   4.34832
 Alpha virt. eigenvalues --    4.35494   4.35866   4.36654   4.37373   4.38121
 Alpha virt. eigenvalues --    4.39424   4.39969   4.40216   4.40389   4.41059
 Alpha virt. eigenvalues --    4.41139   4.41468   4.41981   4.42196   4.42466
 Alpha virt. eigenvalues --    4.42727   4.43506   4.44130   4.44227   4.44544
 Alpha virt. eigenvalues --    4.44925   4.45446   4.45761   4.46270   4.46798
 Alpha virt. eigenvalues --    4.47141   4.47446   4.48174   4.48693   4.49508
 Alpha virt. eigenvalues --    4.50848   4.53388   4.54365   4.55512   4.55539
 Alpha virt. eigenvalues --    4.56948   4.57340   4.58598   4.59615   4.60894
 Alpha virt. eigenvalues --    4.61731   4.62430   4.63245   4.63683   4.65831
 Alpha virt. eigenvalues --    4.66100   4.66859   4.68335   4.69123   4.69263
 Alpha virt. eigenvalues --    4.69796   4.70724   4.70831   4.71694   4.72234
 Alpha virt. eigenvalues --    4.73012   4.73882   4.74551   4.74931   4.76402
 Alpha virt. eigenvalues --    4.76904   4.78519   4.79782   4.80327   4.81120
 Alpha virt. eigenvalues --    4.81532   4.82819   4.83785   4.84020   4.84724
 Alpha virt. eigenvalues --    4.84838   4.84985   4.85671   4.86314   4.87029
 Alpha virt. eigenvalues --    4.88695   4.90625   4.91170   4.92156   4.92807
 Alpha virt. eigenvalues --    4.93761   4.94164   4.94769   4.94914   4.96001
 Alpha virt. eigenvalues --    4.97305   4.98081   4.99206   4.99315   5.00671
 Alpha virt. eigenvalues --    5.00878   5.01549   5.03300   5.03473   5.04807
 Alpha virt. eigenvalues --    5.06216   5.06902   5.07705   5.08631   5.08836
 Alpha virt. eigenvalues --    5.09189   5.09794   5.10370   5.11485   5.11865
 Alpha virt. eigenvalues --    5.12885   5.13503   5.16876   5.17921   5.18832
 Alpha virt. eigenvalues --    5.19707   5.20636   5.21243   5.22196   5.22397
 Alpha virt. eigenvalues --    5.23288   5.25645   5.26616   5.26995   5.28404
 Alpha virt. eigenvalues --    5.29591   5.29918   5.32209   5.33084   5.36223
 Alpha virt. eigenvalues --    5.37218   5.37345   5.37801   5.38648   5.39628
 Alpha virt. eigenvalues --    5.40237   5.40869   5.41632   5.41934   5.42663
 Alpha virt. eigenvalues --    5.43402   5.43990   5.47077   5.49242   5.49761
 Alpha virt. eigenvalues --    5.50906   5.52288   5.52473   5.53176   5.54492
 Alpha virt. eigenvalues --    5.55567   5.57665   5.59184   5.61913   5.62814
 Alpha virt. eigenvalues --    5.62914   5.63589   5.64359   5.65748   5.66495
 Alpha virt. eigenvalues --    5.67576   5.68509   5.69030   5.69355   5.72750
 Alpha virt. eigenvalues --    5.76178   5.78387   5.78996   5.81117   5.82347
 Alpha virt. eigenvalues --    5.89774   5.91147   5.92815   5.93396   5.97233
 Alpha virt. eigenvalues --    6.02541   6.03450   6.03655   6.07814   6.12736
 Alpha virt. eigenvalues --    6.13113   6.13726   6.15099   6.16774   6.19482
 Alpha virt. eigenvalues --    6.26187   6.28098   6.35699   6.36185   6.42790
 Alpha virt. eigenvalues --    6.49006   6.52602   6.55226   6.67383   6.99044
 Alpha virt. eigenvalues --    7.30997  22.35408  22.36320  22.43571  22.46354
 Alpha virt. eigenvalues --   22.47220  22.54988  22.55581  22.62679  22.63369
 Alpha virt. eigenvalues --   22.76410  22.87270  22.87486  22.91258  22.95043
 Alpha virt. eigenvalues --   22.95349  22.97133  22.98029  23.04170  23.04842
 Alpha virt. eigenvalues --   23.06377  23.15825  23.26788  23.27859  23.30337
 Alpha virt. eigenvalues --   23.31092  23.39694  23.43915  23.52780  23.53618
 Alpha virt. eigenvalues --   23.58260  23.75414  23.79699  23.80453  23.89497
 Alpha virt. eigenvalues --   32.39686  32.70025  32.91273  32.97057  32.97561
 Alpha virt. eigenvalues --   33.13307  44.00863
  Beta  occ. eigenvalues -- -256.14076 -29.94978 -25.80492 -25.79027 -25.78990
  Beta  occ. eigenvalues --  -19.14787 -14.42416 -14.35817 -14.31270 -14.31230
  Beta  occ. eigenvalues --  -14.31161 -14.30754 -10.26341 -10.24297 -10.21482
  Beta  occ. eigenvalues --  -10.21440 -10.20588 -10.20519 -10.20450 -10.20415
  Beta  occ. eigenvalues --  -10.20370 -10.20179 -10.20154 -10.20048 -10.19497
  Beta  occ. eigenvalues --  -10.19375 -10.18645 -10.18602 -10.18557 -10.18536
  Beta  occ. eigenvalues --  -10.18531 -10.18481 -10.18405 -10.18339 -10.18305
  Beta  occ. eigenvalues --  -10.18246 -10.18238 -10.18220 -10.18166 -10.18090
  Beta  occ. eigenvalues --  -10.18034 -10.18004 -10.17887 -10.17815 -10.17724
  Beta  occ. eigenvalues --  -10.17680  -3.29669  -2.05947  -2.04906  -2.04871
  Beta  occ. eigenvalues --   -1.05811  -1.03042  -0.95989  -0.95118  -0.94970
  Beta  occ. eigenvalues --   -0.94045  -0.91408  -0.81786  -0.81406  -0.81016
  Beta  occ. eigenvalues --   -0.80743  -0.80285  -0.79886  -0.79125  -0.79059
  Beta  occ. eigenvalues --   -0.76672  -0.75552  -0.73913  -0.73360  -0.72825
  Beta  occ. eigenvalues --   -0.72296  -0.70304  -0.69552  -0.67850  -0.67422
  Beta  occ. eigenvalues --   -0.67356  -0.65130  -0.63737  -0.63646  -0.61845
  Beta  occ. eigenvalues --   -0.60435  -0.59962  -0.58664  -0.57020  -0.56469
  Beta  occ. eigenvalues --   -0.55793  -0.54169  -0.53459  -0.53287  -0.51122
  Beta  occ. eigenvalues --   -0.50607  -0.49895  -0.49827  -0.48278  -0.48014
  Beta  occ. eigenvalues --   -0.47821  -0.47496  -0.46813  -0.45877  -0.45558
  Beta  occ. eigenvalues --   -0.44241  -0.44158  -0.43830  -0.43658  -0.43330
  Beta  occ. eigenvalues --   -0.43170  -0.43050  -0.42866  -0.42759  -0.42560
  Beta  occ. eigenvalues --   -0.42081  -0.41880  -0.41334  -0.41268  -0.41127
  Beta  occ. eigenvalues --   -0.41019  -0.40158  -0.39990  -0.39659  -0.39568
  Beta  occ. eigenvalues --   -0.39186  -0.38625  -0.38542  -0.38391  -0.38155
  Beta  occ. eigenvalues --   -0.37873  -0.37205  -0.37059  -0.36676  -0.36515
  Beta  occ. eigenvalues --   -0.36258  -0.35426  -0.35111  -0.34924  -0.34093
  Beta  occ. eigenvalues --   -0.33902  -0.33396  -0.32800  -0.32175  -0.31957
  Beta  occ. eigenvalues --   -0.31233  -0.30259  -0.29411  -0.28280  -0.28056
  Beta  occ. eigenvalues --   -0.27691  -0.26108  -0.26036  -0.24590  -0.22784
  Beta  occ. eigenvalues --   -0.22154  -0.21791  -0.21456  -0.17806  -0.17316
  Beta  occ. eigenvalues --   -0.13111
  Beta virt. eigenvalues --   -0.06661  -0.06590  -0.01630  -0.00101   0.00614
  Beta virt. eigenvalues --    0.01914   0.02171   0.03104   0.03428   0.03818
  Beta virt. eigenvalues --    0.04806   0.05064   0.05793   0.06008   0.06224
  Beta virt. eigenvalues --    0.06270   0.06865   0.07233   0.07995   0.08290
  Beta virt. eigenvalues --    0.08445   0.08942   0.09090   0.09376   0.09666
  Beta virt. eigenvalues --    0.09829   0.10156   0.10634   0.10790   0.10925
  Beta virt. eigenvalues --    0.11088   0.11550   0.11965   0.12116   0.12162
  Beta virt. eigenvalues --    0.12378   0.12719   0.13019   0.13287   0.13547
  Beta virt. eigenvalues --    0.13621   0.13932   0.14189   0.14563   0.14756
  Beta virt. eigenvalues --    0.14914   0.15137   0.15311   0.15442   0.15610
  Beta virt. eigenvalues --    0.15897   0.15974   0.16020   0.16205   0.16582
  Beta virt. eigenvalues --    0.16823   0.16942   0.17227   0.17467   0.17713
  Beta virt. eigenvalues --    0.17878   0.18307   0.18539   0.18953   0.19304
  Beta virt. eigenvalues --    0.19555   0.19763   0.20095   0.20170   0.20235
  Beta virt. eigenvalues --    0.20332   0.20764   0.21283   0.21564   0.21752
  Beta virt. eigenvalues --    0.22052   0.22427   0.22703   0.23042   0.23288
  Beta virt. eigenvalues --    0.23361   0.23848   0.24226   0.24263   0.25176
  Beta virt. eigenvalues --    0.25309   0.25538   0.25910   0.25962   0.26124
  Beta virt. eigenvalues --    0.26251   0.26998   0.27215   0.27547   0.28034
  Beta virt. eigenvalues --    0.28065   0.28260   0.28744   0.28773   0.29030
  Beta virt. eigenvalues --    0.29142   0.29287   0.29746   0.30087   0.30213
  Beta virt. eigenvalues --    0.30356   0.30919   0.30988   0.31338   0.31573
  Beta virt. eigenvalues --    0.31928   0.32487   0.32599   0.32859   0.33067
  Beta virt. eigenvalues --    0.33345   0.33856   0.34180   0.34291   0.34570
  Beta virt. eigenvalues --    0.34945   0.35047   0.35165   0.35619   0.35820
  Beta virt. eigenvalues --    0.36039   0.36274   0.36520   0.36920   0.37268
  Beta virt. eigenvalues --    0.37349   0.37676   0.37959   0.38368   0.38789
  Beta virt. eigenvalues --    0.38946   0.39256   0.39419   0.39625   0.39887
  Beta virt. eigenvalues --    0.40173   0.40327   0.40433   0.40484   0.41058
  Beta virt. eigenvalues --    0.41133   0.41346   0.41445   0.41829   0.42195
  Beta virt. eigenvalues --    0.42361   0.42409   0.42996   0.43124   0.43174
  Beta virt. eigenvalues --    0.43323   0.43615   0.43864   0.43985   0.44302
  Beta virt. eigenvalues --    0.44489   0.44510   0.44790   0.45077   0.45184
  Beta virt. eigenvalues --    0.45448   0.45652   0.46100   0.46486   0.46642
  Beta virt. eigenvalues --    0.46894   0.46927   0.47041   0.47280   0.47400
  Beta virt. eigenvalues --    0.47596   0.47606   0.47722   0.48018   0.48200
  Beta virt. eigenvalues --    0.48615   0.48884   0.48969   0.49080   0.49416
  Beta virt. eigenvalues --    0.49680   0.49930   0.50473   0.50523   0.50738
  Beta virt. eigenvalues --    0.50884   0.50933   0.51175   0.51367   0.51591
  Beta virt. eigenvalues --    0.51616   0.51723   0.52286   0.52413   0.52640
  Beta virt. eigenvalues --    0.52717   0.53116   0.53379   0.53637   0.53742
  Beta virt. eigenvalues --    0.54076   0.54640   0.55054   0.55362   0.55416
  Beta virt. eigenvalues --    0.55691   0.56273   0.56497   0.56597   0.56966
  Beta virt. eigenvalues --    0.57067   0.57227   0.57561   0.57899   0.58119
  Beta virt. eigenvalues --    0.58339   0.58909   0.59138   0.59372   0.59667
  Beta virt. eigenvalues --    0.59880   0.60312   0.60677   0.61007   0.61230
  Beta virt. eigenvalues --    0.61299   0.61458   0.62115   0.62585   0.62845
  Beta virt. eigenvalues --    0.63308   0.63824   0.63942   0.64479   0.64873
  Beta virt. eigenvalues --    0.64946   0.65297   0.65434   0.65793   0.66038
  Beta virt. eigenvalues --    0.66235   0.66425   0.66751   0.67029   0.67206
  Beta virt. eigenvalues --    0.67660   0.68089   0.68250   0.68413   0.68648
  Beta virt. eigenvalues --    0.69187   0.69477   0.69887   0.70535   0.70788
  Beta virt. eigenvalues --    0.70847   0.71233   0.71554   0.71789   0.72017
  Beta virt. eigenvalues --    0.72352   0.72939   0.73204   0.73777   0.73891
  Beta virt. eigenvalues --    0.74553   0.74949   0.75162   0.75386   0.75480
  Beta virt. eigenvalues --    0.75754   0.76278   0.76467   0.76838   0.76991
  Beta virt. eigenvalues --    0.77430   0.77967   0.78061   0.78439   0.78857
  Beta virt. eigenvalues --    0.79295   0.79441   0.79716   0.79787   0.80354
  Beta virt. eigenvalues --    0.80462   0.80643   0.81257   0.81762   0.81930
  Beta virt. eigenvalues --    0.82149   0.82591   0.82898   0.83669   0.84044
  Beta virt. eigenvalues --    0.84211   0.84359   0.84905   0.85538   0.85871
  Beta virt. eigenvalues --    0.86224   0.86573   0.87130   0.87491   0.87888
  Beta virt. eigenvalues --    0.88169   0.88566   0.89069   0.89524   0.89956
  Beta virt. eigenvalues --    0.90192   0.91014   0.91109   0.91432   0.92040
  Beta virt. eigenvalues --    0.92627   0.92894   0.93223   0.93630   0.93993
  Beta virt. eigenvalues --    0.94108   0.94553   0.94638   0.94988   0.95436
  Beta virt. eigenvalues --    0.95814   0.96244   0.96511   0.96784   0.97341
  Beta virt. eigenvalues --    0.97652   0.97933   0.98551   0.98753   0.99110
  Beta virt. eigenvalues --    0.99567   0.99998   1.00036   1.00773   1.00993
  Beta virt. eigenvalues --    1.01635   1.02171   1.02319   1.02487   1.02620
  Beta virt. eigenvalues --    1.03001   1.03154   1.03507   1.03682   1.03990
  Beta virt. eigenvalues --    1.04367   1.04522   1.04977   1.05072   1.05700
  Beta virt. eigenvalues --    1.06006   1.06344   1.06627   1.06765   1.07450
  Beta virt. eigenvalues --    1.07675   1.08338   1.08585   1.08994   1.09840
  Beta virt. eigenvalues --    1.10041   1.10411   1.10830   1.11037   1.11542
  Beta virt. eigenvalues --    1.12000   1.12228   1.12518   1.12911   1.13469
  Beta virt. eigenvalues --    1.13748   1.14114   1.14616   1.15622   1.15978
  Beta virt. eigenvalues --    1.16466   1.16697   1.17319   1.17678   1.18319
  Beta virt. eigenvalues --    1.18546   1.18857   1.19382   1.19610   1.19940
  Beta virt. eigenvalues --    1.20313   1.20516   1.21129   1.21600   1.21974
  Beta virt. eigenvalues --    1.22260   1.22848   1.23282   1.23689   1.24260
  Beta virt. eigenvalues --    1.24528   1.25260   1.25406   1.25959   1.26267
  Beta virt. eigenvalues --    1.26694   1.27086   1.27631   1.27779   1.28195
  Beta virt. eigenvalues --    1.28503   1.28777   1.29303   1.29518   1.29776
  Beta virt. eigenvalues --    1.29830   1.30408   1.31172   1.31240   1.31806
  Beta virt. eigenvalues --    1.32057   1.32141   1.32630   1.33129   1.33702
  Beta virt. eigenvalues --    1.34339   1.34585   1.35252   1.35964   1.36652
  Beta virt. eigenvalues --    1.37112   1.37586   1.38220   1.38573   1.39456
  Beta virt. eigenvalues --    1.39702   1.40343   1.40695   1.41007   1.41576
  Beta virt. eigenvalues --    1.42404   1.42974   1.43037   1.43707   1.44573
  Beta virt. eigenvalues --    1.44795   1.45407   1.45723   1.45838   1.46699
  Beta virt. eigenvalues --    1.47001   1.47535   1.47782   1.48256   1.48774
  Beta virt. eigenvalues --    1.48966   1.49328   1.49580   1.50045   1.50402
  Beta virt. eigenvalues --    1.50555   1.51223   1.51617   1.51733   1.51832
  Beta virt. eigenvalues --    1.52150   1.52271   1.52552   1.52832   1.53126
  Beta virt. eigenvalues --    1.53524   1.53650   1.53997   1.54124   1.54453
  Beta virt. eigenvalues --    1.54566   1.54756   1.54807   1.55417   1.55517
  Beta virt. eigenvalues --    1.55705   1.55953   1.56144   1.56466   1.56764
  Beta virt. eigenvalues --    1.56963   1.57182   1.57485   1.57562   1.57959
  Beta virt. eigenvalues --    1.58276   1.58643   1.59112   1.59180   1.59796
  Beta virt. eigenvalues --    1.60080   1.60461   1.60882   1.61222   1.61430
  Beta virt. eigenvalues --    1.61822   1.62024   1.62435   1.62735   1.62947
  Beta virt. eigenvalues --    1.63495   1.63667   1.63889   1.63957   1.64419
  Beta virt. eigenvalues --    1.64648   1.64997   1.65435   1.65682   1.66094
  Beta virt. eigenvalues --    1.66226   1.66783   1.67080   1.67467   1.68222
  Beta virt. eigenvalues --    1.68397   1.68597   1.69134   1.69415   1.69648
  Beta virt. eigenvalues --    1.69989   1.70297   1.70628   1.70945   1.71377
  Beta virt. eigenvalues --    1.71715   1.72307   1.72491   1.72919   1.73630
  Beta virt. eigenvalues --    1.73835   1.74369   1.74488   1.75191   1.75407
  Beta virt. eigenvalues --    1.76087   1.77214   1.77255   1.77512   1.77875
  Beta virt. eigenvalues --    1.78706   1.78883   1.79704   1.80498   1.80726
  Beta virt. eigenvalues --    1.81469   1.81755   1.82120   1.82217   1.83148
  Beta virt. eigenvalues --    1.83444   1.83646   1.84381   1.84638   1.85099
  Beta virt. eigenvalues --    1.85233   1.86173   1.86943   1.87545   1.87601
  Beta virt. eigenvalues --    1.87890   1.88443   1.89215   1.89981   1.90058
  Beta virt. eigenvalues --    1.90954   1.91431   1.91861   1.92073   1.92374
  Beta virt. eigenvalues --    1.92698   1.92709   1.93291   1.94297   1.95069
  Beta virt. eigenvalues --    1.95531   1.96097   1.96275   1.96411   1.97541
  Beta virt. eigenvalues --    1.98237   1.98328   1.98720   1.99186   1.99688
  Beta virt. eigenvalues --    2.00124   2.00192   2.00815   2.01335   2.01383
  Beta virt. eigenvalues --    2.01734   2.02059   2.02099   2.03157   2.03472
  Beta virt. eigenvalues --    2.03777   2.04146   2.04984   2.05435   2.05840
  Beta virt. eigenvalues --    2.06650   2.06989   2.07308   2.07973   2.08474
  Beta virt. eigenvalues --    2.08887   2.09051   2.09240   2.09939   2.10433
  Beta virt. eigenvalues --    2.10895   2.11054   2.11503   2.11929   2.12114
  Beta virt. eigenvalues --    2.12579   2.13371   2.13895   2.14362   2.14552
  Beta virt. eigenvalues --    2.15894   2.16287   2.16671   2.16943   2.17118
  Beta virt. eigenvalues --    2.17890   2.18201   2.18663   2.18848   2.19542
  Beta virt. eigenvalues --    2.20014   2.20218   2.20621   2.21429   2.21656
  Beta virt. eigenvalues --    2.21809   2.22805   2.23970   2.24356   2.24986
  Beta virt. eigenvalues --    2.25143   2.25473   2.26209   2.26671   2.27023
  Beta virt. eigenvalues --    2.27726   2.28274   2.28728   2.28822   2.29270
  Beta virt. eigenvalues --    2.30056   2.30249   2.30823   2.31391   2.31647
  Beta virt. eigenvalues --    2.31725   2.32069   2.32316   2.32845   2.33289
  Beta virt. eigenvalues --    2.33353   2.33891   2.34312   2.34816   2.35424
  Beta virt. eigenvalues --    2.35683   2.36067   2.36100   2.36586   2.36945
  Beta virt. eigenvalues --    2.37272   2.37725   2.38180   2.38607   2.38981
  Beta virt. eigenvalues --    2.39245   2.40114   2.40767   2.41087   2.41302
  Beta virt. eigenvalues --    2.41785   2.42234   2.42449   2.43306   2.43996
  Beta virt. eigenvalues --    2.44090   2.44446   2.44813   2.45679   2.46042
  Beta virt. eigenvalues --    2.46235   2.46902   2.47117   2.47862   2.48108
  Beta virt. eigenvalues --    2.48601   2.48709   2.49529   2.49776   2.50186
  Beta virt. eigenvalues --    2.51071   2.51493   2.51685   2.52088   2.52199
  Beta virt. eigenvalues --    2.52795   2.53136   2.53214   2.53715   2.54272
  Beta virt. eigenvalues --    2.55575   2.55803   2.56214   2.56437   2.56810
  Beta virt. eigenvalues --    2.57008   2.57394   2.57833   2.57879   2.58225
  Beta virt. eigenvalues --    2.58473   2.58582   2.59515   2.59923   2.60511
  Beta virt. eigenvalues --    2.60874   2.61275   2.61377   2.61914   2.62117
  Beta virt. eigenvalues --    2.62414   2.62716   2.62842   2.63708   2.63854
  Beta virt. eigenvalues --    2.64349   2.65166   2.65311   2.65695   2.66078
  Beta virt. eigenvalues --    2.66291   2.66872   2.67046   2.67707   2.68065
  Beta virt. eigenvalues --    2.68567   2.68932   2.69557   2.69967   2.70259
  Beta virt. eigenvalues --    2.70631   2.70726   2.71629   2.71930   2.72117
  Beta virt. eigenvalues --    2.73075   2.73275   2.73782   2.74744   2.75051
  Beta virt. eigenvalues --    2.75974   2.76224   2.76706   2.77277   2.77427
  Beta virt. eigenvalues --    2.78288   2.78454   2.78711   2.78873   2.79523
  Beta virt. eigenvalues --    2.80025   2.80480   2.80873   2.80997   2.81389
  Beta virt. eigenvalues --    2.81709   2.82359   2.82606   2.82882   2.83263
  Beta virt. eigenvalues --    2.84061   2.84388   2.84757   2.84934   2.85628
  Beta virt. eigenvalues --    2.85728   2.86429   2.86882   2.87338   2.87657
  Beta virt. eigenvalues --    2.87739   2.88282   2.88303   2.88790   2.89268
  Beta virt. eigenvalues --    2.89614   2.89977   2.90339   2.90785   2.91299
  Beta virt. eigenvalues --    2.91575   2.91639   2.92208   2.92563   2.92786
  Beta virt. eigenvalues --    2.93182   2.93739   2.93896   2.94480   2.94736
  Beta virt. eigenvalues --    2.95025   2.95249   2.95416   2.95979   2.96398
  Beta virt. eigenvalues --    2.96600   2.96910   2.97427   2.97863   2.98228
  Beta virt. eigenvalues --    2.98768   2.99069   2.99431   2.99913   3.00065
  Beta virt. eigenvalues --    3.00688   3.01143   3.01462   3.02365   3.02653
  Beta virt. eigenvalues --    3.03153   3.03452   3.04194   3.04328   3.04601
  Beta virt. eigenvalues --    3.05451   3.05811   3.05946   3.06428   3.06542
  Beta virt. eigenvalues --    3.06918   3.07343   3.07567   3.08264   3.08353
  Beta virt. eigenvalues --    3.08561   3.08868   3.09190   3.09290   3.09708
  Beta virt. eigenvalues --    3.09963   3.10433   3.10802   3.11443   3.11574
  Beta virt. eigenvalues --    3.11729   3.12401   3.12489   3.12821   3.13289
  Beta virt. eigenvalues --    3.13650   3.14043   3.14135   3.14474   3.14559
  Beta virt. eigenvalues --    3.15000   3.15447   3.15681   3.15973   3.16216
  Beta virt. eigenvalues --    3.16519   3.16865   3.17034   3.17436   3.17615
  Beta virt. eigenvalues --    3.17957   3.18416   3.18826   3.19214   3.19817
  Beta virt. eigenvalues --    3.20230   3.20566   3.21226   3.21866   3.21948
  Beta virt. eigenvalues --    3.22601   3.22884   3.23355   3.23409   3.23592
  Beta virt. eigenvalues --    3.24016   3.24187   3.24462   3.24574   3.25054
  Beta virt. eigenvalues --    3.25333   3.25424   3.25713   3.26136   3.26351
  Beta virt. eigenvalues --    3.26521   3.26914   3.27043   3.27346   3.27561
  Beta virt. eigenvalues --    3.27786   3.27921   3.28264   3.28496   3.29020
  Beta virt. eigenvalues --    3.29458   3.29694   3.29931   3.30277   3.30714
  Beta virt. eigenvalues --    3.30937   3.31127   3.31227   3.31567   3.31883
  Beta virt. eigenvalues --    3.32006   3.32343   3.32529   3.32833   3.33246
  Beta virt. eigenvalues --    3.33550   3.33738   3.33850   3.34352   3.34701
  Beta virt. eigenvalues --    3.34875   3.34991   3.35392   3.35486   3.35736
  Beta virt. eigenvalues --    3.35951   3.36589   3.36892   3.37292   3.37495
  Beta virt. eigenvalues --    3.37964   3.38037   3.38272   3.38589   3.38652
  Beta virt. eigenvalues --    3.39221   3.39358   3.39518   3.39752   3.40025
  Beta virt. eigenvalues --    3.40514   3.40753   3.41214   3.41786   3.41932
  Beta virt. eigenvalues --    3.42377   3.42601   3.43184   3.43712   3.44158
  Beta virt. eigenvalues --    3.44615   3.45078   3.45918   3.46346   3.46494
  Beta virt. eigenvalues --    3.46993   3.47521   3.47725   3.47937   3.48803
  Beta virt. eigenvalues --    3.49178   3.49553   3.50013   3.50486   3.50728
  Beta virt. eigenvalues --    3.51200   3.51523   3.52422   3.52599   3.52986
  Beta virt. eigenvalues --    3.53260   3.53620   3.54617   3.54832   3.55274
  Beta virt. eigenvalues --    3.55500   3.56368   3.56633   3.57280   3.58141
  Beta virt. eigenvalues --    3.58419   3.58514   3.59013   3.59134   3.59387
  Beta virt. eigenvalues --    3.60427   3.60690   3.61647   3.62306   3.62636
  Beta virt. eigenvalues --    3.62918   3.62992   3.63658   3.64782   3.64878
[...]
                                                    1332(v)
   141. CR (   1) N  71                  0.99969   -14.22857  1326(v),1352(v),1320(v)
                                                    1522(v)
   142. CR (   1) C  73                  0.99957   -10.09539  1409(v),1527(g),1532(v)
                                                    1254(v),1297(v)
   143. CR (   1) C  74                  0.99967   -10.13144  148(r),1523(v),1531(v)
                                                    1377(v),1382(v),149(r)
   144. CR (   1) N  76                  0.99971   -14.13982  148(r),149(r),152(r),1350(v)
                                                    1407(v),168(r),172(r)
   145. CR (   1) C  77                  0.99949   -10.06645  1324(v),1522(v),1527(g)
                                                    1382(v),148(r),149(r),150(r)
                                                    154(r)
   163. LP (   1) N  76                  0.83543    -0.37542  148(r),149(r),152(r),1526(v)
                                                    1527(v),1350(v),1528(v)
                                                    1529(g),1532(v),1407(v)
                                                    1384(g),1531(g),170(r)
                                                    1381(g),150(r),176(r),194(r)
                                                    273(r),220(r),246(r),272(r)
                                                    221(r),195(r),247(r),154(r)
                                                    1448(r),1441(r),1446(r)
                                                    151(r),1440(r),1447(r)
                                                    1438(r),1443(r),1444(r)
                                                    1449(r),172(r),245(r),193(r)
                                                    184(r),1442(r)
   164. LP (   1) C  77                  0.52137    -0.11767  1525(v),1530(v),1328(v)
                                                    1408(g),1383(v),1385(v)
                                                    147(r),159(r)
  1252. RY*(   1) C  67                  0.00059     1.15847   
  1253. RY*(   2) C  67                  0.00038     1.99918   
  1254. RY*(   3) C  67                  0.00025     1.31344   
  1255. RY*(   4) C  67                  0.00006     1.27329   
  1256. RY*(   5) C  67                  0.00004     1.82458   
  1257. RY*(   6) C  67                  0.00000     1.97655   
  1258. RY*(   7) C  67                  0.00000    21.58683   
  1259. RY*(   8) C  67                  0.00001     1.74578   
  1260. RY*(   9) C  67                  0.00001     1.49186   
  1261. RY*(  10) C  67                  0.00000     2.20083   
  1262. RY*(  11) C  67                  0.00000     1.34689   
  1263. RY*(  12) C  67                  0.00000     3.27533   
  1264. RY*(  13) C  67                  0.00000     2.48541   
  1265. RY*(  14) C  67                  0.00000     2.71206   
  1266. RY*(  15) C  67                  0.00000     2.31971   
  1267. RY*(  16) C  67                  0.00001     2.80201   
  1268. RY*(  17) C  67                  0.00000     2.41777   
  1269. RY*(  18) C  67                  0.00001     2.42342   
  1270. RY*(  19) C  67                  0.00000     2.54737   
  1271. RY*(  20) C  67                  0.00000     3.51396   
  1272. RY*(  21) C  67                  0.00000     3.45117   
  1273. RY*(  22) C  67                  0.00000     3.19456   
  1274. RY*(  23) C  67                  0.00000     3.68842   
  1275. RY*(  24) C  67                  0.00000     3.43265   
  1276. RY*(  25) C  67                  0.00000     3.40050   
  1277. RY*(  26) C  67                  0.00000     3.34675   
  1278. RY*(   1) H  68                  0.00036     1.00863   
  1279. RY*(   2) H  68                  0.00007     1.68513   
  1280. RY*(   3) H  68                  0.00004     1.95848   
  1281. RY*(   4) H  68                  0.00003     2.00169   
  1282. RY*(   5) H  68                  0.00000     2.88131   
  1283. RY*(   1) H  69                  0.00036     1.01581   
  1284. RY*(   2) H  69                  0.00007     1.67690   
  1285. RY*(   3) H  69                  0.00003     1.88148   
  1286. RY*(   4) H  69                  0.00003     2.08042   
  1287. RY*(   5) H  69                  0.00000     2.88005   
  1288. RY*(   1) H  70                  0.00012     1.46347   
  1289. RY*(   2) H  70                  0.00006     1.70214   
  1290. RY*(   3) H  70                  0.00004     2.05323   
  1291. RY*(   4) H  70                  0.00000     2.93449   
  1292. RY*(   5) H  70                  0.00001     1.47882   
  1293. RY*(   1) N  71                  0.00132     0.72336   
  1294. RY*(   2) N  71                  0.00108     1.81878   
  1295. RY*(   3) N  71                  0.00052     2.16529   
  1296. RY*(   4) N  71                  0.00038     2.27772   
  1297. RY*(   5) N  71                  0.00026     1.06786   
  1298. RY*(   6) N  71                  0.00009     1.74905   
  1299. RY*(   7) N  71                  0.00009     2.31586   
  1300. RY*(   8) N  71                  0.00003     2.39651   
  1301. RY*(   9) N  71                  0.00002     3.17849   
  1302. RY*(  10) N  71                  0.00003     3.81815   
  1303. RY*(  11) N  71                  0.00000     3.89840   
  1304. RY*(  12) N  71                  0.00000     2.14376   
  1305. RY*(  13) N  71                  0.00000     4.13264   
  1306. RY*(  14) N  71                  0.00001     1.56149   
  1307. RY*(  15) N  71                  0.00001     4.33228   
  1308. RY*(  16) N  71                  0.00000    30.69774   
  1309. RY*(  17) N  71                  0.00000     4.58559   
  1310. RY*(  18) N  71                  0.00000     2.90900   
  1311. RY*(  19) N  71                  0.00001     3.50973   
  1312. RY*(  20) N  71                  0.00000     4.64875   
  1313. RY*(  21) N  71                  0.00000     4.60114   
  1314. RY*(  22) N  71                  0.00000     4.44267   
  1315. RY*(  23) N  71                  0.00000     4.43871   
  1316. RY*(  24) N  71                  0.00000     4.39658   
  1317. RY*(  25) N  71                  0.00000     4.43807   
  1318. RY*(  26) N  71                  0.00000     4.43115   
  1319. RY*(   1) H  72                  0.00028     2.16890   
  1320. RY*(   2) H  72                  0.00020     2.15422   
  1321. RY*(   3) H  72                  0.00010     2.68113   
  1322. RY*(   4) H  72                  0.00008     1.13251   
  1323. RY*(   5) H  72                  0.00000     3.05328   
  1324. RY*(   1) C  73                  0.00195     1.68649   
  1325. RY*(   2) C  73                  0.00175     1.21801   
  1326. RY*(   3) C  73                  0.00091     1.43647   
  1327. RY*(   4) C  73                  0.00081     2.11720   
  1328. RY*(   5) C  73                  0.00063     1.89005   
  1329. RY*(   6) C  73                  0.00047     1.75916   
  1330. RY*(   7) C  73                  0.00021     2.58969   
  1331. RY*(   8) C  73                  0.00011     2.67867   
  1332. RY*(   9) C  73                  0.00008     2.57303   
  1333. RY*(  10) C  73                  0.00004     3.71877   
  1334. RY*(  11) C  73                  0.00002     2.60105   
  1335. RY*(  12) C  73                  0.00000    21.39638   
  1336. RY*(  13) C  73                  0.00000     1.30594   
  1337. RY*(  14) C  73                  0.00000     1.56469   
  1338. RY*(  15) C  73                  0.00000     2.81488   
  1339. RY*(  16) C  73                  0.00000     1.97324   
  1340. RY*(  17) C  73                  0.00000     3.49726   
  1341. RY*(  18) C  73                  0.00000     1.05588   
  1342. RY*(  19) C  73                  0.00001     1.75863   
  1343. RY*(  20) C  73                  0.00000     4.03572   
  1344. RY*(  21) C  73                  0.00000     3.74514   
  1345. RY*(  22) C  73                  0.00000     3.56197   
  1346. RY*(  23) C  73                  0.00000     3.79058   
  1347. RY*(  24) C  73                  0.00000     3.43883   
  1348. RY*(  25) C  73                  0.00000     3.50510   
  1349. RY*(  26) C  73                  0.00000     3.53103   
  1350. RY*(   1) C  74                  0.00223     1.66942   
  1351. RY*(   2) C  74                  0.00170     0.60460   
  1352. RY*(   3) C  74                  0.00120     1.78778   
  1353. RY*(   4) C  74                  0.00052     1.58750   
  1354. RY*(   5) C  74                  0.00052     2.67304   
  1355. RY*(   6) C  74                  0.00033     1.79912   
  1356. RY*(   7) C  74                  0.00012     1.82654   
  1357. RY*(   8) C  74                  0.00011     1.74084   
  1358. RY*(   9) C  74                  0.00006     1.19841   
  1359. RY*(  10) C  74                  0.00006     1.96187   
  1360. RY*(  11) C  74                  0.00003     2.88711   
  1361. RY*(  12) C  74                  0.00002     3.49441   
  1362. RY*(  13) C  74                  0.00001     1.68376   
  1363. RY*(  14) C  74                  0.00001     1.78681   
  1364. RY*(  15) C  74                  0.00001     1.67377   
  1365. RY*(  16) C  74                  0.00002     1.69029   
  1366. RY*(  17) C  74                  0.00000     3.54911   
  1367. RY*(  18) C  74                  0.00000    21.60568   
  1368. RY*(  19) C  74                  0.00000     3.26224   
  1369. RY*(  20) C  74                  0.00000     3.85750   
  1370. RY*(  21) C  74                  0.00000     3.99925   
  1371. RY*(  22) C  74                  0.00000     3.57577   
  1372. RY*(  23) C  74                  0.00000     3.75998   
  1373. RY*(  24) C  74                  0.00000     3.59190   
  1374. RY*(  25) C  74                  0.00000     3.68535   
  1375. RY*(  26) C  74                  0.00000     3.48926   
  1376. RY*(   1) H  75                  0.00032     0.84794   
  1377. RY*(   2) H  75                  0.00016     2.24855   
  1378. RY*(   3) H  75                  0.00008     2.21650   
  1379. RY*(   4) H  75                  0.00002     2.65056   
  1380. RY*(   5) H  75                  0.00000     2.98971   
  1381. RY*(   1) N  76                  0.00296     1.36244   
  1382. RY*(   2) N  76                  0.00137     1.05107   
  1383. RY*(   3) N  76                  0.00120     0.97905   
  1384. RY*(   4) N  76                  0.00063     1.66149   
  1385. RY*(   5) N  76                  0.00025     2.92042   
  1386. RY*(   6) N  76                  0.00022     2.16312   
  1387. RY*(   7) N  76                  0.00016     1.48408   
  1388. RY*(   8) N  76                  0.00015     3.01588   
  1389. RY*(   9) N  76                  0.00005     2.23843   
  1390. RY*(  10) N  76                  0.00005     3.54734   
  1391. RY*(  11) N  76                  0.00003     3.16241   
  1392. RY*(  12) N  76                  0.00001     4.78205   
  1393. RY*(  13) N  76                  0.00002     3.05982   
  1394. RY*(  14) N  76                  0.00001     3.56250   
  1395. RY*(  15) N  76                  0.00000     4.57878   
  1396. RY*(  16) N  76                  0.00001     4.34512   
  1397. RY*(  17) N  76                  0.00001     4.52069   
  1398. RY*(  18) N  76                  0.00000    31.68027   
  1399. RY*(  19) N  76                  0.00001     3.56588   
  1400. RY*(  20) N  76                  0.00000     4.34330   
  1401. RY*(  21) N  76                  0.00001     5.01882   
  1402. RY*(  22) N  76                  0.00000     4.11107   
  1403. RY*(  23) N  76                  0.00000     4.60787   
  1404. RY*(  24) N  76                  0.00000     4.75234   
  1405. RY*(  25) N  76                  0.00000     4.54640   
  1406. RY*(  26) N  76                  0.00000     4.55531   
  1407. RY*(   1) C  77                  0.00202     1.46952   
  1408. RY*(   2) C  77                  0.00118     0.71331   
  1409. RY*(   3) C  77                  0.00086     1.82524   
  1410. RY*(   4) C  77                  0.00031     1.91993   
  1411. RY*(   5) C  77                  0.00028     1.61331   
  1412. RY*(   6) C  77                  0.00019     2.21900   
  1413. RY*(   7) C  77                  0.00017     2.15877   
  1414. RY*(   8) C  77                  0.00011     1.75849   
  1415. RY*(   9) C  77                  0.00007     1.81325   
  1416. RY*(  10) C  77                  0.00008     1.54214   
  1417. RY*(  11) C  77                  0.00007     1.08843   
  1418. RY*(  12) C  77                  0.00003     2.97619   
  1419. RY*(  13) C  77                  0.00002     2.15710   
  1420. RY*(  14) C  77                  0.00001     1.82876   
  1421. RY*(  15) C  77                  0.00002     3.28882   
  1422. RY*(  16) C  77                  0.00001     1.91337   
  1423. RY*(  17) C  77                  0.00000     3.76431   
  1424. RY*(  18) C  77                  0.00000    21.24388   
  1425. RY*(  19) C  77                  0.00000     2.93164   
  1426. RY*(  20) C  77                  0.00000     3.98593   
  1427. RY*(  21) C  77                  0.00001     4.04023   
  1428. RY*(  22) C  77                  0.00000     3.49794   
  1429. RY*(  23) C  77                  0.00000     3.71940   
  1430. RY*(  24) C  77                  0.00000     3.45823   
  1431. RY*(  25) C  77                  0.00000     3.59402   
  1432. RY*(  26) C  77                  0.00000     3.51889   
  1433. RY*(   1) H  78                  0.00031     1.00834   
  1434. RY*(   2) H  78                  0.00017     2.07775   
  1435. RY*(   3) H  78                  0.00012     2.28384   
  1436. RY*(   4) H  78                  0.00003     2.73571   
  1437. RY*(   5) H  78                  0.00000     3.10772   
  1519. BD*(   1) C  67 - H  68          0.00593     0.35510   
  1520. BD*(   1) C  67 - H  69          0.00577     0.35480   
  1521. BD*(   1) C  67 - H  70          0.00171     0.36872   
  1522. BD*(   1) C  67 - C  73          0.00675     0.38401   
  1523. BD*(   1) N  71 - H  72          0.00698     0.36246   
  1524. BD*(   1) N  71 - C  73          0.01355     0.42367   
  1525. BD*(   2) N  71 - C  73          0.38832    -0.05259  1530(v),1519(v),1520(v)
                                                    1325(g),1293(g),1330(g)
                                                    1253(v),169(r)
  1526. BD*(   1) N  71 - C  74          0.01152     0.44041   
  1527. BD*(   1) C  73 - C  77          0.01065     0.56020   
  1528. BD*(   1) C  74 - H  75          0.00876     0.38201   
  1529. BD*(   1) C  74 - N  76          0.00728     0.52306   
  1530. BD*(   2) C  74 - N  76          0.20640    -0.01209  1525(v),153(r),1351(g)
                                                    147(r),151(r),1448(r)
  1531. BD*(   1) N  76 - C  77          0.00725     0.47069   
  1532. BD*(   1) C  77 - H  78          0.00720     0.42454   
       -------------------------------
              Total Lewis   21.09979  ( 96.6871%)
        Valence non-Lewis    0.68806  (  3.1530%)
        Rydberg non-Lewis    0.03490  (  0.1599%)
       -------------------------------
            Total unit  4   21.82275  (100.0000%)
           Charge unit  4    0.17725
 Unable to Open any file for archive entry.
 1\1\GINC-BGN1019\SP\UAPFD\def2TZVP\C34H36Fe1N6O1(5)\BECSLEIP\12-Sep-20
 24\0\\# apfd/def2TZVP guess=read scf=maxcycle=999 geom=check pop=nbo\\
 5abo_II_Q\\0,5\Fe,0,21.1684045352,-2.5312813515,-17.5274608608\N,0,20.
 3048443257,-2.6255176456,-19.3546519214\N,0,20.9422413231,-0.535004388
 2,-17.5426454937\N,0,21.5466071646,-2.4642904528,-15.5624288564\N,0,20
 .995266616,-4.5435801302,-17.4076297249\C,0,20.0495989775,-3.741924213
 6,-20.0888948834\C,0,19.4823925192,-3.3923960548,-21.3719598222\C,0,19
 .408560881,-2.0341302629,-21.4007748274\C,0,19.9391564171,-1.571488276
 ,-20.1372447694\C,0,20.5271748251,0.2376885431,-18.5819112838\C,0,20.6
 72138366,1.6357762354,-18.2723912437\C,0,21.2118115311,1.6994975464,-1
 7.0155477036\C,0,21.3289848213,0.3262624047,-16.5645633156\C,0,21.7583
 996739,-1.3440150581,-14.8173014238\C,0,22.1016610392,-1.6884534488,-1
 3.4627049594\C,0,22.0709977742,-3.0556385901,-13.3911044552\C,0,21.745
 0574949,-3.5168019556,-14.7272913839\C,0,21.4582116875,-5.3063867911,-
 16.3814058424\C,0,21.6149502903,-6.6843265659,-16.7932604406\C,0,21.19
 9127631,-6.7433671116,-18.0870849694\C,0,20.8198149126,-5.3963338325,-
 18.4515346024\C,0,20.3208935142,-5.0388624691,-19.6912020656\H,0,20.14
 59686193,-5.8273922733,-20.4074786702\C,0,20.0448343409,-0.2383011804,
 -19.7907984254\H,0,19.7260729962,0.4918848895,-20.5195630592\C,0,21.70
 14591912,-0.0428987291,-15.2863312662\H,0,21.9110857139,0.7478796359,-
 14.5828384135\C,0,21.7427272232,-4.8464519436,-15.1085236139\H,0,22.04
 65520856,-5.5730684442,-14.3706635191\C,0,18.8984716904,-1.1388085407,
 -22.4779349945\H,0,18.5361724809,-1.7183244648,-23.3235797248\H,0,19.6
 875194022,-0.4742226779,-22.8313986853\H,0,18.0789390989,-0.5219369148
 ,-22.1083856956\C,0,19.0717654525,-4.3830192986,-22.4070638129\H,0,18.
 3367555529,-5.0789300365,-22.0019208134\H,0,19.9319927702,-4.961210347
 9,-22.7462382161\H,0,18.6336270801,-3.8848089754,-23.268677108\C,0,20.
 3339795275,2.7561360412,-19.1948699296\H,0,19.2889810251,2.6978928284,
 -19.5018006258\H,0,20.9509647446,2.7163464971,-20.0938553899\H,0,20.50
 14407885,3.7148857587,-18.7100741562\C,0,21.575439275,2.8971757763,-16
 .2866468509\H,0,20.9140309943,3.7457440995,-16.4280529406\C,0,22.64931
 4752,3.0399533315,-15.5180870267\H,0,23.3668701874,2.2477219395,-15.38
 66858992\H,0,22.8598020792,3.966729978,-15.0100733412\C,0,22.371765390
 1,-0.7081389442,-12.374056418\H,0,21.4924441281,-0.0912486618,-12.1861
 49477\H,0,23.1929361121,-0.0456070068,-12.6491102966\H,0,22.6317085483
 ,-1.2211663288,-11.4515266214\C,0,22.3032256454,-3.8691171551,-12.2161
 109645\H,0,23.0677800818,-3.4983804172,-11.5414519796\C,0,21.642649752
 3,-4.9757261734,-11.893482786\H,0,20.8376637027,-5.3576816572,-12.4978
 737154\H,0,21.8694260028,-5.5257269024,-10.9950874137\C,0,22.114744823
 3,-7.774541812,-15.9085759939\H,0,21.4479241414,-7.9127510938,-15.0570
 211551\H,0,23.105472295,-7.5326985719,-15.5234468337\H,0,22.1766047542
 ,-8.7155391185,-16.4499642107\C,0,21.1332724966,-7.9139874436,-19.0072
 278899\H,0,21.5092940358,-8.8107382073,-18.5206089203\H,0,21.728476062
 3,-7.732231204,-19.9023642282\H,0,20.1044318031,-8.0990526561,-19.3177
 142214\O,0,18.951,-2.55,-16.877\H,0,18.439,-2.752,-17.66\H,0,18.627,-2
 .374,-16.068\C,0,26.5538495735,-3.648526183,-18.3723689595\H,0,27.2867
 538352,-2.8719761015,-18.1532519004\H,0,26.8257338173,-4.1162205023,-1
 9.3186838878\H,0,26.5965016335,-4.3983552451,-17.58864935\N,0,24.83037
 38107,-2.1231880168,-19.3578734153\H,0,25.4378336697,-1.7205866994,-20
 .0523351852\C,0,25.1844034603,-3.0783198958,-18.441347553\C,0,23.52506
 10336,-1.826198017,-19.1567023669\H,0,22.9742981728,-1.108929952,-19.7
 298475236\N,0,23.032332983,-2.5354783169,-18.1688681773\C,0,24.0542377
 917,-3.3178225786,-17.7129879011\H,0,23.9044043321,-3.996074964,-16.89
 78620913\\Version=ES64L-G16RevC.02\State=5-A\HF=-2984.0061141\S2=6.011
 922\S2-1=0.\S2A=6.000043\RMSD=1.966e-09\Dipole=1.5023403,0.0251178,-1.
 3088614\Quadrupole=8.3137789,-6.5171619,-1.796617,-0.6076124,-4.791920
 8,-1.9530096\PG=C01 [X(C34H36Fe1N6O1)]\\@
 The archive entry for this job was punched.


 THERE IS MORE TO LIFE THAN INCREASING ITS SPEED.

                                       -- GANDHI
 Job cpu time:       0 days 22 hours 39 minutes 52.8 seconds.
 Elapsed time:       0 days  0 hours 20 minutes 58.8 seconds.
 File lengths (MBytes):  RWF=   2166 Int=      0 D2E=      0 Chk=    197 Scr=      1
 Normal termination of Gaussian 16 at Thu Sep 12 23:38:11 2024.
