 Entering Gaussian System, Link 0=g16
 Input=5abo12re.com
 Output=5abo12re.log
 Initial command:
 /sw/chem/gaussian/g16_C02/a100/g16/l1.exe "/local/becsleip_8015129/Gau-2698412.inp" -scrdir="/local/becsleip_8015129/"
 Entering Link 1 = /sw/chem/gaussian/g16_C02/a100/g16/l1.exe PID=   2698413.
  
 Copyright (c) 1988-2021, Gaussian, Inc.  All Rights Reserved.
  
 This is part of the Gaussian(R) 16 program.  It is based on
 the Gaussian(R) 09 system (copyright 2009, Gaussian, Inc.),
 the Gaussian(R) 03 system (copyright 2003, Gaussian, Inc.),
 the Gaussian(R) 98 system (copyright 1998, Gaussian, Inc.),
 the Gaussian(R) 94 system (copyright 1995, Gaussian, Inc.),
 the Gaussian 92(TM) system (copyright 1992, Gaussian, Inc.),
 the Gaussian 90(TM) system (copyright 1990, Gaussian, Inc.),
 the Gaussian 88(TM) system (copyright 1988, Gaussian, Inc.),
 the Gaussian 86(TM) system (copyright 1986, Carnegie Mellon
 University), and the Gaussian 82(TM) system (copyright 1983,
 Carnegie Mellon University). Gaussian is a federally registered
 trademark of Gaussian, Inc.
  
 This software contains proprietary and confidential information,
 including trade secrets, belonging to Gaussian, Inc.
  
 This software is provided under written license and may be
 used, copied, transmitted, or stored only in accord with that
 written license.
  
 The following legend is applicable only to US Government
 contracts under FAR:
  
                    RESTRICTED RIGHTS LEGEND
  
 Use, reproduction and disclosure by the US Government is
 subject to restrictions as set forth in subparagraphs (a)
 and (c) of the Commercial Computer Software - Restricted
 Rights clause in FAR 52.227-19.
  
 Gaussian, Inc.
 340 Quinnipiac St., Bldg. 40, Wallingford CT 06492
  
  
 ---------------------------------------------------------------
 Warning -- This program may not be used in any manner that
 competes with the business of Gaussian, Inc. or will provide
 assistance to any competitor of Gaussian, Inc.  The licensee
 of this program is prohibited from giving any competitor of
 Gaussian, Inc. access to this program.  By using this program,
 the user acknowledges that Gaussian, Inc. is engaged in the
 business of creating and licensing software in the field of
 computational chemistry and represents and warrants to the
 licensee that it is not a competitor of Gaussian, Inc. and that
 it will not use this program in any manner prohibited above.
 ---------------------------------------------------------------
  

 Cite this work as:
 Gaussian 16, Revision C.02,
 M. J. Frisch, G. W. Trucks, H. B. Schlegel, G. E. Scuseria, 
 M. A. Robb, J. R. Cheeseman, G. Scalmani, V. Barone, 
 G. A. Petersson, H. Nakatsuji, X. Li, M. Caricato, A. V. Marenich, 
 J. Bloino, B. G. Janesko, R. Gomperts, B. Mennucci, H. P. Hratchian, 
 J. V. Ortiz, A. F. Izmaylov, J. L. Sonnenberg, D. Williams-Young, 
 F. Ding, F. Lipparini, F. Egidi, J. Goings, B. Peng, A. Petrone, 
 T. Henderson, D. Ranasinghe, V. G. Zakrzewski, J. Gao, N. Rega, 
 G. Zheng, W. Liang, M. Hada, M. Ehara, K. Toyota, R. Fukuda, 
 J. Hasegawa, M. Ishida, T. Nakajima, Y. Honda, O. Kitao, H. Nakai, 
 T. Vreven, K. Throssell, J. A. Montgomery, Jr., J. E. Peralta, 
 F. Ogliaro, M. J. Bearpark, J. J. Heyd, E. N. Brothers, K. N. Kudin, 
 V. N. Staroverov, T. A. Keith, R. Kobayashi, J. Normand, 
 K. Raghavachari, A. P. Rendell, J. C. Burant, S. S. Iyengar, 
 J. Tomasi, M. Cossi, J. M. Millam, M. Klene, C. Adamo, R. Cammi, 
 J. W. Ochterski, R. L. Martin, K. Morokuma, O. Farkas, 
 J. B. Foresman, and D. J. Fox, Gaussian, Inc., Wallingford CT, 2019.
 
 ******************************************
 Gaussian 16:  ES64L-G16RevC.02  7-Dec-2021
                12-Sep-2024 
 ******************************************
 %mem=16GB
 %CPU=0-71
 SetSPE:  set environment variable "OMP_PROC_BIND" = "true"
 SetSPE:  set environment variable "OMP_PLACES" = "{0},{1},{2},{3},{4},{5},{6},{7},{8},{9},{10},{11},{12},{13},{14},{15},{16},{17},{18},{19},{20},{21},{22},{23},{24},{25},{26},{27},{28},{29},{30},{31},{32},{33},{34},{35},{36},{37},{38},{39},{40},{41},{42},{43},{44},{45},{46},{47},{48},{49},{50},{51},{52},{53},{54},{55},{56},{57},{58},{59},{60},{61},{62},{63},{64},{65},{66},{67},{68},{69},{70},{71}"
 Will use up to   72 processors via shared memory.
 %gpucpu=0,1,2,3=0,1,2,3
 Will use    4 GPUs:
 Thread  CPU   GPU
      0    0     0
      1    1     1
      2    2     2
      3    3     3
      4    4    -1
      5    5    -1
      6    6    -1
      7    7    -1
      8    8    -1
      9    9    -1
     10   10    -1
     11   11    -1
     12   12    -1
     13   13    -1
     14   14    -1
     15   15    -1
     16   16    -1
     17   17    -1
     18   18    -1
     19   19    -1
     20   20    -1
     21   21    -1
     22   22    -1
     23   23    -1
     24   24    -1
     25   25    -1
     26   26    -1
     27   27    -1
     28   28    -1
     29   29    -1
     30   30    -1
     31   31    -1
     32   32    -1
     33   33    -1
     34   34    -1
     35   35    -1
     36   36    -1
     37   37    -1
     38   38    -1
     39   39    -1
     40   40    -1
     41   41    -1
     42   42    -1
     43   43    -1
     44   44    -1
     45   45    -1
     46   46    -1
     47   47    -1
     48   48    -1
     49   49    -1
     50   50    -1
     51   51    -1
     52   52    -1
     53   53    -1
     54   54    -1
     55   55    -1
     56   56    -1
     57   57    -1
     58   58    -1
     59   59    -1
     60   60    -1
     61   61    -1
     62   62    -1
     63   63    -1
     64   64    -1
     65   65    -1
     66   66    -1
     67   67    -1
     68   68    -1
     69   69    -1
     70   70    -1
     71   71    -1
 SetGPE:  set environment variable "OMP_PROC_BIND" = "true"
 SetGPE:  set environment variable "OMP_PLACES" = "{0},{1},{2},{3},{4},{5},{6},{7},{8},{9},{10},{11},{12},{13},{14},{15},{16},{17},{18},{19},{20},{21},{22},{23},{24},{25},{26},{27},{28},{29},{30},{31},{32},{33},{34},{35},{36},{37},{38},{39},{40},{41},{42},{43},{44},{45},{46},{47},{48},{49},{50},{51},{52},{53},{54},{55},{56},{57},{58},{59},{60},{61},{62},{63},{64},{65},{66},{67},{68},{69},{70},{71}"
 %oldchk=5abo_II_S.chk
 %chk=5abo_II_Sre.chk
 Properties for Device   0
 Minimum vector length:                              32
 Maximum vector length:                            1024
 Number of SMPs:                                    108
 Maximum number of threads per SMP:                2048
 Number of ASync Engines:                             5
 Memory:                                           9207742464
 Properties for Device   1
 Minimum vector length:                              32
 Maximum vector length:                            1024
 Number of SMPs:                                    108
 Maximum number of threads per SMP:                2048
 Number of ASync Engines:                             5
 Memory:                                           9207742464
 Properties for Device   2
 Minimum vector length:                              32
 Maximum vector length:                            1024
 Number of SMPs:                                    108
 Maximum number of threads per SMP:                2048
 Number of ASync Engines:                             5
 Memory:                                           9207742464
 Properties for Device   3
 Minimum vector length:                              32
 Maximum vector length:                            1024
 Number of SMPs:                                    108
 Maximum number of threads per SMP:                2048
 Number of ASync Engines:                             5
 Memory:                                           9207742464
   8286968217 words of memory will be used on each GPU.
 Copying data from "5abo_II_S.chk" to current chk file "5abo_II_Sre.chk"
 IOpt=  2 FromEx=T IUOpen= 4 IOptOp= 5 NList=   0 IFRang= 0 IUIn= 4 IUOut= 2.
 --------------------------------------
 # apfd/gen scf=maxcycle=999 geom=check
 --------------------------------------
 1/29=2,38=1,172=1/1;
 2/12=2,40=1/2;
 3/5=7,11=2,14=-4,25=1,30=1,74=-44/1,2,3;
 4//1;
 5/5=2,7=999,38=5/2;
 6/7=2,8=2,9=2,10=2,28=1/1;
 99/5=1,9=1/99;
 ----------
 5abo_III_D
 ----------
 Structure from the checkpoint file:  "5abo_II_Sre.chk"
 Charge =  1 Multiplicity = 2
 Z-Matrix found in chk file.
 Fe,0,21.1684045352,-2.5312813515,-17.5274608608
 N,0,20.3048443257,-2.6255176456,-19.3546519214
 N,0,20.9422413231,-0.5350043882,-17.5426454937
 N,0,21.5466071646,-2.4642904528,-15.5624288564
 N,0,20.995266616,-4.5435801302,-17.4076297249
 C,0,20.0495989775,-3.7419242136,-20.0888948834
 C,0,19.4823925192,-3.3923960548,-21.3719598222
 C,0,19.408560881,-2.0341302629,-21.4007748274
 C,0,19.9391564171,-1.571488276,-20.1372447694
 C,0,20.5271748251,0.2376885431,-18.5819112838
 C,0,20.672138366,1.6357762354,-18.2723912437
 C,0,21.2118115311,1.6994975464,-17.0155477036
 C,0,21.3289848213,0.3262624047,-16.5645633156
 C,0,21.7583996739,-1.3440150581,-14.8173014238
 C,0,22.1016610392,-1.6884534488,-13.4627049594
 C,0,22.0709977742,-3.0556385901,-13.3911044552
 C,0,21.7450574949,-3.5168019556,-14.7272913839
 C,0,21.4582116875,-5.3063867911,-16.3814058424
 C,0,21.6149502903,-6.6843265659,-16.7932604406
 C,0,21.199127631,-6.7433671116,-18.0870849694
 C,0,20.8198149126,-5.3963338325,-18.4515346024
 C,0,20.3208935142,-5.0388624691,-19.6912020656
 H,0,20.1459686193,-5.8273922733,-20.4074786702
 C,0,20.0448343409,-0.2383011804,-19.7907984254
 H,0,19.7260729962,0.4918848895,-20.5195630592
 C,0,21.7014591912,-0.0428987291,-15.2863312662
 H,0,21.9110857139,0.7478796359,-14.5828384135
 C,0,21.7427272232,-4.8464519436,-15.1085236139
 H,0,22.0465520856,-5.5730684442,-14.3706635191
 C,0,18.8984716904,-1.1388085407,-22.4779349945
 H,0,18.5361724809,-1.7183244648,-23.3235797248
 H,0,19.6875194022,-0.4742226779,-22.8313986853
 H,0,18.0789390989,-0.5219369148,-22.1083856956
 C,0,19.0717654525,-4.3830192986,-22.4070638129
 H,0,18.3367555529,-5.0789300365,-22.0019208134
 H,0,19.9319927702,-4.9612103479,-22.7462382161
 H,0,18.6336270801,-3.8848089754,-23.268677108
 C,0,20.3339795275,2.7561360412,-19.1948699296
 H,0,19.2889810251,2.6978928284,-19.5018006258
 H,0,20.9509647446,2.7163464971,-20.0938553899
 H,0,20.5014407885,3.7148857587,-18.7100741562
 C,0,21.575439275,2.8971757763,-16.2866468509
 H,0,20.9140309943,3.7457440995,-16.4280529406
 C,0,22.649314752,3.0399533315,-15.5180870267
 H,0,23.3668701874,2.2477219395,-15.3866858992
 H,0,22.8598020792,3.966729978,-15.0100733412
 C,0,22.3717653901,-0.7081389442,-12.374056418
 H,0,21.4924441281,-0.0912486618,-12.186149477
 H,0,23.1929361121,-0.0456070068,-12.6491102966
 H,0,22.6317085483,-1.2211663288,-11.4515266214
 C,0,22.3032256454,-3.8691171551,-12.2161109645
 H,0,23.0677800818,-3.4983804172,-11.5414519796
 C,0,21.6426497523,-4.9757261734,-11.893482786
 H,0,20.8376637027,-5.3576816572,-12.4978737154
 H,0,21.8694260028,-5.5257269024,-10.9950874137
 C,0,22.1147448233,-7.774541812,-15.9085759939
 H,0,21.4479241414,-7.9127510938,-15.0570211551
 H,0,23.105472295,-7.5326985719,-15.5234468337
 H,0,22.1766047542,-8.7155391185,-16.4499642107
 C,0,21.1332724966,-7.9139874436,-19.0072278899
 H,0,21.5092940358,-8.8107382073,-18.5206089203
 H,0,21.7284760623,-7.732231204,-19.9023642282
 H,0,20.1044318031,-8.0990526561,-19.3177142214
 O,0,18.951,-2.55,-16.877
 H,0,18.439,-2.752,-17.66
 H,0,18.627,-2.374,-16.068
 C,0,26.5538495735,-3.648526183,-18.3723689595
 H,0,27.2867538352,-2.8719761015,-18.1532519004
 H,0,26.8257338173,-4.1162205023,-19.3186838878
 H,0,26.5965016335,-4.3983552451,-17.58864935
 N,0,24.8303738107,-2.1231880168,-19.3578734153
 H,0,25.4378336697,-1.7205866994,-20.0523351852
 C,0,25.1844034603,-3.0783198958,-18.441347553
 C,0,23.5250610336,-1.826198017,-19.1567023669
 H,0,22.9742981728,-1.108929952,-19.7298475236
 N,0,23.032332983,-2.5354783169,-18.1688681773
 C,0,24.0542377917,-3.3178225786,-17.7129879011
 H,0,23.9044043321,-3.996074964,-16.8978620913
 Recover connectivity data from disk.
 Stoichiometry    C34H36FeN6O(1+,2)
 Framework group  C1[X(C34H36FeN6O)]
 Deg. of freedom   228
 Full point group                 C1      NOp   1
 Largest Abelian subgroup         C1      NOp   1
 Largest concise Abelian subgroup C1      NOp   1
                         Standard orientation:                         
 ---------------------------------------------------------------------
 Center     Atomic      Atomic             Coordinates (Angstroms)
 Number     Number       Type             X           Y           Z
 ---------------------------------------------------------------------
      1         26           0        0.083558   -0.133855   -0.269282
      2          7           0        1.140399   -1.839680   -0.527142
      3          7           0        1.790822    0.919742   -0.377380
      4          7           0       -0.963454    1.554816   -0.516321
      5          7           0       -1.605782   -1.204954   -0.573520
      6          6           0        0.653474   -3.107912   -0.598693
      7          6           0        1.730979   -4.063992   -0.721342
      8          6           0        2.885054   -3.343428   -0.713167
      9          6           0        2.497207   -1.956591   -0.577760
     10          6           0        3.058959    0.429643   -0.409622
     11          6           0        4.023223    1.492139   -0.296650
     12          6           0        3.307002    2.652389   -0.170913
     13          6           0        1.911829    2.269463   -0.269651
     14          6           0       -0.469676    2.823885   -0.489200
     15          6           0       -1.532162    3.788253   -0.601071
     16          6           0       -2.693460    3.072721   -0.722170
     17          6           0       -2.310481    1.675942   -0.640684
     18          6           0       -2.869224   -0.708690   -0.491278
     19          6           0       -3.828288   -1.771980   -0.285071
     20          6           0       -3.115514   -2.930564   -0.281526
     21          6           0       -1.730814   -2.553712   -0.459817
     22          6           0       -0.683929   -3.455096   -0.530698
     23          1           0       -0.926253   -4.506979   -0.514837
     24          6           0        3.397025   -0.910074   -0.516849
     25          1           0        4.447982   -1.154661   -0.556144
     26          6           0        0.862329    3.165920   -0.331366
     27          1           0        1.105720    4.216867   -0.310205
     28          6           0       -3.211439    0.627483   -0.592516
     29          1           0       -4.260971    0.877874   -0.570040
     30          6           0        4.294663   -3.816886   -0.817601
     31          1           0        4.332586   -4.897814   -0.928823
     32          1           0        4.858907   -3.544688    0.075004
     33          1           0        4.788347   -3.365814   -1.678729
     34          6           0        1.537752   -5.537021   -0.840660
     35          1           0        0.909161   -5.773193   -1.699595
     36          1           0        1.051548   -5.932899    0.051653
     37          1           0        2.491499   -6.044693   -0.963916
     38          6           0        5.501695    1.307346   -0.274361
     39          1           0        5.836994    0.790090   -1.174161
     40          1           0        5.803844    0.711359    0.588156
     41          1           0        6.006706    2.268556   -0.216821
     42          6           0        3.840690    3.986797    0.009331
     43          1           0        4.757682    4.197233   -0.531380
     44          6           0        3.329170    4.925486    0.797677
     45          1           0        2.451938    4.751541    1.397667
     46          1           0        3.786452    5.897171    0.887228
     47          6           0       -1.345179    5.265815   -0.632286
     48          1           0       -0.744255    5.558558   -1.493832
     49          1           0       -0.830272    5.606666    0.266389
     50          1           0       -2.304657    5.772700   -0.697844
     51          6           0       -4.026693    3.605977   -0.907680
     52          1           0       -4.234601    4.526414   -0.372215
     53          6           0       -4.967990    3.091294   -1.691322
     54          1           0       -4.797219    2.211211   -2.287536
     55          1           0       -5.938393    3.550640   -1.782767
     56          6           0       -5.296823   -1.563222   -0.140657
     57          1           0       -5.710843   -1.116111   -1.044856
     58          1           0       -5.509301   -0.893404    0.692741
     59          1           0       -5.806878   -2.506802    0.037960
     60          6           0       -3.591232   -4.333572   -0.118393
     61          1           0       -4.666347   -4.361824    0.041864
     62          1           0       -3.103200   -4.807463    0.733560
     63          1           0       -3.362428   -4.920949   -1.008225
     64          8           0        0.205152   -0.136515   -2.576995
     65          1           0        0.554797   -0.990638   -2.830491
     66          1           0       -0.000363    0.531486   -3.126515
     67          6           0       -1.555278   -0.193416    5.048217
     68          1           0       -1.184021    0.584339    5.715643
     69          1           0       -1.508452   -1.146023    5.575965
     70          1           0       -2.591877    0.020420    4.807350
     71          7           0        0.587725   -0.520225    3.795629
     72          1           0        1.151464   -0.707909    4.608246
     73          6           0       -0.754411   -0.244012    3.798686
     74          6           0        1.008485   -0.494002    2.509244
     75          1           0        2.017588   -0.675302    2.200780
     76          7           0        0.014053   -0.218111    1.698895
     77          6           0       -1.088877   -0.058238    2.487669
     78          1           0       -2.041359    0.176406    2.057986
 ---------------------------------------------------------------------
 Rotational constants (GHZ):           0.0935719           0.0919912           0.0608776
 General basis read from cards:  (5D, 7F)
 There are   723 symmetry adapted cartesian basis functions of A   symmetry.
 There are   679 symmetry adapted basis functions of A   symmetry.
   679 basis functions,  1378 primitive gaussians,   723 cartesian basis functions
   158 alpha electrons      157 beta electrons
       nuclear repulsion energy      5973.7911333740 Hartrees.
 NAtoms=   78 NActive=   78 NUniq=   78 SFac= 1.00D+00 NAtFMM=   60 NAOKFM=T Big=T
 Integral buffers will be    131072 words long.
 Raffenetti 2 integral format.
 Two-electron integral symmetry is turned on.
 R6APFD:  NTU= -4 IXU= 1 FactS= 1.050
 Nuclear repulsion after empirical dispersion term =     5973.6389817298 Hartrees.
 One-electron integrals computed using PRISM.
 NBasis=   679 RedAO= T EigKep=  2.62D-04  NBF=   679
 NBsUse=   679 1.00D-06 EigRej= -1.00D+00 NBFU=   679
 ExpMin= 4.20D-02 ExpMax= 3.01D+05 ExpMxC= 2.91D+03 IAcc=3 IRadAn=         5 AccDes= 0.00D+00
 Harris functional with IExCor= 3731 and IRadAn=       5 diagonalized for initial guess.
 HarFok:  IExCor= 3731 AccDes= 0.00D+00 IRadAn=         5 IDoV= 1 UseB2=F ITyADJ=14
 ICtDFT=  3500011 ScaDFX=  1.000000  1.000000  1.000000  1.000000
 FoFCou: FMM=F IPFlag=           0 FMFlag=      100000 FMFlg1=        2001
         NFxFlg=           0 DoJE=T BraDBF=F KetDBF=T FulRan=T
         wScrn=  0.000000 ICntrl=       500 IOpCl=  0 I1Cent=   200000004 NGrid=           0
         NMat0=    1 NMatS0=      1 NMatT0=    0 NMatD0=    1 NMtDS0=    0 NMtDT0=    0
 Petite list used in FoFCou.
 Initial guess <Sx>= 0.0000 <Sy>= 0.0000 <Sz>= 0.5000 <S**2>= 0.7500 S= 0.5000
 Requested convergence on RMS density matrix=1.00D-08 within 999 cycles.
 Requested convergence on MAX density matrix=1.00D-06.
 Requested convergence on             energy=1.00D-06.
 No special actions if energy rises.
 EnCoef did   100 forward-backward iterations
 EnCoef did   100 forward-backward iterations
 EnCoef did   100 forward-backward iterations
 EnCoef did   100 forward-backward iterations
 EnCoef did     8 forward-backward iterations
 EnCoef did     3 forward-backward iterations
 Restarting incremental Fock formation.
 Rare condition: small coef for last iteration:  0.000D+00
 Rare condition: small coef for last iteration:  0.000D+00
 Rare condition: small coef for last iteration:  0.000D+00
 Rare condition: small coef for last iteration:  0.000D+00
 Rare condition: small coef for last iteration:  0.000D+00
 Rare condition: small coef for last iteration:  0.000D+00
 Rare condition: small coef for last iteration:  0.000D+00
 Rare condition: small coef for last iteration:  0.000D+00
 Rare condition: small coef for last iteration:  0.000D+00
 Rare condition: small coef for last iteration:  0.000D+00
 Rare condition: small coef for last iteration:  0.000D+00
 Restarting incremental Fock formation.
 Rare condition: small coef for last iteration:  0.000D+00
 Rare condition: small coef for last iteration:  0.000D+00
 Rare condition: small coef for last iteration:  0.000D+00
 Rare condition: small coef for last iteration:  0.000D+00
 Restarting incremental Fock formation.
 Restarting incremental Fock formation.
 Restarting incremental Fock formation.
 Restarting incremental Fock formation.
 SCF Done:  E(UAPFD) =  -2983.20175619     A.U. after  126 cycles
            NFock=126  Conv=0.76D-08     -V/T= 2.0038
 <Sx>= 0.0000 <Sy>= 0.0000 <Sz>= 0.5000 <S**2>= 0.8368 S= 0.5425
 <L.S>=  0.00000000000    
 Annihilation of the first spin contaminant:
 S**2 before annihilation     0.8368,   after     0.7522

 **********************************************************************

            Population analysis using the SCF Density.

 **********************************************************************

 Orbital symmetries:
 Alpha Orbitals:
       Occupied  (A) (A) (A) (A) (A) (A) (A) (A) (A) (A) (A) (A)
                 (A) (A) (A) (A) (A) (A) (A) (A) (A) (A) (A) (A)
                 (A) (A) (A) (A) (A) (A) (A) (A) (A) (A) (A) (A)
                 (A) (A) (A) (A) (A) (A) (A) (A) (A) (A) (A) (A)
                 (A) (A) (A) (A) (A) (A) (A) (A) (A) (A) (A) (A)
                 (A) (A) (A) (A) (A) (A) (A) (A) (A) (A) (A) (A)
                 (A) (A) (A) (A) (A) (A) (A) (A) (A) (A) (A) (A)
                 (A) (A) (A) (A) (A) (A) (A) (A) (A) (A) (A) (A)
                 (A) (A) (A) (A) (A) (A) (A) (A) (A) (A) (A) (A)
                 (A) (A) (A) (A) (A) (A) (A) (A) (A) (A) (A) (A)
                 (A) (A) (A) (A) (A) (A) (A) (A) (A) (A) (A) (A)
                 (A) (A) (A) (A) (A) (A) (A) (A) (A) (A) (A) (A)
                 (A) (A) (A) (A) (A) (A) (A) (A) (A) (A) (A) (A)
                 (A) (A)
       Virtual   (A) (A) (A) (A) (A) (A) (A) (A) (A) (A) (A) (A)
                 (A) (A) (A) (A) (A) (A) (A) (A) (A) (A) (A) (A)
                 (A) (A) (A) (A) (A) (A) (A) (A) (A) (A) (A) (A)
                 (A) (A) (A) (A) (A) (A) (A) (A) (A) (A) (A) (A)
                 (A) (A) (A) (A) (A) (A) (A) (A) (A) (A) (A) (A)
                 (A) (A) (A) (A) (A) (A) (A) (A) (A) (A) (A) (A)
                 (A) (A) (A) (A) (A) (A) (A) (A) (A) (A) (A) (A)
                 (A) (A) (A) (A) (A) (A) (A) (A) (A) (A) (A) (A)
                 (A) (A) (A) (A) (A) (A) (A) (A) (A) (A) (A) (A)
                 (A) (A) (A) (A) (A) (A) (A) (A) (A) (A) (A) (A)
                 (A) (A) (A) (A) (A) (A) (A) (A) (A) (A) (A) (A)
                 (A) (A) (A) (A) (A) (A) (A) (A) (A) (A) (A) (A)
                 (A) (A) (A) (A) (A) (A) (A) (A) (A) (A) (A) (A)
                 (A) (A) (A) (A) (A) (A) (A) (A) (A) (A) (A) (A)
                 (A) (A) (A) (A) (A) (A) (A) (A) (A) (A) (A) (A)
                 (A) (A) (A) (A) (A) (A) (A) (A) (A) (A) (A) (A)
                 (A) (A) (A) (A) (A) (A) (A) (A) (A) (A) (A) (A)
                 (A) (A) (A) (A) (A) (A) (A) (A) (A) (A) (A) (A)
                 (A) (A) (A) (A) (A) (A) (A) (A) (A) (A) (A) (A)
                 (A) (A) (A) (A) (A) (A) (A) (A) (A) (A) (A) (A)
                 (A) (A) (A) (A) (A) (A) (A) (A) (A) (A) (A) (A)
                 (A) (A) (A) (A) (A) (A) (A) (A) (A) (A) (A) (A)
                 (A) (A) (A) (A) (A) (A) (A) (A) (A) (A) (A) (A)
                 (A) (A) (A) (A) (A) (A) (A) (A) (A) (A) (A) (A)
                 (A) (A) (A) (A) (A) (A) (A) (A) (A) (A) (A) (A)
                 (A) (A) (A) (A) (A) (A) (A) (A) (A) (A) (A) (A)
                 (A) (A) (A) (A) (A) (A) (A) (A) (A) (A) (A) (A)
                 (A) (A) (A) (A) (A) (A) (A) (A) (A) (A) (A) (A)
                 (A) (A) (A) (A) (A) (A) (A) (A) (A) (A) (A) (A)
                 (A) (A) (A) (A) (A) (A) (A) (A) (A) (A) (A) (A)
                 (A) (A) (A) (A) (A) (A) (A) (A) (A) (A) (A) (A)
                 (A) (A) (A) (A) (A) (A) (A) (A) (A) (A) (A) (A)
                 (A) (A) (A) (A) (A) (A) (A) (A) (A) (A) (A) (A)
                 (A) (A) (A) (A) (A) (A) (A) (A) (A) (A) (A) (A)
                 (A) (A) (A) (A) (A) (A) (A) (A) (A) (A) (A) (A)
                 (A) (A) (A) (A) (A) (A) (A) (A) (A) (A) (A) (A)
                 (A) (A) (A) (A) (A) (A) (A) (A) (A) (A) (A) (A)
                 (A) (A) (A) (A) (A) (A) (A) (A) (A) (A) (A) (A)
                 (A) (A) (A) (A) (A) (A) (A) (A) (A) (A) (A) (A)
                 (A) (A) (A) (A) (A) (A) (A) (A) (A) (A) (A) (A)
                 (A) (A) (A) (A) (A) (A) (A) (A) (A) (A) (A) (A)
                 (A) (A) (A) (A) (A) (A) (A) (A) (A) (A) (A) (A)
                 (A) (A) (A) (A) (A) (A) (A) (A) (A) (A) (A) (A)
                 (A) (A) (A) (A) (A)
 Beta  Orbitals:
       Occupied  (A) (A) (A) (A) (A) (A) (A) (A) (A) (A) (A) (A)
                 (A) (A) (A) (A) (A) (A) (A) (A) (A) (A) (A) (A)
                 (A) (A) (A) (A) (A) (A) (A) (A) (A) (A) (A) (A)
                 (A) (A) (A) (A) (A) (A) (A) (A) (A) (A) (A) (A)
                 (A) (A) (A) (A) (A) (A) (A) (A) (A) (A) (A) (A)
                 (A) (A) (A) (A) (A) (A) (A) (A) (A) (A) (A) (A)
                 (A) (A) (A) (A) (A) (A) (A) (A) (A) (A) (A) (A)
                 (A) (A) (A) (A) (A) (A) (A) (A) (A) (A) (A) (A)
                 (A) (A) (A) (A) (A) (A) (A) (A) (A) (A) (A) (A)
                 (A) (A) (A) (A) (A) (A) (A) (A) (A) (A) (A) (A)
                 (A) (A) (A) (A) (A) (A) (A) (A) (A) (A) (A) (A)
                 (A) (A) (A) (A) (A) (A) (A) (A) (A) (A) (A) (A)
                 (A) (A) (A) (A) (A) (A) (A) (A) (A) (A) (A) (A)
                 (A)
       Virtual   (A) (A) (A) (A) (A) (A) (A) (A) (A) (A) (A) (A)
                 (A) (A) (A) (A) (A) (A) (A) (A) (A) (A) (A) (A)
                 (A) (A) (A) (A) (A) (A) (A) (A) (A) (A) (A) (A)
                 (A) (A) (A) (A) (A) (A) (A) (A) (A) (A) (A) (A)
                 (A) (A) (A) (A) (A) (A) (A) (A) (A) (A) (A) (A)
                 (A) (A) (A) (A) (A) (A) (A) (A) (A) (A) (A) (A)
                 (A) (A) (A) (A) (A) (A) (A) (A) (A) (A) (A) (A)
                 (A) (A) (A) (A) (A) (A) (A) (A) (A) (A) (A) (A)
                 (A) (A) (A) (A) (A) (A) (A) (A) (A) (A) (A) (A)
                 (A) (A) (A) (A) (A) (A) (A) (A) (A) (A) (A) (A)
                 (A) (A) (A) (A) (A) (A) (A) (A) (A) (A) (A) (A)
                 (A) (A) (A) (A) (A) (A) (A) (A) (A) (A) (A) (A)
                 (A) (A) (A) (A) (A) (A) (A) (A) (A) (A) (A) (A)
                 (A) (A) (A) (A) (A) (A) (A) (A) (A) (A) (A) (A)
                 (A) (A) (A) (A) (A) (A) (A) (A) (A) (A) (A) (A)
                 (A) (A) (A) (A) (A) (A) (A) (A) (A) (A) (A) (A)
                 (A) (A) (A) (A) (A) (A) (A) (A) (A) (A) (A) (A)
                 (A) (A) (A) (A) (A) (A) (A) (A) (A) (A) (A) (A)
                 (A) (A) (A) (A) (A) (A) (A) (A) (A) (A) (A) (A)
                 (A) (A) (A) (A) (A) (A) (A) (A) (A) (A) (A) (A)
                 (A) (A) (A) (A) (A) (A) (A) (A) (A) (A) (A) (A)
                 (A) (A) (A) (A) (A) (A) (A) (A) (A) (A) (A) (A)
                 (A) (A) (A) (A) (A) (A) (A) (A) (A) (A) (A) (A)
                 (A) (A) (A) (A) (A) (A) (A) (A) (A) (A) (A) (A)
                 (A) (A) (A) (A) (A) (A) (A) (A) (A) (A) (A) (A)
                 (A) (A) (A) (A) (A) (A) (A) (A) (A) (A) (A) (A)
                 (A) (A) (A) (A) (A) (A) (A) (A) (A) (A) (A) (A)
                 (A) (A) (A) (A) (A) (A) (A) (A) (A) (A) (A) (A)
                 (A) (A) (A) (A) (A) (A) (A) (A) (A) (A) (A) (A)
                 (A) (A) (A) (A) (A) (A) (A) (A) (A) (A) (A) (A)
                 (A) (A) (A) (A) (A) (A) (A) (A) (A) (A) (A) (A)
                 (A) (A) (A) (A) (A) (A) (A) (A) (A) (A) (A) (A)
                 (A) (A) (A) (A) (A) (A) (A) (A) (A) (A) (A) (A)
                 (A) (A) (A) (A) (A) (A) (A) (A) (A) (A) (A) (A)
                 (A) (A) (A) (A) (A) (A) (A) (A) (A) (A) (A) (A)
                 (A) (A) (A) (A) (A) (A) (A) (A) (A) (A) (A) (A)
                 (A) (A) (A) (A) (A) (A) (A) (A) (A) (A) (A) (A)
                 (A) (A) (A) (A) (A) (A) (A) (A) (A) (A) (A) (A)
                 (A) (A) (A) (A) (A) (A) (A) (A) (A) (A) (A) (A)
                 (A) (A) (A) (A) (A) (A) (A) (A) (A) (A) (A) (A)
                 (A) (A) (A) (A) (A) (A) (A) (A) (A) (A) (A) (A)
                 (A) (A) (A) (A) (A) (A) (A) (A) (A) (A) (A) (A)
                 (A) (A) (A) (A) (A) (A) (A) (A) (A) (A) (A) (A)
                 (A) (A) (A) (A) (A) (A)
 The electronic state is 2-A.
 Alpha  occ. eigenvalues -- -256.37853 -30.24758 -26.09361 -26.09297 -26.06467
 Alpha  occ. eigenvalues --  -19.28656 -14.54695 -14.51589 -14.47454 -14.47407
 Alpha  occ. eigenvalues --  -14.46642 -14.46159 -10.38918 -10.35929 -10.33403
 Alpha  occ. eigenvalues --  -10.33354 -10.33215 -10.33147 -10.32937 -10.32910
 Alpha  occ. eigenvalues --  -10.32845 -10.32647 -10.32564 -10.30885 -10.30235
 Alpha  occ. eigenvalues --  -10.30228 -10.30150 -10.30136 -10.29987 -10.29875
 Alpha  occ. eigenvalues --  -10.29840 -10.29793 -10.29791 -10.29611 -10.29561
 Alpha  occ. eigenvalues --  -10.29489 -10.29296 -10.29161 -10.28326 -10.28227
 Alpha  occ. eigenvalues --  -10.28048 -10.27999 -10.27920 -10.27853 -10.27849
 Alpha  occ. eigenvalues --  -10.27804  -3.63541  -2.41773  -2.41448  -2.35474
 Alpha  occ. eigenvalues --   -1.17497  -1.15006  -1.08542  -1.07838  -1.07195
 Alpha  occ. eigenvalues --   -1.06465  -1.03357  -0.93053  -0.91824  -0.91468
 Alpha  occ. eigenvalues --   -0.91154  -0.91100  -0.90603  -0.90237  -0.90184
 Alpha  occ. eigenvalues --   -0.86658  -0.85406  -0.84745  -0.83964  -0.82689
 Alpha  occ. eigenvalues --   -0.82624  -0.80560  -0.79635  -0.78292  -0.78103
 Alpha  occ. eigenvalues --   -0.77608  -0.76513  -0.74839  -0.74720  -0.72875
 Alpha  occ. eigenvalues --   -0.70821  -0.70585  -0.70010  -0.67825  -0.67783
 Alpha  occ. eigenvalues --   -0.67397  -0.64673  -0.64544  -0.63907  -0.62148
 Alpha  occ. eigenvalues --   -0.61473  -0.60812  -0.60490  -0.59425  -0.58595
 Alpha  occ. eigenvalues --   -0.58187  -0.57861  -0.57523  -0.56023  -0.55433
 Alpha  occ. eigenvalues --   -0.55047  -0.54861  -0.54590  -0.54026  -0.53823
 Alpha  occ. eigenvalues --   -0.53549  -0.53254  -0.52754  -0.52694  -0.52482
 Alpha  occ. eigenvalues --   -0.52415  -0.52108  -0.51234  -0.50733  -0.50663
 Alpha  occ. eigenvalues --   -0.50535  -0.50225  -0.50165  -0.49984  -0.49836
 Alpha  occ. eigenvalues --   -0.49670  -0.49529  -0.49327  -0.49085  -0.48902
 Alpha  occ. eigenvalues --   -0.48274  -0.47974  -0.47814  -0.47771  -0.47316
 Alpha  occ. eigenvalues --   -0.47223  -0.46815  -0.46568  -0.45885  -0.45620
 Alpha  occ. eigenvalues --   -0.45562  -0.44467  -0.43901  -0.43760  -0.43344
 Alpha  occ. eigenvalues --   -0.43053  -0.42846  -0.42108  -0.40966  -0.40548
 Alpha  occ. eigenvalues --   -0.39357  -0.39158  -0.38898  -0.38049  -0.36820
 Alpha  occ. eigenvalues --   -0.36406  -0.35062  -0.33657  -0.32549  -0.31991
 Alpha  occ. eigenvalues --   -0.31430  -0.29111  -0.28282
 Alpha virt. eigenvalues --   -0.19232  -0.16867  -0.16799  -0.14691  -0.11116
 Alpha virt. eigenvalues --   -0.09478  -0.07652  -0.06620  -0.05216  -0.04155
 Alpha virt. eigenvalues --   -0.02564  -0.01807  -0.01441  -0.00652   0.00949
 Alpha virt. eigenvalues --    0.01326   0.02250   0.03007   0.03159   0.03345
 Alpha virt. eigenvalues --    0.04050   0.04323   0.04566   0.04912   0.04977
 Alpha virt. eigenvalues --    0.05099   0.05673   0.06116   0.06164   0.06732
 Alpha virt. eigenvalues --    0.07107   0.07317   0.07616   0.07908   0.08216
 Alpha virt. eigenvalues --    0.08303   0.08543   0.08660   0.09058   0.09155
 Alpha virt. eigenvalues --    0.09578   0.09695   0.09901   0.10224   0.10662
 Alpha virt. eigenvalues --    0.10924   0.11272   0.11746   0.12328   0.12378
 Alpha virt. eigenvalues --    0.12673   0.12701   0.13187   0.13621   0.14040
 Alpha virt. eigenvalues --    0.14455   0.14693   0.14983   0.15207   0.15913
 Alpha virt. eigenvalues --    0.16188   0.16594   0.17285   0.17371   0.18000
 Alpha virt. eigenvalues --    0.18263   0.19590   0.20240   0.20502   0.20950
 Alpha virt. eigenvalues --    0.21677   0.21948   0.23261   0.23551   0.24919
 Alpha virt. eigenvalues --    0.25077   0.25599   0.26191   0.26477   0.26582
 Alpha virt. eigenvalues --    0.27417   0.28635   0.29055   0.29689   0.31342
 Alpha virt. eigenvalues --    0.32088   0.32468   0.33689   0.33742   0.34569
 Alpha virt. eigenvalues --    0.34865   0.36352   0.37729   0.37880   0.38115
 Alpha virt. eigenvalues --    0.38944   0.39264   0.39716   0.40280   0.40399
 Alpha virt. eigenvalues --    0.40986   0.42074   0.42415   0.42627   0.42891
 Alpha virt. eigenvalues --    0.43077   0.43293   0.43573   0.43833   0.44557
 Alpha virt. eigenvalues --    0.44685   0.44981   0.45219   0.45722   0.46407
 Alpha virt. eigenvalues --    0.46828   0.47061   0.47760   0.48329   0.48632
 Alpha virt. eigenvalues --    0.48891   0.49291   0.49721   0.50705   0.50828
 Alpha virt. eigenvalues --    0.51302   0.51894   0.52093   0.52665   0.53239
 Alpha virt. eigenvalues --    0.53345   0.53568   0.53958   0.54479   0.54975
 Alpha virt. eigenvalues --    0.55193   0.55285   0.55630   0.56166   0.56710
 Alpha virt. eigenvalues --    0.56913   0.57277   0.57751   0.57962   0.58206
 Alpha virt. eigenvalues --    0.58701   0.59540   0.59954   0.60534   0.60854
 Alpha virt. eigenvalues --    0.61176   0.61864   0.62074   0.62660   0.62901
 Alpha virt. eigenvalues --    0.63140   0.63731   0.63881   0.64148   0.64507
 Alpha virt. eigenvalues --    0.66053   0.66479   0.66905   0.67195   0.67616
 Alpha virt. eigenvalues --    0.67626   0.68318   0.68541   0.68977   0.69390
 Alpha virt. eigenvalues --    0.69772   0.69915   0.70359   0.70945   0.71245
 Alpha virt. eigenvalues --    0.71767   0.72200   0.72539   0.72953   0.73415
 Alpha virt. eigenvalues --    0.74269   0.74682   0.75976   0.76882   0.77638
 Alpha virt. eigenvalues --    0.77684   0.78272   0.78738   0.78846   0.79094
 Alpha virt. eigenvalues --    0.79452   0.79994   0.80226   0.80445   0.80881
 Alpha virt. eigenvalues --    0.81084   0.81194   0.81516   0.81667   0.82134
 Alpha virt. eigenvalues --    0.82431   0.83141   0.83353   0.83748   0.84169
 Alpha virt. eigenvalues --    0.84446   0.84806   0.85186   0.85878   0.85977
 Alpha virt. eigenvalues --    0.86240   0.86652   0.86959   0.87137   0.87346
 Alpha virt. eigenvalues --    0.87923   0.88084   0.89016   0.89545   0.89954
 Alpha virt. eigenvalues --    0.90076   0.90407   0.90622   0.90889   0.91493
 Alpha virt. eigenvalues --    0.91859   0.92464   0.93113   0.93483   0.93873
 Alpha virt. eigenvalues --    0.94138   0.94599   0.95108   0.95669   0.96388
 Alpha virt. eigenvalues --    0.97144   0.97369   0.97967   0.98176   0.99064
 Alpha virt. eigenvalues --    0.99862   1.01547   1.02204   1.03663   1.04811
 Alpha virt. eigenvalues --    1.05035   1.05740   1.06708   1.06961   1.07567
 Alpha virt. eigenvalues --    1.07891   1.08387   1.08649   1.08943   1.09416
 Alpha virt. eigenvalues --    1.09898   1.10162   1.11370   1.11498   1.11656
 Alpha virt. eigenvalues --    1.12189   1.12733   1.13293   1.13425   1.15094
 Alpha virt. eigenvalues --    1.15904   1.17689   1.17925   1.18757   1.19105
 Alpha virt. eigenvalues --    1.19906   1.20513   1.21267   1.21785   1.22758
 Alpha virt. eigenvalues --    1.23456   1.23815   1.24184   1.24844   1.26404
 Alpha virt. eigenvalues --    1.26514   1.27303   1.27394   1.27751   1.28163
 Alpha virt. eigenvalues --    1.28263   1.28688   1.28822   1.29543   1.29753
 Alpha virt. eigenvalues --    1.30315   1.30467   1.31327   1.32893   1.34067
 Alpha virt. eigenvalues --    1.34470   1.35625   1.36275   1.36725   1.37248
 Alpha virt. eigenvalues --    1.38125   1.39533   1.40272   1.41355   1.41547
 Alpha virt. eigenvalues --    1.41931   1.43093   1.43516   1.44683   1.44782
 Alpha virt. eigenvalues --    1.45355   1.47132   1.47529   1.48262   1.49941
 Alpha virt. eigenvalues --    1.50539   1.51345   1.51945   1.53965   1.54674
 Alpha virt. eigenvalues --    1.55230   1.55424   1.57360   1.57687   1.59735
 Alpha virt. eigenvalues --    1.59848   1.60394   1.60798   1.62514   1.63396
 Alpha virt. eigenvalues --    1.64341   1.65085   1.66016   1.69253   1.69601
 Alpha virt. eigenvalues --    1.70234   1.70415   1.70939   1.71321   1.71542
 Alpha virt. eigenvalues --    1.72250   1.72689   1.73723   1.73878   1.74328
 Alpha virt. eigenvalues --    1.74817   1.75078   1.75466   1.76164   1.77411
 Alpha virt. eigenvalues --    1.77536   1.78049   1.78294   1.78965   1.79773
 Alpha virt. eigenvalues --    1.80571   1.81655   1.82289   1.82392   1.82671
 Alpha virt. eigenvalues --    1.83714   1.83836   1.84768   1.84889   1.85709
 Alpha virt. eigenvalues --    1.85967   1.86730   1.87013   1.88020   1.89333
 Alpha virt. eigenvalues --    1.90103   1.90749   1.90972   1.91435   1.92884
 Alpha virt. eigenvalues --    1.93941   1.94584   1.94896   1.95217   1.95381
 Alpha virt. eigenvalues --    1.95816   1.96380   1.96776   1.97466   1.98418
 Alpha virt. eigenvalues --    1.99245   2.00125   2.00455   2.00980   2.02443
 Alpha virt. eigenvalues --    2.02712   2.04031   2.04264   2.05712   2.06205
 Alpha virt. eigenvalues --    2.08378   2.09271   2.09415   2.09986   2.10726
 Alpha virt. eigenvalues --    2.11430   2.11610   2.11952   2.13744   2.14081
 Alpha virt. eigenvalues --    2.14268   2.15056   2.15360   2.15629   2.16279
 Alpha virt. eigenvalues --    2.16837   2.17312   2.17767   2.18428   2.19312
 Alpha virt. eigenvalues --    2.19611   2.20292   2.20974   2.21255   2.21748
 Alpha virt. eigenvalues --    2.22288   2.22604   2.23045   2.23505   2.24291
 Alpha virt. eigenvalues --    2.24834   2.25030   2.25592   2.26142   2.26512
 Alpha virt. eigenvalues --    2.26694   2.27553   2.28070   2.28679   2.29102
 Alpha virt. eigenvalues --    2.29877   2.30746   2.31277   2.31908   2.32474
 Alpha virt. eigenvalues --    2.32812   2.32977   2.33356   2.34276   2.35109
 Alpha virt. eigenvalues --    2.35572   2.37855   2.39372   2.39775   2.40376
 Alpha virt. eigenvalues --    2.41193   2.41994   2.43312   2.43605   2.43989
 Alpha virt. eigenvalues --    2.44419   2.44784   2.45381   2.45907   2.46170
 Alpha virt. eigenvalues --    2.47114   2.47909   2.49179   2.49773   2.50511
 Alpha virt. eigenvalues --    2.51199   2.52132   2.54638   2.55456   2.56165
 Alpha virt. eigenvalues --    2.58452   2.58699   2.60094   2.61499   2.62233
 Alpha virt. eigenvalues --    2.62382   2.63987   2.65276   2.67363   2.68218
 Alpha virt. eigenvalues --    2.68795   2.69780   2.70884   2.73194   2.76367
 Alpha virt. eigenvalues --    2.77432   2.78480   2.79384   2.81360   2.83030
 Alpha virt. eigenvalues --    2.83437   2.85987   2.87351   2.87705   2.89243
 Alpha virt. eigenvalues --    2.89864   2.90670   2.90979   2.92754   2.95417
 Alpha virt. eigenvalues --    2.96340   2.96913   3.03616   3.03971   3.04327
 Alpha virt. eigenvalues --    3.07804   3.12533   3.13919   3.19068   3.19452
 Alpha virt. eigenvalues --    3.28745   3.29778   3.30615   3.36471   3.36844
 Alpha virt. eigenvalues --    3.50005   3.53592   3.67949   3.72852   4.01086
 Alpha virt. eigenvalues --    4.05368
  Beta  occ. eigenvalues -- -256.37817 -30.22538 -26.06982 -26.06831 -26.05752
  Beta  occ. eigenvalues --  -19.28661 -14.54692 -14.51660 -14.47495 -14.47440
  Beta  occ. eigenvalues --  -14.46706 -14.46240 -10.38902 -10.35930 -10.33397
  Beta  occ. eigenvalues --  -10.33339 -10.33203 -10.33140 -10.32933 -10.32906
  Beta  occ. eigenvalues --  -10.32841 -10.32636 -10.32555 -10.30885 -10.30217
  Beta  occ. eigenvalues --  -10.30208 -10.30150 -10.30137 -10.29969 -10.29897
  Beta  occ. eigenvalues --  -10.29843 -10.29811 -10.29800 -10.29615 -10.29562
  Beta  occ. eigenvalues --  -10.29492 -10.29303 -10.29160 -10.28328 -10.28229
  Beta  occ. eigenvalues --  -10.28048 -10.28000 -10.27905 -10.27853 -10.27850
  Beta  occ. eigenvalues --  -10.27806  -3.58150  -2.34285  -2.34243  -2.32989
  Beta  occ. eigenvalues --   -1.17506  -1.15021  -1.08561  -1.07829  -1.07262
  Beta  occ. eigenvalues --   -1.06506  -1.03392  -0.93062  -0.91803  -0.91470
  Beta  occ. eigenvalues --   -0.91152  -0.91085  -0.90612  -0.90258  -0.90206
  Beta  occ. eigenvalues --   -0.86652  -0.85404  -0.84778  -0.83962  -0.82684
  Beta  occ. eigenvalues --   -0.82626  -0.80559  -0.79639  -0.78297  -0.78104
  Beta  occ. eigenvalues --   -0.77634  -0.76535  -0.74840  -0.74721  -0.72874
  Beta  occ. eigenvalues --   -0.70807  -0.70581  -0.70013  -0.67821  -0.67778
  Beta  occ. eigenvalues --   -0.67395  -0.64674  -0.64548  -0.63919  -0.62147
  Beta  occ. eigenvalues --   -0.61485  -0.60819  -0.60503  -0.59419  -0.58536
  Beta  occ. eigenvalues --   -0.58144  -0.57847  -0.57540  -0.56028  -0.55420
  Beta  occ. eigenvalues --   -0.55049  -0.54803  -0.54547  -0.54009  -0.53702
  Beta  occ. eigenvalues --   -0.53496  -0.53253  -0.52739  -0.52653  -0.52464
  Beta  occ. eigenvalues --   -0.52393  -0.52050  -0.51223  -0.50702  -0.50636
  Beta  occ. eigenvalues --   -0.50516  -0.50137  -0.50070  -0.49956  -0.49592
  Beta  occ. eigenvalues --   -0.49478  -0.49337  -0.49307  -0.49054  -0.48897
  Beta  occ. eigenvalues --   -0.48199  -0.47967  -0.47752  -0.47715  -0.47293
  Beta  occ. eigenvalues --   -0.47057  -0.46544  -0.46509  -0.45626  -0.45381
  Beta  occ. eigenvalues --   -0.44483  -0.43869  -0.43706  -0.43387  -0.43321
  Beta  occ. eigenvalues --   -0.42580  -0.42125  -0.41651  -0.40584  -0.38931
  Beta  occ. eigenvalues --   -0.38707  -0.37622  -0.37165  -0.36695  -0.35972
  Beta  occ. eigenvalues --   -0.35070  -0.33860  -0.32597  -0.32096  -0.31236
  Beta  occ. eigenvalues --   -0.29119  -0.28192
  Beta virt. eigenvalues --   -0.20066  -0.16875  -0.16719  -0.15964  -0.11660
  Beta virt. eigenvalues --   -0.11064  -0.09269  -0.07610  -0.06544  -0.05103
  Beta virt. eigenvalues --   -0.04109  -0.02530  -0.01770  -0.01331  -0.00525
  Beta virt. eigenvalues --    0.01024   0.01327   0.02249   0.03024   0.03161
  Beta virt. eigenvalues --    0.03353   0.04078   0.04331   0.04570   0.04936
  Beta virt. eigenvalues --    0.05050   0.05124   0.05674   0.06124   0.06175
  Beta virt. eigenvalues --    0.06743   0.07122   0.07319   0.07620   0.07914
  Beta virt. eigenvalues --    0.08219   0.08308   0.08552   0.08677   0.09065
  Beta virt. eigenvalues --    0.09157   0.09597   0.09703   0.09916   0.10243
  Beta virt. eigenvalues --    0.10679   0.10938   0.11347   0.11756   0.12326
  Beta virt. eigenvalues --    0.12386   0.12716   0.12722   0.13206   0.13641
  Beta virt. eigenvalues --    0.14083   0.14476   0.14726   0.14995   0.15215
  Beta virt. eigenvalues --    0.15948   0.16195   0.16604   0.17282   0.17391
  Beta virt. eigenvalues --    0.18020   0.18271   0.19616   0.20418   0.20587
  Beta virt. eigenvalues --    0.21365   0.21763   0.22041   0.23373   0.23676
  Beta virt. eigenvalues --    0.24955   0.25171   0.25639   0.26265   0.26485
  Beta virt. eigenvalues --    0.26599   0.27438   0.28677   0.29282   0.29829
  Beta virt. eigenvalues --    0.31417   0.32192   0.32590   0.33694   0.33773
  Beta virt. eigenvalues --    0.34597   0.34864   0.36418   0.37763   0.37926
  Beta virt. eigenvalues --    0.38238   0.38947   0.39368   0.39747   0.40302
  Beta virt. eigenvalues --    0.40410   0.41123   0.42103   0.42421   0.42685
  Beta virt. eigenvalues --    0.42900   0.43117   0.43322   0.43574   0.43870
  Beta virt. eigenvalues --    0.44636   0.44777   0.45126   0.45238   0.45748
  Beta virt. eigenvalues --    0.46438   0.46870   0.47148   0.47783   0.48325
  Beta virt. eigenvalues --    0.48674   0.48920   0.49307   0.49793   0.50736
  Beta virt. eigenvalues --    0.50852   0.51297   0.51914   0.52105   0.52689
  Beta virt. eigenvalues --    0.53251   0.53385   0.53614   0.54013   0.54495
  Beta virt. eigenvalues --    0.55049   0.55241   0.55398   0.55880   0.56172
  Beta virt. eigenvalues --    0.56728   0.56926   0.57280   0.57773   0.57987
  Beta virt. eigenvalues --    0.58200   0.58688   0.59555   0.59975   0.60641
  Beta virt. eigenvalues --    0.60959   0.61256   0.61941   0.62183   0.62694
  Beta virt. eigenvalues --    0.62940   0.63234   0.63799   0.63904   0.64163
  Beta virt. eigenvalues --    0.64564   0.66103   0.66479   0.66928   0.67216
  Beta virt. eigenvalues --    0.67638   0.67687   0.68348   0.68580   0.69090
  Beta virt. eigenvalues --    0.69468   0.69778   0.69972   0.70380   0.70997
  Beta virt. eigenvalues --    0.71414   0.71802   0.72324   0.72591   0.72973
  Beta virt. eigenvalues --    0.73461   0.74282   0.74693   0.76005   0.76906
  Beta virt. eigenvalues --    0.77652   0.77718   0.78307   0.78749   0.78859
  Beta virt. eigenvalues --    0.79135   0.79471   0.80020   0.80237   0.80465
  Beta virt. eigenvalues --    0.80901   0.81093   0.81206   0.81533   0.81682
  Beta virt. eigenvalues --    0.82158   0.82476   0.83165   0.83372   0.83782
  Beta virt. eigenvalues --    0.84214   0.84470   0.84893   0.85208   0.85900
  Beta virt. eigenvalues --    0.86001   0.86248   0.86662   0.86989   0.87167
  Beta virt. eigenvalues --    0.87445   0.87968   0.88095   0.89072   0.89561
  Beta virt. eigenvalues --    0.90058   0.90125   0.90413   0.90696   0.90912
  Beta virt. eigenvalues --    0.91527   0.91897   0.92495   0.93378   0.93495
  Beta virt. eigenvalues --    0.93925   0.94154   0.94695   0.95161   0.95826
  Beta virt. eigenvalues --    0.96421   0.97202   0.97394   0.97988   0.98182
  Beta virt. eigenvalues --    0.99151   0.99902   1.01722   1.02208   1.03775
  Beta virt. eigenvalues --    1.04864   1.05037   1.05893   1.06884   1.07084
  Beta virt. eigenvalues --    1.07659   1.07910   1.08386   1.08693   1.09009
  Beta virt. eigenvalues --    1.09489   1.10012   1.10199   1.11388   1.11542
  Beta virt. eigenvalues --    1.11668   1.12196   1.12827   1.13377   1.13475
  Beta virt. eigenvalues --    1.15253   1.15902   1.17706   1.17966   1.18827
  Beta virt. eigenvalues --    1.19149   1.19939   1.20528   1.21301   1.21819
  Beta virt. eigenvalues --    1.22783   1.23503   1.23879   1.24204   1.24919
  Beta virt. eigenvalues --    1.26438   1.26552   1.27334   1.27423   1.27759
  Beta virt. eigenvalues --    1.28194   1.28274   1.28718   1.28840   1.29581
  Beta virt. eigenvalues --    1.29816   1.30365   1.30469   1.31373   1.32936
  Beta virt. eigenvalues --    1.34062   1.34473   1.35633   1.36278   1.36734
  Beta virt. eigenvalues --    1.37282   1.38136   1.39546   1.40282   1.41377
  Beta virt. eigenvalues --    1.41593   1.42003   1.43098   1.43517   1.44699
  Beta virt. eigenvalues --    1.44797   1.45389   1.47136   1.47541   1.48294
  Beta virt. eigenvalues --    1.49980   1.50551   1.51378   1.52129   1.54208
  Beta virt. eigenvalues --    1.54780   1.55312   1.55462   1.57459   1.57741
  Beta virt. eigenvalues --    1.59750   1.59850   1.60398   1.60851   1.62527
  Beta virt. eigenvalues --    1.63403   1.64357   1.65117   1.66035   1.69294
  Beta virt. eigenvalues --    1.69576   1.70244   1.70410   1.70944   1.71326
  Beta virt. eigenvalues --    1.71561   1.72252   1.72779   1.73737   1.73872
  Beta virt. eigenvalues --    1.74313   1.74827   1.75109   1.75456   1.76163
  Beta virt. eigenvalues --    1.77407   1.77535   1.78043   1.78300   1.78991
  Beta virt. eigenvalues --    1.79789   1.80583   1.81685   1.82312   1.82440
  Beta virt. eigenvalues --    1.82762   1.83766   1.83880   1.84900   1.84927
  Beta virt. eigenvalues --    1.85746   1.86084   1.86793   1.87427   1.88030
  Beta virt. eigenvalues --    1.89515   1.90122   1.90770   1.91038   1.91579
  Beta virt. eigenvalues --    1.92906   1.93965   1.94638   1.94913   1.95240
  Beta virt. eigenvalues --    1.95448   1.95840   1.96402   1.96872   1.97503
  Beta virt. eigenvalues --    1.98591   1.99350   2.00132   2.00499   2.01016
  Beta virt. eigenvalues --    2.02496   2.02728   2.04030   2.04264   2.05740
  Beta virt. eigenvalues --    2.06210   2.08469   2.09312   2.09504   2.10017
  Beta virt. eigenvalues --    2.10775   2.11477   2.11628   2.12008   2.13825
  Beta virt. eigenvalues --    2.14100   2.14326   2.15167   2.15429   2.15710
  Beta virt. eigenvalues --    2.16380   2.16942   2.17375   2.17824   2.18463
  Beta virt. eigenvalues --    2.19567   2.19845   2.20351   2.21011   2.21327
  Beta virt. eigenvalues --    2.21819   2.22482   2.22762   2.23134   2.23651
  Beta virt. eigenvalues --    2.24320   2.24889   2.25121   2.25704   2.26255
  Beta virt. eigenvalues --    2.26582   2.26713   2.27605   2.28112   2.28737
  Beta virt. eigenvalues --    2.29143   2.29997   2.30763   2.31308   2.31942
  Beta virt. eigenvalues --    2.32604   2.32843   2.33004   2.33460   2.34312
  Beta virt. eigenvalues --    2.35169   2.35701   2.37874   2.39501   2.39920
  Beta virt. eigenvalues --    2.40545   2.41396   2.42059   2.43392   2.43643
  Beta virt. eigenvalues --    2.44025   2.44537   2.44815   2.45408   2.46049
  Beta virt. eigenvalues --    2.46207   2.47165   2.47939   2.49244   2.49781
  Beta virt. eigenvalues --    2.50577   2.51231   2.52153   2.54650   2.55461
  Beta virt. eigenvalues --    2.56179   2.58472   2.58718   2.60142   2.61500
  Beta virt. eigenvalues --    2.62208   2.62407   2.64003   2.65324   2.67357
  Beta virt. eigenvalues --    2.68225   2.68813   2.69792   2.70885   2.73196
  Beta virt. eigenvalues --    2.76346   2.77441   2.78475   2.79371   2.81370
  Beta virt. eigenvalues --    2.83049   2.83450   2.86004   2.87347   2.87690
  Beta virt. eigenvalues --    2.89238   2.89858   2.90683   2.91000   2.92854
  Beta virt. eigenvalues --    2.95409   2.96382   2.96896   3.03607   3.03978
  Beta virt. eigenvalues --    3.04332   3.07794   3.12564   3.13967   3.19080
  Beta virt. eigenvalues --    3.19462   3.28723   3.29773   3.30720   3.36458
  Beta virt. eigenvalues --    3.36896   3.54133   3.58406   3.70678   3.74686
  Beta virt. eigenvalues --    4.03189   4.06627
          Condensed to atoms (all electrons):
          Atomic-Atomic Spin Densities.
 Mulliken charges and spin densities:
               1          2
     1  Fe   0.927237   1.087853
     2  N   -0.689068  -0.027289
     3  N   -0.652465  -0.029007
     4  N   -0.690562  -0.023681
     5  N   -0.629836  -0.036751
     6  C    0.303369   0.007952
     7  C    0.039996   0.007236
     8  C    0.041629   0.013387
     9  C    0.299344   0.005696
    10  C    0.305189   0.004456
    11  C    0.034787  -0.001311
    12  C   -0.000941  -0.001960
    13  C    0.319303   0.003915
    14  C    0.311086   0.003866
    15  C    0.040546   0.012898
    16  C    0.000396   0.012282
    17  C    0.322587   0.009093
    18  C    0.291761   0.007269
    19  C    0.040822   0.000916
    20  C    0.041931  -0.001603
    21  C    0.311260   0.009491
    22  C   -0.297716  -0.016089
    23  H    0.190231   0.000774
    24  C   -0.312761  -0.009913
    25  H    0.189955   0.000487
    26  C   -0.294401  -0.007025
    27  H    0.199022   0.000334
    28  C   -0.307334  -0.012902
    29  H    0.198351   0.000603
    30  C   -0.610642  -0.001177
    31  H    0.204504  -0.000014
    32  H    0.200142   0.000808
    33  H    0.205808   0.000704
    34  C   -0.611082  -0.001060
    35  H    0.205621   0.000528
    36  H    0.202979   0.000638
    37  H    0.203432  -0.000118
    38  C   -0.603130   0.000017
    39  H    0.202740  -0.000024
    40  H    0.198997   0.000003
    41  H    0.203534  -0.000081
    42  C   -0.154626   0.000841
    43  H    0.187487  -0.000047
    44  C   -0.397050  -0.001436
    45  H    0.179110   0.000063
    46  H    0.193006   0.000048
    47  C   -0.604043  -0.001356
    48  H    0.212060   0.000823
    49  H    0.200955   0.000860
    50  H    0.203079  -0.000099
    51  C   -0.157402  -0.005789
    52  H    0.186913   0.000329
    53  C   -0.395137   0.010093
    54  H    0.185209  -0.000508
    55  H    0.194077  -0.000526
    56  C   -0.609497  -0.000251
    57  H    0.205463   0.000118
    58  H    0.197443   0.000125
    59  H    0.202018  -0.000122
    60  C   -0.610911  -0.000129
    61  H    0.202151  -0.000139
    62  H    0.198597   0.000050
    63  H    0.204287   0.000032
    64  O   -0.803841  -0.004914
    65  H    0.471749   0.000607
    66  H    0.460931   0.000651
    67  C   -0.602740  -0.000028
    68  H    0.216908  -0.000037
    69  H    0.215422   0.000025
    70  H    0.223555  -0.000029
    71  N   -0.629071   0.001217
    72  H    0.390521  -0.000245
    73  C    0.284938  -0.000589
    74  C    0.263534   0.010326
    75  H    0.240444  -0.000534
    76  N   -0.469365  -0.032898
    77  C   -0.041095   0.002454
    78  H    0.218294  -0.000186
 Sum of Mulliken charges =   1.00000   1.00000
 Mulliken charges and spin densities with hydrogens summed into heavy atoms:
               1          2
     1  Fe   0.927237   1.087853
     2  N   -0.689068  -0.027289
     3  N   -0.652465  -0.029007
     4  N   -0.690562  -0.023681
     5  N   -0.629836  -0.036751
     6  C    0.303369   0.007952
     7  C    0.039996   0.007236
     8  C    0.041629   0.013387
     9  C    0.299344   0.005696
    10  C    0.305189   0.004456
    11  C    0.034787  -0.001311
    12  C   -0.000941  -0.001960
    13  C    0.319303   0.003915
    14  C    0.311086   0.003866
    15  C    0.040546   0.012898
    16  C    0.000396   0.012282
    17  C    0.322587   0.009093
    18  C    0.291761   0.007269
    19  C    0.040822   0.000916
    20  C    0.041931  -0.001603
    21  C    0.311260   0.009491
    22  C   -0.107484  -0.015315
    24  C   -0.122805  -0.009426
    26  C   -0.095380  -0.006691
    28  C   -0.108982  -0.012299
    30  C   -0.000187   0.000322
    34  C    0.000950  -0.000012
    38  C    0.002141  -0.000086
    42  C    0.032860   0.000794
    44  C   -0.024933  -0.001325
    47  C    0.012052   0.000228
    51  C    0.029512  -0.005460
    53  C   -0.015851   0.009059
    56  C   -0.004573  -0.000129
    60  C   -0.005875  -0.000186
    64  O    0.128838  -0.003656
    67  C    0.053145  -0.000069
    71  N   -0.238550   0.000972
    73  C    0.284938  -0.000589
    74  C    0.503978   0.009792
    76  N   -0.469365  -0.032898
    77  C    0.177200   0.002268
 Electronic spatial extent (au):  <R**2>=          19604.2740
 Charge=              1.0000 electrons
 Dipole moment (field-independent basis, Debye):
    X=              0.9195    Y=             -1.6262    Z=              4.3964  Tot=              4.7769
 Quadrupole moment (field-independent basis, Debye-Ang):
   XX=           -185.8966   YY=           -189.5633   ZZ=           -197.6124
   XY=             -4.5780   XZ=              0.8627   YZ=             -1.5947
 Traceless Quadrupole moment (field-independent basis, Debye-Ang):
   XX=              5.1275   YY=              1.4608   ZZ=             -6.5883
   XY=             -4.5780   XZ=              0.8627   YZ=             -1.5947
 Octapole moment (field-independent basis, Debye-Ang**2):
  XXX=              0.9316  YYY=             -9.0574  ZZZ=            155.7494  XYY=             12.4551
  XXY=              0.5123  XXZ=            -18.4782  XZZ=              8.0030  YZZ=            -31.2567
  YYZ=            -25.7574  XYZ=             11.1416
 Hexadecapole moment (field-independent basis, Debye-Ang**3):
 XXXX=         -10092.9845 YYYY=          -9805.0578 ZZZZ=          -2427.3710 XXXY=            -24.5943
 XXXZ=             23.7454 YYYX=            -33.2328 YYYZ=            135.6803 ZZZX=             -4.0313
 ZZZY=           -101.2941 XXYY=          -3200.0843 XXZZ=          -2438.9658 YYZZ=          -2490.2409
 XXYZ=            -48.7347 YYXZ=             -6.1189 ZZXY=            -52.4614
 N-N= 5.973638981730D+03 E-N=-1.892199986681D+04  KE= 2.971945838570D+03
                          Isotropic Fermi Contact Couplings
        Atom                 a.u.       MegaHertz       Gauss      10(-4) cm-1
     1  Fe(57)             0.12082      17.52311       6.25268       5.84508
     2  N(14)             -0.01880      -6.07595      -2.16805      -2.02672
     3  N(14)             -0.01872      -6.04841      -2.15822      -2.01753
     4  N(14)             -0.01446      -4.67202      -1.66709      -1.55842
     5  N(14)             -0.02795      -9.02967      -3.22201      -3.01197
     6  C(13)             -0.00091      -1.01796      -0.36323      -0.33955
     7  C(13)              0.00008       0.08704       0.03106       0.02903
     8  C(13)              0.00157       1.76767       0.63075       0.58963
     9  C(13)              0.00170       1.91428       0.68306       0.63854
    10  C(13)              0.00009       0.10201       0.03640       0.03403
    11  C(13)             -0.00060      -0.67449      -0.24068      -0.22499
    12  C(13)             -0.00070      -0.79208      -0.28263      -0.26421
    13  C(13)              0.00002       0.01930       0.00689       0.00644
    14  C(13)             -0.00068      -0.76606      -0.27335      -0.25553
    15  C(13)              0.00123       1.38665       0.49479       0.46254
    16  C(13)              0.00132       1.48359       0.52938       0.49487
    17  C(13)              0.00151       1.69309       0.60414       0.56475
    18  C(13)              0.00021       0.23594       0.08419       0.07870
    19  C(13)             -0.00062      -0.69582      -0.24828      -0.23210
    20  C(13)             -0.00108      -1.21598      -0.43389      -0.40561
    21  C(13)              0.00056       0.63132       0.22527       0.21058
    22  C(13)             -0.00226      -2.53670      -0.90516      -0.84615
    23  H(1)               0.00027       1.21953       0.43516       0.40679
    24  C(13)             -0.00140      -1.57426      -0.56173      -0.52512
    25  H(1)               0.00017       0.73955       0.26389       0.24669
    26  C(13)             -0.00082      -0.92030      -0.32838      -0.30698
    27  H(1)               0.00012       0.54220       0.19347       0.18086
    28  C(13)             -0.00198      -2.22944      -0.79552      -0.74366
    29  H(1)               0.00024       1.07551       0.38377       0.35875
    30  C(13)             -0.00042      -0.46817      -0.16705      -0.15616
    31  H(1)              -0.00001      -0.03838      -0.01370      -0.01280
    32  H(1)               0.00039       1.73921       0.62059       0.58014
    33  H(1)               0.00032       1.45192       0.51808       0.48431
    34  C(13)             -0.00048      -0.53490      -0.19086      -0.17842
    35  H(1)               0.00024       1.05762       0.37738       0.35278
    36  H(1)               0.00032       1.41905       0.50635       0.47334
    37  H(1)              -0.00005      -0.24294      -0.08669      -0.08104
    38  C(13)              0.00002       0.01877       0.00670       0.00626
    39  H(1)              -0.00002      -0.08692      -0.03102      -0.02899
    40  H(1)               0.00000       0.00961       0.00343       0.00320
    41  H(1)              -0.00004      -0.16785      -0.05989      -0.05599
    42  C(13)              0.00011       0.12329       0.04399       0.04113
    43  H(1)              -0.00001      -0.06608      -0.02358      -0.02204
    44  C(13)             -0.00022      -0.24534      -0.08754      -0.08184
    45  H(1)               0.00002       0.07614       0.02717       0.02540
    46  H(1)               0.00001       0.05861       0.02091       0.01955
    47  C(13)             -0.00053      -0.59801      -0.21339      -0.19948
    48  H(1)               0.00035       1.56163       0.55723       0.52090
    49  H(1)               0.00040       1.76738       0.63064       0.58953
    50  H(1)              -0.00004      -0.19025      -0.06789      -0.06346
    51  C(13)             -0.00105      -1.17626      -0.41972      -0.39236
    52  H(1)               0.00014       0.64770       0.23112       0.21605
    53  C(13)              0.00137       1.54187       0.55018       0.51431
    54  H(1)              -0.00015      -0.67176      -0.23970      -0.22408
    55  H(1)              -0.00016      -0.72009      -0.25695      -0.24020
    56  C(13)             -0.00012      -0.13210      -0.04714      -0.04407
    57  H(1)               0.00007       0.32592       0.11630       0.10872
    58  H(1)               0.00007       0.32674       0.11659       0.10899
    59  H(1)              -0.00005      -0.22633      -0.08076      -0.07550
    60  C(13)             -0.00009      -0.10065      -0.03591      -0.03357
    61  H(1)              -0.00006      -0.26693      -0.09525      -0.08904
    62  H(1)               0.00004       0.17993       0.06420       0.06002
    63  H(1)               0.00003       0.11599       0.04139       0.03869
    64  O(17)              0.00369      -2.23709      -0.79825      -0.74621
    65  H(1)               0.00004       0.16344       0.05832       0.05452
    66  H(1)               0.00011       0.49689       0.17730       0.16575
    67  C(13)              0.00003       0.03769       0.01345       0.01257
    68  H(1)               0.00000       0.00769       0.00274       0.00256
    69  H(1)               0.00002       0.07522       0.02684       0.02509
    70  H(1)              -0.00001      -0.06136      -0.02189      -0.02047
    71  N(14)             -0.00126      -0.40744      -0.14538      -0.13591
    72  H(1)              -0.00013      -0.55917      -0.19953      -0.18652
    73  C(13)             -0.00090      -1.01455      -0.36202      -0.33842
    74  C(13)              0.00020       0.22418       0.07999       0.07478
    75  H(1)              -0.00028      -1.25607      -0.44820      -0.41898
    76  N(14)             -0.03289     -10.62646      -3.79178      -3.54460
    77  C(13)              0.00129       1.45260       0.51833       0.48454
    78  H(1)              -0.00018      -0.80295      -0.28651      -0.26783
 --------------------------------------------------------
       Center         ----  Spin Dipole Couplings  ----
                      3XX-RR        3YY-RR        3ZZ-RR
 --------------------------------------------------------
     1   Atom       -2.295400      1.043966      1.251435
     2   Atom        0.004095     -0.000087     -0.004008
     3   Atom        0.009204      0.007323     -0.016526
     4   Atom        0.002750      0.002891     -0.005641
     5   Atom       -0.001966      0.007618     -0.005652
     6   Atom       -0.007912      0.000456      0.007456
     7   Atom       -0.007581     -0.003254      0.010835
     8   Atom       -0.007182     -0.007571      0.014754
     9   Atom        0.003196     -0.003644      0.000448
    10   Atom        0.006205     -0.004942     -0.001263
    11   Atom        0.002594     -0.000974     -0.001620
    12   Atom        0.000716      0.001413     -0.002129
    13   Atom        0.000429      0.000387     -0.000816
    14   Atom       -0.006770      0.004638      0.002132
    15   Atom       -0.010486     -0.005748      0.016233
    16   Atom       -0.006348     -0.007274      0.013622
    17   Atom        0.000208     -0.005202      0.004995
    18   Atom        0.004081     -0.006639      0.002558
    19   Atom        0.001049     -0.002858      0.001810
    20   Atom       -0.000692      0.000883     -0.000191
    21   Atom       -0.002082     -0.003623      0.005705
    22   Atom        0.004206      0.013468     -0.017674
    23   Atom       -0.000378      0.001936     -0.001558
    24   Atom        0.010985      0.000967     -0.011952
    25   Atom        0.002358     -0.000784     -0.001574
    26   Atom       -0.000267      0.009495     -0.009228
    27   Atom       -0.000847      0.002491     -0.001644
    28   Atom        0.012642      0.002310     -0.014952
    29   Atom        0.002344     -0.000675     -0.001669
    30   Atom        0.000863     -0.000243     -0.000619
    31   Atom        0.000337      0.000333     -0.000670
    32   Atom        0.001021     -0.000237     -0.000784
    33   Atom        0.000890     -0.000248     -0.000642
    34   Atom       -0.000692      0.001119     -0.000427
    35   Atom       -0.000688      0.001321     -0.000633
    36   Atom       -0.000712      0.001463     -0.000751
    37   Atom       -0.000533      0.001159     -0.000627
    38   Atom        0.001223     -0.000542     -0.000681
    39   Atom        0.001212     -0.000596     -0.000615
    40   Atom        0.001288     -0.000637     -0.000652
    41   Atom        0.000808     -0.000303     -0.000505
    42   Atom        0.000245      0.000159     -0.000403
    43   Atom        0.000375      0.000149     -0.000524
    44   Atom        0.000154      0.000927     -0.001081
    45   Atom       -0.000418      0.000995     -0.000577
    46   Atom       -0.000031      0.000355     -0.000324
    47   Atom       -0.000878      0.001492     -0.000614
    48   Atom       -0.000705      0.001407     -0.000702
    49   Atom       -0.000773      0.001575     -0.000803
    50   Atom       -0.000556      0.001259     -0.000703
    51   Atom        0.002481     -0.000094     -0.002387
    52   Atom        0.000623      0.000151     -0.000773
    53   Atom       -0.001575      0.000532      0.001043
    54   Atom        0.000493     -0.000058     -0.000435
    55   Atom        0.000995     -0.000301     -0.000693
    56   Atom        0.001189     -0.000579     -0.000611
    57   Atom        0.001220     -0.000580     -0.000640
    58   Atom        0.001360     -0.000674     -0.000686
    59   Atom        0.000853     -0.000327     -0.000526
    60   Atom        0.000220      0.000372     -0.000591
    61   Atom        0.000332      0.000180     -0.000511
    62   Atom       -0.000062      0.000727     -0.000665
    63   Atom        0.000002      0.000614     -0.000616
    64   Atom       -0.006243     -0.008723      0.014966
    65   Atom       -0.006639     -0.005729      0.012368
    66   Atom       -0.005671     -0.005300      0.010971
    67   Atom       -0.000543     -0.000720      0.001263
    68   Atom       -0.000538     -0.000614      0.001152
    69   Atom       -0.000476     -0.000589      0.001065
    70   Atom       -0.000252     -0.000753      0.001005
    71   Atom       -0.004842      0.004715      0.000127
    72   Atom       -0.001183     -0.001031      0.002214
    73   Atom       -0.001632     -0.000919      0.002552
    74   Atom       -0.008083      0.002220      0.005864
    75   Atom        0.001172     -0.004375      0.003203
    76   Atom        0.004511      0.004003     -0.008514
    77   Atom       -0.002517     -0.004906      0.007423
    78   Atom        0.001745     -0.004364      0.002619
 --------------------------------------------------------
                        XY            XZ            YZ
 --------------------------------------------------------
     1   Atom       -1.433037      0.702884      0.623453
     2   Atom       -0.008913      0.020753     -0.031601
     3   Atom       -0.004323      0.014286      0.013225
     4   Atom       -0.013471     -0.014723      0.040590
     5   Atom       -0.013068     -0.008038     -0.008420
     6   Atom       -0.004017      0.000272      0.001261
     7   Atom        0.000024     -0.000501      0.000401
     8   Atom       -0.002188     -0.000431      0.001895
     9   Atom       -0.007475     -0.004047      0.001550
    10   Atom        0.003155     -0.000849     -0.000959
    11   Atom        0.001003     -0.001081     -0.000948
    12   Atom        0.002244     -0.001260     -0.000364
    13   Atom        0.006844     -0.001164     -0.000343
    14   Atom       -0.002678     -0.001066     -0.007665
    15   Atom       -0.000179      0.001530     -0.003957
    16   Atom       -0.001911     -0.001758     -0.001995
    17   Atom       -0.007162      0.001732     -0.001290
    18   Atom        0.004200      0.002649      0.001496
    19   Atom        0.000734      0.000558      0.000423
    20   Atom        0.001905      0.000664      0.000092
    21   Atom        0.006878      0.002764      0.002577
    22   Atom        0.002730     -0.001291      0.000008
    23   Atom        0.000697     -0.000022      0.000166
    24   Atom       -0.002110      0.000039      0.001027
    25   Atom       -0.000644     -0.000288      0.000108
    26   Atom        0.002868      0.000944      0.000477
    27   Atom        0.001009      0.000026     -0.000061
    28   Atom       -0.001862     -0.000061     -0.000624
    29   Atom       -0.000515      0.000298     -0.000180
    30   Atom       -0.001223     -0.000432      0.000302
    31   Atom       -0.001057     -0.000163      0.000136
    32   Atom       -0.000968      0.000246     -0.000049
    33   Atom       -0.000870     -0.000546      0.000204
    34   Atom       -0.000269     -0.000088      0.000343
    35   Atom       -0.000089      0.000021      0.000533
    36   Atom       -0.000108     -0.000039     -0.000176
    37   Atom       -0.000572     -0.000050      0.000211
    38   Atom        0.000548     -0.000143     -0.000045
    39   Atom        0.000345     -0.000269     -0.000060
    40   Atom        0.000319      0.000263      0.000057
    41   Atom        0.000552      0.000002      0.000008
    42   Atom        0.000867      0.000438     -0.000391
    43   Atom        0.000781     -0.000051     -0.000076
    44   Atom        0.001203     -0.000581      0.000895
    45   Atom        0.000843      0.000328      0.000563
    46   Atom        0.000445      0.000053      0.000150
    47   Atom       -0.000249      0.000151     -0.000663
    48   Atom       -0.000090     -0.000048     -0.000483
    49   Atom       -0.000065      0.000043      0.000347
    50   Atom       -0.000647      0.000003     -0.000129
    51   Atom       -0.002187      0.002251      0.002614
    52   Atom       -0.000957      0.000176     -0.000025
    53   Atom        0.002934     -0.003635     -0.006272
    54   Atom       -0.000702      0.000420      0.000102
    55   Atom       -0.000846      0.000143     -0.000405
    56   Atom        0.000556      0.000024      0.000011
    57   Atom        0.000320      0.000244      0.000036
    58   Atom        0.000289     -0.000337     -0.000052
    59   Atom        0.000584     -0.000070     -0.000029
    60   Atom        0.000978      0.000063      0.000064
    61   Atom        0.000811     -0.000050     -0.000049
    62   Atom        0.000975     -0.000186     -0.000277
    63   Atom        0.000901      0.000133      0.000171
    64   Atom       -0.000644     -0.007324     -0.007100
    65   Atom       -0.001183     -0.003799      0.006365
    66   Atom       -0.000069      0.000015     -0.003759
    67   Atom        0.000027     -0.000740     -0.000046
    68   Atom       -0.000071     -0.000395      0.000219
    69   Atom        0.000078     -0.000503     -0.000306
    70   Atom       -0.000033     -0.000939      0.000024
    71   Atom       -0.000143      0.002410      0.005481
    72   Atom       -0.000259      0.000928     -0.000386
    73   Atom       -0.000474     -0.001479     -0.000526
    74   Atom        0.009124      0.006466      0.006482
    75   Atom       -0.001009      0.006289     -0.001471
    76   Atom       -0.004286     -0.002233     -0.005329
    77   Atom        0.001021     -0.006954     -0.000919
    78   Atom       -0.000745     -0.006731      0.000571
 --------------------------------------------------------


 ---------------------------------------------------------------------------------
              Anisotropic Spin Dipole Couplings in Principal Axis System
 ---------------------------------------------------------------------------------

       Atom             a.u.   MegaHertz   Gauss  10(-4) cm-1        Axes

              Baa    -3.0072   -52.063   -18.577   -17.366  0.9130  0.3541 -0.2025
     1 Fe(57) Bbb     1.1623    20.123     7.180     6.712  0.3746 -0.5309  0.7601
              Bcc     1.8448    31.939    11.397    10.654 -0.1617  0.7699  0.6174
 
              Baa    -0.0361    -1.393    -0.497    -0.465 -0.2577  0.6002  0.7572
     2 N(14)  Bbb    -0.0053    -0.205    -0.073    -0.068  0.8298  0.5390 -0.1448
              Bcc     0.0414     1.598     0.570     0.533  0.4950 -0.5910  0.6370
 
              Baa    -0.0283    -1.090    -0.389    -0.364 -0.3682 -0.3628  0.8561
     3 N(14)  Bbb     0.0122     0.470     0.168     0.157 -0.4731  0.8657  0.1634
              Bcc     0.0161     0.621     0.221     0.207  0.8004  0.3449  0.4904
 
              Baa    -0.0423    -1.631    -0.582    -0.544  0.0479 -0.6597  0.7500
     4 N(14)  Bbb    -0.0059    -0.226    -0.081    -0.075  0.9147  0.3306  0.2323
              Bcc     0.0481     1.857     0.662     0.619 -0.4012  0.6750  0.6193
 
              Baa    -0.0202    -0.777    -0.277    -0.259  0.6193  0.4798  0.6216
     5 N(14)  Bbb     0.0031     0.120     0.043     0.040 -0.5836 -0.2484  0.7731
              Bcc     0.0170     0.657     0.234     0.219 -0.5253  0.8415 -0.1262
 
              Baa    -0.0096    -1.283    -0.458    -0.428  0.9254  0.3766 -0.0427
     6 C(13)  Bbb     0.0019     0.251     0.090     0.084 -0.3777  0.9070 -0.1863
              Bcc     0.0077     1.032     0.368     0.344 -0.0314  0.1885  0.9816
 
              Baa    -0.0076    -1.019    -0.364    -0.340  0.9996 -0.0080  0.0273
     7 C(13)  Bbb    -0.0033    -0.438    -0.156    -0.146  0.0088  0.9996 -0.0281
              Bcc     0.0109     1.457     0.520     0.486 -0.0271  0.0283  0.9992
 
              Baa    -0.0096    -1.292    -0.461    -0.431  0.6619  0.7481 -0.0464
     8 C(13)  Bbb    -0.0053    -0.712    -0.254    -0.237  0.7491 -0.6579  0.0783
              Bcc     0.0149     2.004     0.715     0.668 -0.0280  0.0866  0.9959
 
              Baa    -0.0085    -1.146    -0.409    -0.382  0.5607  0.8205  0.1110
     9 C(13)  Bbb    -0.0014    -0.183    -0.065    -0.061  0.2842 -0.3166  0.9050
              Bcc     0.0099     1.329     0.474     0.443  0.7777 -0.4759 -0.4107
 
              Baa    -0.0059    -0.790    -0.282    -0.263 -0.2392  0.9585  0.1550
    10 C(13)  Bbb    -0.0013    -0.173    -0.062    -0.058  0.1609 -0.1183  0.9799
              Bcc     0.0072     0.962     0.343     0.321  0.9575  0.2594 -0.1259
 
              Baa    -0.0023    -0.311    -0.111    -0.104  0.0757  0.5355  0.8411
    11 C(13)  Bbb    -0.0009    -0.119    -0.042    -0.040 -0.3766  0.7964 -0.4731
              Bcc     0.0032     0.430     0.154     0.144  0.9233  0.2809 -0.2620
 
              Baa    -0.0027    -0.360    -0.128    -0.120  0.4339 -0.1589  0.8868
    12 C(13)  Bbb    -0.0009    -0.117    -0.042    -0.039 -0.6131  0.6692  0.4199
              Bcc     0.0036     0.476     0.170     0.159  0.6602  0.7259 -0.1930
 
              Baa    -0.0065    -0.872    -0.311    -0.291  0.7079 -0.6988  0.1028
    13 C(13)  Bbb    -0.0009    -0.120    -0.043    -0.040  0.0187  0.1641  0.9863
              Bcc     0.0074     0.992     0.354     0.331  0.7061  0.6962 -0.1293
 
              Baa    -0.0085    -1.135    -0.405    -0.378  0.8465  0.3871  0.3655
    14 C(13)  Bbb    -0.0028    -0.376    -0.134    -0.125 -0.5269  0.5105  0.6795
              Bcc     0.0113     1.510     0.539     0.504 -0.0765  0.7678 -0.6361
 
              Baa    -0.0106    -1.419    -0.506    -0.473  0.9982 -0.0110 -0.0586
    15 C(13)  Bbb    -0.0064    -0.864    -0.308    -0.288  0.0209  0.9851  0.1706
              Bcc     0.0170     2.283     0.814     0.761  0.0559 -0.1715  0.9836
 
              Baa    -0.0091    -1.220    -0.435    -0.407  0.6173  0.7781  0.1161
    16 C(13)  Bbb    -0.0048    -0.650    -0.232    -0.217  0.7829 -0.6221  0.0073
              Bcc     0.0139     1.870     0.667     0.624 -0.0779 -0.0864  0.9932
 
              Baa    -0.0102    -1.363    -0.486    -0.454  0.5680  0.8230  0.0051
    17 C(13)  Bbb     0.0029     0.391     0.140     0.131 -0.5729  0.3910  0.7203
              Bcc     0.0072     0.971     0.347     0.324  0.5908 -0.4121  0.6936
 
              Baa    -0.0081    -1.089    -0.389    -0.363 -0.3144  0.9477 -0.0548
    18 C(13)  Bbb     0.0007     0.098     0.035     0.033 -0.5164 -0.1223  0.8476
              Bcc     0.0074     0.992     0.354     0.331  0.7966  0.2947  0.5278
 
              Baa    -0.0030    -0.404    -0.144    -0.135 -0.1686  0.9834 -0.0668
    19 C(13)  Bbb     0.0008     0.108     0.038     0.036  0.8486  0.1103 -0.5174
              Bcc     0.0022     0.296     0.106     0.099  0.5015  0.1439  0.8531
 
              Baa    -0.0021    -0.282    -0.101    -0.094  0.8176 -0.5140 -0.2596
    20 C(13)  Bbb    -0.0001    -0.019    -0.007    -0.006  0.1140 -0.2974  0.9479
              Bcc     0.0022     0.301     0.107     0.100  0.5644  0.8046  0.1845
 
              Baa    -0.0098    -1.312    -0.468    -0.437 -0.6655  0.7464 -0.0054
    21 C(13)  Bbb     0.0010     0.137     0.049     0.046 -0.5833 -0.5155  0.6277
              Bcc     0.0088     1.174     0.419     0.392  0.4657  0.4209  0.7784
 
              Baa    -0.0178    -2.382    -0.850    -0.795  0.0594 -0.0055  0.9982
    22 C(13)  Bbb     0.0035     0.474     0.169     0.158  0.9626 -0.2645 -0.0587
              Bcc     0.0142     1.908     0.681     0.636  0.2644  0.9644 -0.0105
 
              Baa    -0.0016    -0.837    -0.299    -0.279  0.0525 -0.0576  0.9970
    23 H(1)   Bbb    -0.0006    -0.303    -0.108    -0.101  0.9623 -0.2638 -0.0659
              Bcc     0.0021     1.140     0.407     0.380  0.2668  0.9629  0.0416
 
              Baa    -0.0120    -1.615    -0.576    -0.539 -0.0090 -0.0802  0.9967
    24 C(13)  Bbb     0.0006     0.084     0.030     0.028  0.1986  0.9768  0.0804
              Bcc     0.0114     1.531     0.546     0.511  0.9800 -0.1987 -0.0071
 
              Baa    -0.0016    -0.854    -0.305    -0.285  0.0587 -0.0849  0.9947
    25 H(1)   Bbb    -0.0009    -0.484    -0.173    -0.162  0.1990  0.9774  0.0717
              Bcc     0.0025     1.338     0.477     0.446  0.9783 -0.1937 -0.0742
 
              Baa    -0.0093    -1.252    -0.447    -0.418 -0.1006 -0.0099  0.9949
    26 C(13)  Bbb    -0.0010    -0.131    -0.047    -0.044  0.9590 -0.2671  0.0943
              Bcc     0.0103     1.382     0.493     0.461  0.2648  0.9636  0.0363
 
              Baa    -0.0016    -0.879    -0.314    -0.293 -0.0736  0.0327  0.9968
    27 H(1)   Bbb    -0.0011    -0.600    -0.214    -0.200  0.9605 -0.2667  0.0797
              Bcc     0.0028     1.479     0.528     0.493  0.2685  0.9632 -0.0118
 
              Baa    -0.0150    -2.009    -0.717    -0.670  0.0047  0.0366  0.9993
    28 C(13)  Bbb     0.0020     0.269     0.096     0.090  0.1721  0.9844 -0.0368
              Bcc     0.0130     1.740     0.621     0.580  0.9851 -0.1722  0.0017
 
              Baa    -0.0017    -0.913    -0.326    -0.305 -0.0542  0.1445  0.9880
    29 H(1)   Bbb    -0.0007    -0.397    -0.142    -0.132  0.1756  0.9754 -0.1330
              Bcc     0.0025     1.310     0.467     0.437  0.9830 -0.1663  0.0782
 
              Baa    -0.0010    -0.139    -0.049    -0.046  0.5304  0.8453 -0.0645
    30 C(13)  Bbb    -0.0007    -0.099    -0.035    -0.033  0.2163 -0.0614  0.9744
              Bcc     0.0018     0.237     0.085     0.079  0.8197 -0.5308 -0.2154
 
              Baa    -0.0007    -0.390    -0.139    -0.130  0.6685  0.6097  0.4258
    31 H(1)   Bbb    -0.0007    -0.364    -0.130    -0.121 -0.2375 -0.3676  0.8992
              Bcc     0.0014     0.754     0.269     0.252  0.7048 -0.7022 -0.1009
 
              Baa    -0.0009    -0.460    -0.164    -0.154 -0.3532 -0.4838  0.8008
    32 H(1)   Bbb    -0.0007    -0.378    -0.135    -0.126  0.3287  0.7372  0.5904
              Bcc     0.0016     0.838     0.299     0.280  0.8759 -0.4717  0.1014
 
              Baa    -0.0008    -0.451    -0.161    -0.150  0.4395  0.3602  0.8229
    33 H(1)   Bbb    -0.0007    -0.358    -0.128    -0.119  0.2782  0.8165 -0.5060
              Bcc     0.0015     0.809     0.289     0.270  0.8541 -0.4513 -0.2587
 
              Baa    -0.0007    -0.099    -0.035    -0.033  0.9820  0.1143  0.1505
    34 C(13)  Bbb    -0.0005    -0.067    -0.024    -0.022 -0.1219 -0.2258  0.9665
              Bcc     0.0012     0.165     0.059     0.055 -0.1445  0.9674  0.2078
 
              Baa    -0.0008    -0.420    -0.150    -0.140 -0.3997 -0.2405  0.8846
    35 H(1)   Bbb    -0.0007    -0.359    -0.128    -0.120  0.9159 -0.0651  0.3961
              Bcc     0.0015     0.779     0.278     0.260 -0.0377  0.9685  0.2463
 
              Baa    -0.0008    -0.424    -0.151    -0.141  0.5255  0.0911  0.8459
    36 H(1)   Bbb    -0.0007    -0.367    -0.131    -0.122  0.8495 -0.0005 -0.5277
              Bcc     0.0015     0.791     0.282     0.264 -0.0476  0.9958 -0.0777
 
              Baa    -0.0007    -0.379    -0.135    -0.127  0.9251  0.3079 -0.2222
    37 H(1)   Bbb    -0.0006    -0.345    -0.123    -0.115  0.2446 -0.0359  0.9689
              Bcc     0.0014     0.725     0.259     0.242 -0.2904  0.9507  0.1086
 
              Baa    -0.0007    -0.094    -0.034    -0.031 -0.2250  0.8924  0.3911
    38 C(13)  Bbb    -0.0007    -0.093    -0.033    -0.031  0.1716 -0.3588  0.9175
              Bcc     0.0014     0.187     0.067     0.062  0.9591  0.2736 -0.0724
 
              Baa    -0.0007    -0.356    -0.127    -0.119 -0.0616  0.8008  0.5958
    39 H(1)   Bbb    -0.0006    -0.345    -0.123    -0.115  0.2205 -0.5713  0.7906
              Bcc     0.0013     0.701     0.250     0.234  0.9734  0.1800 -0.1414
 
              Baa    -0.0007    -0.375    -0.134    -0.125 -0.0251  0.7245 -0.6888
    40 H(1)   Bbb    -0.0007    -0.359    -0.128    -0.120 -0.2045  0.6707  0.7130
              Bcc     0.0014     0.734     0.262     0.245  0.9785  0.1587  0.1313
 
              Baa    -0.0005    -0.284    -0.101    -0.095 -0.3695  0.8983 -0.2376
    41 H(1)   Bbb    -0.0005    -0.269    -0.096    -0.090 -0.0932  0.2186  0.9713
              Bcc     0.0010     0.552     0.197     0.184  0.9245  0.3811  0.0029
 
              Baa    -0.0011    -0.152    -0.054    -0.051 -0.5477  0.5561  0.6251
    42 C(13)  Bbb     0.0001     0.009     0.003     0.003  0.4042 -0.4783  0.7796
              Bcc     0.0011     0.144     0.051     0.048  0.7325  0.6797  0.0372
 
              Baa    -0.0006    -0.295    -0.105    -0.098 -0.4292  0.5558  0.7119
    43 H(1)   Bbb    -0.0005    -0.269    -0.096    -0.090  0.4968 -0.5130  0.7000
              Bcc     0.0011     0.563     0.201     0.188  0.7543  0.6542 -0.0559
 
              Baa    -0.0019    -0.260    -0.093    -0.087  0.4648 -0.4359  0.7707
    44 C(13)  Bbb     0.0001     0.010     0.004     0.003  0.7050 -0.3444 -0.6200
              Bcc     0.0019     0.250     0.089     0.083  0.5357  0.8315  0.1472
 
              Baa    -0.0009    -0.454    -0.162    -0.152  0.8082 -0.2000 -0.5539
    45 H(1)   Bbb    -0.0007    -0.391    -0.139    -0.130  0.4215 -0.4605  0.7812
              Bcc     0.0016     0.845     0.301     0.282  0.4113  0.8648  0.2879
 
              Baa    -0.0004    -0.200    -0.071    -0.067  0.4267 -0.4243  0.7987
    46 H(1)   Bbb    -0.0003    -0.158    -0.056    -0.053  0.7275 -0.3635 -0.5819
              Bcc     0.0007     0.358     0.128     0.119  0.5372  0.8293  0.1536
 
              Baa    -0.0009    -0.127    -0.045    -0.042  0.8797 -0.0392 -0.4740
    47 C(13)  Bbb    -0.0008    -0.103    -0.037    -0.034  0.4632  0.2964  0.8352
              Bcc     0.0017     0.230     0.082     0.077 -0.1078  0.9542 -0.2789
 
              Baa    -0.0008    -0.448    -0.160    -0.150  0.4481  0.2050  0.8702
    48 H(1)   Bbb    -0.0007    -0.360    -0.128    -0.120  0.8933 -0.0645 -0.4448
              Bcc     0.0015     0.808     0.288     0.270 -0.0350  0.9766 -0.2121
 
              Baa    -0.0009    -0.468    -0.167    -0.156 -0.4442 -0.1372  0.8853
    49 H(1)   Bbb    -0.0007    -0.399    -0.143    -0.133  0.8956 -0.0411  0.4430
              Bcc     0.0016     0.868     0.310     0.289 -0.0244  0.9897  0.1411
 
              Baa    -0.0008    -0.417    -0.149    -0.139  0.8431  0.2956  0.4492
    50 H(1)   Bbb    -0.0007    -0.369    -0.132    -0.123 -0.4441 -0.0884  0.8916
              Bcc     0.0015     0.786     0.280     0.262 -0.3032  0.9512 -0.0567
 
              Baa    -0.0053    -0.714    -0.255    -0.238 -0.3693 -0.5347  0.7601
    51 C(13)  Bbb     0.0015     0.199     0.071     0.066  0.2150  0.7466  0.6296
              Bcc     0.0038     0.515     0.184     0.172  0.9041 -0.3959  0.1607
 
              Baa    -0.0008    -0.437    -0.156    -0.146 -0.2806 -0.2530  0.9259
    52 H(1)   Bbb    -0.0006    -0.300    -0.107    -0.100  0.5492  0.7489  0.3710
              Bcc     0.0014     0.738     0.263     0.246  0.7872 -0.6126  0.0712
 
              Baa    -0.0056    -0.746    -0.266    -0.249  0.1735  0.6646  0.7268
    53 C(13)  Bbb    -0.0035    -0.475    -0.169    -0.158  0.8999 -0.4068  0.1572
              Bcc     0.0091     1.221     0.436     0.407 -0.4001 -0.6268  0.6687
 
              Baa    -0.0008    -0.443    -0.158    -0.148 -0.5019 -0.5446  0.6719
    54 H(1)   Bbb    -0.0002    -0.107    -0.038    -0.036  0.2371  0.6605  0.7124
              Bcc     0.0010     0.550     0.196     0.184  0.8318 -0.5169  0.2024
 
              Baa    -0.0010    -0.547    -0.195    -0.183  0.2278  0.6643  0.7119
    55 H(1)   Bbb    -0.0004    -0.230    -0.082    -0.077 -0.4203 -0.5924  0.6873
              Bcc     0.0015     0.778     0.277     0.259  0.8783 -0.4558  0.1442
 
              Baa    -0.0007    -0.099    -0.035    -0.033 -0.2766  0.9605 -0.0301
    56 C(13)  Bbb    -0.0006    -0.082    -0.029    -0.027 -0.0212  0.0252  0.9995
              Bcc     0.0014     0.181     0.065     0.060  0.9607  0.2771  0.0134
 
              Baa    -0.0007    -0.359    -0.128    -0.120 -0.1492  0.1344  0.9796
    57 H(1)   Bbb    -0.0006    -0.339    -0.121    -0.113 -0.1480  0.9765 -0.1565
              Bcc     0.0013     0.697     0.249     0.233  0.9777  0.1683  0.1258
 
              Baa    -0.0007    -0.396    -0.141    -0.132  0.1263  0.2111  0.9693
    58 H(1)   Bbb    -0.0007    -0.381    -0.136    -0.127 -0.1656  0.9679 -0.1892
              Bcc     0.0015     0.776     0.277     0.259  0.9781  0.1366 -0.1572
 
              Baa    -0.0006    -0.303    -0.108    -0.101 -0.3803  0.9248  0.0018
    59 H(1)   Bbb    -0.0005    -0.282    -0.101    -0.094  0.0436  0.0160  0.9989
              Bcc     0.0011     0.585     0.209     0.195  0.9238  0.3800 -0.0464
 
              Baa    -0.0007    -0.092    -0.033    -0.031  0.7346 -0.6778 -0.0316
    60 C(13)  Bbb    -0.0006    -0.080    -0.029    -0.027 -0.0092 -0.0565  0.9984
              Bcc     0.0013     0.172     0.061     0.057  0.6785  0.7331  0.0477
 
              Baa    -0.0006    -0.298    -0.106    -0.099 -0.6705  0.7399  0.0549
    61 H(1)   Bbb    -0.0005    -0.274    -0.098    -0.092  0.0698 -0.0108  0.9975
              Bcc     0.0011     0.573     0.204     0.191  0.7386  0.6727 -0.0444
 
              Baa    -0.0007    -0.384    -0.137    -0.128  0.7788 -0.5736 -0.2539
    62 H(1)   Bbb    -0.0007    -0.383    -0.137    -0.128  0.2978 -0.0181  0.9545
              Bcc     0.0014     0.767     0.274     0.256  0.5521  0.8189 -0.1567
 
              Baa    -0.0007    -0.347    -0.124    -0.116  0.6560 -0.3789 -0.6527
    63 H(1)   Bbb    -0.0006    -0.338    -0.121    -0.113  0.4840 -0.4523  0.7491
              Bcc     0.0013     0.685     0.244     0.228  0.5791  0.8074  0.1133
 
              Baa    -0.0122     0.884     0.315     0.295  0.5062  0.7913  0.3431
    64 O(17)  Bbb    -0.0066     0.479     0.171     0.160  0.8201 -0.5647  0.0925
              Bcc     0.0188    -1.363    -0.486    -0.455 -0.2669 -0.2346  0.9347
 
              Baa    -0.0077    -4.132    -1.474    -1.378 -0.0465  0.9498 -0.3094
    65 H(1)   Bbb    -0.0074    -3.930    -1.402    -1.311  0.9826  0.0993  0.1572
              Bcc     0.0151     8.062     2.877     2.689 -0.1800  0.2967  0.9379
 
              Baa    -0.0061    -3.274    -1.168    -1.092  0.1367  0.9676  0.2125
    66 H(1)   Bbb    -0.0057    -3.021    -1.078    -1.008  0.9906 -0.1332 -0.0310
              Bcc     0.0118     6.295     2.246     2.100  0.0017 -0.2147  0.9767
 
              Baa    -0.0008    -0.109    -0.039    -0.036  0.9367 -0.1110  0.3322
    67 C(13)  Bbb    -0.0007    -0.097    -0.034    -0.032  0.0967  0.9936  0.0591
              Bcc     0.0015     0.205     0.073     0.068 -0.3366 -0.0232  0.9414
 
              Baa    -0.0007    -0.351    -0.125    -0.117  0.5801  0.8140  0.0285
    68 H(1)   Bbb    -0.0006    -0.326    -0.116    -0.109  0.7851 -0.5682  0.2465
              Bcc     0.0013     0.677     0.241     0.226 -0.2169  0.1207  0.9687
 
              Baa    -0.0006    -0.346    -0.124    -0.116  0.4026  0.8735  0.2737
    69 H(1)   Bbb    -0.0006    -0.330    -0.118    -0.110  0.8715 -0.4572  0.1773
              Bcc     0.0013     0.677     0.241     0.226 -0.2800 -0.1672  0.9453
 
              Baa    -0.0008    -0.412    -0.147    -0.137  0.6339  0.7015  0.3257
    70 H(1)   Bbb    -0.0007    -0.392    -0.140    -0.131 -0.6134  0.7125 -0.3407
              Bcc     0.0015     0.804     0.287     0.268 -0.4711  0.0162  0.8819
 
              Baa    -0.0064    -0.248    -0.089    -0.083  0.8113  0.2663 -0.5204
    71 N(14)  Bbb    -0.0020    -0.079    -0.028    -0.026  0.5771 -0.5071  0.6402
              Bcc     0.0085     0.327     0.117     0.109  0.0934  0.8197  0.5651
 
              Baa    -0.0015    -0.790    -0.282    -0.263  0.9126  0.3613 -0.1914
    72 H(1)   Bbb    -0.0010    -0.547    -0.195    -0.182 -0.3234  0.9243  0.2028
              Bcc     0.0025     1.337     0.477     0.446  0.2501 -0.1231  0.9603
 
              Baa    -0.0024    -0.317    -0.113    -0.106  0.8674  0.3946  0.3031
    73 C(13)  Bbb    -0.0007    -0.093    -0.033    -0.031 -0.4034  0.9143 -0.0358
              Bcc     0.0031     0.410     0.146     0.137 -0.2913 -0.0912  0.9523
 
              Baa    -0.0137    -1.845    -0.658    -0.615  0.8832 -0.4464 -0.1437
    74 C(13)  Bbb    -0.0019    -0.260    -0.093    -0.087 -0.2143 -0.6567  0.7231
              Bcc     0.0157     2.105     0.751     0.702  0.4171  0.6078  0.6757
 
              Baa    -0.0047    -2.498    -0.891    -0.833 -0.1825  0.9300  0.3191
    75 H(1)   Bbb    -0.0041    -2.196    -0.783    -0.732  0.7455  0.3425 -0.5718
              Bcc     0.0088     4.694     1.675     1.566  0.6410 -0.1335  0.7558
 
              Baa    -0.0113    -0.436    -0.156    -0.146  0.2286  0.3763  0.8978
    76 N(14)  Bbb     0.0025     0.095     0.034     0.032  0.7174  0.5583 -0.4167
              Bcc     0.0088     0.341     0.122     0.114 -0.6581  0.7394 -0.1423
 
              Baa    -0.0063    -0.843    -0.301    -0.281  0.8428 -0.3559  0.4038
    77 C(13)  Bbb    -0.0048    -0.647    -0.231    -0.216  0.2828  0.9311  0.2305
              Bcc     0.0111     1.490     0.532     0.497 -0.4580 -0.0800  0.8853
 
              Baa    -0.0047    -2.488    -0.888    -0.830  0.6363  0.5457  0.5454
    78 H(1)   Bbb    -0.0043    -2.310    -0.824    -0.770 -0.3592  0.8351 -0.4166
              Bcc     0.0090     4.797     1.712     1.600 -0.6828  0.0692  0.7274
 

 ---------------------------------------------------------------------------------

 Unable to Open any file for archive entry.
 1\1\GINC-BGN1026\SP\UAPFD\Gen\C34H36Fe1N6O1(1+,2)\BECSLEIP\12-Sep-2024
 \0\\# apfd/gen scf=maxcycle=999 geom=check\\5abo_III_D\\1,2\Fe,0,21.16
 84045352,-2.5312813515,-17.5274608608\N,0,20.3048443257,-2.6255176456,
 -19.3546519214\N,0,20.9422413231,-0.5350043882,-17.5426454937\N,0,21.5
 466071646,-2.4642904528,-15.5624288564\N,0,20.995266616,-4.5435801302,
 -17.4076297249\C,0,20.0495989775,-3.7419242136,-20.0888948834\C,0,19.4
 823925192,-3.3923960548,-21.3719598222\C,0,19.408560881,-2.0341302629,
 -21.4007748274\C,0,19.9391564171,-1.571488276,-20.1372447694\C,0,20.52
 71748251,0.2376885431,-18.5819112838\C,0,20.672138366,1.6357762354,-18
 .2723912437\C,0,21.2118115311,1.6994975464,-17.0155477036\C,0,21.32898
 48213,0.3262624047,-16.5645633156\C,0,21.7583996739,-1.3440150581,-14.
 8173014238\C,0,22.1016610392,-1.6884534488,-13.4627049594\C,0,22.07099
 77742,-3.0556385901,-13.3911044552\C,0,21.7450574949,-3.5168019556,-14
 .7272913839\C,0,21.4582116875,-5.3063867911,-16.3814058424\C,0,21.6149
 502903,-6.6843265659,-16.7932604406\C,0,21.199127631,-6.7433671116,-18
 .0870849694\C,0,20.8198149126,-5.3963338325,-18.4515346024\C,0,20.3208
 935142,-5.0388624691,-19.6912020656\H,0,20.1459686193,-5.8273922733,-2
 0.4074786702\C,0,20.0448343409,-0.2383011804,-19.7907984254\H,0,19.726
 0729962,0.4918848895,-20.5195630592\C,0,21.7014591912,-0.0428987291,-1
 5.2863312662\H,0,21.9110857139,0.7478796359,-14.5828384135\C,0,21.7427
 272232,-4.8464519436,-15.1085236139\H,0,22.0465520856,-5.5730684442,-1
 4.3706635191\C,0,18.8984716904,-1.1388085407,-22.4779349945\H,0,18.536
 1724809,-1.7183244648,-23.3235797248\H,0,19.6875194022,-0.4742226779,-
 22.8313986853\H,0,18.0789390989,-0.5219369148,-22.1083856956\C,0,19.07
 17654525,-4.3830192986,-22.4070638129\H,0,18.3367555529,-5.0789300365,
 -22.0019208134\H,0,19.9319927702,-4.9612103479,-22.7462382161\H,0,18.6
 336270801,-3.8848089754,-23.268677108\C,0,20.3339795275,2.7561360412,-
 19.1948699296\H,0,19.2889810251,2.6978928284,-19.5018006258\H,0,20.950
 9647446,2.7163464971,-20.0938553899\H,0,20.5014407885,3.7148857587,-18
 .7100741562\C,0,21.575439275,2.8971757763,-16.2866468509\H,0,20.914030
 9943,3.7457440995,-16.4280529406\C,0,22.649314752,3.0399533315,-15.518
 0870267\H,0,23.3668701874,2.2477219395,-15.3866858992\H,0,22.859802079
 2,3.966729978,-15.0100733412\C,0,22.3717653901,-0.7081389442,-12.37405
 6418\H,0,21.4924441281,-0.0912486618,-12.186149477\H,0,23.1929361121,-
 0.0456070068,-12.6491102966\H,0,22.6317085483,-1.2211663288,-11.451526
 6214\C,0,22.3032256454,-3.8691171551,-12.2161109645\H,0,23.0677800818,
 -3.4983804172,-11.5414519796\C,0,21.6426497523,-4.9757261734,-11.89348
 2786\H,0,20.8376637027,-5.3576816572,-12.4978737154\H,0,21.8694260028,
 -5.5257269024,-10.9950874137\C,0,22.1147448233,-7.774541812,-15.908575
 9939\H,0,21.4479241414,-7.9127510938,-15.0570211551\H,0,23.105472295,-
 7.5326985719,-15.5234468337\H,0,22.1766047542,-8.7155391185,-16.449964
 2107\C,0,21.1332724966,-7.9139874436,-19.0072278899\H,0,21.5092940358,
 -8.8107382073,-18.5206089203\H,0,21.7284760623,-7.732231204,-19.902364
 2282\H,0,20.1044318031,-8.0990526561,-19.3177142214\O,0,18.951,-2.55,-
 16.877\H,0,18.439,-2.752,-17.66\H,0,18.627,-2.374,-16.068\C,0,26.55384
 95735,-3.648526183,-18.3723689595\H,0,27.2867538352,-2.8719761015,-18.
 1532519004\H,0,26.8257338173,-4.1162205023,-19.3186838878\H,0,26.59650
 16335,-4.3983552451,-17.58864935\N,0,24.8303738107,-2.1231880168,-19.3
 578734153\H,0,25.4378336697,-1.7205866994,-20.0523351852\C,0,25.184403
 4603,-3.0783198958,-18.441347553\C,0,23.5250610336,-1.826198017,-19.15
 67023669\H,0,22.9742981728,-1.108929952,-19.7298475236\N,0,23.03233298
 3,-2.5354783169,-18.1688681773\C,0,24.0542377917,-3.3178225786,-17.712
 9879011\H,0,23.9044043321,-3.996074964,-16.8978620913\\Version=ES64L-G
 16RevC.02\State=2-A\HF=-2983.2017562\S2=0.83684\S2-1=0.\S2A=0.752215\R
 MSD=7.585e-09\Dipole=1.4173502,0.0292547,-1.2338048\Quadrupole=-4.6249
 076,-0.2306316,4.8555392,-1.159581,1.9678817,-2.3509677\PG=C01 [X(C34H
 36Fe1N6O1)]\\@
 The archive entry for this job was punched.


 THERE IS MORE TO LIFE THAN INCREASING ITS SPEED.

                                       -- GANDHI
 Job cpu time:       0 days  7 hours 40 minutes  9.6 seconds.
 Elapsed time:       0 days  0 hours  7 minutes 56.8 seconds.
 File lengths (MBytes):  RWF=    430 Int=      0 D2E=      0 Chk=    155 Scr=      1
 Normal termination of Gaussian 16 at Thu Sep 12 17:53:45 2024.
