 Entering Gaussian System, Link 0=g16
 Input=5aog05.com
 Output=5aog05.log
 Initial command:
 /sw/chem/gaussian/g16_C02/a100/g16/l1.exe "/local/becsleip_8015171/Gau-2975947.inp" -scrdir="/local/becsleip_8015171/"
 Entering Link 1 = /sw/chem/gaussian/g16_C02/a100/g16/l1.exe PID=   2975948.
  
 Copyright (c) 1988-2021, Gaussian, Inc.  All Rights Reserved.
  
 This is part of the Gaussian(R) 16 program.  It is based on
 the Gaussian(R) 09 system (copyright 2009, Gaussian, Inc.),
 the Gaussian(R) 03 system (copyright 2003, Gaussian, Inc.),
 the Gaussian(R) 98 system (copyright 1998, Gaussian, Inc.),
 the Gaussian(R) 94 system (copyright 1995, Gaussian, Inc.),
 the Gaussian 92(TM) system (copyright 1992, Gaussian, Inc.),
 the Gaussian 90(TM) system (copyright 1990, Gaussian, Inc.),
 the Gaussian 88(TM) system (copyright 1988, Gaussian, Inc.),
 the Gaussian 86(TM) system (copyright 1986, Carnegie Mellon
 University), and the Gaussian 82(TM) system (copyright 1983,
 Carnegie Mellon University). Gaussian is a federally registered
 trademark of Gaussian, Inc.
  
 This software contains proprietary and confidential information,
 including trade secrets, belonging to Gaussian, Inc.
  
 This software is provided under written license and may be
 used, copied, transmitted, or stored only in accord with that
 written license.
  
 The following legend is applicable only to US Government
 contracts under FAR:
  
                    RESTRICTED RIGHTS LEGEND
  
 Use, reproduction and disclosure by the US Government is
 subject to restrictions as set forth in subparagraphs (a)
 and (c) of the Commercial Computer Software - Restricted
 Rights clause in FAR 52.227-19.
  
 Gaussian, Inc.
 340 Quinnipiac St., Bldg. 40, Wallingford CT 06492
  
  
 ---------------------------------------------------------------
 Warning -- This program may not be used in any manner that
 competes with the business of Gaussian, Inc. or will provide
 assistance to any competitor of Gaussian, Inc.  The licensee
 of this program is prohibited from giving any competitor of
 Gaussian, Inc. access to this program.  By using this program,
 the user acknowledges that Gaussian, Inc. is engaged in the
 business of creating and licensing software in the field of
 computational chemistry and represents and warrants to the
 licensee that it is not a competitor of Gaussian, Inc. and that
 it will not use this program in any manner prohibited above.
 ---------------------------------------------------------------
  

 Cite this work as:
 Gaussian 16, Revision C.02,
 M. J. Frisch, G. W. Trucks, H. B. Schlegel, G. E. Scuseria, 
 M. A. Robb, J. R. Cheeseman, G. Scalmani, V. Barone, 
 G. A. Petersson, H. Nakatsuji, X. Li, M. Caricato, A. V. Marenich, 
 J. Bloino, B. G. Janesko, R. Gomperts, B. Mennucci, H. P. Hratchian, 
 J. V. Ortiz, A. F. Izmaylov, J. L. Sonnenberg, D. Williams-Young, 
 F. Ding, F. Lipparini, F. Egidi, J. Goings, B. Peng, A. Petrone, 
 T. Henderson, D. Ranasinghe, V. G. Zakrzewski, J. Gao, N. Rega, 
 G. Zheng, W. Liang, M. Hada, M. Ehara, K. Toyota, R. Fukuda, 
 J. Hasegawa, M. Ishida, T. Nakajima, Y. Honda, O. Kitao, H. Nakai, 
 T. Vreven, K. Throssell, J. A. Montgomery, Jr., J. E. Peralta, 
 F. Ogliaro, M. J. Bearpark, J. J. Heyd, E. N. Brothers, K. N. Kudin, 
 V. N. Staroverov, T. A. Keith, R. Kobayashi, J. Normand, 
 K. Raghavachari, A. P. Rendell, J. C. Burant, S. S. Iyengar, 
 J. Tomasi, M. Cossi, J. M. Millam, M. Klene, C. Adamo, R. Cammi, 
 J. W. Ochterski, R. L. Martin, K. Morokuma, O. Farkas, 
 J. B. Foresman, and D. J. Fox, Gaussian, Inc., Wallingford CT, 2019.
 
 ******************************************
 Gaussian 16:  ES64L-G16RevC.02  7-Dec-2021
                12-Sep-2024 
 ******************************************
 %mem=16GB
 %CPU=0-71
 SetSPE:  set environment variable "OMP_PROC_BIND" = "true"
 SetSPE:  set environment variable "OMP_PLACES" = "{0},{1},{2},{3},{4},{5},{6},{7},{8},{9},{10},{11},{12},{13},{14},{15},{16},{17},{18},{19},{20},{21},{22},{23},{24},{25},{26},{27},{28},{29},{30},{31},{32},{33},{34},{35},{36},{37},{38},{39},{40},{41},{42},{43},{44},{45},{46},{47},{48},{49},{50},{51},{52},{53},{54},{55},{56},{57},{58},{59},{60},{61},{62},{63},{64},{65},{66},{67},{68},{69},{70},{71}"
 Will use up to   72 processors via shared memory.
 %gpucpu=0,1,2,3=0,1,2,3
 Will use    4 GPUs:
 Thread  CPU   GPU
      0    0     0
      1    1     1
      2    2     2
      3    3     3
      4    4    -1
      5    5    -1
      6    6    -1
      7    7    -1
      8    8    -1
      9    9    -1
     10   10    -1
     11   11    -1
     12   12    -1
     13   13    -1
     14   14    -1
     15   15    -1
     16   16    -1
     17   17    -1
     18   18    -1
     19   19    -1
     20   20    -1
     21   21    -1
     22   22    -1
     23   23    -1
     24   24    -1
     25   25    -1
     26   26    -1
     27   27    -1
     28   28    -1
     29   29    -1
     30   30    -1
     31   31    -1
     32   32    -1
     33   33    -1
     34   34    -1
     35   35    -1
     36   36    -1
     37   37    -1
     38   38    -1
     39   39    -1
     40   40    -1
     41   41    -1
     42   42    -1
     43   43    -1
     44   44    -1
     45   45    -1
     46   46    -1
     47   47    -1
     48   48    -1
     49   49    -1
     50   50    -1
     51   51    -1
     52   52    -1
     53   53    -1
     54   54    -1
     55   55    -1
     56   56    -1
     57   57    -1
     58   58    -1
     59   59    -1
     60   60    -1
     61   61    -1
     62   62    -1
     63   63    -1
     64   64    -1
     65   65    -1
     66   66    -1
     67   67    -1
     68   68    -1
     69   69    -1
     70   70    -1
     71   71    -1
 SetGPE:  set environment variable "OMP_PROC_BIND" = "true"
 SetGPE:  set environment variable "OMP_PLACES" = "{0},{1},{2},{3},{4},{5},{6},{7},{8},{9},{10},{11},{12},{13},{14},{15},{16},{17},{18},{19},{20},{21},{22},{23},{24},{25},{26},{27},{28},{29},{30},{31},{32},{33},{34},{35},{36},{37},{38},{39},{40},{41},{42},{43},{44},{45},{46},{47},{48},{49},{50},{51},{52},{53},{54},{55},{56},{57},{58},{59},{60},{61},{62},{63},{64},{65},{66},{67},{68},{69},{70},{71}"
 %oldchk=5aog_II_Sre.chk
 %chk=5aog_II_Qn.chk
 Properties for Device   0
 Minimum vector length:                              32
 Maximum vector length:                            1024
 Number of SMPs:                                    108
 Maximum number of threads per SMP:                2048
 Number of ASync Engines:                             5
 Memory:                                           9207742464
 Properties for Device   1
 Minimum vector length:                              32
 Maximum vector length:                            1024
 Number of SMPs:                                    108
 Maximum number of threads per SMP:                2048
 Number of ASync Engines:                             5
 Memory:                                           9207742464
 Properties for Device   2
 Minimum vector length:                              32
 Maximum vector length:                            1024
 Number of SMPs:                                    108
 Maximum number of threads per SMP:                2048
 Number of ASync Engines:                             5
 Memory:                                           9207742464
 Properties for Device   3
 Minimum vector length:                              32
 Maximum vector length:                            1024
 Number of SMPs:                                    108
 Maximum number of threads per SMP:                2048
 Number of ASync Engines:                             5
 Memory:                                           9207742464
   8286968217 words of memory will be used on each GPU.
 Copying data from "5aog_II_Sre.chk" to current chk file "5aog_II_Qn.chk"
 IOpt=  2 FromEx=T IUOpen= 4 IOptOp= 5 NList=   0 IFRang= 0 IUIn= 4 IUOut= 2.
 --------------------------------------------------------------
 # apfd/def2TZVP guess=read scf=maxcycle=999 geom=check pop=nbo
 --------------------------------------------------------------
 1/29=2,38=1,172=1/1;
 2/12=2,40=1/2;
 3/5=44,7=101,11=2,14=-4,25=1,30=1,74=-44,116=-2/1,2,3;
 4/5=1/1;
 5/5=2,7=999,38=6/2;
 6/7=2,8=2,9=2,10=2,28=1,40=1/1,7;
 99/5=1,9=1/99;
 ---------
 5aog_II_Q
 ---------
 Structure from the checkpoint file:  "5aog_II_Qn.chk"
 Charge =  0 Multiplicity = 5
 Z-Matrix found in chk file.
 Fe,0,-3.020193802,62.4527161313,10.2120907225
 N,0,-4.4708427301,62.4178639928,8.8514392638
 N,0,-2.3828477109,64.2181377191,9.499922183
 N,0,-1.6306070558,62.5626497891,11.6441834316
 N,0,-3.6929253361,60.7481215388,10.9748505895
 C,0,-5.5009336759,61.5285453886,8.7745235947
 C,0,-6.3888363535,61.8648210264,7.6848279456
 C,0,-5.9631796185,63.0632784868,7.2047446647
 C,0,-4.7921852489,63.4164394693,7.9769580733
 C,0,-2.884564852,64.8850971466,8.4221828042
 C,0,-2.1032693075,66.0587343736,8.1355847676
 C,0,-1.1720918897,66.154003352,9.1329064866
 C,0,-1.3788422725,64.9997728336,9.9842394238
 C,0,-0.7852283609,63.6019037188,11.9018373799
 C,0,-0.0469823937,63.3807748915,13.1174484952
 C,0,-0.4786471039,62.1805800195,13.6161723227
 C,0,-1.4832766793,61.7017109836,12.6881596562
 C,0,-3.147725164,60.0418299997,12.0030871528
 C,0,-3.7773032853,58.7456433039,12.124716048
 C,0,-4.7898882442,58.7289701235,11.2170073702
 C,0,-4.729178958,59.992946739,10.5170381996
 C,0,-5.5964581691,60.3599143024,9.5071198241
 H,0,-6.4173632406,59.6952488845,9.2858362641
 C,0,-4.0012709826,64.5121377977,7.6958090632
 H,0,-4.3194142066,65.1701726216,6.9014801355
 C,0,-0.6008623427,64.7012425396,11.0829309502
 H,0,0.1815446484,65.3963684537,11.3425379031
 C,0,-2.1215865583,60.4814284397,12.8152478028
 H,0,-1.8231095973,59.841664884,13.6317070743
 C,0,-6.527880837,63.8969494298,6.1059650305
 H,0,-7.4403663326,63.4537515191,5.7148992154
 H,0,-5.8144493179,63.9915471272,5.2862591485
 H,0,-6.7606223838,64.8979357183,6.4684811768
 C,0,-7.5581785183,61.0406717077,7.2682830478
 H,0,-8.2635370595,60.9323975124,8.0922991642
 H,0,-7.2354847518,60.0440259078,6.9665486283
 H,0,-8.0771318754,61.5008064511,6.43112028
 C,0,-2.3522192148,67.002024169,7.0097933408
 H,0,-3.3015182106,67.5211339016,7.1470359019
 H,0,-2.3944150662,66.4681255234,6.0601913285
 H,0,-1.5634486875,67.7483105739,6.9571699816
 C,0,-0.1993187186,67.2145179312,9.3137706603
 H,0,0.2952055317,67.5480993665,8.4073252132
 C,0,0.0822158281,67.8163283672,10.4627941735
 H,0,-0.4227740872,67.561052537,11.3790328872
 H,0,0.8106097428,68.6079532851,10.5222913274
 C,0,0.9188596427,64.3422493343,13.716161108
 H,0,0.5787177567,65.3668881761,13.5757911002
 H,0,1.901176408,64.2464393756,13.2505610207
 H,0,1.0232193178,64.1520668034,14.7823876197
 C,0,-0.0960550213,61.5033135855,14.8355787971
 H,0,-0.8824555591,60.9383336863,15.3224948103
 C,0,1.1162061737,61.521452684,15.3800491878
 H,0,1.9452350962,62.0272329301,14.9166629174
 H,0,1.3268981677,61.005051686,16.3018968726
 C,0,-3.3746685817,57.7055745941,13.1127919157
 H,0,-3.5540736247,58.0537700334,14.1305652919
 H,0,-2.3135946909,57.4758277853,13.0168247871
 H,0,-3.9399535054,56.7893454439,12.961326436
 C,0,-5.7820159207,57.6560162267,10.9265082443
 H,0,-5.6201522073,56.7946653641,11.5698228957
 H,0,-5.7035743091,57.3315791749,9.8886230816
 H,0,-6.7963368662,58.0199161342,11.0910431417
 C,0,0.6752321383,58.9014151174,7.9687398047
 H,0,1.6266340331,59.3050909973,7.6224910709
 H,0,0.3151194401,58.191203191,7.2246157702
 H,0,0.8408345588,58.3737316111,8.902716839
 N,0,-0.7413654782,60.8041453428,7.1668283877
 H,0,-0.4425393272,60.7551897774,6.2065276812
 C,0,-0.3131477794,59.9886722887,8.1808442818
 C,0,-1.6307697809,61.6773090053,7.6891130941
 H,0,-2.1313346154,62.4362597819,7.1225220934
 N,0,-1.7935018021,61.4660084013,8.9750117624
 C,0,-0.9774257065,60.4172038528,9.294180985
 H,0,-0.9237835063,60.0436976366,10.296468903
 Recover connectivity data from disk.
 Stoichiometry    C34H34FeN6(5)
 Framework group  C1[X(C34H34FeN6)]
 Deg. of freedom   219
 Full point group                 C1      NOp   1
 Largest Abelian subgroup         C1      NOp   1
 Largest concise Abelian subgroup C1      NOp   1
                         Standard orientation:                         
 ---------------------------------------------------------------------
 Center     Atomic      Atomic             Coordinates (Angstroms)
 Number     Number       Type             X           Y           Z
 ---------------------------------------------------------------------
      1         26           0        0.204183   -0.000156   -0.421425
      2          7           0        2.165725    0.317570   -0.512934
      3          7           0       -0.119352    1.977577   -0.303072
      4          7           0       -1.772744   -0.291814   -0.446335
      5          7           0        0.509658   -1.951349   -0.620282
      6          6           0        3.134533   -0.606821   -0.767496
      7          6           0        4.438076    0.015655   -0.814269
      8          6           0        4.221392    1.355652   -0.740638
      9          6           0        2.792074    1.527997   -0.600599
     10          6           0        0.832500    2.951442   -0.242733
     11          6           0        0.232479    4.244096   -0.045235
     12          6           0       -1.120797    4.051660   -0.094527
     13          6           0       -1.315556    2.627045   -0.274256
     14          6           0       -2.750995    0.658070   -0.489307
     15          6           0       -4.047636    0.059439   -0.668132
     16          6           0       -3.838396   -1.291086   -0.756606
     17          6           0       -2.406829   -1.481102   -0.636961
     18          6           0       -0.434696   -2.931812   -0.604539
     19          6           0        0.183758   -4.237773   -0.547607
     20          6           0        1.524100   -4.027263   -0.640936
     21          6           0        1.707460   -2.593945   -0.698015
     22          6           0        2.938168   -1.975128   -0.793914
     23          1           0        3.806746   -2.603932   -0.915617
     24          6           0        2.195556    2.750645   -0.367273
     25          1           0        2.828952    3.624673   -0.359079
     26          6           0       -2.551006    2.016356   -0.321360
     27          1           0       -3.421835    2.649491   -0.261744
     28          6           0       -1.799285   -2.723407   -0.621216
     29          1           0       -2.435991   -3.593912   -0.663863
     30          6           0        5.203062    2.476395   -0.778992
     31          1           0        6.209703    2.102360   -0.948571
     32          1           0        5.196805    3.028603    0.161688
     33          1           0        4.955875    3.171920   -1.580680
     34          6           0        5.719276   -0.727579   -0.976203
     35          1           0        5.719262   -1.292474   -1.908485
     36          1           0        5.859844   -1.430735   -0.155051
     37          1           0        6.564169   -0.043586   -0.989920
     38          6           0        0.979778    5.525158    0.094775
     39          1           0        1.493915    5.772923   -0.834610
     40          1           0        1.727859    5.452042    0.884460
     41          1           0        0.298931    6.338914    0.331672
     42          6           0       -2.146406    5.074135   -0.014757
     43          1           0       -1.978405    5.840288    0.735083
     44          6           0       -3.213013    5.160815   -0.799949
     45          1           0       -3.393916    4.458308   -1.595833
     46          1           0       -3.930927    5.956855   -0.691832
     47          6           0       -5.323113    0.813295   -0.811664
     48          1           0       -5.167163    1.728419   -1.380445
     49          1           0       -5.723811    1.087964    0.165529
     50          1           0       -6.061770    0.203254   -1.327548
     51          6           0       -4.793332   -2.354343   -0.979322
     52          1           0       -4.430768   -3.193254   -1.561980
     53          6           0       -6.043484   -2.375023   -0.528717
     54          1           0       -6.442022   -1.591872    0.092308
     55          1           0       -6.706858   -3.195504   -0.746914
     56          6           0       -0.569028   -5.520640   -0.459763
     57          1           0       -1.165043   -5.677797   -1.359405
     58          1           0       -1.244770   -5.510937    0.395310
     59          1           0        0.111636   -6.361322   -0.350606
     60          6           0        2.637803   -5.016832   -0.659832
     61          1           0        2.254806   -6.031987   -0.590893
     62          1           0        3.316873   -4.846349    0.175882
     63          1           0        3.210061   -4.929230   -1.583514
     64          6           0       -0.403394   -1.589843    4.908142
     65          1           0       -0.949894   -0.927812    5.579754
     66          1           0        0.476174   -1.959545    5.434908
     67          1           0       -1.039495   -2.432889    4.657472
     68          7           0        0.816817    0.214413    3.672853
     69          1           0        1.233234    0.632095    4.488947
     70          6           0       -0.012447   -0.875943    3.666563
     71          6           0        0.971222    0.620977    2.393361
     72          1           0        1.571683    1.457136    2.096912
     73          7           0        0.289275   -0.145631    1.573651
     74          6           0       -0.328978   -1.081645    2.354344
     75          1           0       -0.955343   -1.835299    1.922328
 ---------------------------------------------------------------------
 Rotational constants (GHZ):           0.0965585           0.0935425           0.0600277
 Standard basis: def2TZVP (5D, 7F)
 There are  1696 symmetry adapted cartesian basis functions of A   symmetry.
 There are  1489 symmetry adapted basis functions of A   symmetry.
  1489 basis functions,  2414 primitive gaussians,  1696 cartesian basis functions
   155 alpha electrons      151 beta electrons
       nuclear repulsion energy      5591.8396903245 Hartrees.
 NAtoms=   75 NActive=   75 NUniq=   75 SFac= 1.00D+00 NAtFMM=   60 NAOKFM=T Big=T
 Integral buffers will be    131072 words long.
 Raffenetti 2 integral format.
 Two-electron integral symmetry is turned on.
 R6APFD:  NTU= -4 IXU= 1 FactS= 1.050
 Nuclear repulsion after empirical dispersion term =     5591.7050875285 Hartrees.
 One-electron integrals computed using PRISM.
   1 Symmetry operations used in ECPInt.
 ECPInt:  NShTT=  174936 NPrTT=  542361 LenC2=  137943 LenP2D=  283321.
 LDataN:  DoStor=T MaxTD1= 6 Len=  172
 Number of processors reduced to  23 by ecpmxn.
 NBasis=  1489 RedAO= T EigKep=  3.41D-06  NBF=  1489
 NBsUse=  1489 1.00D-06 EigRej= -1.00D+00 NBFU=  1489
 Initial guess from the checkpoint file:  "5aog_II_Qn.chk"
 B after Tr=    -0.000000    0.000000   -0.000000
         Rot=    1.000000   -0.000000    0.000000    0.000000 Ang=   0.00 deg.
 Initial guess <Sx>= 0.0000 <Sy>= 0.0000 <Sz>= 2.0000 <S**2>= 6.0658 S= 2.0131
 Requested convergence on RMS density matrix=1.00D-08 within 999 cycles.
 Requested convergence on MAX density matrix=1.00D-06.
 Requested convergence on             energy=1.00D-06.
 No special actions if energy rises.
 Restarting incremental Fock formation.
 Restarting incremental Fock formation.
 SCF Done:  E(UAPFD) =  -2907.56805347     A.U. after   57 cycles
            NFock= 57  Conv=0.23D-08     -V/T= 2.0033
 <Sx>= 0.0000 <Sy>= 0.0000 <Sz>= 2.0000 <S**2>= 6.0661 S= 2.0132
 <L.S>=  0.00000000000    
 Annihilation of the first spin contaminant:
 S**2 before annihilation     6.0661,   after     6.0012

 **********************************************************************

            Population analysis using the SCF Density.

 **********************************************************************

 Orbital symmetries:
 Alpha Orbitals:
       Occupied  (A) (A) (A) (A) (A) (A) (A) (A) (A) (A) (A) (A)
                 (A) (A) (A) (A) (A) (A) (A) (A) (A) (A) (A) (A)
                 (A) (A) (A) (A) (A) (A) (A) (A) (A) (A) (A) (A)
                 (A) (A) (A) (A) (A) (A) (A) (A) (A) (A) (A) (A)
                 (A) (A) (A) (A) (A) (A) (A) (A) (A) (A) (A) (A)
                 (A) (A) (A) (A) (A) (A) (A) (A) (A) (A) (A) (A)
                 (A) (A) (A) (A) (A) (A) (A) (A) (A) (A) (A) (A)
                 (A) (A) (A) (A) (A) (A) (A) (A) (A) (A) (A) (A)
                 (A) (A) (A) (A) (A) (A) (A) (A) (A) (A) (A) (A)
                 (A) (A) (A) (A) (A) (A) (A) (A) (A) (A) (A) (A)
                 (A) (A) (A) (A) (A) (A) (A) (A) (A) (A) (A) (A)
                 (A) (A) (A) (A) (A) (A) (A) (A) (A) (A) (A) (A)
                 (A) (A) (A) (A) (A) (A) (A) (A) (A) (A) (A)
       Virtual   (A) (A) (A) (A) (A) (A) (A) (A) (A) (A) (A) (A)
                 (A) (A) (A) (A) (A) (A) (A) (A) (A) (A) (A) (A)
                 (A) (A) (A) (A) (A) (A) (A) (A) (A) (A) (A) (A)
                 (A) (A) (A) (A) (A) (A) (A) (A) (A) (A) (A) (A)
                 (A) (A) (A) (A) (A) (A) (A) (A) (A) (A) (A) (A)
                 (A) (A) (A) (A) (A) (A) (A) (A) (A) (A) (A) (A)
                 (A) (A) (A) (A) (A) (A) (A) (A) (A) (A) (A) (A)
                 (A) (A) (A) (A) (A) (A) (A) (A) (A) (A) (A) (A)
                 (A) (A) (A) (A) (A) (A) (A) (A) (A) (A) (A) (A)
                 (A) (A) (A) (A) (A) (A) (A) (A) (A) (A) (A) (A)
                 (A) (A) (A) (A) (A) (A) (A) (A) (A) (A) (A) (A)
                 (A) (A) (A) (A) (A) (A) (A) (A) (A) (A) (A) (A)
                 (A) (A) (A) (A) (A) (A) (A) (A) (A) (A) (A) (A)
                 (A) (A) (A) (A) (A) (A) (A) (A) (A) (A) (A) (A)
                 (A) (A) (A) (A) (A) (A) (A) (A) (A) (A) (A) (A)
                 (A) (A) (A) (A) (A) (A) (A) (A) (A) (A) (A) (A)
                 (A) (A) (A) (A) (A) (A) (A) (A) (A) (A) (A) (A)
                 (A) (A) (A) (A) (A) (A) (A) (A) (A) (A) (A) (A)
                 (A) (A) (A) (A) (A) (A) (A) (A) (A) (A) (A) (A)
                 (A) (A) (A) (A) (A) (A) (A) (A) (A) (A) (A) (A)
                 (A) (A) (A) (A) (A) (A) (A) (A) (A) (A) (A) (A)
                 (A) (A) (A) (A) (A) (A) (A) (A) (A) (A) (A) (A)
                 (A) (A) (A) (A) (A) (A) (A) (A) (A) (A) (A) (A)
                 (A) (A) (A) (A) (A) (A) (A) (A) (A) (A) (A) (A)
                 (A) (A) (A) (A) (A) (A) (A) (A) (A) (A) (A) (A)
                 (A) (A) (A) (A) (A) (A) (A) (A) (A) (A) (A) (A)
                 (A) (A) (A) (A) (A) (A) (A) (A) (A) (A) (A) (A)
                 (A) (A) (A) (A) (A) (A) (A) (A) (A) (A) (A) (A)
                 (A) (A) (A) (A) (A) (A) (A) (A) (A) (A) (A) (A)
                 (A) (A) (A) (A) (A) (A) (A) (A) (A) (A) (A) (A)
                 (A) (A) (A) (A) (A) (A) (A) (A) (A) (A) (A) (A)
                 (A) (A) (A) (A) (A) (A) (A) (A) (A) (A) (A) (A)
                 (A) (A) (A) (A) (A) (A) (A) (A) (A) (A) (A) (A)
                 (A) (A) (A) (A) (A) (A) (A) (A) (A) (A) (A) (A)
                 (A) (A) (A) (A) (A) (A) (A) (A) (A) (A) (A) (A)
                 (A) (A) (A) (A) (A) (A) (A) (A) (A) (A) (A) (A)
                 (A) (A) (A) (A) (A) (A) (A) (A) (A) (A) (A) (A)
                 (A) (A) (A) (A) (A) (A) (A) (A) (A) (A) (A) (A)
                 (A) (A) (A) (A) (A) (A) (A) (A) (A) (A) (A) (A)
                 (A) (A) (A) (A) (A) (A) (A) (A) (A) (A) (A) (A)
                 (A) (A) (A) (A) (A) (A) (A) (A) (A) (A) (A) (A)
                 (A) (A) (A) (A) (A) (A) (A) (A) (A) (A) (A) (A)
                 (A) (A) (A) (A) (A) (A) (A) (A) (A) (A) (A) (A)
                 (A) (A) (A) (A) (A) (A) (A) (A) (A) (A) (A) (A)
                 (A) (A) (A) (A) (A) (A) (A) (A) (A) (A) (A) (A)
                 (A) (A) (A) (A) (A) (A) (A) (A) (A) (A) (A) (A)
                 (A) (A) (A) (A) (A) (A) (A) (A) (A) (A) (A) (A)
                 (A) (A) (A) (A) (A) (A) (A) (A) (A) (A) (A) (A)
                 (A) (A) (A) (A) (A) (A) (A) (A) (A) (A) (A) (A)
                 (A) (A) (A) (A) (A) (A) (A) (A) (A) (A) (A) (A)
                 (A) (A) (A) (A) (A) (A) (A) (A) (A) (A) (A) (A)
                 (A) (A) (A) (A) (A) (A) (A) (A) (A) (A) (A) (A)
                 (A) (A) (A) (A) (A) (A) (A) (A) (A) (A) (A) (A)
                 (A) (A) (A) (A) (A) (A) (A) (A) (A) (A) (A) (A)
                 (A) (A) (A) (A) (A) (A) (A) (A) (A) (A) (A) (A)
                 (A) (A) (A) (A) (A) (A) (A) (A) (A) (A) (A) (A)
                 (A) (A) (A) (A) (A) (A) (A) (A) (A) (A) (A) (A)
                 (A) (A) (A) (A) (A) (A) (A) (A) (A) (A) (A) (A)
                 (A) (A) (A) (A) (A) (A) (A) (A) (A) (A) (A) (A)
                 (A) (A) (A) (A) (A) (A) (A) (A) (A) (A) (A) (A)
                 (A) (A) (A) (A) (A) (A) (A) (A) (A) (A) (A) (A)
                 (A) (A) (A) (A) (A) (A) (A) (A) (A) (A) (A) (A)
                 (A) (A) (A) (A) (A) (A) (A) (A) (A) (A) (A) (A)
                 (A) (A) (A) (A) (A) (A) (A) (A) (A) (A) (A) (A)
                 (A) (A) (A) (A) (A) (A) (A) (A) (A) (A) (A) (A)
                 (A) (A) (A) (A) (A) (A) (A) (A) (A) (A) (A) (A)
                 (A) (A) (A) (A) (A) (A) (A) (A) (A) (A) (A) (A)
                 (A) (A) (A) (A) (A) (A) (A) (A) (A) (A) (A) (A)
                 (A) (A) (A) (A) (A) (A) (A) (A) (A) (A) (A) (A)
                 (A) (A) (A) (A) (A) (A) (A) (A) (A) (A) (A) (A)
                 (A) (A) (A) (A) (A) (A) (A) (A) (A) (A) (A) (A)
                 (A) (A) (A) (A) (A) (A) (A) (A) (A) (A) (A) (A)
                 (A) (A) (A) (A) (A) (A) (A) (A) (A) (A) (A) (A)
                 (A) (A) (A) (A) (A) (A) (A) (A) (A) (A) (A) (A)
                 (A) (A) (A) (A) (A) (A) (A) (A) (A) (A) (A) (A)
                 (A) (A) (A) (A) (A) (A) (A) (A) (A) (A) (A) (A)
                 (A) (A) (A) (A) (A) (A) (A) (A) (A) (A) (A) (A)
                 (A) (A) (A) (A) (A) (A) (A) (A) (A) (A) (A) (A)
                 (A) (A) (A) (A) (A) (A) (A) (A) (A) (A) (A) (A)
                 (A) (A) (A) (A) (A) (A) (A) (A) (A) (A) (A) (A)
                 (A) (A) (A) (A) (A) (A) (A) (A) (A) (A) (A) (A)
                 (A) (A) (A) (A) (A) (A) (A) (A) (A) (A) (A) (A)
                 (A) (A) (A) (A) (A) (A) (A) (A) (A) (A) (A) (A)
                 (A) (A) (A) (A) (A) (A) (A) (A) (A) (A) (A) (A)
                 (A) (A) (A) (A) (A) (A) (A) (A) (A) (A) (A) (A)
                 (A) (A) (A) (A) (A) (A) (A) (A) (A) (A) (A) (A)
                 (A) (A) (A) (A) (A) (A) (A) (A) (A) (A) (A) (A)
                 (A) (A) (A) (A) (A) (A) (A) (A) (A) (A) (A) (A)
                 (A) (A) (A) (A) (A) (A) (A) (A) (A) (A) (A) (A)
                 (A) (A) (A) (A) (A) (A) (A) (A) (A) (A) (A) (A)
                 (A) (A) (A) (A) (A) (A) (A) (A) (A) (A) (A) (A)
                 (A) (A) (A) (A) (A) (A) (A) (A) (A) (A) (A) (A)
                 (A) (A) (A) (A) (A) (A) (A) (A) (A) (A) (A) (A)
                 (A) (A) (A) (A) (A) (A) (A) (A) (A) (A) (A) (A)
                 (A) (A) (A) (A) (A) (A) (A) (A) (A) (A) (A) (A)
                 (A) (A) (A) (A) (A) (A) (A) (A) (A) (A) (A) (A)
                 (A) (A) (A) (A) (A) (A) (A) (A) (A) (A) (A) (A)
                 (A) (A) (A) (A) (A) (A) (A) (A) (A) (A) (A) (A)
                 (A) (A) (A) (A) (A) (A) (A) (A) (A) (A) (A) (A)
                 (A) (A) (A) (A) (A) (A) (A) (A) (A) (A) (A) (A)
                 (A) (A) (A) (A) (A) (A) (A) (A) (A) (A) (A) (A)
                 (A) (A) (A) (A) (A) (A) (A) (A) (A) (A) (A) (A)
                 (A) (A) (A) (A) (A) (A) (A) (A) (A) (A) (A) (A)
                 (A) (A) (A) (A) (A) (A) (A) (A) (A) (A) (A) (A)
                 (A) (A) (A) (A) (A) (A) (A) (A) (A) (A) (A) (A)
                 (A) (A) (A) (A) (A) (A) (A) (A) (A) (A) (A) (A)
                 (A) (A) (A) (A) (A) (A) (A) (A) (A) (A) (A) (A)
                 (A) (A) (A) (A) (A) (A) (A) (A) (A) (A) (A) (A)
                 (A) (A) (A) (A) (A) (A) (A) (A) (A) (A) (A) (A)
                 (A) (A) (A) (A) (A) (A) (A) (A) (A) (A) (A) (A)
                 (A) (A) (A) (A) (A) (A) (A) (A) (A) (A) (A) (A)
                 (A) (A)
 Beta  Orbitals:
       Occupied  (A) (A) (A) (A) (A) (A) (A) (A) (A) (A) (A) (A)
                 (A) (A) (A) (A) (A) (A) (A) (A) (A) (A) (A) (A)
                 (A) (A) (A) (A) (A) (A) (A) (A) (A) (A) (A) (A)
                 (A) (A) (A) (A) (A) (A) (A) (A) (A) (A) (A) (A)
                 (A) (A) (A) (A) (A) (A) (A) (A) (A) (A) (A) (A)
                 (A) (A) (A) (A) (A) (A) (A) (A) (A) (A) (A) (A)
                 (A) (A) (A) (A) (A) (A) (A) (A) (A) (A) (A) (A)
                 (A) (A) (A) (A) (A) (A) (A) (A) (A) (A) (A) (A)
                 (A) (A) (A) (A) (A) (A) (A) (A) (A) (A) (A) (A)
                 (A) (A) (A) (A) (A) (A) (A) (A) (A) (A) (A) (A)
                 (A) (A) (A) (A) (A) (A) (A) (A) (A) (A) (A) (A)
                 (A) (A) (A) (A) (A) (A) (A) (A) (A) (A) (A) (A)
                 (A) (A) (A) (A) (A) (A) (A)
       Virtual   (A) (A) (A) (A) (A) (A) (A) (A) (A) (A) (A) (A)
                 (A) (A) (A) (A) (A) (A) (A) (A) (A) (A) (A) (A)
                 (A) (A) (A) (A) (A) (A) (A) (A) (A) (A) (A) (A)
                 (A) (A) (A) (A) (A) (A) (A) (A) (A) (A) (A) (A)
                 (A) (A) (A) (A) (A) (A) (A) (A) (A) (A) (A) (A)
                 (A) (A) (A) (A) (A) (A) (A) (A) (A) (A) (A) (A)
                 (A) (A) (A) (A) (A) (A) (A) (A) (A) (A) (A) (A)
                 (A) (A) (A) (A) (A) (A) (A) (A) (A) (A) (A) (A)
                 (A) (A) (A) (A) (A) (A) (A) (A) (A) (A) (A) (A)
                 (A) (A) (A) (A) (A) (A) (A) (A) (A) (A) (A) (A)
                 (A) (A) (A) (A) (A) (A) (A) (A) (A) (A) (A) (A)
                 (A) (A) (A) (A) (A) (A) (A) (A) (A) (A) (A) (A)
                 (A) (A) (A) (A) (A) (A) (A) (A) (A) (A) (A) (A)
                 (A) (A) (A) (A) (A) (A) (A) (A) (A) (A) (A) (A)
                 (A) (A) (A) (A) (A) (A) (A) (A) (A) (A) (A) (A)
                 (A) (A) (A) (A) (A) (A) (A) (A) (A) (A) (A) (A)
                 (A) (A) (A) (A) (A) (A) (A) (A) (A) (A) (A) (A)
                 (A) (A) (A) (A) (A) (A) (A) (A) (A) (A) (A) (A)
                 (A) (A) (A) (A) (A) (A) (A) (A) (A) (A) (A) (A)
                 (A) (A) (A) (A) (A) (A) (A) (A) (A) (A) (A) (A)
                 (A) (A) (A) (A) (A) (A) (A) (A) (A) (A) (A) (A)
                 (A) (A) (A) (A) (A) (A) (A) (A) (A) (A) (A) (A)
                 (A) (A) (A) (A) (A) (A) (A) (A) (A) (A) (A) (A)
                 (A) (A) (A) (A) (A) (A) (A) (A) (A) (A) (A) (A)
                 (A) (A) (A) (A) (A) (A) (A) (A) (A) (A) (A) (A)
                 (A) (A) (A) (A) (A) (A) (A) (A) (A) (A) (A) (A)
                 (A) (A) (A) (A) (A) (A) (A) (A) (A) (A) (A) (A)
                 (A) (A) (A) (A) (A) (A) (A) (A) (A) (A) (A) (A)
                 (A) (A) (A) (A) (A) (A) (A) (A) (A) (A) (A) (A)
                 (A) (A) (A) (A) (A) (A) (A) (A) (A) (A) (A) (A)
                 (A) (A) (A) (A) (A) (A) (A) (A) (A) (A) (A) (A)
                 (A) (A) (A) (A) (A) (A) (A) (A) (A) (A) (A) (A)
                 (A) (A) (A) (A) (A) (A) (A) (A) (A) (A) (A) (A)
                 (A) (A) (A) (A) (A) (A) (A) (A) (A) (A) (A) (A)
                 (A) (A) (A) (A) (A) (A) (A) (A) (A) (A) (A) (A)
                 (A) (A) (A) (A) (A) (A) (A) (A) (A) (A) (A) (A)
                 (A) (A) (A) (A) (A) (A) (A) (A) (A) (A) (A) (A)
                 (A) (A) (A) (A) (A) (A) (A) (A) (A) (A) (A) (A)
                 (A) (A) (A) (A) (A) (A) (A) (A) (A) (A) (A) (A)
                 (A) (A) (A) (A) (A) (A) (A) (A) (A) (A) (A) (A)
                 (A) (A) (A) (A) (A) (A) (A) (A) (A) (A) (A) (A)
                 (A) (A) (A) (A) (A) (A) (A) (A) (A) (A) (A) (A)
                 (A) (A) (A) (A) (A) (A) (A) (A) (A) (A) (A) (A)
                 (A) (A) (A) (A) (A) (A) (A) (A) (A) (A) (A) (A)
                 (A) (A) (A) (A) (A) (A) (A) (A) (A) (A) (A) (A)
                 (A) (A) (A) (A) (A) (A) (A) (A) (A) (A) (A) (A)
                 (A) (A) (A) (A) (A) (A) (A) (A) (A) (A) (A) (A)
                 (A) (A) (A) (A) (A) (A) (A) (A) (A) (A) (A) (A)
                 (A) (A) (A) (A) (A) (A) (A) (A) (A) (A) (A) (A)
                 (A) (A) (A) (A) (A) (A) (A) (A) (A) (A) (A) (A)
                 (A) (A) (A) (A) (A) (A) (A) (A) (A) (A) (A) (A)
                 (A) (A) (A) (A) (A) (A) (A) (A) (A) (A) (A) (A)
                 (A) (A) (A) (A) (A) (A) (A) (A) (A) (A) (A) (A)
                 (A) (A) (A) (A) (A) (A) (A) (A) (A) (A) (A) (A)
                 (A) (A) (A) (A) (A) (A) (A) (A) (A) (A) (A) (A)
                 (A) (A) (A) (A) (A) (A) (A) (A) (A) (A) (A) (A)
                 (A) (A) (A) (A) (A) (A) (A) (A) (A) (A) (A) (A)
                 (A) (A) (A) (A) (A) (A) (A) (A) (A) (A) (A) (A)
                 (A) (A) (A) (A) (A) (A) (A) (A) (A) (A) (A) (A)
                 (A) (A) (A) (A) (A) (A) (A) (A) (A) (A) (A) (A)
                 (A) (A) (A) (A) (A) (A) (A) (A) (A) (A) (A) (A)
                 (A) (A) (A) (A) (A) (A) (A) (A) (A) (A) (A) (A)
                 (A) (A) (A) (A) (A) (A) (A) (A) (A) (A) (A) (A)
                 (A) (A) (A) (A) (A) (A) (A) (A) (A) (A) (A) (A)
                 (A) (A) (A) (A) (A) (A) (A) (A) (A) (A) (A) (A)
                 (A) (A) (A) (A) (A) (A) (A) (A) (A) (A) (A) (A)
                 (A) (A) (A) (A) (A) (A) (A) (A) (A) (A) (A) (A)
                 (A) (A) (A) (A) (A) (A) (A) (A) (A) (A) (A) (A)
                 (A) (A) (A) (A) (A) (A) (A) (A) (A) (A) (A) (A)
                 (A) (A) (A) (A) (A) (A) (A) (A) (A) (A) (A) (A)
                 (A) (A) (A) (A) (A) (A) (A) (A) (A) (A) (A) (A)
                 (A) (A) (A) (A) (A) (A) (A) (A) (A) (A) (A) (A)
                 (A) (A) (A) (A) (A) (A) (A) (A) (A) (A) (A) (A)
                 (A) (A) (A) (A) (A) (A) (A) (A) (A) (A) (A) (A)
                 (A) (A) (A) (A) (A) (A) (A) (A) (A) (A) (A) (A)
                 (A) (A) (A) (A) (A) (A) (A) (A) (A) (A) (A) (A)
                 (A) (A) (A) (A) (A) (A) (A) (A) (A) (A) (A) (A)
                 (A) (A) (A) (A) (A) (A) (A) (A) (A) (A) (A) (A)
                 (A) (A) (A) (A) (A) (A) (A) (A) (A) (A) (A) (A)
                 (A) (A) (A) (A) (A) (A) (A) (A) (A) (A) (A) (A)
                 (A) (A) (A) (A) (A) (A) (A) (A) (A) (A) (A) (A)
                 (A) (A) (A) (A) (A) (A) (A) (A) (A) (A) (A) (A)
                 (A) (A) (A) (A) (A) (A) (A) (A) (A) (A) (A) (A)
                 (A) (A) (A) (A) (A) (A) (A) (A) (A) (A) (A) (A)
                 (A) (A) (A) (A) (A) (A) (A) (A) (A) (A) (A) (A)
                 (A) (A) (A) (A) (A) (A) (A) (A) (A) (A) (A) (A)
                 (A) (A) (A) (A) (A) (A) (A) (A) (A) (A) (A) (A)
                 (A) (A) (A) (A) (A) (A) (A) (A) (A) (A) (A) (A)
                 (A) (A) (A) (A) (A) (A) (A) (A) (A) (A) (A) (A)
                 (A) (A) (A) (A) (A) (A) (A) (A) (A) (A) (A) (A)
                 (A) (A) (A) (A) (A) (A) (A) (A) (A) (A) (A) (A)
                 (A) (A) (A) (A) (A) (A) (A) (A) (A) (A) (A) (A)
                 (A) (A) (A) (A) (A) (A) (A) (A) (A) (A) (A) (A)
                 (A) (A) (A) (A) (A) (A) (A) (A) (A) (A) (A) (A)
                 (A) (A) (A) (A) (A) (A) (A) (A) (A) (A) (A) (A)
                 (A) (A) (A) (A) (A) (A) (A) (A) (A) (A) (A) (A)
                 (A) (A) (A) (A) (A) (A) (A) (A) (A) (A) (A) (A)
                 (A) (A) (A) (A) (A) (A) (A) (A) (A) (A) (A) (A)
                 (A) (A) (A) (A) (A) (A) (A) (A) (A) (A) (A) (A)
                 (A) (A) (A) (A) (A) (A) (A) (A) (A) (A) (A) (A)
                 (A) (A) (A) (A) (A) (A) (A) (A) (A) (A) (A) (A)
                 (A) (A) (A) (A) (A) (A) (A) (A) (A) (A) (A) (A)
                 (A) (A) (A) (A) (A) (A) (A) (A) (A) (A) (A) (A)
                 (A) (A) (A) (A) (A) (A) (A) (A) (A) (A) (A) (A)
                 (A) (A) (A) (A) (A) (A) (A) (A) (A) (A) (A) (A)
                 (A) (A) (A) (A) (A) (A) (A) (A) (A) (A) (A) (A)
                 (A) (A) (A) (A) (A) (A) (A) (A) (A) (A) (A) (A)
                 (A) (A) (A) (A) (A) (A) (A) (A) (A) (A) (A) (A)
                 (A) (A) (A) (A) (A) (A) (A) (A) (A) (A) (A) (A)
                 (A) (A) (A) (A) (A) (A) (A) (A) (A) (A) (A) (A)
                 (A) (A) (A) (A) (A) (A) (A) (A) (A) (A) (A) (A)
                 (A) (A) (A) (A) (A) (A)
 The electronic state is 5-A.
 Alpha  occ. eigenvalues -- -256.28810 -30.17652 -26.02526 -26.00145 -26.00126
 Alpha  occ. eigenvalues --  -14.43484 -14.38012 -14.35047 -14.35042 -14.34575
 Alpha  occ. eigenvalues --  -14.34554 -10.27598 -10.25253 -10.22524 -10.22118
 Alpha  occ. eigenvalues --  -10.21572 -10.21480 -10.21388 -10.21306 -10.21049
 Alpha  occ. eigenvalues --  -10.20857 -10.20609 -10.20590 -10.19848 -10.19477
 Alpha  occ. eigenvalues --  -10.19379 -10.19270 -10.19111 -10.19103 -10.19090
 Alpha  occ. eigenvalues --  -10.18936 -10.18533 -10.18452 -10.18369 -10.18329
 Alpha  occ. eigenvalues --  -10.18313 -10.18312 -10.18245 -10.18114 -10.18096
 Alpha  occ. eigenvalues --  -10.18022 -10.17897 -10.17527 -10.17352 -10.17008
 Alpha  occ. eigenvalues --   -3.59726  -2.40184  -2.34041  -2.33994  -1.07166
 Alpha  occ. eigenvalues --   -0.97775  -0.96864  -0.96586  -0.95744  -0.92938
 Alpha  occ. eigenvalues --   -0.82432  -0.82170  -0.81731  -0.81507  -0.81234
 Alpha  occ. eigenvalues --   -0.80619  -0.79795  -0.79578  -0.76921  -0.75789
 Alpha  occ. eigenvalues --   -0.74427  -0.73916  -0.73296  -0.73187  -0.71050
 Alpha  occ. eigenvalues --   -0.70022  -0.68833  -0.68148  -0.67974  -0.66526
 Alpha  occ. eigenvalues --   -0.64424  -0.64041  -0.62999  -0.60734  -0.60372
 Alpha  occ. eigenvalues --   -0.57761  -0.57550  -0.57019  -0.54604  -0.54235
 Alpha  occ. eigenvalues --   -0.53823  -0.52820  -0.51671  -0.51123  -0.50434
 Alpha  occ. eigenvalues --   -0.49656  -0.49166  -0.48981  -0.47938  -0.47655
 Alpha  occ. eigenvalues --   -0.46160  -0.45664  -0.45454  -0.45278  -0.44989
 Alpha  occ. eigenvalues --   -0.44693  -0.44449  -0.44063  -0.43709  -0.43583
 Alpha  occ. eigenvalues --   -0.43388  -0.43316  -0.43011  -0.42871  -0.42194
 Alpha  occ. eigenvalues --   -0.41768  -0.41665  -0.41278  -0.41273  -0.41074
 Alpha  occ. eigenvalues --   -0.40912  -0.40639  -0.40426  -0.40316  -0.40198
 Alpha  occ. eigenvalues --   -0.39575  -0.38812  -0.38769  -0.38568  -0.38435
 Alpha  occ. eigenvalues --   -0.37885  -0.37830  -0.37510  -0.37348  -0.37125
 Alpha  occ. eigenvalues --   -0.36935  -0.36568  -0.36088  -0.34637  -0.34500
 Alpha  occ. eigenvalues --   -0.33644  -0.33355  -0.32935  -0.32431  -0.31976
 Alpha  occ. eigenvalues --   -0.31100  -0.30892  -0.29869  -0.29121  -0.27599
 Alpha  occ. eigenvalues --   -0.27092  -0.26926  -0.25562  -0.23925  -0.23165
 Alpha  occ. eigenvalues --   -0.22765  -0.22279  -0.19592  -0.18714  -0.10576
 Alpha virt. eigenvalues --   -0.08088  -0.07092  -0.02557  -0.00314   0.00456
 Alpha virt. eigenvalues --    0.01656   0.01831   0.03415   0.03642   0.04500
 Alpha virt. eigenvalues --    0.04723   0.05168   0.05718   0.05804   0.06368
 Alpha virt. eigenvalues --    0.07044   0.07233   0.07358   0.08430   0.08566
 Alpha virt. eigenvalues --    0.08708   0.09036   0.09930   0.10047   0.10128
 Alpha virt. eigenvalues --    0.10559   0.10805   0.11107   0.11315   0.11399
 Alpha virt. eigenvalues --    0.11501   0.11995   0.12263   0.12543   0.12567
 Alpha virt. eigenvalues --    0.13138   0.13247   0.13474   0.13580   0.13690
 Alpha virt. eigenvalues --    0.13820   0.14109   0.14697   0.15083   0.15092
 Alpha virt. eigenvalues --    0.15290   0.15642   0.15683   0.15811   0.15952
 Alpha virt. eigenvalues --    0.16250   0.16476   0.16964   0.16993   0.17300
 Alpha virt. eigenvalues --    0.17616   0.17778   0.17897   0.18021   0.18318
 Alpha virt. eigenvalues --    0.18777   0.19073   0.19158   0.19941   0.20103
 Alpha virt. eigenvalues --    0.20235   0.20367   0.20676   0.21002   0.21129
 Alpha virt. eigenvalues --    0.21392   0.21755   0.22026   0.22377   0.22599
 Alpha virt. eigenvalues --    0.22848   0.22982   0.23497   0.23617   0.24267
 Alpha virt. eigenvalues --    0.24648   0.25056   0.25264   0.25488   0.25875
 Alpha virt. eigenvalues --    0.26093   0.26348   0.26538   0.27008   0.27115
 Alpha virt. eigenvalues --    0.27366   0.27793   0.28136   0.28322   0.28591
 Alpha virt. eigenvalues --    0.28788   0.28939   0.29008   0.29167   0.29662
 Alpha virt. eigenvalues --    0.29747   0.30219   0.30523   0.30965   0.31127
 Alpha virt. eigenvalues --    0.31289   0.31708   0.32066   0.32162   0.32452
 Alpha virt. eigenvalues --    0.32935   0.33027   0.33116   0.33578   0.33812
 Alpha virt. eigenvalues --    0.34296   0.34627   0.34848   0.35215   0.35527
 Alpha virt. eigenvalues --    0.35623   0.35958   0.36442   0.36779   0.36906
 Alpha virt. eigenvalues --    0.37050   0.37198   0.37368   0.37799   0.38167
 Alpha virt. eigenvalues --    0.38435   0.38798   0.39120   0.39317   0.39600
 Alpha virt. eigenvalues --    0.39812   0.39926   0.40130   0.40488   0.40579
 Alpha virt. eigenvalues --    0.40744   0.41141   0.41355   0.41482   0.41887
 Alpha virt. eigenvalues --    0.42156   0.42227   0.42532   0.42803   0.42915
 Alpha virt. eigenvalues --    0.43101   0.43311   0.43434   0.43729   0.43926
 Alpha virt. eigenvalues --    0.44083   0.44223   0.44353   0.44603   0.45097
 Alpha virt. eigenvalues --    0.45173   0.45295   0.45827   0.45993   0.46416
 Alpha virt. eigenvalues --    0.46599   0.46666   0.46844   0.46966   0.47121
 Alpha virt. eigenvalues --    0.47240   0.47627   0.47703   0.48065   0.48223
 Alpha virt. eigenvalues --    0.48592   0.48632   0.48781   0.48951   0.49241
 Alpha virt. eigenvalues --    0.49483   0.49612   0.49861   0.50058   0.50172
 Alpha virt. eigenvalues --    0.50409   0.50881   0.51002   0.51417   0.51511
 Alpha virt. eigenvalues --    0.51870   0.51925   0.52431   0.52616   0.52983
 Alpha virt. eigenvalues --    0.53219   0.53377   0.53528   0.53702   0.53887
 Alpha virt. eigenvalues --    0.54066   0.54318   0.54620   0.55156   0.55258
 Alpha virt. eigenvalues --    0.55700   0.56106   0.56350   0.56555   0.56909
 Alpha virt. eigenvalues --    0.57112   0.57332   0.57601   0.57997   0.58302
 Alpha virt. eigenvalues --    0.58355   0.58796   0.58916   0.59302   0.59848
 Alpha virt. eigenvalues --    0.60010   0.60211   0.60661   0.60931   0.61214
 Alpha virt. eigenvalues --    0.61674   0.62262   0.62421   0.62756   0.63354
 Alpha virt. eigenvalues --    0.63657   0.63975   0.64131   0.64435   0.64534
 Alpha virt. eigenvalues --    0.64848   0.64996   0.65651   0.65924   0.66260
 Alpha virt. eigenvalues --    0.66554   0.66890   0.67178   0.67704   0.67945
 Alpha virt. eigenvalues --    0.68343   0.68616   0.69489   0.69670   0.69833
 Alpha virt. eigenvalues --    0.70309   0.70462   0.70566   0.70631   0.71125
 Alpha virt. eigenvalues --    0.71233   0.71727   0.72170   0.72434   0.72518
 Alpha virt. eigenvalues --    0.72695   0.73067   0.73442   0.73955   0.74197
 Alpha virt. eigenvalues --    0.74309   0.74632   0.74853   0.75254   0.75693
 Alpha virt. eigenvalues --    0.75949   0.76289   0.76480   0.76865   0.77394
 Alpha virt. eigenvalues --    0.77679   0.77843   0.78136   0.78661   0.79114
 Alpha virt. eigenvalues --    0.79400   0.79874   0.80587   0.80839   0.80998
 Alpha virt. eigenvalues --    0.81497   0.82185   0.82304   0.82799   0.83267
 Alpha virt. eigenvalues --    0.83951   0.84122   0.84427   0.84774   0.85110
 Alpha virt. eigenvalues --    0.85793   0.86074   0.86153   0.86798   0.86909
 Alpha virt. eigenvalues --    0.87074   0.87606   0.87839   0.88353   0.88408
 Alpha virt. eigenvalues --    0.88801   0.89539   0.90279   0.90464   0.90998
 Alpha virt. eigenvalues --    0.91594   0.91746   0.92203   0.92532   0.92951
 Alpha virt. eigenvalues --    0.93196   0.93490   0.94249   0.94413   0.94795
 Alpha virt. eigenvalues --    0.95003   0.95179   0.95576   0.95942   0.96295
 Alpha virt. eigenvalues --    0.96380   0.96835   0.97258   0.97668   0.98132
 Alpha virt. eigenvalues --    0.98497   0.98688   0.99054   0.99219   1.00027
 Alpha virt. eigenvalues --    1.00336   1.00548   1.00751   1.01321   1.01501
 Alpha virt. eigenvalues --    1.01994   1.02444   1.02633   1.02846   1.03065
 Alpha virt. eigenvalues --    1.03646   1.03923   1.04122   1.04375   1.04605
 Alpha virt. eigenvalues --    1.04964   1.05405   1.05545   1.06095   1.06194
 Alpha virt. eigenvalues --    1.06802   1.07563   1.07813   1.08126   1.08393
 Alpha virt. eigenvalues --    1.08930   1.09164   1.09533   1.09832   1.10200
 Alpha virt. eigenvalues --    1.10607   1.11000   1.11495   1.12223   1.12397
 Alpha virt. eigenvalues --    1.12731   1.13212   1.13307   1.14128   1.14867
 Alpha virt. eigenvalues --    1.15064   1.15670   1.15873   1.16129   1.16991
 Alpha virt. eigenvalues --    1.17416   1.17869   1.18276   1.18558   1.18672
 Alpha virt. eigenvalues --    1.19187   1.19848   1.20526   1.20939   1.21054
 Alpha virt. eigenvalues --    1.21696   1.22192   1.22256   1.22764   1.23720
 Alpha virt. eigenvalues --    1.24014   1.24458   1.24632   1.25279   1.26023
 Alpha virt. eigenvalues --    1.26177   1.26645   1.27068   1.27096   1.27608
 Alpha virt. eigenvalues --    1.27652   1.28302   1.28479   1.28792   1.29243
 Alpha virt. eigenvalues --    1.29465   1.30142   1.30435   1.30600   1.30917
 Alpha virt. eigenvalues --    1.31519   1.31779   1.32406   1.33130   1.33621
 Alpha virt. eigenvalues --    1.33982   1.34983   1.35841   1.36002   1.36379
 Alpha virt. eigenvalues --    1.37951   1.38114   1.38466   1.38735   1.39183
 Alpha virt. eigenvalues --    1.40022   1.40539   1.41119   1.41383   1.41910
 Alpha virt. eigenvalues --    1.42564   1.42918   1.43440   1.43765   1.44557
 Alpha virt. eigenvalues --    1.45174   1.45660   1.46060   1.46150   1.46462
 Alpha virt. eigenvalues --    1.47330   1.47808   1.48251   1.48412   1.49002
 Alpha virt. eigenvalues --    1.49335   1.49699   1.49951   1.50236   1.50542
 Alpha virt. eigenvalues --    1.50770   1.50937   1.51138   1.51628   1.51845
 Alpha virt. eigenvalues --    1.52045   1.52417   1.52551   1.52829   1.53125
 Alpha virt. eigenvalues --    1.53608   1.54042   1.54375   1.54563   1.54632
 Alpha virt. eigenvalues --    1.54850   1.54962   1.55226   1.55772   1.56037
 Alpha virt. eigenvalues --    1.56153   1.56423   1.56622   1.56915   1.57096
 Alpha virt. eigenvalues --    1.57279   1.57588   1.58162   1.58268   1.58580
 Alpha virt. eigenvalues --    1.58763   1.59002   1.59496   1.59732   1.60276
 Alpha virt. eigenvalues --    1.60967   1.61142   1.61490   1.61570   1.61964
 Alpha virt. eigenvalues --    1.62059   1.62559   1.63007   1.63141   1.63547
 Alpha virt. eigenvalues --    1.63733   1.63958   1.64077   1.64438   1.65024
 Alpha virt. eigenvalues --    1.65156   1.65844   1.66133   1.66769   1.66853
 Alpha virt. eigenvalues --    1.67265   1.67773   1.68034   1.68531   1.68664
 Alpha virt. eigenvalues --    1.68987   1.69457   1.69934   1.70169   1.70220
 Alpha virt. eigenvalues --    1.70695   1.70889   1.71259   1.71550   1.72567
 Alpha virt. eigenvalues --    1.72795   1.73197   1.73597   1.74145   1.74200
 Alpha virt. eigenvalues --    1.74647   1.75270   1.75750   1.76621   1.77393
 Alpha virt. eigenvalues --    1.77660   1.77893   1.79417   1.79812   1.80139
 Alpha virt. eigenvalues --    1.80565   1.80947   1.81548   1.81850   1.82546
 Alpha virt. eigenvalues --    1.82918   1.83635   1.83912   1.84537   1.85066
 Alpha virt. eigenvalues --    1.85441   1.86249   1.86420   1.86775   1.87076
 Alpha virt. eigenvalues --    1.87400   1.88074   1.88977   1.89405   1.89640
 Alpha virt. eigenvalues --    1.90480   1.90818   1.91058   1.91965   1.92215
 Alpha virt. eigenvalues --    1.92396   1.93285   1.93618   1.93881   1.94191
 Alpha virt. eigenvalues --    1.95006   1.95336   1.95526   1.96122   1.96163
 Alpha virt. eigenvalues --    1.97252   1.97671   1.98219   1.98614   1.99196
 Alpha virt. eigenvalues --    1.99436   1.99940   2.00440   2.00997   2.01145
 Alpha virt. eigenvalues --    2.01795   2.01967   2.02383   2.02502   2.03449
 Alpha virt. eigenvalues --    2.04027   2.04768   2.05243   2.05656   2.06521
 Alpha virt. eigenvalues --    2.07163   2.07350   2.08067   2.08271   2.08523
 Alpha virt. eigenvalues --    2.09141   2.09225   2.09661   2.10223   2.10588
 Alpha virt. eigenvalues --    2.10676   2.11648   2.11907   2.12282   2.12343
 Alpha virt. eigenvalues --    2.13073   2.13775   2.14424   2.15138   2.15503
 Alpha virt. eigenvalues --    2.15698   2.16130   2.16353   2.17154   2.17489
 Alpha virt. eigenvalues --    2.18275   2.18616   2.18689   2.19733   2.19812
 Alpha virt. eigenvalues --    2.20383   2.21184   2.21390   2.22032   2.22754
 Alpha virt. eigenvalues --    2.23506   2.23805   2.24708   2.24933   2.25144
 Alpha virt. eigenvalues --    2.26017   2.26358   2.26820   2.27473   2.27678
 Alpha virt. eigenvalues --    2.28350   2.28654   2.28801   2.29457   2.29921
 Alpha virt. eigenvalues --    2.30303   2.30800   2.31350   2.31535   2.31896
 Alpha virt. eigenvalues --    2.32399   2.33247   2.33556   2.33751   2.34286
 Alpha virt. eigenvalues --    2.34811   2.35484   2.35922   2.36225   2.36663
 Alpha virt. eigenvalues --    2.37051   2.37263   2.38079   2.38167   2.38456
 Alpha virt. eigenvalues --    2.38878   2.39121   2.39869   2.40122   2.40786
 Alpha virt. eigenvalues --    2.41271   2.41606   2.41953   2.42751   2.42936
 Alpha virt. eigenvalues --    2.43507   2.44028   2.44122   2.44896   2.45100
 Alpha virt. eigenvalues --    2.45681   2.45845   2.46571   2.46935   2.47125
 Alpha virt. eigenvalues --    2.47781   2.48020   2.48380   2.49424   2.49576
 Alpha virt. eigenvalues --    2.50420   2.50584   2.50645   2.51404   2.51560
 Alpha virt. eigenvalues --    2.51948   2.52325   2.53099   2.53231   2.53832
 Alpha virt. eigenvalues --    2.54310   2.54539   2.55479   2.56017   2.56112
 Alpha virt. eigenvalues --    2.56572   2.56704   2.56812   2.57363   2.58032
 Alpha virt. eigenvalues --    2.58566   2.58815   2.58961   2.59223   2.59783
 Alpha virt. eigenvalues --    2.60116   2.60509   2.61027   2.61218   2.61414
 Alpha virt. eigenvalues --    2.61754   2.62019   2.63003   2.63718   2.64140
 Alpha virt. eigenvalues --    2.64464   2.64738   2.65317   2.66013   2.66144
 Alpha virt. eigenvalues --    2.66508   2.66864   2.67620   2.68248   2.68578
 Alpha virt. eigenvalues --    2.68759   2.69267   2.69420   2.70540   2.70852
 Alpha virt. eigenvalues --    2.70967   2.71101   2.71716   2.72281   2.72704
 Alpha virt. eigenvalues --    2.72922   2.73599   2.73725   2.74536   2.75326
 Alpha virt. eigenvalues --    2.75711   2.76054   2.76505   2.76773   2.77095
 Alpha virt. eigenvalues --    2.77879   2.78384   2.78998   2.79372   2.80107
 Alpha virt. eigenvalues --    2.80482   2.80699   2.81164   2.81659   2.81900
 Alpha virt. eigenvalues --    2.82314   2.82711   2.83062   2.83695   2.84053
 Alpha virt. eigenvalues --    2.84402   2.84789   2.85222   2.85480   2.85662
 Alpha virt. eigenvalues --    2.86298   2.86614   2.86835   2.87472   2.87955
 Alpha virt. eigenvalues --    2.88053   2.88693   2.89072   2.89480   2.89996
 Alpha virt. eigenvalues --    2.90192   2.90398   2.90960   2.91456   2.91836
 Alpha virt. eigenvalues --    2.92147   2.92279   2.92769   2.93046   2.93261
 Alpha virt. eigenvalues --    2.93635   2.93995   2.94603   2.95203   2.95338
 Alpha virt. eigenvalues --    2.95783   2.96292   2.96612   2.97116   2.97680
 Alpha virt. eigenvalues --    2.97914   2.98102   2.98471   2.98690   2.99169
 Alpha virt. eigenvalues --    3.00271   3.00302   3.00948   3.01094   3.01320
 Alpha virt. eigenvalues --    3.02023   3.02392   3.02666   3.03210   3.03783
 Alpha virt. eigenvalues --    3.04146   3.04461   3.04625   3.04944   3.05360
 Alpha virt. eigenvalues --    3.05571   3.06268   3.06497   3.07060   3.07069
 Alpha virt. eigenvalues --    3.07376   3.07633   3.08181   3.08339   3.08913
 Alpha virt. eigenvalues --    3.09095   3.09589   3.09828   3.10265   3.10883
 Alpha virt. eigenvalues --    3.10993   3.11207   3.11682   3.11890   3.12151
 Alpha virt. eigenvalues --    3.12654   3.13124   3.13370   3.13750   3.14366
 Alpha virt. eigenvalues --    3.14657   3.14708   3.15184   3.15617   3.15911
 Alpha virt. eigenvalues --    3.16077   3.16242   3.16626   3.16823   3.17155
 Alpha virt. eigenvalues --    3.17693   3.18120   3.18466   3.18906   3.19187
 Alpha virt. eigenvalues --    3.19719   3.19954   3.20229   3.20379   3.20618
 Alpha virt. eigenvalues --    3.21185   3.21449   3.21772   3.22106   3.22592
 Alpha virt. eigenvalues --    3.22910   3.23081   3.23641   3.23816   3.23992
 Alpha virt. eigenvalues --    3.24481   3.24847   3.25099   3.25400   3.25593
 Alpha virt. eigenvalues --    3.25636   3.26059   3.26275   3.26783   3.26912
 Alpha virt. eigenvalues --    3.27281   3.27445   3.27838   3.28342   3.28427
 Alpha virt. eigenvalues --    3.28522   3.29260   3.29314   3.29639   3.29922
 Alpha virt. eigenvalues --    3.30277   3.30543   3.30832   3.31095   3.31352
 Alpha virt. eigenvalues --    3.31671   3.31859   3.32087   3.32188   3.32737
 Alpha virt. eigenvalues --    3.33026   3.33131   3.33750   3.33797   3.34235
 Alpha virt. eigenvalues --    3.34565   3.34637   3.35269   3.35403   3.35703
 Alpha virt. eigenvalues --    3.35820   3.36118   3.36282   3.36586   3.36906
 Alpha virt. eigenvalues --    3.37113   3.37397   3.37648   3.37828   3.38239
 Alpha virt. eigenvalues --    3.38526   3.38772   3.39091   3.39386   3.39755
 Alpha virt. eigenvalues --    3.40094   3.40337   3.40639   3.40968   3.41166
 Alpha virt. eigenvalues --    3.41292   3.41545   3.42035   3.42868   3.43190
 Alpha virt. eigenvalues --    3.43669   3.43972   3.44536   3.45016   3.45365
 Alpha virt. eigenvalues --    3.46123   3.46250   3.46657   3.46707   3.47219
 Alpha virt. eigenvalues --    3.47887   3.48985   3.49176   3.49384   3.50204
 Alpha virt. eigenvalues --    3.50411   3.50698   3.51071   3.52151   3.52543
 Alpha virt. eigenvalues --    3.52789   3.52958   3.53336   3.54547   3.54684
 Alpha virt. eigenvalues --    3.55432   3.55860   3.56171   3.56368   3.56917
 Alpha virt. eigenvalues --    3.57311   3.57645   3.58553   3.58927   3.59122
 Alpha virt. eigenvalues --    3.59787   3.59868   3.61081   3.61341   3.61584
 Alpha virt. eigenvalues --    3.61679   3.62156   3.63029   3.63503   3.63842
 Alpha virt. eigenvalues --    3.64198   3.64951   3.65621   3.66020   3.66419
 Alpha virt. eigenvalues --    3.66749   3.67173   3.68122   3.68551   3.69115
 Alpha virt. eigenvalues --    3.69306   3.69797   3.69998   3.70405   3.70840
 Alpha virt. eigenvalues --    3.71292   3.71392   3.72069   3.72498   3.72598
 Alpha virt. eigenvalues --    3.73191   3.73631   3.73816   3.74392   3.74809
 Alpha virt. eigenvalues --    3.75354   3.75496   3.76192   3.76474   3.77189
 Alpha virt. eigenvalues --    3.78076   3.78225   3.78927   3.79128   3.80059
 Alpha virt. eigenvalues --    3.80498   3.80869   3.81149   3.81827   3.82689
 Alpha virt. eigenvalues --    3.83440   3.83726   3.84260   3.84551   3.84955
 Alpha virt. eigenvalues --    3.86023   3.86773   3.87219   3.87980   3.88809
 Alpha virt. eigenvalues --    3.89521   3.89672   3.90383   3.90806   3.90954
 Alpha virt. eigenvalues --    3.91447   3.92315   3.92814   3.93145   3.93272
 Alpha virt. eigenvalues --    3.93842   3.95970   3.96783   3.97235   3.97739
 Alpha virt. eigenvalues --    3.97972   3.98928   3.99275   3.99613   3.99897
 Alpha virt. eigenvalues --    4.00502   4.00966   4.01587   4.01807   4.02532
 Alpha virt. eigenvalues --    4.03101   4.03751   4.04066   4.04886   4.05074
 Alpha virt. eigenvalues --    4.06078   4.06375   4.07985   4.08283   4.08843
 Alpha virt. eigenvalues --    4.09409   4.09863   4.10465   4.11467   4.11741
 Alpha virt. eigenvalues --    4.13102   4.13233   4.14011   4.15550   4.15923
 Alpha virt. eigenvalues --    4.16319   4.16629   4.17070   4.17533   4.18141
 Alpha virt. eigenvalues --    4.18408   4.19128   4.19609   4.20457   4.21025
 Alpha virt. eigenvalues --    4.21703   4.21959   4.22819   4.23007   4.23414
 Alpha virt. eigenvalues --    4.23905   4.24153   4.24957   4.25356   4.25939
 Alpha virt. eigenvalues --    4.26478   4.27061   4.27329   4.28545   4.29132
 Alpha virt. eigenvalues --    4.30368   4.31083   4.31572   4.31988   4.32994
 Alpha virt. eigenvalues --    4.33727   4.33868   4.34056   4.34898   4.36041
 Alpha virt. eigenvalues --    4.36889   4.37668   4.38664   4.39124   4.39270
 Alpha virt. eigenvalues --    4.39776   4.40104   4.40560   4.41146   4.41636
 Alpha virt. eigenvalues --    4.41759   4.42236   4.42616   4.42886   4.43589
 Alpha virt. eigenvalues --    4.43806   4.44082   4.44965   4.45489   4.45925
 Alpha virt. eigenvalues --    4.46574   4.47310   4.47836   4.47994   4.50075
 Alpha virt. eigenvalues --    4.51820   4.52672   4.53649   4.54190   4.55118
 Alpha virt. eigenvalues --    4.56263   4.56941   4.57071   4.57784   4.58443
 Alpha virt. eigenvalues --    4.60917   4.61733   4.62963   4.63081   4.64370
 Alpha virt. eigenvalues --    4.65085   4.65836   4.67420   4.67815   4.68554
 Alpha virt. eigenvalues --    4.68937   4.69125   4.69738   4.69905   4.71018
 Alpha virt. eigenvalues --    4.72601   4.73807   4.74294   4.74661   4.74947
 Alpha virt. eigenvalues --    4.76828   4.77435   4.78286   4.79164   4.79509
 Alpha virt. eigenvalues --    4.81184   4.81680   4.81946   4.82945   4.83803
 Alpha virt. eigenvalues --    4.84216   4.84889   4.85111   4.85377   4.86842
 Alpha virt. eigenvalues --    4.87404   4.88251   4.88632   4.89285   4.91394
 Alpha virt. eigenvalues --    4.91965   4.92470   4.93103   4.93704   4.94003
 Alpha virt. eigenvalues --    4.95416   4.95797   4.97026   4.97620   4.98246
 Alpha virt. eigenvalues --    5.00135   5.00420   5.01276   5.01755   5.02964
 Alpha virt. eigenvalues --    5.03753   5.04127   5.04740   5.05181   5.06989
 Alpha virt. eigenvalues --    5.07718   5.08594   5.08738   5.09165   5.10229
 Alpha virt. eigenvalues --    5.11362   5.13075   5.16041   5.16936   5.18859
 Alpha virt. eigenvalues --    5.19623   5.19913   5.20759   5.21212   5.21895
 Alpha virt. eigenvalues --    5.23221   5.23677   5.24911   5.25968   5.27875
 Alpha virt. eigenvalues --    5.28332   5.29570   5.32366   5.35394   5.35592
 Alpha virt. eigenvalues --    5.36357   5.36937   5.37153   5.38629   5.38925
 Alpha virt. eigenvalues --    5.39547   5.41360   5.41885   5.42249   5.45946
 Alpha virt. eigenvalues --    5.47613   5.48428   5.49500   5.49968   5.50824
 Alpha virt. eigenvalues --    5.51464   5.52879   5.54540   5.57587   5.60076
 Alpha virt. eigenvalues --    5.60246   5.61776   5.62297   5.63246   5.63508
 Alpha virt. eigenvalues --    5.66180   5.66827   5.68034   5.68561   5.71969
 Alpha virt. eigenvalues --    5.74290   5.75599   5.76124   5.77604   5.78069
 Alpha virt. eigenvalues --    5.79704   5.84012   5.88675   5.91099   5.93788
 Alpha virt. eigenvalues --    6.00249   6.01113   6.01642   6.06211   6.07137
 Alpha virt. eigenvalues --    6.09682   6.11966   6.12405   6.14738   6.17364
 Alpha virt. eigenvalues --    6.24965   6.31978   6.33339   6.39556  22.34777
 Alpha virt. eigenvalues --   22.35651  22.43052  22.46010  22.46742  22.54005
 Alpha virt. eigenvalues --   22.55013  22.62358  22.62980  22.74919  22.82382
 Alpha virt. eigenvalues --   22.87811  22.88074  22.91428  22.93964  22.96132
 Alpha virt. eigenvalues --   22.96509  23.04097  23.05326  23.06325  23.16523
 Alpha virt. eigenvalues --   23.24829  23.26894  23.29368  23.30154  23.36662
 Alpha virt. eigenvalues --   23.42675  23.50870  23.52752  23.57476  23.74958
 Alpha virt. eigenvalues --   23.79234  23.80317  23.89526  32.38553  32.71225
 Alpha virt. eigenvalues --   32.86295  32.90613  32.98435  33.04515
  Beta  occ. eigenvalues -- -256.28698 -30.11498 -25.96044 -25.95989 -25.95340
  Beta  occ. eigenvalues --  -14.43468 -14.37674 -14.35168 -14.35151 -14.34467
  Beta  occ. eigenvalues --  -14.34436 -10.27576 -10.25243 -10.22516 -10.22116
  Beta  occ. eigenvalues --  -10.21598 -10.21411 -10.21371 -10.21353 -10.21011
  Beta  occ. eigenvalues --  -10.20759 -10.20430 -10.20425 -10.19839 -10.19485
  Beta  occ. eigenvalues --  -10.19313 -10.19235 -10.19144 -10.19133 -10.19103
  Beta  occ. eigenvalues --  -10.18940 -10.18547 -10.18459 -10.18376 -10.18340
  Beta  occ. eigenvalues --  -10.18318 -10.18232 -10.18152 -10.18035 -10.17994
  Beta  occ. eigenvalues --  -10.17969 -10.17731 -10.17447 -10.17173 -10.16759
  Beta  occ. eigenvalues --   -3.44997  -2.21435  -2.21291  -2.18335  -1.06995
  Beta  occ. eigenvalues --   -0.97596  -0.96680  -0.96430  -0.95575  -0.92609
  Beta  occ. eigenvalues --   -0.82272  -0.81976  -0.81678  -0.81377  -0.81092
  Beta  occ. eigenvalues --   -0.80446  -0.79616  -0.79248  -0.76811  -0.75665
  Beta  occ. eigenvalues --   -0.74336  -0.73580  -0.73209  -0.73075  -0.71000
  Beta  occ. eigenvalues --   -0.69888  -0.68784  -0.68060  -0.67863  -0.66231
  Beta  occ. eigenvalues --   -0.64263  -0.63755  -0.62903  -0.60699  -0.60218
  Beta  occ. eigenvalues --   -0.57606  -0.57387  -0.56812  -0.54473  -0.54119
  Beta  occ. eigenvalues --   -0.53756  -0.52615  -0.51600  -0.51042  -0.50326
  Beta  occ. eigenvalues --   -0.49291  -0.48993  -0.48707  -0.47828  -0.47517
  Beta  occ. eigenvalues --   -0.45950  -0.45321  -0.44952  -0.44810  -0.44504
  Beta  occ. eigenvalues --   -0.44455  -0.43936  -0.43644  -0.43548  -0.43284
  Beta  occ. eigenvalues --   -0.43180  -0.42916  -0.42754  -0.42674  -0.42071
  Beta  occ. eigenvalues --   -0.41731  -0.41205  -0.41058  -0.40531  -0.40361
  Beta  occ. eigenvalues --   -0.40092  -0.40046  -0.39577  -0.39457  -0.39272
  Beta  occ. eigenvalues --   -0.38641  -0.38545  -0.38255  -0.37806  -0.37606
  Beta  occ. eigenvalues --   -0.37266  -0.37226  -0.36756  -0.36658  -0.35829
  Beta  occ. eigenvalues --   -0.35727  -0.34527  -0.34393  -0.33543  -0.33178
  Beta  occ. eigenvalues --   -0.32487  -0.31532  -0.31227  -0.30954  -0.29684
  Beta  occ. eigenvalues --   -0.28618  -0.26579  -0.26093  -0.25929  -0.25591
  Beta  occ. eigenvalues --   -0.23943  -0.23403  -0.22757  -0.21918  -0.18479
  Beta  occ. eigenvalues --   -0.17497
  Beta virt. eigenvalues --   -0.09302  -0.09024  -0.05488  -0.05339  -0.04608
  Beta virt. eigenvalues --   -0.01479  -0.00087   0.00363   0.00865   0.01826
  Beta virt. eigenvalues --    0.02440   0.03784   0.03979   0.04646   0.05448
  Beta virt. eigenvalues --    0.05555   0.05797   0.06026   0.06793   0.07186
  Beta virt. eigenvalues --    0.07756   0.08082   0.08583   0.08823   0.08893
  Beta virt. eigenvalues --    0.09372   0.10013   0.10205   0.10500   0.10691
  Beta virt. eigenvalues --    0.11070   0.11325   0.11456   0.11530   0.11567
  Beta virt. eigenvalues --    0.12122   0.12416   0.12640   0.12879   0.13290
  Beta virt. eigenvalues --    0.13383   0.13551   0.13650   0.14136   0.14229
  Beta virt. eigenvalues --    0.14279   0.14897   0.15319   0.15381   0.15465
  Beta virt. eigenvalues --    0.15720   0.15799   0.15953   0.16125   0.16394
  Beta virt. eigenvalues --    0.16706   0.17094   0.17193   0.17493   0.17741
  Beta virt. eigenvalues --    0.17944   0.18105   0.18176   0.18718   0.19011
  Beta virt. eigenvalues --    0.19217   0.19301   0.20052   0.20181   0.20459
  Beta virt. eigenvalues --    0.20636   0.20892   0.21123   0.21530   0.21590
  Beta virt. eigenvalues --    0.21844   0.22191   0.22492   0.22697   0.22966
  Beta virt. eigenvalues --    0.23150   0.23637   0.23753   0.24405   0.24852
  Beta virt. eigenvalues --    0.25217   0.25347   0.25708   0.26011   0.26211
  Beta virt. eigenvalues --    0.26456   0.26669   0.27123   0.27320   0.27533
  Beta virt. eigenvalues --    0.28053   0.28369   0.28471   0.28826   0.28973
  Beta virt. eigenvalues --    0.29125   0.29188   0.29341   0.29748   0.29877
  Beta virt. eigenvalues --    0.30369   0.30687   0.31194   0.31361   0.31369
  Beta virt. eigenvalues --    0.31937   0.32187   0.32319   0.32675   0.33090
  Beta virt. eigenvalues --    0.33258   0.33309   0.33762   0.34024   0.34460
  Beta virt. eigenvalues --    0.34874   0.35129   0.35485   0.35706   0.35814
  Beta virt. eigenvalues --    0.36153   0.36768   0.36934   0.37083   0.37365
  Beta virt. eigenvalues --    0.37410   0.37779   0.38146   0.38391   0.38661
  Beta virt. eigenvalues --    0.39005   0.39303   0.39514   0.39809   0.40076
  Beta virt. eigenvalues --    0.40099   0.40316   0.40652   0.40784   0.40882
  Beta virt. eigenvalues --    0.41294   0.41559   0.41676   0.42065   0.42373
  Beta virt. eigenvalues --    0.42444   0.42761   0.42970   0.43045   0.43304
  Beta virt. eigenvalues --    0.43499   0.43604   0.43880   0.44192   0.44285
  Beta virt. eigenvalues --    0.44435   0.44490   0.44815   0.45247   0.45327
  Beta virt. eigenvalues --    0.45733   0.45992   0.46211   0.46560   0.46696
  Beta virt. eigenvalues --    0.46877   0.47046   0.47169   0.47281   0.47364
  Beta virt. eigenvalues --    0.47807   0.47831   0.48198   0.48418   0.48701
  Beta virt. eigenvalues --    0.48822   0.48896   0.49103   0.49351   0.49594
  Beta virt. eigenvalues --    0.49768   0.50019   0.50200   0.50324   0.50575
  Beta virt. eigenvalues --    0.51117   0.51153   0.51538   0.51630   0.51997
  Beta virt. eigenvalues --    0.52067   0.52576   0.52927   0.53217   0.53346
  Beta virt. eigenvalues --    0.53562   0.53643   0.53925   0.54055   0.54274
  Beta virt. eigenvalues --    0.54479   0.54827   0.55312   0.55394   0.55839
  Beta virt. eigenvalues --    0.56260   0.56482   0.56697   0.57135   0.57284
  Beta virt. eigenvalues --    0.57484   0.57746   0.58171   0.58452   0.58492
  Beta virt. eigenvalues --    0.58954   0.59054   0.59478   0.60004   0.60156
  Beta virt. eigenvalues --    0.60422   0.60813   0.61106   0.61369   0.61878
  Beta virt. eigenvalues --    0.62544   0.62605   0.62912   0.63544   0.63792
  Beta virt. eigenvalues --    0.64076   0.64323   0.64567   0.64789   0.65023
  Beta virt. eigenvalues --    0.65171   0.65781   0.66224   0.66443   0.66658
  Beta virt. eigenvalues --    0.67068   0.67327   0.67866   0.68153   0.68553
  Beta virt. eigenvalues --    0.68804   0.69637   0.69809   0.70103   0.70539
  Beta virt. eigenvalues --    0.70634   0.70722   0.70836   0.71308   0.71423
  Beta virt. eigenvalues --    0.71983   0.72357   0.72621   0.72779   0.72895
  Beta virt. eigenvalues --    0.73235   0.73726   0.74150   0.74370   0.74591
  Beta virt. eigenvalues --    0.74811   0.75021   0.75479   0.75835   0.76131
  Beta virt. eigenvalues --    0.76536   0.76662   0.77011   0.77525   0.77833
  Beta virt. eigenvalues --    0.78053   0.78285   0.78868   0.79286   0.79702
  Beta virt. eigenvalues --    0.80032   0.80785   0.81005   0.81184   0.81681
  Beta virt. eigenvalues --    0.82454   0.82492   0.82970   0.83451   0.84121
  Beta virt. eigenvalues --    0.84239   0.84611   0.84939   0.85335   0.85997
  Beta virt. eigenvalues --    0.86286   0.86496   0.86951   0.87160   0.87332
  Beta virt. eigenvalues --    0.87833   0.88069   0.88506   0.88625   0.89002
  Beta virt. eigenvalues --    0.89800   0.90434   0.90665   0.91302   0.91823
  Beta virt. eigenvalues --    0.91967   0.92401   0.92709   0.93170   0.93385
  Beta virt. eigenvalues --    0.93838   0.94422   0.94656   0.94985   0.95182
  Beta virt. eigenvalues --    0.95431   0.95743   0.96089   0.96504   0.96526
  Beta virt. eigenvalues --    0.96985   0.97424   0.97910   0.98329   0.98776
  Beta virt. eigenvalues --    0.98895   0.99202   0.99413   1.00198   1.00481
  Beta virt. eigenvalues --    1.00805   1.00939   1.01505   1.01814   1.02224
  Beta virt. eigenvalues --    1.02581   1.02825   1.03064   1.03222   1.03815
  Beta virt. eigenvalues --    1.04081   1.04335   1.04652   1.04798   1.05161
  Beta virt. eigenvalues --    1.05656   1.06031   1.06319   1.06471   1.07112
  Beta virt. eigenvalues --    1.07850   1.08095   1.08558   1.08771   1.09305
  Beta virt. eigenvalues --    1.09433   1.09814   1.10286   1.10320   1.11092
  Beta virt. eigenvalues --    1.11288   1.11742   1.12482   1.12960   1.12975
  Beta virt. eigenvalues --    1.13347   1.13487   1.14284   1.15059   1.15272
  Beta virt. eigenvalues --    1.15905   1.16062   1.16320   1.17157   1.17524
  Beta virt. eigenvalues --    1.17966   1.18537   1.18740   1.18974   1.19385
  Beta virt. eigenvalues --    1.19998   1.20748   1.21102   1.21191   1.21993
  Beta virt. eigenvalues --    1.22438   1.22491   1.23116   1.24004   1.24249
  Beta virt. eigenvalues --    1.24860   1.25045   1.25592   1.26347   1.26469
  Beta virt. eigenvalues --    1.26996   1.27366   1.27515   1.27793   1.27971
  Beta virt. eigenvalues --    1.28499   1.28703   1.29071   1.29390   1.29825
  Beta virt. eigenvalues --    1.30331   1.30625   1.30922   1.31200   1.31769
  Beta virt. eigenvalues --    1.32060   1.32641   1.33477   1.33914   1.34215
  Beta virt. eigenvalues --    1.35160   1.36024   1.36293   1.36553   1.38223
  Beta virt. eigenvalues --    1.38445   1.38782   1.38970   1.39574   1.40283
  Beta virt. eigenvalues --    1.40779   1.41240   1.41702   1.42278   1.42819
  Beta virt. eigenvalues --    1.43200   1.43825   1.44014   1.44873   1.45460
  Beta virt. eigenvalues --    1.45969   1.46394   1.46405   1.46648   1.47612
  Beta virt. eigenvalues --    1.48133   1.48523   1.48670   1.49300   1.49571
  Beta virt. eigenvalues --    1.49900   1.50152   1.50463   1.50733   1.50894
  Beta virt. eigenvalues --    1.51143   1.51402   1.51791   1.51993   1.52261
  Beta virt. eigenvalues --    1.52589   1.52743   1.53053   1.53407   1.53758
  Beta virt. eigenvalues --    1.54187   1.54458   1.54704   1.54777   1.55051
  Beta virt. eigenvalues --    1.55188   1.55333   1.55882   1.56166   1.56289
  Beta virt. eigenvalues --    1.56555   1.56795   1.57101   1.57196   1.57416
  Beta virt. eigenvalues --    1.57753   1.58286   1.58373   1.58711   1.58951
  Beta virt. eigenvalues --    1.59172   1.59715   1.59907   1.60510   1.61113
  Beta virt. eigenvalues --    1.61272   1.61645   1.61695   1.62132   1.62253
  Beta virt. eigenvalues --    1.62748   1.63149   1.63317   1.63702   1.63829
  Beta virt. eigenvalues --    1.64086   1.64216   1.64598   1.65143   1.65331
  Beta virt. eigenvalues --    1.65978   1.66287   1.66958   1.67177   1.67392
  Beta virt. eigenvalues --    1.67945   1.68190   1.68664   1.68791   1.69158
  Beta virt. eigenvalues --    1.69663   1.70109   1.70305   1.70470   1.70867
  Beta virt. eigenvalues --    1.71132   1.71517   1.71732   1.72773   1.72983
  Beta virt. eigenvalues --    1.73344   1.73687   1.74270   1.74386   1.74842
  Beta virt. eigenvalues --    1.75404   1.75891   1.76783   1.77531   1.77886
  Beta virt. eigenvalues --    1.78084   1.79539   1.79936   1.80289   1.80714
  Beta virt. eigenvalues --    1.81134   1.81702   1.82014   1.82707   1.83102
  Beta virt. eigenvalues --    1.83753   1.84092   1.84735   1.85191   1.85673
  Beta virt. eigenvalues --    1.86384   1.86661   1.86923   1.87359   1.87675
  Beta virt. eigenvalues --    1.88474   1.89268   1.89584   1.89904   1.90694
  Beta virt. eigenvalues --    1.91064   1.91381   1.92226   1.92536   1.92582
  Beta virt. eigenvalues --    1.93519   1.93904   1.94226   1.94357   1.95288
  Beta virt. eigenvalues --    1.95582   1.95704   1.96283   1.96381   1.97411
  Beta virt. eigenvalues --    1.97853   1.98485   1.98800   1.99386   1.99696
  Beta virt. eigenvalues --    2.00118   2.00636   2.01203   2.01294   2.01976
  Beta virt. eigenvalues --    2.02207   2.02515   2.02753   2.03807   2.04306
  Beta virt. eigenvalues --    2.05037   2.05674   2.05856   2.06699   2.07370
  Beta virt. eigenvalues --    2.07512   2.08378   2.08521   2.08705   2.09331
  Beta virt. eigenvalues --    2.09792   2.09911   2.10467   2.10856   2.11070
  Beta virt. eigenvalues --    2.11921   2.12154   2.12481   2.12707   2.13307
  Beta virt. eigenvalues --    2.14156   2.14655   2.15305   2.15724   2.15909
  Beta virt. eigenvalues --    2.16515   2.16558   2.17385   2.17755   2.18548
  Beta virt. eigenvalues --    2.18805   2.18916   2.19907   2.20452   2.20758
  Beta virt. eigenvalues --    2.21348   2.21558   2.22283   2.22889   2.23772
  Beta virt. eigenvalues --    2.24003   2.25064   2.25251   2.25573   2.26220
  Beta virt. eigenvalues --    2.26560   2.26966   2.27825   2.28092   2.28455
  Beta virt. eigenvalues --    2.28882   2.29018   2.29608   2.30059   2.30520
  Beta virt. eigenvalues --    2.30909   2.31525   2.31682   2.32049   2.32534
  Beta virt. eigenvalues --    2.33538   2.33708   2.33906   2.34411   2.34941
  Beta virt. eigenvalues --    2.35589   2.36077   2.36377   2.36742   2.37215
  Beta virt. eigenvalues --    2.37331   2.38200   2.38335   2.38921   2.39056
  Beta virt. eigenvalues --    2.39431   2.40032   2.40264   2.40946   2.41457
  Beta virt. eigenvalues --    2.41885   2.42271   2.42976   2.43149   2.43716
  Beta virt. eigenvalues --    2.44309   2.44688   2.45200   2.45287   2.45895
  Beta virt. eigenvalues --    2.46091   2.46725   2.47057   2.47351   2.47916
  Beta virt. eigenvalues --    2.48205   2.48719   2.49667   2.49850   2.50722
  Beta virt. eigenvalues --    2.50856   2.50896   2.51564   2.51788   2.52154
  Beta virt. eigenvalues --    2.52639   2.53184   2.53346   2.54015   2.54485
  Beta virt. eigenvalues --    2.54833   2.55596   2.56181   2.56283   2.56680
  Beta virt. eigenvalues --    2.56898   2.57004   2.57565   2.58207   2.58823
  Beta virt. eigenvalues --    2.58983   2.59066   2.59378   2.59961   2.60257
  Beta virt. eigenvalues --    2.60664   2.61195   2.61397   2.61589   2.61991
  Beta virt. eigenvalues --    2.62335   2.63144   2.63915   2.64275   2.64652
  Beta virt. eigenvalues --    2.64936   2.65520   2.66246   2.66331   2.66645
  Beta virt. eigenvalues --    2.66999   2.67765   2.68410   2.68713   2.68891
  Beta virt. eigenvalues --    2.69401   2.69551   2.70677   2.71072   2.71143
  Beta virt. eigenvalues --    2.71303   2.71920   2.72501   2.72958   2.73127
  Beta virt. eigenvalues --    2.73816   2.74014   2.74669   2.75588   2.75960
  Beta virt. eigenvalues --    2.76258   2.76651   2.77055   2.77422   2.78118
  Beta virt. eigenvalues --    2.78707   2.79268   2.79675   2.80360   2.80655
  Beta virt. eigenvalues --    2.81002   2.81375   2.81870   2.82126   2.82619
  Beta virt. eigenvalues --    2.82946   2.83228   2.83849   2.84333   2.84561
  Beta virt. eigenvalues --    2.85034   2.85434   2.85728   2.85915   2.86573
  Beta virt. eigenvalues --    2.86788   2.87038   2.87966   2.88131   2.88289
  Beta virt. eigenvalues --    2.88952   2.89488   2.89636   2.90238   2.90451
  Beta virt. eigenvalues --    2.90629   2.91256   2.91752   2.92022   2.92352
  Beta virt. eigenvalues --    2.92521   2.92957   2.93244   2.93450   2.93816
  Beta virt. eigenvalues --    2.94232   2.94700   2.95370   2.95537   2.96057
  Beta virt. eigenvalues --    2.96516   2.96768   2.97362   2.97912   2.98101
  Beta virt. eigenvalues --    2.98343   2.98676   2.98867   2.99372   3.00438
  Beta virt. eigenvalues --    3.00527   3.01114   3.01196   3.01494   3.02184
  Beta virt. eigenvalues --    3.02550   3.02886   3.03420   3.03991   3.04339
  Beta virt. eigenvalues --    3.04675   3.04834   3.05157   3.05490   3.05728
  Beta virt. eigenvalues --    3.06487   3.06687   3.07189   3.07253   3.07579
  Beta virt. eigenvalues --    3.07797   3.08314   3.08520   3.09097   3.09237
  Beta virt. eigenvalues --    3.09783   3.10021   3.10474   3.11103   3.11189
  Beta virt. eigenvalues --    3.11455   3.11877   3.12100   3.12376   3.12853
  Beta virt. eigenvalues --    3.13297   3.13556   3.13960   3.14547   3.14834
  Beta virt. eigenvalues --    3.14922   3.15384   3.15840   3.16162   3.16234
  Beta virt. eigenvalues --    3.16442   3.16871   3.17043   3.17342   3.17845
  Beta virt. eigenvalues --    3.18315   3.18636   3.19086   3.19374   3.19901
  Beta virt. eigenvalues --    3.20154   3.20469   3.20617   3.20770   3.21396
  Beta virt. eigenvalues --    3.21617   3.21929   3.22284   3.22789   3.23171
  Beta virt. eigenvalues --    3.23266   3.23783   3.24014   3.24232   3.24661
  Beta virt. eigenvalues --    3.25020   3.25363   3.25634   3.25801   3.25885
  Beta virt. eigenvalues --    3.26241   3.26489   3.26951   3.27173   3.27471
  Beta virt. eigenvalues --    3.27665   3.28061   3.28530   3.28647   3.28726
  Beta virt. eigenvalues --    3.29425   3.29460   3.29847   3.30155   3.30411
  Beta virt. eigenvalues --    3.30673   3.30920   3.31302   3.31540   3.31820
  Beta virt. eigenvalues --    3.32001   3.32242   3.32408   3.32926   3.33228
  Beta virt. eigenvalues --    3.33307   3.33898   3.33978   3.34418   3.34821
  Beta virt. eigenvalues --    3.34869   3.35476   3.35570   3.35878   3.36063
  Beta virt. eigenvalues --    3.36366   3.36539   3.36767   3.37104   3.37360
  Beta virt. eigenvalues --    3.37678   3.37838   3.37989   3.38447   3.38705
  Beta virt. eigenvalues --    3.38950   3.39282   3.39663   3.39957   3.40395
  Beta virt. eigenvalues --    3.40533   3.40857   3.41261   3.41441   3.41711
  Beta virt. eigenvalues --    3.42041   3.42375   3.43099   3.43530   3.43928
  Beta virt. eigenvalues --    3.44224   3.44720   3.45285   3.45557   3.46267
  Beta virt. eigenvalues --    3.46493   3.46876   3.46882   3.47360   3.48173
  Beta virt. eigenvalues --    3.49184   3.49350   3.49578   3.50397   3.50614
  Beta virt. eigenvalues --    3.50888   3.51265   3.52347   3.52680   3.53025
  Beta virt. eigenvalues --    3.53205   3.53575   3.54836   3.54867   3.55670
  Beta virt. eigenvalues --    3.56142   3.56458   3.56662   3.57325   3.57570
  Beta virt. eigenvalues --    3.58047   3.58917   3.59312   3.60004   3.60076
  Beta virt. eigenvalues --    3.60238   3.61575   3.61791   3.62124   3.62258
  Beta virt. eigenvalues --    3.62682   3.63453   3.63841   3.64162   3.64409
  Beta virt. eigenvalues --    3.65236   3.66202   3.66281   3.66956   3.67214
  Beta virt. eigenvalues --    3.67889   3.68464   3.68862   3.69359   3.69636
  Beta virt. eigenvalues --    3.69961   3.70246   3.70795   3.71147   3.71597
  Beta virt. eigenvalues --    3.72207   3.72459   3.72783   3.73063   3.73653
  Beta virt. eigenvalues --    3.74110   3.74498   3.74811   3.75054   3.75693
  Beta virt. eigenvalues --    3.76301   3.76597   3.76803   3.77549   3.78713
  Beta virt. eigenvalues --    3.78813   3.79434   3.80237   3.80758   3.81325
  Beta virt. eigenvalues --    3.81576   3.81962   3.82238   3.83434   3.84024
  Beta virt. eigenvalues --    3.84270   3.84917   3.85159   3.86043   3.86658
  Beta virt. eigenvalues --    3.87400   3.88016   3.88259   3.89110   3.90051
  Beta virt. eigenvalues --    3.90111   3.90715   3.91080   3.91429   3.91787
  Beta virt. eigenvalues --    3.92745   3.93476   3.93809   3.94132   3.94643
  Beta virt. eigenvalues --    3.96288   3.97123   3.97663   3.98281   3.99010
  Beta virt. eigenvalues --    3.99295   3.99753   3.99870   4.00450   4.01092
  Beta virt. eigenvalues --    4.02125   4.02709   4.03141   4.04113   4.04255
  Beta virt. eigenvalues --    4.04396   4.05344   4.06152   4.06630   4.07066
  Beta virt. eigenvalues --    4.08369   4.08892   4.09105   4.10718   4.10999
  Beta virt. eigenvalues --    4.11504   4.12146   4.13132   4.13758   4.14094
  Beta virt. eigenvalues --    4.14852   4.16088   4.16377   4.16876   4.17057
  Beta virt. eigenvalues --    4.17298   4.17674   4.18443   4.18928   4.19868
  Beta virt. eigenvalues --    4.20136   4.20259   4.20760   4.21886   4.22197
  Beta virt. eigenvalues --    4.22979   4.23586   4.24108   4.24654   4.25211
  Beta virt. eigenvalues --    4.25759   4.26051   4.27301   4.27779   4.28598
  Beta virt. eigenvalues --    4.28937   4.29338   4.29468   4.30558   4.31067
[...]
  1075. RY*(  13) C  51                  0.00000     3.20473   
  1076. RY*(  14) C  51                  0.00001     1.77783   
  1077. RY*(  15) C  51                  0.00000     3.14478   
  1078. RY*(  16) C  51                  0.00000     1.93941   
  1079. RY*(  17) C  51                  0.00001     1.68696   
  1080. RY*(  18) C  51                  0.00000    21.20075   
  1081. RY*(  19) C  51                  0.00000     3.17263   
  1082. RY*(  20) C  51                  0.00000     3.51115   
  1083. RY*(  21) C  51                  0.00000     3.59774   
  1084. RY*(  22) C  51                  0.00000     3.37871   
  1085. RY*(  23) C  51                  0.00000     3.71684   
  1086. RY*(  24) C  51                  0.00000     3.65728   
  1087. RY*(  25) C  51                  0.00000     4.06061   
  1088. RY*(  26) C  51                  0.00000     3.82654   
  1089. RY*(   1) H  52                  0.00063     0.69679   
  1090. RY*(   2) H  52                  0.00011     2.25919   
  1091. RY*(   3) H  52                  0.00006     2.32717   
  1092. RY*(   4) H  52                  0.00005     2.74062   
  1093. RY*(   5) H  52                  0.00001     3.12686   
  1094. RY*(   1) C  53                  0.00112     1.28315   
  1095. RY*(   2) C  53                  0.00068     0.98519   
  1096. RY*(   3) C  53                  0.00054     0.61210   
  1097. RY*(   4) C  53                  0.00014     1.01518   
  1098. RY*(   5) C  53                  0.00008     1.05154   
  1099. RY*(   6) C  53                  0.00002     1.45024   
  1100. RY*(   7) C  53                  0.00001     1.82050   
  1101. RY*(   8) C  53                  0.00000    21.24019   
  1102. RY*(   9) C  53                  0.00000     1.75182   
  1103. RY*(  10) C  53                  0.00001     1.23990   
  1104. RY*(  11) C  53                  0.00000     3.32866   
  1105. RY*(  12) C  53                  0.00000     1.57401   
  1106. RY*(  13) C  53                  0.00000     2.80124   
  1107. RY*(  14) C  53                  0.00000     2.29708   
  1108. RY*(  15) C  53                  0.00000     3.13719   
  1109. RY*(  16) C  53                  0.00000     1.11990   
  1110. RY*(  17) C  53                  0.00000     3.18138   
  1111. RY*(  18) C  53                  0.00001     1.48522   
  1112. RY*(  19) C  53                  0.00000     2.83610   
  1113. RY*(  20) C  53                  0.00000     3.38491   
  1114. RY*(  21) C  53                  0.00000     3.50455   
  1115. RY*(  22) C  53                  0.00000     3.16840   
  1116. RY*(  23) C  53                  0.00000     3.53833   
  1117. RY*(  24) C  53                  0.00000     3.55378   
  1118. RY*(  25) C  53                  0.00000     3.87334   
  1119. RY*(  26) C  53                  0.00000     3.61882   
  1120. RY*(   1) H  54                  0.00035     1.02737   
  1121. RY*(   2) H  54                  0.00015     1.67963   
  1122. RY*(   3) H  54                  0.00010     2.17792   
  1123. RY*(   4) H  54                  0.00003     2.38855   
  1124. RY*(   5) H  54                  0.00001     3.11452   
  1125. RY*(   1) H  55                  0.00023     0.71735   
  1126. RY*(   2) H  55                  0.00015     1.83281   
  1127. RY*(   3) H  55                  0.00008     2.12395   
  1128. RY*(   4) H  55                  0.00003     2.50377   
  1129. RY*(   5) H  55                  0.00000     3.06990   
  1130. RY*(   1) C  56                  0.00070     1.17009   
  1131. RY*(   2) C  56                  0.00070     1.38108   
  1132. RY*(   3) C  56                  0.00037     1.37875   
  1133. RY*(   4) C  56                  0.00007     1.09887   
  1134. RY*(   5) C  56                  0.00001     1.44258   
  1135. RY*(   6) C  56                  0.00002     1.50725   
  1136. RY*(   7) C  56                  0.00001     1.47276   
  1137. RY*(   8) C  56                  0.00000    21.65673   
  1138. RY*(   9) C  56                  0.00000     1.79236   
  1139. RY*(  10) C  56                  0.00001     3.47145   
  1140. RY*(  11) C  56                  0.00000     2.46181   
  1141. RY*(  12) C  56                  0.00000     3.03342   
  1142. RY*(  13) C  56                  0.00000     2.32232   
  1143. RY*(  14) C  56                  0.00000     2.03102   
  1144. RY*(  15) C  56                  0.00000     2.51165   
  1145. RY*(  16) C  56                  0.00001     3.00602   
  1146. RY*(  17) C  56                  0.00001     2.70437   
  1147. RY*(  18) C  56                  0.00000     3.28813   
  1148. RY*(  19) C  56                  0.00000     2.52033   
  1149. RY*(  20) C  56                  0.00000     3.23531   
  1150. RY*(  21) C  56                  0.00000     3.82121   
  1151. RY*(  22) C  56                  0.00000     3.50868   
  1152. RY*(  23) C  56                  0.00000     3.42681   
  1153. RY*(  24) C  56                  0.00000     3.33571   
  1154. RY*(  25) C  56                  0.00000     3.74931   
  1155. RY*(  26) C  56                  0.00000     3.49454   
  1156. RY*(   1) H  57                  0.00046     0.92770   
  1157. RY*(   2) H  57                  0.00009     1.80193   
  1158. RY*(   3) H  57                  0.00003     2.12949   
  1159. RY*(   4) H  57                  0.00003     2.04111   
  1160. RY*(   5) H  57                  0.00000     2.97666   
  1161. RY*(   1) H  58                  0.00042     0.91652   
  1162. RY*(   2) H  58                  0.00009     1.88156   
  1163. RY*(   3) H  58                  0.00003     2.14571   
  1164. RY*(   4) H  58                  0.00003     2.01426   
  1165. RY*(   5) H  58                  0.00000     2.97828   
  1166. RY*(   1) H  59                  0.00036     0.86345   
  1167. RY*(   2) H  59                  0.00006     1.69601   
  1168. RY*(   3) H  59                  0.00006     2.17157   
  1169. RY*(   4) H  59                  0.00004     2.09450   
  1170. RY*(   5) H  59                  0.00000     2.99615   
  1171. RY*(   1) C  60                  0.00070     1.17009   
  1172. RY*(   2) C  60                  0.00068     1.38959   
  1173. RY*(   3) C  60                  0.00037     1.38021   
  1174. RY*(   4) C  60                  0.00007     1.09163   
  1175. RY*(   5) C  60                  0.00001     1.59979   
  1176. RY*(   6) C  60                  0.00002     1.53716   
  1177. RY*(   7) C  60                  0.00001     1.55785   
  1178. RY*(   8) C  60                  0.00002     2.25250   
  1179. RY*(   9) C  60                  0.00000    21.62184   
  1180. RY*(  10) C  60                  0.00001     3.56367   
  1181. RY*(  11) C  60                  0.00000     2.54823   
  1182. RY*(  12) C  60                  0.00000     2.80489   
  1183. RY*(  13) C  60                  0.00000     2.35384   
  1184. RY*(  14) C  60                  0.00000     2.16167   
  1185. RY*(  15) C  60                  0.00000     2.48031   
  1186. RY*(  16) C  60                  0.00000     1.76423   
  1187. RY*(  17) C  60                  0.00001     2.90389   
  1188. RY*(  18) C  60                  0.00000     3.07769   
  1189. RY*(  19) C  60                  0.00000     2.58923   
  1190. RY*(  20) C  60                  0.00000     3.23727   
  1191. RY*(  21) C  60                  0.00000     3.87008   
  1192. RY*(  22) C  60                  0.00000     3.48874   
  1193. RY*(  23) C  60                  0.00000     3.44119   
  1194. RY*(  24) C  60                  0.00000     3.31193   
  1195. RY*(  25) C  60                  0.00000     3.91275   
  1196. RY*(  26) C  60                  0.00000     3.70533   
  1197. RY*(   1) H  61                  0.00035     0.85405   
  1198. RY*(   2) H  61                  0.00007     1.71435   
  1199. RY*(   3) H  61                  0.00006     2.17209   
  1200. RY*(   4) H  61                  0.00004     2.08680   
  1201. RY*(   5) H  61                  0.00000     3.00503   
  1202. RY*(   1) H  62                  0.00043     0.91356   
  1203. RY*(   2) H  62                  0.00009     1.84492   
  1204. RY*(   3) H  62                  0.00003     2.14534   
  1205. RY*(   4) H  62                  0.00003     1.99908   
  1206. RY*(   5) H  62                  0.00000     2.97524   
  1207. RY*(   1) H  63                  0.00041     0.92564   
  1208. RY*(   2) H  63                  0.00009     1.83264   
  1209. RY*(   3) H  63                  0.00003     2.15760   
  1210. RY*(   4) H  63                  0.00003     1.99464   
  1211. RY*(   5) H  63                  0.00000     2.97404   
  1399. BD*(   1) N   2 - C   6          0.01342     0.50449   
  1400. BD*(   2) N   2 - C   6          0.32451     0.00957  1414(v),1419(v),1406(r)
                                                    294(g),149(r),146(r),190(g)
                                                    145(r),708(v),1398(r),148(r)
                                                    147(r),1484(r),143(r)
  1401. BD*(   1) N   2 - C   9          0.01360     0.49990   
  1402. BD*(   1) N   3 - C  10          0.01355     0.50278   
  1403. BD*(   2) N   3 - C  10          0.32354     0.01308  1419(v),1423(v),154(v)
                                                    145(r),398(g),149(r),216(g)
                                                    739(v),148(r),1487(r),144(r)
                                                    143(r),1484(r),1398(r)
  1404. BD*(   1) N   3 - C  13          0.01312     0.50652   
  1405. BD*(   1) N   4 - C  14          0.01369     0.50478   
  1406. BD*(   2) N   4 - C  14          0.33924     0.00996  158(v),1431(v),155(v)
                                                    1400(r),502(g),149(r),146(r)
                                                    242(g),771(v),501(g),145(r)
                                                    1484(r),1398(r),148(r)
                                                    1487(r),147(r),143(r)
  1407. BD*(   1) N   4 - C  17          0.01312     0.50798   
  1408. BD*(   1) N   5 - C  18          0.01359     0.50924   
  1409. BD*(   2) N   5 - C  18          0.32374     0.01569  1439(v),156(v),145(r),606(g)
                                                    149(r),268(g),802(v),148(r)
                                                    144(r),143(r),1487(r),147(r)
                                                    1489(r)
  1410. BD*(   1) N   5 - C  21          0.01347     0.50972   
  1411. BD*(   1) C   6 - C   7          0.01699     0.49144   
  1412. BD*(   1) C   6 - C  22          0.01034     0.58588   
  1413. BD*(   1) C   7 - C   8          0.01134     0.60726   
  1414. BD*(   2) C   7 - C   8          0.12991     0.06904  1419(v),1400(v),1449(v)
                                                    1451(v),1452(v),1450(v)
  1415. BD*(   1) C   7 - C  34          0.00859     0.41464   
  1416. BD*(   1) C   8 - C   9          0.01727     0.49032   
  1417. BD*(   1) C   8 - C  30          0.00856     0.41288   
  1418. BD*(   1) C   9 - C  24          0.01041     0.58336   
  1419. BD*(   2) C   9 - C  24          0.19917     0.05130  1403(v),1414(v),1400(v)
                                                    739(g),374(g),149(r),1398(r)
  1420. BD*(   1) C  10 - C  11          0.01666     0.51042   
  1421. BD*(   1) C  10 - C  24          0.01052     0.58071   
  1422. BD*(   1) C  11 - C  12          0.01101     0.60374   
  1423. BD*(   2) C  11 - C  12          0.12905     0.08401  1459(v),1403(v),154(v)
                                                    1454(v),1455(v),1457(v)
  1424. BD*(   1) C  11 - C  38          0.00827     0.42350   
  1425. BD*(   1) C  12 - C  13          0.01839     0.49915   
  1426. BD*(   1) C  12 - C  42          0.01324     0.50302   
  1427. BD*(   1) C  13 - C  26          0.01013     0.59350   
  1428. BD*(   1) C  14 - C  15          0.01663     0.50133   
  1429. BD*(   1) C  14 - C  26          0.01061     0.58781   
  1430. BD*(   1) C  15 - C  16          0.01245     0.59405   
  1431. BD*(   2) C  15 - C  16          0.15098     0.06695  1467(v),1406(v),155(v)
                                                    1463(v),1462(v)
  1432. BD*(   1) C  15 - C  47          0.00808     0.42049   
  1433. BD*(   1) C  16 - C  17          0.01692     0.49028   
  1434. BD*(   1) C  16 - C  51          0.01330     0.49720   
  1435. BD*(   1) C  17 - C  28          0.01042     0.58085   
  1436. BD*(   1) C  18 - C  19          0.01699     0.50190   
  1437. BD*(   1) C  18 - C  28          0.01047     0.58539   
  1438. BD*(   1) C  19 - C  20          0.01118     0.61697   
  1439. BD*(   2) C  19 - C  20          0.11296     0.08558  1409(v),156(v),1470(v)
                                                    1474(v),1475(v),1471(v)
  1440. BD*(   1) C  19 - C  56          0.00851     0.42244   
  1441. BD*(   1) C  20 - C  21          0.01667     0.50128   
  1442. BD*(   1) C  20 - C  60          0.00855     0.42373   
  1443. BD*(   1) C  21 - C  22          0.01015     0.58959   
  1444. BD*(   1) C  22 - H  23          0.00629     0.44141   
  1445. BD*(   1) C  24 - H  25          0.00639     0.44046   
  1446. BD*(   1) C  26 - H  27          0.00712     0.45170   
  1447. BD*(   1) C  28 - H  29          0.00647     0.44128   
  1448. BD*(   1) C  30 - H  31          0.00331     0.38950   
  1449. BD*(   1) C  30 - H  32          0.00549     0.37666   
  1450. BD*(   1) C  30 - H  33          0.00482     0.38089   
  1451. BD*(   1) C  34 - H  35          0.00501     0.38199   
  1452. BD*(   1) C  34 - H  36          0.00505     0.38045   
  1453. BD*(   1) C  34 - H  37          0.00326     0.39061   
  1454. BD*(   1) C  38 - H  39          0.00549     0.38646   
  1455. BD*(   1) C  38 - H  40          0.00472     0.38484   
  1456. BD*(   1) C  38 - H  41          0.00302     0.39695   
  1457. BD*(   1) C  42 - H  43          0.01079     0.42902   
  1458. BD*(   1) C  42 - C  44          0.00366     0.62971   
  1459. BD*(   2) C  42 - C  44          0.02858     0.08137   
  1460. BD*(   1) C  44 - H  45          0.00573     0.44456   
  1461. BD*(   1) C  44 - H  46          0.00452     0.44446   
  1462. BD*(   1) C  47 - H  48          0.00459     0.39259   
  1463. BD*(   1) C  47 - H  49          0.00566     0.38257   
  1464. BD*(   1) C  47 - H  50          0.00393     0.39713   
  1465. BD*(   1) C  51 - H  52          0.01049     0.42542   
  1466. BD*(   1) C  51 - C  53          0.00383     0.63282   
  1467. BD*(   2) C  51 - C  53          0.03739     0.05872   
  1468. BD*(   1) C  53 - H  54          0.00553     0.43593   
  1469. BD*(   1) C  53 - H  55          0.00425     0.43582   
  1470. BD*(   1) C  56 - H  57          0.00540     0.38506   
  1471. BD*(   1) C  56 - H  58          0.00486     0.38574   
  1472. BD*(   1) C  56 - H  59          0.00331     0.39529   
  1473. BD*(   1) C  60 - H  61          0.00329     0.39643   
  1474. BD*(   1) C  60 - H  62          0.00499     0.38692   
  1475. BD*(   1) C  60 - H  63          0.00491     0.38716   
       -------------------------------
              Total Lewis  114.13327  ( 96.7101%)
        Valence non-Lewis    3.64963  (  3.0925%)
        Rydberg non-Lewis    0.23298  (  0.1974%)
       -------------------------------
            Total unit  2  118.01588  (100.0000%)
           Charge unit  2   -0.01588
 Unable to Open any file for archive entry.
 1\1\GINC-BGN1019\SP\UAPFD\def2TZVP\C34H34Fe1N6(5)\BECSLEIP\12-Sep-2024
 \0\\# apfd/def2TZVP guess=read scf=maxcycle=999 geom=check pop=nbo\\5a
 og_II_Q\\0,5\Fe,0,-3.020193802,62.4527161313,10.2120907225\N,0,-4.4708
 427301,62.4178639928,8.8514392638\N,0,-2.3828477109,64.2181377191,9.49
 9922183\N,0,-1.6306070558,62.5626497891,11.6441834316\N,0,-3.692925336
 1,60.7481215388,10.9748505895\C,0,-5.5009336759,61.5285453886,8.774523
 5947\C,0,-6.3888363535,61.8648210264,7.6848279456\C,0,-5.9631796185,63
 .0632784868,7.2047446647\C,0,-4.7921852489,63.4164394693,7.9769580733\
 C,0,-2.884564852,64.8850971466,8.4221828042\C,0,-2.1032693075,66.05873
 43736,8.1355847676\C,0,-1.1720918897,66.154003352,9.1329064866\C,0,-1.
 3788422725,64.9997728336,9.9842394238\C,0,-0.7852283609,63.6019037188,
 11.9018373799\C,0,-0.0469823937,63.3807748915,13.1174484952\C,0,-0.478
 6471039,62.1805800195,13.6161723227\C,0,-1.4832766793,61.7017109836,12
 .6881596562\C,0,-3.147725164,60.0418299997,12.0030871528\C,0,-3.777303
 2853,58.7456433039,12.124716048\C,0,-4.7898882442,58.7289701235,11.217
 0073702\C,0,-4.729178958,59.992946739,10.5170381996\C,0,-5.5964581691,
 60.3599143024,9.5071198241\H,0,-6.4173632406,59.6952488845,9.285836264
 1\C,0,-4.0012709826,64.5121377977,7.6958090632\H,0,-4.3194142066,65.17
 01726216,6.9014801355\C,0,-0.6008623427,64.7012425396,11.0829309502\H,
 0,0.1815446484,65.3963684537,11.3425379031\C,0,-2.1215865583,60.481428
 4397,12.8152478028\H,0,-1.8231095973,59.841664884,13.6317070743\C,0,-6
 .527880837,63.8969494298,6.1059650305\H,0,-7.4403663326,63.4537515191,
 5.7148992154\H,0,-5.8144493179,63.9915471272,5.2862591485\H,0,-6.76062
 23838,64.8979357183,6.4684811768\C,0,-7.5581785183,61.0406717077,7.268
 2830478\H,0,-8.2635370595,60.9323975124,8.0922991642\H,0,-7.2354847518
 ,60.0440259078,6.9665486283\H,0,-8.0771318754,61.5008064511,6.43112028
 \C,0,-2.3522192148,67.002024169,7.0097933408\H,0,-3.3015182106,67.5211
 339016,7.1470359019\H,0,-2.3944150662,66.4681255234,6.0601913285\H,0,-
 1.5634486875,67.7483105739,6.9571699816\C,0,-0.1993187186,67.214517931
 2,9.3137706603\H,0,0.2952055317,67.5480993665,8.4073252132\C,0,0.08221
 58281,67.8163283672,10.4627941735\H,0,-0.4227740872,67.561052537,11.37
 90328872\H,0,0.8106097428,68.6079532851,10.5222913274\C,0,0.9188596427
 ,64.3422493343,13.716161108\H,0,0.5787177567,65.3668881761,13.57579110
 02\H,0,1.901176408,64.2464393756,13.2505610207\H,0,1.0232193178,64.152
 0668034,14.7823876197\C,0,-0.0960550213,61.5033135855,14.8355787971\H,
 0,-0.8824555591,60.9383336863,15.3224948103\C,0,1.1162061737,61.521452
 684,15.3800491878\H,0,1.9452350962,62.0272329301,14.9166629174\H,0,1.3
 268981677,61.005051686,16.3018968726\C,0,-3.3746685817,57.7055745941,1
 3.1127919157\H,0,-3.5540736247,58.0537700334,14.1305652919\H,0,-2.3135
 946909,57.4758277853,13.0168247871\H,0,-3.9399535054,56.7893454439,12.
 961326436\C,0,-5.7820159207,57.6560162267,10.9265082443\H,0,-5.6201522
 073,56.7946653641,11.5698228957\H,0,-5.7035743091,57.3315791749,9.8886
 230816\H,0,-6.7963368662,58.0199161342,11.0910431417\C,0,0.6752321383,
 58.9014151174,7.9687398047\H,0,1.6266340331,59.3050909973,7.6224910709
 \H,0,0.3151194401,58.191203191,7.2246157702\H,0,0.8408345588,58.373731
 6111,8.902716839\N,0,-0.7413654782,60.8041453428,7.1668283877\H,0,-0.4
 425393272,60.7551897774,6.2065276812\C,0,-0.3131477794,59.9886722887,8
 .1808442818\C,0,-1.6307697809,61.6773090053,7.6891130941\H,0,-2.131334
 6154,62.4362597819,7.1225220934\N,0,-1.7935018021,61.4660084013,8.9750
 117624\C,0,-0.9774257065,60.4172038528,9.294180985\H,0,-0.9237835063,6
 0.0436976366,10.296468903\\Version=ES64L-G16RevC.02\State=5-A\HF=-2907
 .5680535\S2=6.066144\S2-1=0.\S2A=6.001157\RMSD=2.285e-09\Dipole=0.9551
 287,-1.488434,-2.0597812\Quadrupole=-1.4038968,-6.0807194,7.4846161,-4
 .550115,-2.5443173,2.2848399\PG=C01 [X(C34H34Fe1N6)]\\@
 The archive entry for this job was punched.


 STEINBACH'S GUIDELINES FOR SYSTEMS PROGRAMMING:
 NEVER TEST FOR AN ERROR CONDITION YOU DON'T KNOW HOW
 TO HANDLE.
 Job cpu time:       1 days 11 hours  2 minutes 43.7 seconds.
 Elapsed time:       0 days  0 hours 32 minutes 21.3 seconds.
 File lengths (MBytes):  RWF=   2047 Int=      0 D2E=      0 Chk=    186 Scr=      1
 Normal termination of Gaussian 16 at Thu Sep 12 23:15:57 2024.
