 Entering Gaussian System, Link 0=g16
 Input=5b5112re.com
 Output=5b5112re.log
 Initial command:
 /sw/chem/gaussian/g16_C02/a100/g16/l1.exe "/local/becsleip_8015163/Gau-2974751.inp" -scrdir="/local/becsleip_8015163/"
 Entering Link 1 = /sw/chem/gaussian/g16_C02/a100/g16/l1.exe PID=   2974752.
  
 Copyright (c) 1988-2021, Gaussian, Inc.  All Rights Reserved.
  
 This is part of the Gaussian(R) 16 program.  It is based on
 the Gaussian(R) 09 system (copyright 2009, Gaussian, Inc.),
 the Gaussian(R) 03 system (copyright 2003, Gaussian, Inc.),
 the Gaussian(R) 98 system (copyright 1998, Gaussian, Inc.),
 the Gaussian(R) 94 system (copyright 1995, Gaussian, Inc.),
 the Gaussian 92(TM) system (copyright 1992, Gaussian, Inc.),
 the Gaussian 90(TM) system (copyright 1990, Gaussian, Inc.),
 the Gaussian 88(TM) system (copyright 1988, Gaussian, Inc.),
 the Gaussian 86(TM) system (copyright 1986, Carnegie Mellon
 University), and the Gaussian 82(TM) system (copyright 1983,
 Carnegie Mellon University). Gaussian is a federally registered
 trademark of Gaussian, Inc.
  
 This software contains proprietary and confidential information,
 including trade secrets, belonging to Gaussian, Inc.
  
 This software is provided under written license and may be
 used, copied, transmitted, or stored only in accord with that
 written license.
  
 The following legend is applicable only to US Government
 contracts under FAR:
  
                    RESTRICTED RIGHTS LEGEND
  
 Use, reproduction and disclosure by the US Government is
 subject to restrictions as set forth in subparagraphs (a)
 and (c) of the Commercial Computer Software - Restricted
 Rights clause in FAR 52.227-19.
  
 Gaussian, Inc.
 340 Quinnipiac St., Bldg. 40, Wallingford CT 06492
  
  
 ---------------------------------------------------------------
 Warning -- This program may not be used in any manner that
 competes with the business of Gaussian, Inc. or will provide
 assistance to any competitor of Gaussian, Inc.  The licensee
 of this program is prohibited from giving any competitor of
 Gaussian, Inc. access to this program.  By using this program,
 the user acknowledges that Gaussian, Inc. is engaged in the
 business of creating and licensing software in the field of
 computational chemistry and represents and warrants to the
 licensee that it is not a competitor of Gaussian, Inc. and that
 it will not use this program in any manner prohibited above.
 ---------------------------------------------------------------
  

 Cite this work as:
 Gaussian 16, Revision C.02,
 M. J. Frisch, G. W. Trucks, H. B. Schlegel, G. E. Scuseria, 
 M. A. Robb, J. R. Cheeseman, G. Scalmani, V. Barone, 
 G. A. Petersson, H. Nakatsuji, X. Li, M. Caricato, A. V. Marenich, 
 J. Bloino, B. G. Janesko, R. Gomperts, B. Mennucci, H. P. Hratchian, 
 J. V. Ortiz, A. F. Izmaylov, J. L. Sonnenberg, D. Williams-Young, 
 F. Ding, F. Lipparini, F. Egidi, J. Goings, B. Peng, A. Petrone, 
 T. Henderson, D. Ranasinghe, V. G. Zakrzewski, J. Gao, N. Rega, 
 G. Zheng, W. Liang, M. Hada, M. Ehara, K. Toyota, R. Fukuda, 
 J. Hasegawa, M. Ishida, T. Nakajima, Y. Honda, O. Kitao, H. Nakai, 
 T. Vreven, K. Throssell, J. A. Montgomery, Jr., J. E. Peralta, 
 F. Ogliaro, M. J. Bearpark, J. J. Heyd, E. N. Brothers, K. N. Kudin, 
 V. N. Staroverov, T. A. Keith, R. Kobayashi, J. Normand, 
 K. Raghavachari, A. P. Rendell, J. C. Burant, S. S. Iyengar, 
 J. Tomasi, M. Cossi, J. M. Millam, M. Klene, C. Adamo, R. Cammi, 
 J. W. Ochterski, R. L. Martin, K. Morokuma, O. Farkas, 
 J. B. Foresman, and D. J. Fox, Gaussian, Inc., Wallingford CT, 2019.
 
 ******************************************
 Gaussian 16:  ES64L-G16RevC.02  7-Dec-2021
                12-Sep-2024 
 ******************************************
 %mem=16GB
 %CPU=0-71
 SetSPE:  set environment variable "OMP_PROC_BIND" = "true"
 SetSPE:  set environment variable "OMP_PLACES" = "{0},{1},{2},{3},{4},{5},{6},{7},{8},{9},{10},{11},{12},{13},{14},{15},{16},{17},{18},{19},{20},{21},{22},{23},{24},{25},{26},{27},{28},{29},{30},{31},{32},{33},{34},{35},{36},{37},{38},{39},{40},{41},{42},{43},{44},{45},{46},{47},{48},{49},{50},{51},{52},{53},{54},{55},{56},{57},{58},{59},{60},{61},{62},{63},{64},{65},{66},{67},{68},{69},{70},{71}"
 Will use up to   72 processors via shared memory.
 %gpucpu=0,1,2,3=0,1,2,3
 Will use    4 GPUs:
 Thread  CPU   GPU
      0    0     0
      1    1     1
      2    2     2
      3    3     3
      4    4    -1
      5    5    -1
      6    6    -1
      7    7    -1
      8    8    -1
      9    9    -1
     10   10    -1
     11   11    -1
     12   12    -1
     13   13    -1
     14   14    -1
     15   15    -1
     16   16    -1
     17   17    -1
     18   18    -1
     19   19    -1
     20   20    -1
     21   21    -1
     22   22    -1
     23   23    -1
     24   24    -1
     25   25    -1
     26   26    -1
     27   27    -1
     28   28    -1
     29   29    -1
     30   30    -1
     31   31    -1
     32   32    -1
     33   33    -1
     34   34    -1
     35   35    -1
     36   36    -1
     37   37    -1
     38   38    -1
     39   39    -1
     40   40    -1
     41   41    -1
     42   42    -1
     43   43    -1
     44   44    -1
     45   45    -1
     46   46    -1
     47   47    -1
     48   48    -1
     49   49    -1
     50   50    -1
     51   51    -1
     52   52    -1
     53   53    -1
     54   54    -1
     55   55    -1
     56   56    -1
     57   57    -1
     58   58    -1
     59   59    -1
     60   60    -1
     61   61    -1
     62   62    -1
     63   63    -1
     64   64    -1
     65   65    -1
     66   66    -1
     67   67    -1
     68   68    -1
     69   69    -1
     70   70    -1
     71   71    -1
 SetGPE:  set environment variable "OMP_PROC_BIND" = "true"
 SetGPE:  set environment variable "OMP_PLACES" = "{0},{1},{2},{3},{4},{5},{6},{7},{8},{9},{10},{11},{12},{13},{14},{15},{16},{17},{18},{19},{20},{21},{22},{23},{24},{25},{26},{27},{28},{29},{30},{31},{32},{33},{34},{35},{36},{37},{38},{39},{40},{41},{42},{43},{44},{45},{46},{47},{48},{49},{50},{51},{52},{53},{54},{55},{56},{57},{58},{59},{60},{61},{62},{63},{64},{65},{66},{67},{68},{69},{70},{71}"
 %oldchk=5b51_II_S.chk
 %chk=5b51_II_Sre.chk
 Properties for Device   0
 Minimum vector length:                              32
 Maximum vector length:                            1024
 Number of SMPs:                                    108
 Maximum number of threads per SMP:                2048
 Number of ASync Engines:                             5
 Memory:                                           9207742464
 Properties for Device   1
 Minimum vector length:                              32
 Maximum vector length:                            1024
 Number of SMPs:                                    108
 Maximum number of threads per SMP:                2048
 Number of ASync Engines:                             5
 Memory:                                           9207742464
 Properties for Device   2
 Minimum vector length:                              32
 Maximum vector length:                            1024
 Number of SMPs:                                    108
 Maximum number of threads per SMP:                2048
 Number of ASync Engines:                             5
 Memory:                                           9207742464
 Properties for Device   3
 Minimum vector length:                              32
 Maximum vector length:                            1024
 Number of SMPs:                                    108
 Maximum number of threads per SMP:                2048
 Number of ASync Engines:                             5
 Memory:                                           9207742464
   8286968217 words of memory will be used on each GPU.
 Copying data from "5b51_II_S.chk" to current chk file "5b51_II_Sre.chk"
 IOpt=  2 FromEx=T IUOpen= 4 IOptOp= 5 NList=   0 IFRang= 0 IUIn= 4 IUOut= 2.
 --------------------------------------
 # apfd/gen scf=maxcycle=999 geom=check
 --------------------------------------
 1/29=2,38=1,172=1/1;
 2/12=2,40=1/2;
 3/5=7,11=2,14=-4,25=1,30=1,74=-44/1,2,3;
 4//1;
 5/5=2,7=999,38=5/2;
 6/7=2,8=2,9=2,10=2,28=1/1;
 99/5=1,9=1/99;
 ----------
 5b51_III_D
 ----------
 Structure from the checkpoint file:  "5b51_II_Sre.chk"
 Charge =  1 Multiplicity = 2
 Z-Matrix found in chk file.
 Fe,0,20.9677620683,63.9003159279,152.256234071
 N,0,20.168644632,62.4846427365,153.3828411322
 N,0,22.4664058438,64.1124725014,153.595698894
 N,0,21.8283844776,65.3476529161,151.1348428965
 N,0,19.5930839914,63.6229174456,150.8335409677
 C,0,19.0731701018,61.7431638019,153.0691506033
 C,0,18.7955394043,60.7772474598,154.1108909548
 C,0,19.7529270111,60.9523364853,155.0594159248
 C,0,20.6116166656,62.0136129322,154.5771923512
 C,0,22.5899015978,63.4442233941,154.7752105517
 C,0,23.7660493425,63.8717607124,155.487006049
 C,0,24.3649533815,64.8200523504,154.7048896578
 C,0,23.5216107972,64.9646754752,153.5351159817
 C,0,22.9864319452,66.0140271714,151.3900377386
 C,0,23.3249843999,66.8954147986,150.3038843038
 C,0,22.3391717117,66.7464168163,149.3647934114
 C,0,21.4254490027,65.7564247333,149.9012603211
 C,0,19.4723356507,64.2844727377,149.6502521699
 C,0,18.3285427781,63.8003489869,148.912389679
 C,0,17.7745372799,62.8149598266,149.6717066911
 C,0,18.5713634421,62.727558606,150.8736075407
 C,0,18.3301592506,61.8431008301,151.9083529006
 H,0,17.4847446612,61.1806903681,151.8021771322
 C,0,21.7110721728,62.4892795739,155.2620082024
 H,0,21.9424578545,62.0382519486,156.2151687603
 C,0,23.7761463403,65.8517529845,152.511634972
 H,0,24.6343638826,66.4953831168,152.6135581056
 C,0,20.2947699156,65.3172723611,149.2332151338
 H,0,20.0673057663,65.7752190519,148.2821020377
 C,0,19.9515912641,60.2332035322,156.3499254997
 H,0,19.1836514248,59.477338802,156.4941713679
 H,0,19.9080698421,60.9310414516,157.1868697321
 H,0,20.9241678483,59.7415933068,156.3705382379
 C,0,17.6575354662,59.8154183444,154.0834981143
 H,0,17.7296169248,59.1590329153,153.2160159553
 H,0,16.7083833933,60.3493626522,154.0250346291
 H,0,17.6503220648,59.198723681,154.9787984521
 C,0,24.2280695243,63.3223361671,156.7930753482
 H,0,24.4455029711,62.2573107359,156.7052501171
 H,0,23.462270049,63.4465448756,157.5596022975
 H,0,25.1329558424,63.8282538591,157.1203979531
 C,0,25.6087346458,65.5119385731,154.979001277
 H,0,25.7516537697,65.819890166,156.0097732131
 C,0,26.5705062613,65.7471603689,154.094786349
 H,0,26.4951532402,65.4145043553,153.0734156535
 H,0,27.4755562782,66.2638695611,154.3689485391
 C,0,24.5746716812,67.6987138854,150.2184775875
 H,0,25.4166463295,67.1335041682,150.6149765464
 H,0,24.4868395068,68.6229526652,150.7918634469
 H,0,24.7835988066,67.9547170495,149.1818807543
 C,0,22.2200475728,67.3607292437,148.0615640953
 H,0,21.7626203469,66.7466630143,147.2939821593
 C,0,22.6190881612,68.5883281527,147.7441874755
 H,0,23.0365439027,69.2626663459,148.4713530852
 H,0,22.517643667,68.9707558805,146.7419039732
 C,0,17.9146234008,64.3085729239,147.5733054623
 H,0,18.7091939877,64.1568985327,146.8416270791
 H,0,17.6971396904,65.3760472041,147.6166640615
 H,0,17.0244149098,63.7929277995,147.2220130004
 C,0,16.5855257638,61.9628324762,149.3882758919
 H,0,16.8688470095,60.9102050634,149.3626760098
 H,0,16.1413009856,62.2219354525,148.4300631969
 H,0,15.8290217719,62.0896832499,150.1627843358
 C,0,17.6216574126,68.1820838352,153.3894954051
 H,0,18.0181412375,69.023411058,153.9573147672
 H,0,16.6240563725,67.955444572,153.7657746071
 H,0,17.5422766742,68.4716266161,152.3463036442
 N,0,18.8276717367,66.4268494134,154.710343358
 H,0,18.5076536067,66.7368978825,155.613076473
 C,0,18.5109116395,66.9993028539,153.5065462926
 C,0,19.6448995794,65.3781030095,154.4628772995
 H,0,20.0550462053,64.7443973809,155.2222779581
 N,0,19.8626143345,65.2517994435,153.1762329729
 C,0,19.1645253929,66.2534577282,152.5690677649
 H,0,19.1830442266,66.3718737055,151.5058007607
 C,0,27.4731337276,64.1257212791,150.0580164678
 H,0,27.9120505488,64.526389296,150.9695763894
 H,0,27.493985684,64.8938888848,149.2885933211
 H,0,28.0975259225,63.2954765263,149.7259232129
 C,0,26.0710138493,63.6530635703,150.3029752536
 C,0,25.735763201,63.0151534081,151.4925141107
 H,0,26.4929585694,62.8659359129,152.2487660395
 C,0,24.4481446809,62.5782667008,151.729701626
 H,0,24.178747979,62.1011359323,152.6579851116
 C,0,23.4651244395,62.7767782885,150.7683287165
 O,0,22.1826047509,62.3658196709,151.042018253
 H,0,21.6383729318,62.4796986334,150.2488112647
 C,0,25.0839627948,63.8232517469,149.3425698177
 H,0,25.3221059016,64.314040521,148.4099774275
 C,0,23.7917794437,63.3836056083,149.5647697888
 H,0,23.0278334953,63.5382220358,148.8144818564
 Recover connectivity data from disk.
 Stoichiometry    C41H42FeN6O(1+,2)
 Framework group  C1[X(C41H42FeN6O)]
 Deg. of freedom   267
 Full point group                 C1      NOp   1
 Largest Abelian subgroup         C1      NOp   1
 Largest concise Abelian subgroup C1      NOp   1
                         Standard orientation:                         
 ---------------------------------------------------------------------
 Center     Atomic      Atomic             Coordinates (Angstroms)
 Number     Number       Type             X           Y           Z
 ---------------------------------------------------------------------
      1         26           0       -0.630390   -0.071612   -0.008034
      2          7           0       -2.135073   -1.278054   -0.446658
      3          7           0        0.518850   -1.674611    0.433276
      4          7           0        0.940760    1.120104    0.443933
      5          7           0       -1.676892    1.532509   -0.575814
      6          6           0       -3.342864   -0.895240   -0.939558
      7          6           0       -4.186165   -2.047847   -1.175432
      8          6           0       -3.455682   -3.135895   -0.815581
      9          6           0       -2.169968   -2.634029   -0.378242
     10          6           0        0.123324   -2.976960    0.410859
     11          6           0        1.197890   -3.847029    0.812170
     12          6           0        2.268502   -3.038591    1.076495
     13          6           0        1.811431   -1.682237    0.848671
     14          6           0        2.187277    0.735881    0.829706
     15          6           0        3.061213    1.872115    0.957772
     16          6           0        2.313535    2.972344    0.631592
     17          6           0        0.995235    2.471322    0.294202
     18          6           0       -1.280748    2.834536   -0.561530
     19          6           0       -2.343119    3.693581   -1.031091
     20          6           0       -3.383324    2.874186   -1.348963
     21          6           0       -2.952146    1.529075   -1.045817
     22          6           0       -3.729397    0.400130   -1.226112
     23          1           0       -4.724992    0.545652   -1.616499
     24          6           0       -1.139676   -3.435056    0.069963
     25          1           0       -1.306454   -4.501426    0.092807
     26          6           0        2.599328   -0.566720    1.033192
     27          1           0        3.599910   -0.720393    1.402522
     28          6           0       -0.052189    3.283257   -0.107345
     29          1           0        0.120395    4.349088   -0.124405
     30          6           0       -3.826765   -4.579290   -0.846277
     31          1           0       -4.841401   -4.710478   -1.213938
     32          1           0       -3.765220   -5.010996    0.153317
     33          1           0       -3.152182   -5.136112   -1.496582
     34          6           0       -5.577755   -1.976925   -1.703982
     35          1           0       -5.591123   -1.513850   -2.690869
     36          1           0       -6.206905   -1.380312   -1.042447
     37          1           0       -6.011397   -2.970403   -1.786941
     38          6           0        1.126198   -5.334755    0.863933
     39          1           0        0.921473   -5.743087   -0.126330
     40          1           0        0.329939   -5.662330    1.533341
     41          1           0        2.067946   -5.749467    1.214699
     42          6           0        3.597953   -3.460321    1.470879
     43          1           0        3.633550   -4.272594    2.189696
     44          6           0        4.735204   -2.967219    0.995820
     45          1           0        4.748528   -2.196826    0.243588
     46          1           0        5.692332   -3.332647    1.329940
     47          6           0        4.514056    1.796530    1.270557
     48          1           0        4.964932    0.939201    0.773271
     49          1           0        4.679236    1.691149    2.344015
     50          1           0        5.016238    2.700222    0.931624
     51          6           0        2.717422    4.357936    0.548014
     52          1           0        2.225399    4.944060   -0.220016
     53          6           0        3.622297    4.949305    1.321606
     54          1           0        4.110502    4.434953    2.130846
     55          1           0        3.888793    5.984327    1.184407
     56          6           0       -2.237645    5.176326   -1.145585
     57          1           0       -1.433584    5.453383   -1.828540
     58          1           0       -2.022803    5.623453   -0.174709
     59          1           0       -3.165093    5.602425   -1.519813
     60          6           0       -4.724616    3.223167   -1.896093
     61          1           0       -4.878300    2.742685   -2.862772
     62          1           0       -4.822840    4.298172   -2.027840
     63          1           0       -5.513159    2.886430   -1.222994
     64          6           0       -2.184304    1.802387    4.980725
     65          1           0       -1.616417    1.494647    5.858364
     66          1           0       -3.245193    1.757859    5.227078
     67          1           0       -1.926003    2.828972    4.740328
     68          7           0       -2.065237   -0.425382    3.839312
     69          1           0       -2.417241   -0.960005    4.616319
     70          6           0       -1.875482    0.931361    3.819094
     71          6           0       -1.692963   -0.909162    2.632523
     72          1           0       -1.731088   -1.944775    2.363182
     73          7           0       -1.281131    0.059062    1.850384
     74          6           0       -1.388246    1.209176    2.574995
     75          1           0       -1.105175    2.152394    2.156531
     76          6           0        5.743491   -0.474110   -2.540715
     77          1           0        6.105420   -1.257063   -1.877303
     78          1           0        6.222726    0.464776   -2.273594
     79          1           0        6.046155   -0.732999   -3.556012
     80          6           0        4.250711   -0.353554   -2.460563
     81          6           0        3.453850   -1.486567   -2.335588
     82          1           0        3.917478   -2.461460   -2.289114
     83          6           0        2.079334   -1.387340   -2.258450
     84          1           0        1.458627   -2.260845   -2.141612
     85          6           0        1.475088   -0.137260   -2.304917
     86          8           0        0.107760   -0.061109   -2.189746
     87          1           0       -0.171210    0.854598   -2.338035
     88          6           0        3.631541    0.886415   -2.529267
     89          1           0        4.230486    1.780104   -2.628759
     90          6           0        2.254953    0.999006   -2.460505
     91          1           0        1.786159    1.973320   -2.497855
 ---------------------------------------------------------------------
 Rotational constants (GHZ):           0.0797115           0.0677441           0.0523074
 General basis read from cards:  (5D, 7F)
 There are   840 symmetry adapted cartesian basis functions of A   symmetry.
 There are   789 symmetry adapted basis functions of A   symmetry.
   789 basis functions,  1598 primitive gaussians,   840 cartesian basis functions
   182 alpha electrons      181 beta electrons
       nuclear repulsion energy      7650.1963312077 Hartrees.
 NAtoms=   91 NActive=   91 NUniq=   91 SFac= 1.00D+00 NAtFMM=   60 NAOKFM=T Big=T
 Integral buffers will be    131072 words long.
 Raffenetti 2 integral format.
 Two-electron integral symmetry is turned on.
 R6APFD:  NTU= -4 IXU= 1 FactS= 1.050
 Nuclear repulsion after empirical dispersion term =     7650.0079728471 Hartrees.
 One-electron integrals computed using PRISM.
 NBasis=   789 RedAO= T EigKep=  2.58D-04  NBF=   789
 NBsUse=   789 1.00D-06 EigRej= -1.00D+00 NBFU=   789
 ExpMin= 4.20D-02 ExpMax= 3.01D+05 ExpMxC= 2.91D+03 IAcc=3 IRadAn=         5 AccDes= 0.00D+00
 Harris functional with IExCor= 3731 and IRadAn=       5 diagonalized for initial guess.
 HarFok:  IExCor= 3731 AccDes= 0.00D+00 IRadAn=         5 IDoV= 1 UseB2=F ITyADJ=14
 ICtDFT=  3500011 ScaDFX=  1.000000  1.000000  1.000000  1.000000
 FoFCou: FMM=F IPFlag=           0 FMFlag=      100000 FMFlg1=        2001
         NFxFlg=           0 DoJE=T BraDBF=F KetDBF=T FulRan=T
         wScrn=  0.000000 ICntrl=       500 IOpCl=  0 I1Cent=   200000004 NGrid=           0
         NMat0=    1 NMatS0=      1 NMatT0=    0 NMatD0=    1 NMtDS0=    0 NMtDT0=    0
 Petite list used in FoFCou.
 Initial guess <Sx>= 0.0000 <Sy>= 0.0000 <Sz>= 0.5000 <S**2>= 0.7500 S= 0.5000
 Requested convergence on RMS density matrix=1.00D-08 within 999 cycles.
 Requested convergence on MAX density matrix=1.00D-06.
 Requested convergence on             energy=1.00D-06.
 No special actions if energy rises.
 EnCoef did   100 forward-backward iterations
 EnCoef did   100 forward-backward iterations
 EnCoef did   100 forward-backward iterations
 EnCoef did   100 forward-backward iterations
 EnCoef did     3 forward-backward iterations
 EnCoef did     3 forward-backward iterations
 EnCoef did     1 forward-backward iterations
 Restarting incremental Fock formation.
 Rare condition: small coef for last iteration:  0.000D+00
 Rare condition: small coef for last iteration:  0.000D+00
 Rare condition: small coef for last iteration:  0.000D+00
 Rare condition: small coef for last iteration:  0.000D+00
 Rare condition: small coef for last iteration:  0.000D+00
 Rare condition: small coef for last iteration:  0.000D+00
 Rare condition: small coef for last iteration:  0.000D+00
 Restarting incremental Fock formation.
 Restarting incremental Fock formation.
 Restarting incremental Fock formation.
 Restarting incremental Fock formation.
 SCF Done:  E(UAPFD) =  -3253.38453830     A.U. after  110 cycles
            NFock=110  Conv=0.57D-08     -V/T= 2.0039
 <Sx>= 0.0000 <Sy>= 0.0000 <Sz>= 0.5000 <S**2>= 0.8195 S= 0.5342
 <L.S>=  0.00000000000    
 Annihilation of the first spin contaminant:
 S**2 before annihilation     0.8195,   after     0.7512

 **********************************************************************

            Population analysis using the SCF Density.

 **********************************************************************

 Orbital symmetries:
 Alpha Orbitals:
       Occupied  (A) (A) (A) (A) (A) (A) (A) (A) (A) (A) (A) (A)
                 (A) (A) (A) (A) (A) (A) (A) (A) (A) (A) (A) (A)
                 (A) (A) (A) (A) (A) (A) (A) (A) (A) (A) (A) (A)
                 (A) (A) (A) (A) (A) (A) (A) (A) (A) (A) (A) (A)
                 (A) (A) (A) (A) (A) (A) (A) (A) (A) (A) (A) (A)
                 (A) (A) (A) (A) (A) (A) (A) (A) (A) (A) (A) (A)
                 (A) (A) (A) (A) (A) (A) (A) (A) (A) (A) (A) (A)
                 (A) (A) (A) (A) (A) (A) (A) (A) (A) (A) (A) (A)
                 (A) (A) (A) (A) (A) (A) (A) (A) (A) (A) (A) (A)
                 (A) (A) (A) (A) (A) (A) (A) (A) (A) (A) (A) (A)
                 (A) (A) (A) (A) (A) (A) (A) (A) (A) (A) (A) (A)
                 (A) (A) (A) (A) (A) (A) (A) (A) (A) (A) (A) (A)
                 (A) (A) (A) (A) (A) (A) (A) (A) (A) (A) (A) (A)
                 (A) (A) (A) (A) (A) (A) (A) (A) (A) (A) (A) (A)
                 (A) (A) (A) (A) (A) (A) (A) (A) (A) (A) (A) (A)
                 (A) (A)
       Virtual   (A) (A) (A) (A) (A) (A) (A) (A) (A) (A) (A) (A)
                 (A) (A) (A) (A) (A) (A) (A) (A) (A) (A) (A) (A)
                 (A) (A) (A) (A) (A) (A) (A) (A) (A) (A) (A) (A)
                 (A) (A) (A) (A) (A) (A) (A) (A) (A) (A) (A) (A)
                 (A) (A) (A) (A) (A) (A) (A) (A) (A) (A) (A) (A)
                 (A) (A) (A) (A) (A) (A) (A) (A) (A) (A) (A) (A)
                 (A) (A) (A) (A) (A) (A) (A) (A) (A) (A) (A) (A)
                 (A) (A) (A) (A) (A) (A) (A) (A) (A) (A) (A) (A)
                 (A) (A) (A) (A) (A) (A) (A) (A) (A) (A) (A) (A)
                 (A) (A) (A) (A) (A) (A) (A) (A) (A) (A) (A) (A)
                 (A) (A) (A) (A) (A) (A) (A) (A) (A) (A) (A) (A)
                 (A) (A) (A) (A) (A) (A) (A) (A) (A) (A) (A) (A)
                 (A) (A) (A) (A) (A) (A) (A) (A) (A) (A) (A) (A)
                 (A) (A) (A) (A) (A) (A) (A) (A) (A) (A) (A) (A)
                 (A) (A) (A) (A) (A) (A) (A) (A) (A) (A) (A) (A)
                 (A) (A) (A) (A) (A) (A) (A) (A) (A) (A) (A) (A)
                 (A) (A) (A) (A) (A) (A) (A) (A) (A) (A) (A) (A)
                 (A) (A) (A) (A) (A) (A) (A) (A) (A) (A) (A) (A)
                 (A) (A) (A) (A) (A) (A) (A) (A) (A) (A) (A) (A)
                 (A) (A) (A) (A) (A) (A) (A) (A) (A) (A) (A) (A)
                 (A) (A) (A) (A) (A) (A) (A) (A) (A) (A) (A) (A)
                 (A) (A) (A) (A) (A) (A) (A) (A) (A) (A) (A) (A)
                 (A) (A) (A) (A) (A) (A) (A) (A) (A) (A) (A) (A)
                 (A) (A) (A) (A) (A) (A) (A) (A) (A) (A) (A) (A)
                 (A) (A) (A) (A) (A) (A) (A) (A) (A) (A) (A) (A)
                 (A) (A) (A) (A) (A) (A) (A) (A) (A) (A) (A) (A)
                 (A) (A) (A) (A) (A) (A) (A) (A) (A) (A) (A) (A)
                 (A) (A) (A) (A) (A) (A) (A) (A) (A) (A) (A) (A)
                 (A) (A) (A) (A) (A) (A) (A) (A) (A) (A) (A) (A)
                 (A) (A) (A) (A) (A) (A) (A) (A) (A) (A) (A) (A)
                 (A) (A) (A) (A) (A) (A) (A) (A) (A) (A) (A) (A)
                 (A) (A) (A) (A) (A) (A) (A) (A) (A) (A) (A) (A)
                 (A) (A) (A) (A) (A) (A) (A) (A) (A) (A) (A) (A)
                 (A) (A) (A) (A) (A) (A) (A) (A) (A) (A) (A) (A)
                 (A) (A) (A) (A) (A) (A) (A) (A) (A) (A) (A) (A)
                 (A) (A) (A) (A) (A) (A) (A) (A) (A) (A) (A) (A)
                 (A) (A) (A) (A) (A) (A) (A) (A) (A) (A) (A) (A)
                 (A) (A) (A) (A) (A) (A) (A) (A) (A) (A) (A) (A)
                 (A) (A) (A) (A) (A) (A) (A) (A) (A) (A) (A) (A)
                 (A) (A) (A) (A) (A) (A) (A) (A) (A) (A) (A) (A)
                 (A) (A) (A) (A) (A) (A) (A) (A) (A) (A) (A) (A)
                 (A) (A) (A) (A) (A) (A) (A) (A) (A) (A) (A) (A)
                 (A) (A) (A) (A) (A) (A) (A) (A) (A) (A) (A) (A)
                 (A) (A) (A) (A) (A) (A) (A) (A) (A) (A) (A) (A)
                 (A) (A) (A) (A) (A) (A) (A) (A) (A) (A) (A) (A)
                 (A) (A) (A) (A) (A) (A) (A) (A) (A) (A) (A) (A)
                 (A) (A) (A) (A) (A) (A) (A) (A) (A) (A) (A) (A)
                 (A) (A) (A) (A) (A) (A) (A) (A) (A) (A) (A) (A)
                 (A) (A) (A) (A) (A) (A) (A) (A) (A) (A) (A) (A)
                 (A) (A) (A) (A) (A) (A) (A) (A) (A) (A) (A) (A)
                 (A) (A) (A) (A) (A) (A) (A)
 Beta  Orbitals:
       Occupied  (A) (A) (A) (A) (A) (A) (A) (A) (A) (A) (A) (A)
                 (A) (A) (A) (A) (A) (A) (A) (A) (A) (A) (A) (A)
                 (A) (A) (A) (A) (A) (A) (A) (A) (A) (A) (A) (A)
                 (A) (A) (A) (A) (A) (A) (A) (A) (A) (A) (A) (A)
                 (A) (A) (A) (A) (A) (A) (A) (A) (A) (A) (A) (A)
                 (A) (A) (A) (A) (A) (A) (A) (A) (A) (A) (A) (A)
                 (A) (A) (A) (A) (A) (A) (A) (A) (A) (A) (A) (A)
                 (A) (A) (A) (A) (A) (A) (A) (A) (A) (A) (A) (A)
                 (A) (A) (A) (A) (A) (A) (A) (A) (A) (A) (A) (A)
                 (A) (A) (A) (A) (A) (A) (A) (A) (A) (A) (A) (A)
                 (A) (A) (A) (A) (A) (A) (A) (A) (A) (A) (A) (A)
                 (A) (A) (A) (A) (A) (A) (A) (A) (A) (A) (A) (A)
                 (A) (A) (A) (A) (A) (A) (A) (A) (A) (A) (A) (A)
                 (A) (A) (A) (A) (A) (A) (A) (A) (A) (A) (A) (A)
                 (A) (A) (A) (A) (A) (A) (A) (A) (A) (A) (A) (A)
                 (A)
       Virtual   (A) (A) (A) (A) (A) (A) (A) (A) (A) (A) (A) (A)
                 (A) (A) (A) (A) (A) (A) (A) (A) (A) (A) (A) (A)
                 (A) (A) (A) (A) (A) (A) (A) (A) (A) (A) (A) (A)
                 (A) (A) (A) (A) (A) (A) (A) (A) (A) (A) (A) (A)
                 (A) (A) (A) (A) (A) (A) (A) (A) (A) (A) (A) (A)
                 (A) (A) (A) (A) (A) (A) (A) (A) (A) (A) (A) (A)
                 (A) (A) (A) (A) (A) (A) (A) (A) (A) (A) (A) (A)
                 (A) (A) (A) (A) (A) (A) (A) (A) (A) (A) (A) (A)
                 (A) (A) (A) (A) (A) (A) (A) (A) (A) (A) (A) (A)
                 (A) (A) (A) (A) (A) (A) (A) (A) (A) (A) (A) (A)
                 (A) (A) (A) (A) (A) (A) (A) (A) (A) (A) (A) (A)
                 (A) (A) (A) (A) (A) (A) (A) (A) (A) (A) (A) (A)
                 (A) (A) (A) (A) (A) (A) (A) (A) (A) (A) (A) (A)
                 (A) (A) (A) (A) (A) (A) (A) (A) (A) (A) (A) (A)
                 (A) (A) (A) (A) (A) (A) (A) (A) (A) (A) (A) (A)
                 (A) (A) (A) (A) (A) (A) (A) (A) (A) (A) (A) (A)
                 (A) (A) (A) (A) (A) (A) (A) (A) (A) (A) (A) (A)
                 (A) (A) (A) (A) (A) (A) (A) (A) (A) (A) (A) (A)
                 (A) (A) (A) (A) (A) (A) (A) (A) (A) (A) (A) (A)
                 (A) (A) (A) (A) (A) (A) (A) (A) (A) (A) (A) (A)
                 (A) (A) (A) (A) (A) (A) (A) (A) (A) (A) (A) (A)
                 (A) (A) (A) (A) (A) (A) (A) (A) (A) (A) (A) (A)
                 (A) (A) (A) (A) (A) (A) (A) (A) (A) (A) (A) (A)
                 (A) (A) (A) (A) (A) (A) (A) (A) (A) (A) (A) (A)
                 (A) (A) (A) (A) (A) (A) (A) (A) (A) (A) (A) (A)
                 (A) (A) (A) (A) (A) (A) (A) (A) (A) (A) (A) (A)
                 (A) (A) (A) (A) (A) (A) (A) (A) (A) (A) (A) (A)
                 (A) (A) (A) (A) (A) (A) (A) (A) (A) (A) (A) (A)
                 (A) (A) (A) (A) (A) (A) (A) (A) (A) (A) (A) (A)
                 (A) (A) (A) (A) (A) (A) (A) (A) (A) (A) (A) (A)
                 (A) (A) (A) (A) (A) (A) (A) (A) (A) (A) (A) (A)
                 (A) (A) (A) (A) (A) (A) (A) (A) (A) (A) (A) (A)
                 (A) (A) (A) (A) (A) (A) (A) (A) (A) (A) (A) (A)
                 (A) (A) (A) (A) (A) (A) (A) (A) (A) (A) (A) (A)
                 (A) (A) (A) (A) (A) (A) (A) (A) (A) (A) (A) (A)
                 (A) (A) (A) (A) (A) (A) (A) (A) (A) (A) (A) (A)
                 (A) (A) (A) (A) (A) (A) (A) (A) (A) (A) (A) (A)
                 (A) (A) (A) (A) (A) (A) (A) (A) (A) (A) (A) (A)
                 (A) (A) (A) (A) (A) (A) (A) (A) (A) (A) (A) (A)
                 (A) (A) (A) (A) (A) (A) (A) (A) (A) (A) (A) (A)
                 (A) (A) (A) (A) (A) (A) (A) (A) (A) (A) (A) (A)
                 (A) (A) (A) (A) (A) (A) (A) (A) (A) (A) (A) (A)
                 (A) (A) (A) (A) (A) (A) (A) (A) (A) (A) (A) (A)
                 (A) (A) (A) (A) (A) (A) (A) (A) (A) (A) (A) (A)
                 (A) (A) (A) (A) (A) (A) (A) (A) (A) (A) (A) (A)
                 (A) (A) (A) (A) (A) (A) (A) (A) (A) (A) (A) (A)
                 (A) (A) (A) (A) (A) (A) (A) (A) (A) (A) (A) (A)
                 (A) (A) (A) (A) (A) (A) (A) (A) (A) (A) (A) (A)
                 (A) (A) (A) (A) (A) (A) (A) (A) (A) (A) (A) (A)
                 (A) (A) (A) (A) (A) (A) (A) (A) (A) (A) (A) (A)
                 (A) (A) (A) (A) (A) (A) (A) (A)
 The electronic state is 2-A.
 Alpha  occ. eigenvalues -- -256.37830 -30.24730 -26.09404 -26.09213 -26.06427
 Alpha  occ. eigenvalues --  -19.33571 -14.54164 -14.51062 -14.47569 -14.47277
 Alpha  occ. eigenvalues --  -14.46598 -14.46594 -10.38292 -10.35368 -10.34965
 Alpha  occ. eigenvalues --  -10.33375 -10.33152 -10.33138 -10.33129 -10.33088
 Alpha  occ. eigenvalues --  -10.32827 -10.32822 -10.32767 -10.32518 -10.30499
 Alpha  occ. eigenvalues --  -10.30337 -10.30299 -10.30235 -10.30213 -10.30080
 Alpha  occ. eigenvalues --  -10.30042 -10.29873 -10.29708 -10.29591 -10.29508
 Alpha  occ. eigenvalues --  -10.29473 -10.29453 -10.29410 -10.29031 -10.28830
 Alpha  occ. eigenvalues --  -10.28753 -10.28333 -10.28285 -10.28259 -10.28196
 Alpha  occ. eigenvalues --  -10.28170 -10.28058 -10.28052 -10.27920 -10.27801
 Alpha  occ. eigenvalues --  -10.27643 -10.27485 -10.26414  -3.63512  -2.41868
 Alpha  occ. eigenvalues --   -2.41365  -2.35418  -1.19132  -1.17038  -1.08698
 Alpha  occ. eigenvalues --   -1.07966  -1.07263  -1.06588  -1.02853  -0.95546
 Alpha  occ. eigenvalues --   -0.93144  -0.91943  -0.91439  -0.91199  -0.90772
 Alpha  occ. eigenvalues --   -0.90594  -0.90394  -0.90224  -0.86629  -0.86418
 Alpha  occ. eigenvalues --   -0.85266  -0.84795  -0.84533  -0.84029  -0.82659
 Alpha  occ. eigenvalues --   -0.82234  -0.80695  -0.79808  -0.78408  -0.78090
 Alpha  occ. eigenvalues --   -0.77695  -0.77648  -0.76060  -0.74933  -0.74697
 Alpha  occ. eigenvalues --   -0.72408  -0.71963  -0.70523  -0.69847  -0.68801
 Alpha  occ. eigenvalues --   -0.68086  -0.67891  -0.66921  -0.64887  -0.64624
 Alpha  occ. eigenvalues --   -0.64289  -0.63654  -0.62554  -0.61420  -0.61211
 Alpha  occ. eigenvalues --   -0.60735  -0.59109  -0.58709  -0.58505  -0.58229
 Alpha  occ. eigenvalues --   -0.57905  -0.57657  -0.56163  -0.55777  -0.55218
 Alpha  occ. eigenvalues --   -0.55088  -0.54685  -0.54243  -0.53863  -0.53578
 Alpha  occ. eigenvalues --   -0.53510  -0.53194  -0.53039  -0.52872  -0.52699
 Alpha  occ. eigenvalues --   -0.52396  -0.52146  -0.51954  -0.51833  -0.51382
 Alpha  occ. eigenvalues --   -0.51065  -0.50871  -0.50572  -0.50523  -0.50327
 Alpha  occ. eigenvalues --   -0.50165  -0.50018  -0.49958  -0.49772  -0.49613
 Alpha  occ. eigenvalues --   -0.49485  -0.49277  -0.48760  -0.48637  -0.48294
 Alpha  occ. eigenvalues --   -0.48012  -0.47922  -0.47639  -0.47557  -0.47099
 Alpha  occ. eigenvalues --   -0.46823  -0.46533  -0.46100  -0.45973  -0.45730
 Alpha  occ. eigenvalues --   -0.45418  -0.44566  -0.43916  -0.43836  -0.43518
 Alpha  occ. eigenvalues --   -0.43179  -0.42816  -0.42475  -0.42313  -0.41711
 Alpha  occ. eigenvalues --   -0.41501  -0.40708  -0.39611  -0.39110  -0.38864
 Alpha  occ. eigenvalues --   -0.38619  -0.36981  -0.36628  -0.34594  -0.33789
 Alpha  occ. eigenvalues --   -0.33647  -0.32582  -0.32133  -0.31381  -0.31072
 Alpha  occ. eigenvalues --   -0.29111  -0.28272
 Alpha virt. eigenvalues --   -0.19169  -0.17011  -0.16771  -0.14086  -0.11195
 Alpha virt. eigenvalues --   -0.08900  -0.07940  -0.07721  -0.06606  -0.06279
 Alpha virt. eigenvalues --   -0.04803  -0.04118  -0.01946  -0.01577  -0.01058
 Alpha virt. eigenvalues --   -0.00825   0.00763   0.01269   0.01733   0.01949
 Alpha virt. eigenvalues --    0.02621   0.03517   0.03597   0.03881   0.04364
 Alpha virt. eigenvalues --    0.04523   0.04793   0.05323   0.05489   0.05598
 Alpha virt. eigenvalues --    0.05951   0.06062   0.06450   0.06717   0.07096
 Alpha virt. eigenvalues --    0.07311   0.07713   0.07770   0.07928   0.08268
 Alpha virt. eigenvalues --    0.08498   0.08694   0.09005   0.09418   0.09523
 Alpha virt. eigenvalues --    0.09588   0.09774   0.10046   0.10281   0.10661
 Alpha virt. eigenvalues --    0.10759   0.11152   0.11611   0.11991   0.12137
 Alpha virt. eigenvalues --    0.12182   0.12501   0.12972   0.13144   0.13355
 Alpha virt. eigenvalues --    0.13511   0.13641   0.13870   0.13943   0.14816
 Alpha virt. eigenvalues --    0.14839   0.15112   0.15373   0.15796   0.16421
 Alpha virt. eigenvalues --    0.16650   0.16946   0.17169   0.17602   0.17858
 Alpha virt. eigenvalues --    0.18123   0.18372   0.19723   0.20188   0.20378
 Alpha virt. eigenvalues --    0.20861   0.21793   0.22185   0.23417   0.23721
 Alpha virt. eigenvalues --    0.24032   0.24604   0.25053   0.25910   0.26029
 Alpha virt. eigenvalues --    0.26594   0.26791   0.27076   0.27375   0.28593
 Alpha virt. eigenvalues --    0.28725   0.29131   0.29929   0.30411   0.31791
 Alpha virt. eigenvalues --    0.32080   0.32686   0.33469   0.33857   0.34630
 Alpha virt. eigenvalues --    0.34978   0.36472   0.36957   0.37586   0.38019
 Alpha virt. eigenvalues --    0.38530   0.39048   0.39397   0.39869   0.40438
 Alpha virt. eigenvalues --    0.40792   0.40973   0.41478   0.41741   0.42099
 Alpha virt. eigenvalues --    0.42768   0.42793   0.43164   0.43418   0.43486
 Alpha virt. eigenvalues --    0.43874   0.43997   0.44335   0.44587   0.44884
 Alpha virt. eigenvalues --    0.45293   0.45865   0.46035   0.46269   0.46816
 Alpha virt. eigenvalues --    0.47245   0.47648   0.48079   0.48294   0.48737
 Alpha virt. eigenvalues --    0.49264   0.49454   0.49759   0.50149   0.50428
 Alpha virt. eigenvalues --    0.50674   0.50955   0.51412   0.51802   0.52333
 Alpha virt. eigenvalues --    0.52714   0.53050   0.53534   0.54087   0.54430
 Alpha virt. eigenvalues --    0.54559   0.54971   0.55228   0.55317   0.55702
 Alpha virt. eigenvalues --    0.56213   0.56326   0.56469   0.57020   0.57151
 Alpha virt. eigenvalues --    0.57371   0.57425   0.57909   0.58064   0.58569
 Alpha virt. eigenvalues --    0.58909   0.59286   0.59670   0.59841   0.61060
 Alpha virt. eigenvalues --    0.61324   0.61506   0.61952   0.62201   0.62721
 Alpha virt. eigenvalues --    0.63198   0.63297   0.63660   0.64235   0.64701
 Alpha virt. eigenvalues --    0.65102   0.65792   0.66288   0.66404   0.67074
 Alpha virt. eigenvalues --    0.67230   0.67407   0.67938   0.68191   0.68627
 Alpha virt. eigenvalues --    0.68917   0.69209   0.69397   0.69689   0.70094
 Alpha virt. eigenvalues --    0.70486   0.70595   0.71152   0.71560   0.71967
 Alpha virt. eigenvalues --    0.72343   0.73103   0.73345   0.73687   0.74345
 Alpha virt. eigenvalues --    0.74691   0.75264   0.75678   0.76627   0.76669
 Alpha virt. eigenvalues --    0.77498   0.77703   0.77731   0.78352   0.78961
 Alpha virt. eigenvalues --    0.79127   0.79250   0.79718   0.79992   0.80121
 Alpha virt. eigenvalues --    0.80239   0.80601   0.81220   0.81287   0.81662
 Alpha virt. eigenvalues --    0.82020   0.82129   0.82307   0.82626   0.82918
 Alpha virt. eigenvalues --    0.83139   0.83528   0.83992   0.84421   0.84679
 Alpha virt. eigenvalues --    0.84908   0.84955   0.85339   0.85524   0.85919
 Alpha virt. eigenvalues --    0.86537   0.86859   0.87268   0.87703   0.88046
 Alpha virt. eigenvalues --    0.88445   0.88598   0.88990   0.89305   0.89430
 Alpha virt. eigenvalues --    0.89920   0.90114   0.90608   0.90812   0.91047
 Alpha virt. eigenvalues --    0.91266   0.91969   0.92198   0.92608   0.92859
 Alpha virt. eigenvalues --    0.93160   0.93997   0.94359   0.94625   0.95626
 Alpha virt. eigenvalues --    0.95890   0.96816   0.97173   0.97299   0.97776
 Alpha virt. eigenvalues --    0.98159   0.99285   0.99602   0.99831   1.00178
 Alpha virt. eigenvalues --    1.00862   1.01680   1.02398   1.02520   1.03915
 Alpha virt. eigenvalues --    1.04064   1.05206   1.05806   1.06316   1.06911
 Alpha virt. eigenvalues --    1.07508   1.07569   1.08235   1.08533   1.09183
 Alpha virt. eigenvalues --    1.09400   1.09780   1.10293   1.10525   1.11208
 Alpha virt. eigenvalues --    1.12030   1.12501   1.12671   1.13189   1.13476
 Alpha virt. eigenvalues --    1.13831   1.14630   1.15122   1.16023   1.16686
 Alpha virt. eigenvalues --    1.17355   1.17961   1.18524   1.19078   1.19367
 Alpha virt. eigenvalues --    1.20029   1.20365   1.21047   1.21289   1.22073
 Alpha virt. eigenvalues --    1.22562   1.23173   1.23640   1.23932   1.25061
 Alpha virt. eigenvalues --    1.25815   1.26580   1.26781   1.27136   1.27605
 Alpha virt. eigenvalues --    1.27778   1.28412   1.28525   1.28956   1.29400
 Alpha virt. eigenvalues --    1.29581   1.30078   1.31051   1.31526   1.32336
 Alpha virt. eigenvalues --    1.32970   1.33189   1.34032   1.34855   1.35288
 Alpha virt. eigenvalues --    1.35606   1.36147   1.36872   1.37701   1.38122
 Alpha virt. eigenvalues --    1.38388   1.39014   1.39310   1.40071   1.40405
 Alpha virt. eigenvalues --    1.41345   1.42104   1.42342   1.43171   1.43703
 Alpha virt. eigenvalues --    1.44085   1.44571   1.45054   1.45490   1.46000
 Alpha virt. eigenvalues --    1.47653   1.48618   1.49659   1.49817   1.50291
 Alpha virt. eigenvalues --    1.51317   1.52505   1.53243   1.54315   1.54899
 Alpha virt. eigenvalues --    1.55605   1.56289   1.58071   1.58158   1.60272
 Alpha virt. eigenvalues --    1.61002   1.62181   1.62347   1.63326   1.64033
 Alpha virt. eigenvalues --    1.65449   1.66596   1.69576   1.69788   1.70703
 Alpha virt. eigenvalues --    1.71044   1.71304   1.71604   1.72118   1.72470
 Alpha virt. eigenvalues --    1.73141   1.73804   1.73987   1.74307   1.74636
 Alpha virt. eigenvalues --    1.74798   1.75311   1.75819   1.76330   1.76747
 Alpha virt. eigenvalues --    1.77493   1.78040   1.78416   1.78744   1.79140
 Alpha virt. eigenvalues --    1.79495   1.80452   1.80534   1.81082   1.81815
 Alpha virt. eigenvalues --    1.82046   1.82271   1.83315   1.84090   1.84215
 Alpha virt. eigenvalues --    1.85000   1.85245   1.85571   1.85767   1.86938
 Alpha virt. eigenvalues --    1.87057   1.87846   1.88018   1.88831   1.90021
 Alpha virt. eigenvalues --    1.90426   1.90571   1.91142   1.91286   1.92023
 Alpha virt. eigenvalues --    1.92601   1.93024   1.93724   1.94236   1.94790
 Alpha virt. eigenvalues --    1.95398   1.95721   1.95973   1.96470   1.96741
 Alpha virt. eigenvalues --    1.97002   1.97515   1.98549   1.99739   2.00050
 Alpha virt. eigenvalues --    2.00941   2.01590   2.01806   2.03171   2.03366
 Alpha virt. eigenvalues --    2.04292   2.04910   2.05219   2.05874   2.06289
 Alpha virt. eigenvalues --    2.06471   2.07272   2.07800   2.08935   2.09287
 Alpha virt. eigenvalues --    2.09827   2.10475   2.11279   2.11852   2.12624
 Alpha virt. eigenvalues --    2.12975   2.13384   2.14230   2.14443   2.15226
 Alpha virt. eigenvalues --    2.15470   2.15955   2.16554   2.16948   2.17266
 Alpha virt. eigenvalues --    2.17901   2.18156   2.18789   2.19650   2.19824
 Alpha virt. eigenvalues --    2.20375   2.20718   2.21150   2.21331   2.21585
 Alpha virt. eigenvalues --    2.22287   2.22718   2.23427   2.24250   2.24480
 Alpha virt. eigenvalues --    2.25043   2.25254   2.25400   2.25922   2.26263
 Alpha virt. eigenvalues --    2.26541   2.27049   2.27534   2.27947   2.28299
 Alpha virt. eigenvalues --    2.28871   2.29332   2.29836   2.30225   2.30644
 Alpha virt. eigenvalues --    2.31881   2.32422   2.32813   2.33012   2.33489
 Alpha virt. eigenvalues --    2.34088   2.34323   2.34552   2.35448   2.35899
 Alpha virt. eigenvalues --    2.36791   2.38576   2.38824   2.40636   2.41002
 Alpha virt. eigenvalues --    2.41899   2.42700   2.43226   2.43431   2.43738
 Alpha virt. eigenvalues --    2.45248   2.45792   2.46075   2.46649   2.47362
 Alpha virt. eigenvalues --    2.47704   2.47968   2.48376   2.50037   2.50742
 Alpha virt. eigenvalues --    2.51107   2.52635   2.54234   2.55336   2.56514
 Alpha virt. eigenvalues --    2.57008   2.57314   2.58857   2.59323   2.60027
 Alpha virt. eigenvalues --    2.60394   2.60731   2.63011   2.63601   2.64397
 Alpha virt. eigenvalues --    2.65235   2.65570   2.68290   2.68655   2.69758
 Alpha virt. eigenvalues --    2.70754   2.71392   2.72983   2.73342   2.75631
 Alpha virt. eigenvalues --    2.77329   2.78760   2.79790   2.80761   2.81871
 Alpha virt. eigenvalues --    2.83173   2.83456   2.83628   2.84809   2.86664
 Alpha virt. eigenvalues --    2.88198   2.88647   2.90047   2.90943   2.91578
 Alpha virt. eigenvalues --    2.91989   2.92804   2.94890   2.96420   2.97575
 Alpha virt. eigenvalues --    2.99846   3.03480   3.05006   3.05267   3.06616
 Alpha virt. eigenvalues --    3.09531   3.13837   3.16058   3.19540   3.21008
 Alpha virt. eigenvalues --    3.29094   3.29880   3.31169   3.37035   3.37708
 Alpha virt. eigenvalues --    3.39616   3.50396   3.55285   3.74581   3.79382
 Alpha virt. eigenvalues --    4.05767   4.16855
  Beta  occ. eigenvalues -- -256.37794 -30.22520 -26.06953 -26.06779 -26.05780
  Beta  occ. eigenvalues --  -19.33603 -14.54161 -14.51135 -14.47603 -14.47311
  Beta  occ. eigenvalues --  -14.46659 -14.46658 -10.38275 -10.35371 -10.34961
  Beta  occ. eigenvalues --  -10.33370 -10.33145 -10.33131 -10.33122 -10.33086
  Beta  occ. eigenvalues --  -10.32829 -10.32820 -10.32761 -10.32515 -10.30499
  Beta  occ. eigenvalues --  -10.30316 -10.30279 -10.30219 -10.30219 -10.30091
  Beta  occ. eigenvalues --  -10.30024 -10.29885 -10.29713 -10.29591 -10.29511
  Beta  occ. eigenvalues --  -10.29478 -10.29460 -10.29413 -10.29032 -10.28835
  Beta  occ. eigenvalues --  -10.28756 -10.28335 -10.28286 -10.28262 -10.28194
  Beta  occ. eigenvalues --  -10.28172 -10.28056 -10.28041 -10.27920 -10.27801
  Beta  occ. eigenvalues --  -10.27643 -10.27485 -10.26414  -3.58140  -2.34444
  Beta  occ. eigenvalues --   -2.33830  -2.33269  -1.19194  -1.17049  -1.08706
  Beta  occ. eigenvalues --   -1.07953  -1.07320  -1.06619  -1.02893  -0.95552
  Beta  occ. eigenvalues --   -0.93147  -0.91919  -0.91445  -0.91176  -0.90775
  Beta  occ. eigenvalues --   -0.90597  -0.90413  -0.90234  -0.86621  -0.86426
  Beta  occ. eigenvalues --   -0.85268  -0.84810  -0.84535  -0.84027  -0.82658
  Beta  occ. eigenvalues --   -0.82234  -0.80697  -0.79810  -0.78412  -0.78092
  Beta  occ. eigenvalues --   -0.77714  -0.77648  -0.76080  -0.74934  -0.74694
  Beta  occ. eigenvalues --   -0.72407  -0.71963  -0.70517  -0.69857  -0.68800
  Beta  occ. eigenvalues --   -0.68081  -0.67890  -0.66920  -0.64889  -0.64617
  Beta  occ. eigenvalues --   -0.64293  -0.63661  -0.62553  -0.61436  -0.61229
  Beta  occ. eigenvalues --   -0.60748  -0.59067  -0.58675  -0.58484  -0.58189
  Beta  occ. eigenvalues --   -0.57905  -0.57650  -0.56152  -0.55774  -0.55211
  Beta  occ. eigenvalues --   -0.55087  -0.54625  -0.54191  -0.53743  -0.53561
  Beta  occ. eigenvalues --   -0.53487  -0.53177  -0.52989  -0.52885  -0.52701
  Beta  occ. eigenvalues --   -0.52392  -0.52118  -0.51931  -0.51826  -0.51389
  Beta  occ. eigenvalues --   -0.51051  -0.50857  -0.50556  -0.50507  -0.50263
  Beta  occ. eigenvalues --   -0.50120  -0.49952  -0.49762  -0.49691  -0.49493
  Beta  occ. eigenvalues --   -0.49407  -0.49283  -0.48727  -0.48581  -0.48270
  Beta  occ. eigenvalues --   -0.47930  -0.47875  -0.47523  -0.47518  -0.46947
  Beta  occ. eigenvalues --   -0.46719  -0.46487  -0.46079  -0.45685  -0.45419
  Beta  occ. eigenvalues --   -0.44586  -0.43891  -0.43817  -0.43638  -0.43217
  Beta  occ. eigenvalues --   -0.42801  -0.42345  -0.42299  -0.41785  -0.41632
  Beta  occ. eigenvalues --   -0.40779  -0.39084  -0.38652  -0.38126  -0.37144
  Beta  occ. eigenvalues --   -0.36723  -0.36395  -0.34532  -0.34021  -0.33713
  Beta  occ. eigenvalues --   -0.32692  -0.32147  -0.31445  -0.30828  -0.29145
  Beta  occ. eigenvalues --   -0.28198
  Beta virt. eigenvalues --   -0.20288  -0.16966  -0.16746  -0.15909  -0.11250
  Beta virt. eigenvalues --   -0.10956  -0.08724  -0.07897  -0.07666  -0.06568
  Beta virt. eigenvalues --   -0.06263  -0.04738  -0.04092  -0.01918  -0.01463
  Beta virt. eigenvalues --   -0.00956  -0.00738   0.00830   0.01281   0.01753
  Beta virt. eigenvalues --    0.01950   0.02638   0.03522   0.03603   0.03887
  Beta virt. eigenvalues --    0.04370   0.04540   0.04817   0.05369   0.05530
  Beta virt. eigenvalues --    0.05623   0.05963   0.06071   0.06468   0.06732
  Beta virt. eigenvalues --    0.07109   0.07317   0.07717   0.07783   0.07935
  Beta virt. eigenvalues --    0.08274   0.08505   0.08701   0.09010   0.09439
  Beta virt. eigenvalues --    0.09525   0.09588   0.09788   0.10078   0.10303
  Beta virt. eigenvalues --    0.10668   0.10766   0.11167   0.11623   0.12005
  Beta virt. eigenvalues --    0.12148   0.12190   0.12507   0.13006   0.13163
  Beta virt. eigenvalues --    0.13362   0.13516   0.13645   0.13878   0.14032
  Beta virt. eigenvalues --    0.14840   0.14872   0.15141   0.15417   0.15822
  Beta virt. eigenvalues --    0.16454   0.16686   0.16952   0.17172   0.17607
  Beta virt. eigenvalues --    0.17909   0.18144   0.18379   0.19838   0.20390
  Beta virt. eigenvalues --    0.20562   0.20922   0.21865   0.22257   0.23488
  Beta virt. eigenvalues --    0.23809   0.24057   0.24611   0.25083   0.25938
  Beta virt. eigenvalues --    0.26052   0.26652   0.26806   0.27116   0.27379
  Beta virt. eigenvalues --    0.28625   0.28763   0.29192   0.29998   0.30469
  Beta virt. eigenvalues --    0.31859   0.32214   0.32751   0.33476   0.33901
  Beta virt. eigenvalues --    0.34662   0.35022   0.36658   0.37005   0.37664
  Beta virt. eigenvalues --    0.38164   0.38585   0.39092   0.39418   0.39900
  Beta virt. eigenvalues --    0.40490   0.40801   0.41029   0.41584   0.41824
  Beta virt. eigenvalues --    0.42115   0.42770   0.42802   0.43174   0.43443
  Beta virt. eigenvalues --    0.43513   0.43877   0.44016   0.44344   0.44613
  Beta virt. eigenvalues --    0.44905   0.45339   0.45914   0.46072   0.46435
  Beta virt. eigenvalues --    0.46905   0.47271   0.47668   0.48091   0.48306
  Beta virt. eigenvalues --    0.48754   0.49286   0.49488   0.49768   0.50187
  Beta virt. eigenvalues --    0.50442   0.50705   0.50972   0.51428   0.51829
  Beta virt. eigenvalues --    0.52504   0.52732   0.53047   0.53570   0.54121
  Beta virt. eigenvalues --    0.54473   0.54693   0.54983   0.55267   0.55363
  Beta virt. eigenvalues --    0.55723   0.56259   0.56326   0.56476   0.57049
  Beta virt. eigenvalues --    0.57164   0.57395   0.57469   0.57987   0.58067
  Beta virt. eigenvalues --    0.58603   0.58913   0.59294   0.59681   0.59858
  Beta virt. eigenvalues --    0.61087   0.61478   0.61604   0.62014   0.62248
  Beta virt. eigenvalues --    0.62777   0.63292   0.63321   0.63715   0.64273
  Beta virt. eigenvalues --    0.64727   0.65147   0.65809   0.66307   0.66415
  Beta virt. eigenvalues --    0.67136   0.67241   0.67439   0.68020   0.68392
  Beta virt. eigenvalues --    0.68664   0.69005   0.69228   0.69442   0.69728
  Beta virt. eigenvalues --    0.70133   0.70524   0.70758   0.71195   0.71663
  Beta virt. eigenvalues --    0.72073   0.72362   0.73142   0.73425   0.73745
  Beta virt. eigenvalues --    0.74384   0.74697   0.75311   0.75687   0.76644
  Beta virt. eigenvalues --    0.76703   0.77504   0.77718   0.77745   0.78360
  Beta virt. eigenvalues --    0.78975   0.79141   0.79261   0.79760   0.80023
  Beta virt. eigenvalues --    0.80171   0.80304   0.80627   0.81239   0.81326
  Beta virt. eigenvalues --    0.81683   0.82025   0.82137   0.82348   0.82633
  Beta virt. eigenvalues --    0.82981   0.83155   0.83543   0.84031   0.84519
  Beta virt. eigenvalues --    0.84697   0.84921   0.84972   0.85350   0.85553
  Beta virt. eigenvalues --    0.85997   0.86563   0.86904   0.87315   0.87728
  Beta virt. eigenvalues --    0.88075   0.88482   0.88623   0.89037   0.89328
  Beta virt. eigenvalues --    0.89480   0.89971   0.90122   0.90624   0.90869
  Beta virt. eigenvalues --    0.91057   0.91305   0.92010   0.92215   0.92630
  Beta virt. eigenvalues --    0.92893   0.93167   0.94046   0.94371   0.94757
  Beta virt. eigenvalues --    0.95683   0.95950   0.96871   0.97194   0.97321
  Beta virt. eigenvalues --    0.97787   0.98199   0.99299   0.99640   0.99916
  Beta virt. eigenvalues --    1.00240   1.00910   1.01727   1.02462   1.02528
  Beta virt. eigenvalues --    1.03975   1.04175   1.05268   1.05830   1.06363
  Beta virt. eigenvalues --    1.06992   1.07533   1.07593   1.08298   1.08579
  Beta virt. eigenvalues --    1.09264   1.09433   1.09844   1.10319   1.10541
  Beta virt. eigenvalues --    1.11224   1.12046   1.12504   1.12707   1.13216
  Beta virt. eigenvalues --    1.13496   1.13907   1.14780   1.15159   1.16079
  Beta virt. eigenvalues --    1.16731   1.17364   1.18010   1.18551   1.19079
  Beta virt. eigenvalues --    1.19416   1.20054   1.20401   1.21086   1.21298
  Beta virt. eigenvalues --    1.22111   1.22588   1.23193   1.23652   1.23947
  Beta virt. eigenvalues --    1.25116   1.25867   1.26604   1.26792   1.27174
  Beta virt. eigenvalues --    1.27663   1.27810   1.28423   1.28545   1.28959
  Beta virt. eigenvalues --    1.29412   1.29608   1.30101   1.31138   1.31557
  Beta virt. eigenvalues --    1.32359   1.32998   1.33255   1.34067   1.34864
  Beta virt. eigenvalues --    1.35289   1.35628   1.36150   1.36867   1.37706
  Beta virt. eigenvalues --    1.38132   1.38396   1.39017   1.39308   1.40076
  Beta virt. eigenvalues --    1.40408   1.41381   1.42113   1.42344   1.43173
  Beta virt. eigenvalues --    1.43701   1.44125   1.44595   1.45065   1.45507
  Beta virt. eigenvalues --    1.46041   1.47701   1.48636   1.49728   1.49828
  Beta virt. eigenvalues --    1.50337   1.51399   1.52624   1.53244   1.54335
  Beta virt. eigenvalues --    1.55148   1.55753   1.56353   1.58094   1.58234
  Beta virt. eigenvalues --    1.60360   1.61021   1.62186   1.62389   1.63434
  Beta virt. eigenvalues --    1.64066   1.65468   1.66616   1.69595   1.69797
  Beta virt. eigenvalues --    1.70734   1.71061   1.71344   1.71638   1.72144
  Beta virt. eigenvalues --    1.72502   1.73158   1.73815   1.73985   1.74302
  Beta virt. eigenvalues --    1.74633   1.74818   1.75313   1.75860   1.76324
  Beta virt. eigenvalues --    1.76752   1.77493   1.78054   1.78430   1.78769
  Beta virt. eigenvalues --    1.79135   1.79499   1.80452   1.80528   1.81090
  Beta virt. eigenvalues --    1.81845   1.82071   1.82290   1.83334   1.84140
  Beta virt. eigenvalues --    1.84261   1.85023   1.85283   1.85603   1.85793
  Beta virt. eigenvalues --    1.86936   1.87094   1.87872   1.88099   1.88885
  Beta virt. eigenvalues --    1.90111   1.90488   1.90608   1.91195   1.91336
  Beta virt. eigenvalues --    1.92111   1.92633   1.93123   1.93748   1.94395
  Beta virt. eigenvalues --    1.94825   1.95426   1.95780   1.96158   1.96506
  Beta virt. eigenvalues --    1.96812   1.97120   1.97553   1.98651   1.99929
  Beta virt. eigenvalues --    2.00070   2.00998   2.01624   2.01832   2.03200
  Beta virt. eigenvalues --    2.03408   2.04291   2.04922   2.05259   2.05890
  Beta virt. eigenvalues --    2.06324   2.06484   2.07280   2.07831   2.09041
  Beta virt. eigenvalues --    2.09558   2.09848   2.10520   2.11289   2.11891
  Beta virt. eigenvalues --    2.12685   2.13075   2.13402   2.14237   2.14493
  Beta virt. eigenvalues --    2.15304   2.15481   2.15991   2.16572   2.16957
  Beta virt. eigenvalues --    2.17276   2.17970   2.18222   2.18865   2.19710
  Beta virt. eigenvalues --    2.19997   2.20408   2.20814   2.21168   2.21489
  Beta virt. eigenvalues --    2.21910   2.22315   2.22736   2.23469   2.24291
  Beta virt. eigenvalues --    2.24512   2.25134   2.25265   2.25540   2.25992
  Beta virt. eigenvalues --    2.26364   2.26618   2.27088   2.27561   2.27969
  Beta virt. eigenvalues --    2.28345   2.28914   2.29367   2.29927   2.30322
  Beta virt. eigenvalues --    2.30730   2.31918   2.32434   2.32831   2.33074
  Beta virt. eigenvalues --    2.33643   2.34127   2.34385   2.34579   2.35555
  Beta virt. eigenvalues --    2.35982   2.36888   2.38588   2.38969   2.40687
  Beta virt. eigenvalues --    2.41078   2.42050   2.42714   2.43247   2.43500
  Beta virt. eigenvalues --    2.43748   2.45363   2.45928   2.46113   2.46713
  Beta virt. eigenvalues --    2.47398   2.47736   2.47993   2.48578   2.50097
  Beta virt. eigenvalues --    2.50774   2.51237   2.52652   2.54277   2.55356
  Beta virt. eigenvalues --    2.56544   2.57040   2.57329   2.58863   2.59401
  Beta virt. eigenvalues --    2.60029   2.60442   2.60728   2.63018   2.63589
  Beta virt. eigenvalues --    2.64399   2.65250   2.65626   2.68316   2.68656
  Beta virt. eigenvalues --    2.69761   2.70758   2.71397   2.72978   2.73349
  Beta virt. eigenvalues --    2.75635   2.77318   2.78790   2.79797   2.80780
  Beta virt. eigenvalues --    2.81881   2.83179   2.83485   2.83616   2.84792
  Beta virt. eigenvalues --    2.86667   2.88207   2.88654   2.90036   2.90946
  Beta virt. eigenvalues --    2.91584   2.92005   2.92841   2.94880   2.96453
  Beta virt. eigenvalues --    2.97572   2.99943   3.03474   3.05015   3.05277
  Beta virt. eigenvalues --    3.06622   3.09526   3.13856   3.16149   3.19554
  Beta virt. eigenvalues --    3.21007   3.29083   3.29872   3.31229   3.37032
  Beta virt. eigenvalues --    3.37703   3.39631   3.54627   3.60412   3.77003
  Beta virt. eigenvalues --    3.81067   4.07180   4.18593
          Condensed to atoms (all electrons):
          Atomic-Atomic Spin Densities.
 Mulliken charges and spin densities:
               1          2
     1  Fe   0.849685   1.084518
     2  N   -0.658441  -0.028491
     3  N   -0.665446  -0.024379
     4  N   -0.632947  -0.028209
     5  N   -0.688739  -0.023880
     6  C    0.327700   0.005529
     7  C    0.038691  -0.002523
     8  C    0.039623   0.000779
     9  C    0.313781   0.003450
    10  C    0.300254   0.004702
    11  C    0.039757   0.013247
    12  C   -0.000688   0.011413
    13  C    0.329059   0.005190
    14  C    0.314690   0.004198
    15  C    0.050304  -0.002704
    16  C    0.010014  -0.000789
    17  C    0.284509   0.003299
    18  C    0.274684   0.002986
    19  C    0.045044   0.015152
    20  C    0.040948   0.010264
    21  C    0.323094   0.005913
    22  C   -0.297781  -0.008740
    23  H    0.190340   0.000402
    24  C   -0.325044  -0.008110
    25  H    0.190796   0.000380
    26  C   -0.280920  -0.003776
    27  H    0.197809   0.000278
    28  C   -0.311878  -0.004054
    29  H    0.190761   0.000195
    30  C   -0.610335  -0.000189
    31  H    0.203759  -0.000118
    32  H    0.195264   0.000085
    33  H    0.205922   0.000100
    34  C   -0.612083   0.000004
    35  H    0.205021  -0.000026
    36  H    0.200089  -0.000038
    37  H    0.202611  -0.000123
    38  C   -0.603985  -0.001354
    39  H    0.209741   0.000838
    40  H    0.197631   0.000810
    41  H    0.204148  -0.000068
    42  C   -0.159014  -0.005105
    43  H    0.188066   0.000268
    44  C   -0.400638   0.008337
    45  H    0.188924  -0.000409
    46  H    0.192256  -0.000412
    47  C   -0.616353   0.000067
    48  H    0.195997  -0.000084
    49  H    0.204345  -0.000076
    50  H    0.206685  -0.000064
    51  C   -0.155184  -0.000345
    52  H    0.173846   0.000008
    53  C   -0.393902   0.000724
    54  H    0.187740  -0.000030
    55  H    0.190787  -0.000080
    56  C   -0.610984  -0.001457
    57  H    0.204151   0.000900
    58  H    0.203496   0.000883
    59  H    0.205219  -0.000067
    60  C   -0.611949  -0.001250
    61  H    0.206944   0.000759
    62  H    0.203536  -0.000104
    63  H    0.204473   0.000744
    64  C   -0.602363  -0.000204
    65  H    0.214334   0.000083
    66  H    0.214985  -0.000159
    67  H    0.222465  -0.000027
    68  N   -0.630664   0.001330
    69  H    0.388529  -0.000077
    70  C    0.281244  -0.001219
    71  C    0.259202   0.009759
    72  H    0.235886  -0.000526
    73  N   -0.431223  -0.033816
    74  C   -0.036746   0.000621
    75  H    0.217305  -0.000088
    76  C   -0.600347   0.000269
    77  H    0.187084  -0.000074
    78  H    0.190386  -0.000029
    79  H    0.211416  -0.000219
    80  C    0.125343  -0.003626
    81  C   -0.207147   0.001500
    82  H    0.179822  -0.000058
    83  C   -0.190426  -0.002083
    84  H    0.194649   0.000067
    85  C    0.360042   0.001060
    86  O   -0.669157  -0.012415
    87  H    0.466560   0.000985
    88  C   -0.203804   0.001719
    89  H    0.178350  -0.000055
    90  C   -0.222902  -0.002184
    91  H    0.171294   0.000103
 Sum of Mulliken charges =   1.00000   1.00000
 Mulliken charges and spin densities with hydrogens summed into heavy atoms:
               1          2
     1  Fe   0.849685   1.084518
     2  N   -0.658441  -0.028491
     3  N   -0.665446  -0.024379
     4  N   -0.632947  -0.028209
     5  N   -0.688739  -0.023880
     6  C    0.327700   0.005529
     7  C    0.038691  -0.002523
     8  C    0.039623   0.000779
     9  C    0.313781   0.003450
    10  C    0.300254   0.004702
    11  C    0.039757   0.013247
    12  C   -0.000688   0.011413
    13  C    0.329059   0.005190
    14  C    0.314690   0.004198
    15  C    0.050304  -0.002704
    16  C    0.010014  -0.000789
    17  C    0.284509   0.003299
    18  C    0.274684   0.002986
    19  C    0.045044   0.015152
    20  C    0.040948   0.010264
    21  C    0.323094   0.005913
    22  C   -0.107441  -0.008338
    24  C   -0.134249  -0.007730
    26  C   -0.083110  -0.003498
    28  C   -0.121117  -0.003859
    30  C   -0.005391  -0.000121
    34  C   -0.004361  -0.000183
    38  C    0.007536   0.000225
    42  C    0.029052  -0.004837
    44  C   -0.019458   0.007517
    47  C   -0.009326  -0.000157
    51  C    0.018662  -0.000338
    53  C   -0.015375   0.000614
    56  C    0.001882   0.000259
    60  C    0.003003   0.000149
    64  C    0.049421  -0.000307
    68  N   -0.242135   0.001253
    70  C    0.281244  -0.001219
    71  C    0.495088   0.009232
    73  N   -0.431223  -0.033816
    74  C    0.180559   0.000533
    76  C   -0.011460  -0.000053
    80  C    0.125343  -0.003626
    81  C   -0.027325   0.001443
    83  C    0.004223  -0.002016
    85  C    0.360042   0.001060
    86  O   -0.202597  -0.011430
    88  C   -0.025454   0.001664
    90  C   -0.051608  -0.002081
 Electronic spatial extent (au):  <R**2>=          23915.9266
 Charge=              1.0000 electrons
 Dipole moment (field-independent basis, Debye):
    X=             -3.4608    Y=              0.0576    Z=              5.3163  Tot=              6.3438
 Quadrupole moment (field-independent basis, Debye-Ang):
   XX=           -214.8073   YY=           -220.5536   ZZ=           -242.7919
   XY=              0.5070   XZ=             -6.8872   YZ=             -9.1796
 Traceless Quadrupole moment (field-independent basis, Debye-Ang):
   XX=             11.2437   YY=              5.4973   ZZ=            -16.7410
   XY=              0.5070   XZ=             -6.8872   YZ=             -9.1796
 Octapole moment (field-independent basis, Debye-Ang**2):
  XXX=            -30.6440  YYY=             -0.4006  ZZZ=            198.8349  XYY=            -30.1211
  XXY=            -15.2362  XXZ=            -12.9865  XZZ=           -103.4946  YZZ=              9.0783
  YYZ=             10.6970  XYZ=              9.4043
 Hexadecapole moment (field-independent basis, Debye-Ang**3):
 XXXX=         -13126.9109 YYYY=         -10347.5416 ZZZZ=          -4824.3408 XXXY=             -3.3409
 XXXZ=            152.8389 YYYX=             63.8309 YYYZ=           -144.3605 ZZZX=           -461.0051
 ZZZY=            -21.3667 XXYY=          -3800.1336 XXZZ=          -2980.8486 YYZZ=          -2747.6777
 XXYZ=            -13.3910 YYXZ=            162.0519 ZZXY=            -14.3779
 N-N= 7.650007972847D+03 E-N=-2.289735175557D+04  KE= 3.240599978111D+03
                          Isotropic Fermi Contact Couplings
        Atom                 a.u.       MegaHertz       Gauss      10(-4) cm-1
     1  Fe(57)             0.12367      17.93778       6.40065       5.98340
     2  N(14)             -0.02420      -7.82047      -2.79054      -2.60863
     3  N(14)             -0.01870      -6.04124      -2.15566      -2.01514
     4  N(14)             -0.02210      -7.14217      -2.54850      -2.38237
     5  N(14)             -0.02057      -6.64723      -2.37190      -2.21728
     6  C(13)             -0.00009      -0.10674      -0.03809      -0.03560
     7  C(13)             -0.00104      -1.16403      -0.41535      -0.38828
     8  C(13)             -0.00049      -0.55303      -0.19733      -0.18447
     9  C(13)             -0.00032      -0.35874      -0.12801      -0.11966
    10  C(13)              0.00016       0.17533       0.06256       0.05848
    11  C(13)              0.00118       1.32393       0.47241       0.44162
    12  C(13)              0.00085       0.95486       0.34072       0.31851
    13  C(13)             -0.00058      -0.65304      -0.23302      -0.21783
    14  C(13)             -0.00021      -0.24154      -0.08619      -0.08057
    15  C(13)             -0.00096      -1.07982      -0.38531      -0.36019
    16  C(13)             -0.00067      -0.75548      -0.26957      -0.25200
    17  C(13)             -0.00036      -0.40496      -0.14450      -0.13508
    18  C(13)              0.00010       0.11464       0.04091       0.03824
    19  C(13)              0.00152       1.71078       0.61045       0.57065
    20  C(13)              0.00052       0.58937       0.21030       0.19659
    21  C(13)             -0.00055      -0.61417      -0.21915      -0.20486
    22  C(13)             -0.00136      -1.52577      -0.54443      -0.50894
    23  H(1)               0.00014       0.63302       0.22588       0.21115
    24  C(13)             -0.00130      -1.46511      -0.52279      -0.48871
    25  H(1)               0.00013       0.58644       0.20926       0.19562
    26  C(13)             -0.00062      -0.70054      -0.24997      -0.23367
    27  H(1)               0.00007       0.29362       0.10477       0.09794
    28  C(13)             -0.00076      -0.85827      -0.30625      -0.28629
    29  H(1)               0.00008       0.35394       0.12629       0.11806
    30  C(13)             -0.00009      -0.10178      -0.03632      -0.03395
    31  H(1)              -0.00005      -0.22389      -0.07989      -0.07468
    32  H(1)               0.00006       0.25045       0.08937       0.08354
    33  H(1)               0.00008       0.34323       0.12247       0.11449
    34  C(13)             -0.00003      -0.03425      -0.01222      -0.01142
    35  H(1)               0.00001       0.03892       0.01389       0.01298
    36  H(1)              -0.00001      -0.03411      -0.01217      -0.01138
    37  H(1)              -0.00005      -0.23622      -0.08429      -0.07880
    38  C(13)             -0.00052      -0.58969      -0.21042      -0.19670
    39  H(1)               0.00039       1.75472       0.62613       0.58531
    40  H(1)               0.00038       1.69332       0.60422       0.56483
    41  H(1)              -0.00003      -0.13727      -0.04898      -0.04579
    42  C(13)             -0.00107      -1.20388      -0.42958      -0.40157
    43  H(1)               0.00012       0.54557       0.19467       0.18198
    44  C(13)              0.00131       1.47216       0.52530       0.49106
    45  H(1)              -0.00013      -0.57753      -0.20608      -0.19264
    46  H(1)              -0.00013      -0.56974      -0.20330      -0.19004
    47  C(13)              0.00002       0.02057       0.00734       0.00686
    48  H(1)              -0.00003      -0.14933      -0.05328      -0.04981
    49  H(1)              -0.00003      -0.15346      -0.05476      -0.05119
    50  H(1)              -0.00003      -0.11701      -0.04175      -0.03903
    51  C(13)             -0.00007      -0.07405      -0.02642      -0.02470
    52  H(1)              -0.00000      -0.00205      -0.00073      -0.00068
    53  C(13)             -0.00001      -0.01038      -0.00370      -0.00346
    54  H(1)              -0.00001      -0.04665      -0.01665      -0.01556
    55  H(1)              -0.00003      -0.12412      -0.04429      -0.04140
    56  C(13)             -0.00056      -0.62837      -0.22422      -0.20960
    57  H(1)               0.00042       1.86762       0.66641       0.62297
    58  H(1)               0.00042       1.86926       0.66700       0.62352
    59  H(1)              -0.00003      -0.14083      -0.05025      -0.04698
    60  C(13)             -0.00053      -0.59653      -0.21286      -0.19898
    61  H(1)               0.00035       1.57398       0.56164       0.52502
    62  H(1)              -0.00005      -0.21652      -0.07726      -0.07222
    63  H(1)               0.00034       1.53860       0.54901       0.51322
    64  C(13)             -0.00013      -0.14677      -0.05237      -0.04896
    65  H(1)               0.00006       0.24965       0.08908       0.08328
    66  H(1)              -0.00007      -0.30462      -0.10870      -0.10161
    67  H(1)              -0.00002      -0.08962      -0.03198      -0.02989
    68  N(14)             -0.00068      -0.21812      -0.07783      -0.07276
    69  H(1)              -0.00004      -0.15823      -0.05646      -0.05278
    70  C(13)             -0.00122      -1.37118      -0.48927      -0.45738
    71  C(13)              0.00240       2.69273       0.96083       0.89820
    72  H(1)              -0.00026      -1.16792      -0.41674      -0.38958
    73  N(14)             -0.03195     -10.32370      -3.68375      -3.44362
    74  C(13)             -0.00087      -0.97420      -0.34762      -0.32496
    75  H(1)              -0.00010      -0.46473      -0.16583      -0.15502
    76  C(13)              0.00011       0.11967       0.04270       0.03992
    77  H(1)              -0.00004      -0.18846      -0.06725      -0.06286
    78  H(1)              -0.00002      -0.07825      -0.02792      -0.02610
    79  H(1)              -0.00012      -0.52186      -0.18621      -0.17407
    80  C(13)             -0.00050      -0.56519      -0.20167      -0.18853
    81  C(13)              0.00027       0.30642       0.10934       0.10221
    82  H(1)              -0.00002      -0.08674      -0.03095      -0.02893
    83  C(13)             -0.00027      -0.29888      -0.10665      -0.09970
    84  H(1)               0.00005       0.21044       0.07509       0.07019
    85  C(13)              0.00061       0.68696       0.24513       0.22915
    86  O(17)              0.00146      -0.88747      -0.31667      -0.29603
    87  H(1)               0.00051       2.29325       0.81829       0.76495
    88  C(13)              0.00034       0.37897       0.13523       0.12641
    89  H(1)              -0.00002      -0.09032      -0.03223      -0.03013
    90  C(13)             -0.00021      -0.23757      -0.08477      -0.07924
    91  H(1)               0.00005       0.20213       0.07213       0.06742
 --------------------------------------------------------
       Center         ----  Spin Dipole Couplings  ----
                      3XX-RR        3YY-RR        3ZZ-RR
 --------------------------------------------------------
     1   Atom       -1.405665     -0.177356      1.583021
     2   Atom       -0.004277      0.002409      0.001868
     3   Atom       -0.014895     -0.006829      0.021724
     4   Atom       -0.005796      0.008751     -0.002955
     5   Atom       -0.003710     -0.001100      0.004811
     6   Atom        0.004579     -0.005454      0.000875
     7   Atom        0.002948     -0.001092     -0.001856
     8   Atom       -0.000050      0.000273     -0.000222
     9   Atom       -0.000758      0.001892     -0.001134
    10   Atom       -0.006189      0.005125      0.001064
    11   Atom       -0.007506     -0.005798      0.013304
    12   Atom       -0.004197     -0.007850      0.012048
    13   Atom        0.001716     -0.003993      0.002277
    14   Atom        0.003709     -0.004352      0.000642
    15   Atom        0.002902     -0.000655     -0.002247
    16   Atom        0.000283      0.000846     -0.001128
    17   Atom       -0.000453      0.001639     -0.001185
    18   Atom       -0.005676      0.006090     -0.000414
    19   Atom       -0.008093     -0.006700      0.014792
    20   Atom       -0.003183     -0.007695      0.010878
    21   Atom        0.000400     -0.003781      0.003381
    22   Atom        0.008706     -0.000043     -0.008663
    23   Atom        0.002185     -0.001024     -0.001161
    24   Atom       -0.000602      0.010222     -0.009619
    25   Atom       -0.000895      0.002451     -0.001555
    26   Atom        0.006831     -0.002126     -0.004705
    27   Atom        0.002403     -0.001200     -0.001202
    28   Atom       -0.002643      0.008304     -0.005660
    29   Atom       -0.001122      0.002682     -0.001561
    30   Atom        0.000024      0.000533     -0.000557
    31   Atom        0.000175      0.000289     -0.000463
    32   Atom       -0.000080      0.000757     -0.000677
    33   Atom       -0.000293      0.000867     -0.000575
    34   Atom        0.000919     -0.000416     -0.000503
    35   Atom        0.000845     -0.000552     -0.000293
    36   Atom        0.001185     -0.000568     -0.000617
    37   Atom        0.000614     -0.000212     -0.000402
    38   Atom       -0.000793      0.001405     -0.000613
    39   Atom       -0.000721      0.001478     -0.000757
    40   Atom       -0.000696      0.001391     -0.000695
    41   Atom       -0.000463      0.001102     -0.000639
    42   Atom        0.002962     -0.001025     -0.001937
    43   Atom        0.000590     -0.000040     -0.000550
    44   Atom       -0.002802      0.002178      0.000624
    45   Atom        0.000801     -0.000206     -0.000595
    46   Atom        0.000876     -0.000324     -0.000552
    47   Atom        0.000936     -0.000373     -0.000563
    48   Atom        0.001289     -0.000585     -0.000704
    49   Atom        0.000779     -0.000392     -0.000387
    50   Atom        0.000680     -0.000180     -0.000500
    51   Atom        0.000037      0.000601     -0.000637
    52   Atom       -0.000106      0.000837     -0.000731
    53   Atom        0.000328     -0.000004     -0.000325
    54   Atom        0.000187      0.000095     -0.000283
    55   Atom        0.000018      0.000294     -0.000312
    56   Atom       -0.000896      0.001394     -0.000498
    57   Atom       -0.000688      0.001343     -0.000655
    58   Atom       -0.000757      0.001550     -0.000794
    59   Atom       -0.000500      0.001132     -0.000632
    60   Atom        0.000635     -0.000301     -0.000334
    61   Atom        0.000572     -0.000392     -0.000181
    62   Atom        0.000381      0.000092     -0.000473
    63   Atom        0.001103     -0.000354     -0.000749
    64   Atom       -0.000540     -0.000411      0.000952
    65   Atom       -0.000584     -0.000437      0.001021
    66   Atom       -0.000347     -0.000412      0.000759
    67   Atom       -0.000639     -0.000221      0.000860
    68   Atom        0.002595     -0.004053      0.001457
    69   Atom       -0.000703     -0.001134      0.001837
    70   Atom       -0.002558     -0.000651      0.003208
    71   Atom        0.005460     -0.008747      0.003287
    72   Atom       -0.002541      0.000570      0.001971
    73   Atom        0.005056      0.008029     -0.013086
    74   Atom       -0.004381     -0.004641      0.009022
    75   Atom       -0.004435      0.002028      0.002407
    76   Atom        0.000715     -0.000354     -0.000361
    77   Atom        0.000663     -0.000378     -0.000285
    78   Atom        0.000598     -0.000352     -0.000247
    79   Atom        0.000404     -0.000289     -0.000116
    80   Atom        0.002948      0.000930     -0.003878
    81   Atom        0.000816     -0.001457      0.000641
    82   Atom        0.000770     -0.000467     -0.000303
    83   Atom        0.002649     -0.000852     -0.001798
    84   Atom       -0.000131     -0.000106      0.000237
    85   Atom        0.001747     -0.005412      0.003665
    86   Atom        0.019199      0.012702     -0.031901
    87   Atom       -0.006966     -0.006794      0.013760
    88   Atom        0.000682     -0.001583      0.000901
    89   Atom        0.000773     -0.000487     -0.000286
    90   Atom        0.002702     -0.000620     -0.002081
    91   Atom        0.000417     -0.000566      0.000149
 --------------------------------------------------------
                        XY            XZ            YZ
 --------------------------------------------------------
     1   Atom       -2.120712      0.279170      0.169528
     2   Atom       -0.007110     -0.002116     -0.001267
     3   Atom        0.003013      0.006518     -0.011708
     4   Atom       -0.006822      0.014299      0.004593
     5   Atom       -0.008357     -0.014923      0.019818
     6   Atom        0.004353     -0.000560      0.002526
     7   Atom        0.001288      0.000462     -0.000638
     8   Atom        0.002006     -0.002243     -0.000191
     9   Atom        0.006542     -0.000792      0.000340
    10   Atom       -0.003729     -0.002195     -0.001550
    11   Atom       -0.001501     -0.006727      0.000913
    12   Atom       -0.002575     -0.005379      0.002864
    13   Atom       -0.006128     -0.002895     -0.000759
    14   Atom        0.004200      0.000621      0.001709
    15   Atom        0.001018      0.000293     -0.000579
    16   Atom        0.001797     -0.001101     -0.000211
    17   Atom        0.006227     -0.000289      0.001198
    18   Atom       -0.002418     -0.001965     -0.003635
    19   Atom       -0.001226     -0.007623      0.000336
    20   Atom       -0.002512     -0.006199      0.001948
    21   Atom       -0.006524     -0.001879     -0.001228
    22   Atom       -0.000704      0.007047     -0.001700
    23   Atom       -0.000298      0.001389     -0.000172
    24   Atom        0.002446      0.002840     -0.001671
    25   Atom        0.000763      0.000169     -0.000105
    26   Atom       -0.001122      0.004432     -0.000098
    27   Atom       -0.000492      0.001331     -0.000124
    28   Atom        0.002139      0.001987      0.000078
    29   Atom        0.000814      0.000125     -0.000084
    30   Atom        0.000989      0.000071      0.000174
    31   Atom        0.000790      0.000199      0.000221
    32   Atom        0.000936     -0.000012     -0.000030
    33   Atom        0.000784      0.000230      0.000445
    34   Atom        0.000668      0.000440      0.000206
    35   Atom        0.000459      0.000805      0.000255
    36   Atom        0.000488      0.000368      0.000085
    37   Atom        0.000619      0.000365      0.000208
    38   Atom       -0.000463     -0.000084     -0.000218
    39   Atom       -0.000379      0.000058      0.000201
    40   Atom       -0.000085      0.000000     -0.000596
    41   Atom       -0.000734      0.000126     -0.000346
    42   Atom       -0.000776      0.000189     -0.003052
    43   Atom       -0.000813      0.000520     -0.000407
    44   Atom        0.000537      0.001458      0.005714
    45   Atom       -0.000612      0.000105     -0.000321
    46   Atom       -0.000732      0.000531      0.000031
    47   Atom        0.000632      0.000263      0.000139
    48   Atom        0.000466      0.000298      0.000038
    49   Atom        0.000497      0.000607      0.000233
    50   Atom        0.000606      0.000206      0.000115
    51   Atom        0.001106      0.000291      0.000106
    52   Atom        0.000960     -0.000015     -0.000022
    53   Atom        0.000334     -0.000379      0.000342
    54   Atom        0.000536      0.000271      0.000213
    55   Atom        0.000453      0.000066      0.000109
    56   Atom       -0.000301     -0.000017     -0.000587
    57   Atom       -0.000044     -0.000019     -0.000687
    58   Atom       -0.000305      0.000072      0.000139
    59   Atom       -0.000690      0.000136     -0.000443
    60   Atom       -0.000874      0.000509     -0.000331
    61   Atom       -0.000680      0.000981     -0.000412
    62   Atom       -0.000971      0.000505     -0.000449
    63   Atom       -0.000813      0.000389     -0.000235
    64   Atom       -0.000117     -0.000235      0.000559
    65   Atom       -0.000079     -0.000279      0.000465
[...]
    34 C(13)  Bbb    -0.0006    -0.084    -0.030    -0.028 -0.3414  0.1819  0.9222
              Bcc     0.0013     0.178     0.063     0.059  0.8918  0.3726  0.2566
 
              Baa    -0.0007    -0.383    -0.137    -0.128 -0.2855 -0.4813  0.8288
    35 H(1)   Bbb    -0.0007    -0.365    -0.130    -0.122 -0.4295  0.8373  0.3383
              Bcc     0.0014     0.748     0.267     0.250  0.8568  0.2594  0.4457
 
              Baa    -0.0007    -0.374    -0.134    -0.125 -0.3081  0.7519  0.5828
    36 H(1)   Bbb    -0.0007    -0.363    -0.130    -0.121  0.0040 -0.6116  0.7912
              Bcc     0.0014     0.738     0.263     0.246  0.9513  0.2461  0.1855
 
              Baa    -0.0005    -0.292    -0.104    -0.097 -0.3427  0.8626 -0.3720
    37 H(1)   Bbb    -0.0005    -0.276    -0.098    -0.092 -0.4068  0.2206  0.8865
              Bcc     0.0011     0.568     0.203     0.190  0.8468  0.4552  0.2753
 
              Baa    -0.0009    -0.126    -0.045    -0.042  0.9010  0.2133  0.3777
    38 C(13)  Bbb    -0.0006    -0.078    -0.028    -0.026 -0.3887  0.0107  0.9213
              Bcc     0.0015     0.204     0.073     0.068 -0.1924  0.9769 -0.0925
 
              Baa    -0.0009    -0.463    -0.165    -0.155  0.7124  0.1732 -0.6800
    39 H(1)   Bbb    -0.0007    -0.367    -0.131    -0.122  0.6829  0.0519  0.7287
              Bcc     0.0016     0.831     0.296     0.277 -0.1615  0.9835  0.0813
 
              Baa    -0.0009    -0.457    -0.163    -0.152  0.1374  0.2587  0.9561
    40 H(1)   Bbb    -0.0007    -0.371    -0.132    -0.124  0.9898 -0.0001 -0.1422
              Bcc     0.0016     0.828     0.296     0.276 -0.0367  0.9660 -0.2561
 
              Baa    -0.0008    -0.403    -0.144    -0.134  0.9022  0.3905  0.1829
    41 H(1)   Bbb    -0.0007    -0.374    -0.134    -0.125 -0.2352  0.0901  0.9678
              Bcc     0.0015     0.778     0.277     0.259 -0.3615  0.9162 -0.1731
 
              Baa    -0.0046    -0.615    -0.220    -0.205  0.0486  0.6562  0.7530
    42 C(13)  Bbb     0.0013     0.175     0.062     0.058  0.3899  0.6816 -0.6192
              Bcc     0.0033     0.440     0.157     0.147  0.9196 -0.3237  0.2227
 
              Baa    -0.0008    -0.418    -0.149    -0.140 -0.1426  0.3504  0.9257
    43 H(1)   Bbb    -0.0006    -0.314    -0.112    -0.105  0.6136  0.7651 -0.1951
              Bcc     0.0014     0.733     0.261     0.244  0.7766 -0.5402  0.3241
 
              Baa    -0.0047    -0.629    -0.224    -0.210 -0.3955 -0.5691  0.7209
    44 C(13)  Bbb    -0.0027    -0.358    -0.128    -0.119  0.9087 -0.3567  0.2169
              Bcc     0.0074     0.986     0.352     0.329  0.1337  0.7408  0.6582
 
              Baa    -0.0008    -0.434    -0.155    -0.145  0.1731  0.5913  0.7877
    45 H(1)   Bbb    -0.0003    -0.165    -0.059    -0.055  0.4288  0.6747 -0.6007
              Bcc     0.0011     0.599     0.214     0.200  0.8867 -0.4417  0.1367
 
              Baa    -0.0009    -0.489    -0.175    -0.163 -0.4394 -0.5782  0.6874
    46 H(1)   Bbb    -0.0004    -0.226    -0.080    -0.075  0.1254  0.7183  0.6843
              Bcc     0.0013     0.715     0.255     0.238  0.8895 -0.3869  0.2432
 
              Baa    -0.0007    -0.087    -0.031    -0.029 -0.2085  0.7728 -0.5995
    47 C(13)  Bbb    -0.0006    -0.079    -0.028    -0.026 -0.3482  0.5141  0.7838
              Bcc     0.0012     0.166     0.059     0.055  0.9139  0.3722  0.1619
 
              Baa    -0.0008    -0.406    -0.145    -0.135 -0.2176  0.3826  0.8979
    48 H(1)   Bbb    -0.0007    -0.363    -0.130    -0.121 -0.1489  0.8962 -0.4180
              Bcc     0.0014     0.769     0.274     0.256  0.9646  0.2247  0.1381
 
              Baa    -0.0007    -0.347    -0.124    -0.116 -0.3096 -0.2356  0.9212
    49 H(1)   Bbb    -0.0006    -0.306    -0.109    -0.102 -0.3843  0.9172  0.1054
              Bcc     0.0012     0.653     0.233     0.218  0.8698  0.3214  0.3745
 
              Baa    -0.0005    -0.287    -0.102    -0.096 -0.0540 -0.2221  0.9735
    50 H(1)   Bbb    -0.0005    -0.262    -0.094    -0.087 -0.4762  0.8627  0.1704
              Bcc     0.0010     0.549     0.196     0.183  0.8777  0.4544  0.1523
 
              Baa    -0.0009    -0.124    -0.044    -0.041  0.7026 -0.4718 -0.5328
    51 C(13)  Bbb    -0.0006    -0.076    -0.027    -0.025  0.3566 -0.4145  0.8373
              Bcc     0.0015     0.200     0.071     0.067  0.6158  0.7782  0.1230
 
              Baa    -0.0007    -0.390    -0.139    -0.130  0.0295 -0.0038  0.9996
    52 H(1)   Bbb    -0.0007    -0.375    -0.134    -0.125  0.8482 -0.5289 -0.0270
              Bcc     0.0014     0.766     0.273     0.255  0.5288  0.8487 -0.0124
 
              Baa    -0.0008    -0.103    -0.037    -0.034  0.4157 -0.5156  0.7492
    53 C(13)  Bbb     0.0002     0.027     0.010     0.009 -0.1665  0.7667  0.6200
              Bcc     0.0006     0.076     0.027     0.026  0.8941  0.3825 -0.2329
 
              Baa    -0.0004    -0.224    -0.080    -0.075 -0.6460  0.4043  0.6475
    54 H(1)   Bbb    -0.0004    -0.197    -0.070    -0.066  0.2902 -0.6546  0.6981
              Bcc     0.0008     0.421     0.150     0.141  0.7061  0.6388  0.3055
 
              Baa    -0.0003    -0.179    -0.064    -0.060  0.3528 -0.3998  0.8460
    55 H(1)   Bbb    -0.0003    -0.166    -0.059    -0.055  0.7275 -0.4514 -0.5167
              Bcc     0.0006     0.345     0.123     0.115  0.5885  0.7977  0.1316
 
              Baa    -0.0010    -0.129    -0.046    -0.043  0.9428  0.1889  0.2746
    56 C(13)  Bbb    -0.0006    -0.085    -0.030    -0.028 -0.3132  0.2211  0.9236
              Bcc     0.0016     0.214     0.076     0.071 -0.1137  0.9568 -0.2677
 
              Baa    -0.0009    -0.466    -0.166    -0.155  0.1689  0.2948  0.9405
    57 H(1)   Bbb    -0.0007    -0.365    -0.130    -0.122  0.9855 -0.0348 -0.1660
              Bcc     0.0016     0.831     0.296     0.277 -0.0162  0.9549 -0.2964
 
              Baa    -0.0009    -0.474    -0.169    -0.158 -0.6876 -0.1267  0.7149
    58 H(1)   Bbb    -0.0007    -0.378    -0.135    -0.126  0.7149  0.0536  0.6971
              Bcc     0.0016     0.852     0.304     0.284 -0.1266  0.9905  0.0537
 
              Baa    -0.0008    -0.410    -0.146    -0.137  0.7320  0.3950  0.5551
    59 H(1)   Bbb    -0.0007    -0.383    -0.137    -0.128 -0.5941 -0.0288  0.8039
              Bcc     0.0015     0.793     0.283     0.264 -0.3336  0.9182 -0.2136
 
              Baa    -0.0008    -0.111    -0.040    -0.037  0.4934  0.8668  0.0723
    60 C(13)  Bbb    -0.0005    -0.073    -0.026    -0.024 -0.3253  0.1068  0.9396
              Bcc     0.0014     0.184     0.066     0.061  0.8067 -0.4871  0.3346
 
              Baa    -0.0009    -0.462    -0.165    -0.154 -0.6229 -0.2479  0.7420
    61 H(1)   Bbb    -0.0007    -0.375    -0.134    -0.125  0.1501  0.8930  0.4244
              Bcc     0.0016     0.837     0.299     0.279  0.7677 -0.3757  0.5190
 
              Baa    -0.0007    -0.399    -0.142    -0.133  0.5694  0.7866  0.2390
    62 H(1)   Bbb    -0.0007    -0.377    -0.135    -0.126 -0.4079  0.0179  0.9129
              Bcc     0.0015     0.776     0.277     0.259  0.7138 -0.6172  0.3310
 
              Baa    -0.0009    -0.458    -0.163    -0.153 -0.0157  0.4007  0.9161
    63 H(1)   Bbb    -0.0007    -0.371    -0.133    -0.124  0.4475  0.8221 -0.3519
              Bcc     0.0016     0.829     0.296     0.277  0.8942 -0.4044  0.1922
 
              Baa    -0.0006    -0.085    -0.030    -0.028  0.5178  0.8279 -0.2156
    64 C(13)  Bbb    -0.0006    -0.075    -0.027    -0.025  0.8425 -0.4497  0.2968
              Bcc     0.0012     0.160     0.057     0.053 -0.1488  0.3353  0.9303
 
              Baa    -0.0006    -0.337    -0.120    -0.112  0.9867  0.0161  0.1619
    65 H(1)   Bbb    -0.0006    -0.306    -0.109    -0.102  0.0294  0.9610 -0.2751
              Bcc     0.0012     0.642     0.229     0.214 -0.1600  0.2762  0.9477
 
              Baa    -0.0007    -0.369    -0.132    -0.123  0.8892  0.3333  0.3136
    66 H(1)   Bbb    -0.0006    -0.305    -0.109    -0.102 -0.1887  0.8913 -0.4123
              Bcc     0.0013     0.674     0.241     0.225 -0.4169  0.3074  0.8554
 
              Baa    -0.0008    -0.412    -0.147    -0.138  0.6544  0.7156 -0.2444
    67 H(1)   Bbb    -0.0007    -0.385    -0.137    -0.128  0.7242 -0.5002  0.4746
              Bcc     0.0015     0.797     0.284     0.266 -0.2174  0.4876  0.8456
 
              Baa    -0.0043    -0.166    -0.059    -0.055  0.0844  0.9838  0.1579
    68 N(14)  Bbb    -0.0002    -0.007    -0.003    -0.002 -0.6268 -0.0707  0.7759
              Bcc     0.0045     0.174     0.062     0.058  0.7746 -0.1645  0.6107
 
              Baa    -0.0013    -0.698    -0.249    -0.233  0.1546  0.9485  0.2765
    69 H(1)   Bbb    -0.0011    -0.604    -0.216    -0.202  0.9245 -0.2376  0.2981
              Bcc     0.0024     1.302     0.465     0.434 -0.3485 -0.2096  0.9136
 
              Baa    -0.0035    -0.467    -0.167    -0.156  0.8587  0.4672 -0.2103
    70 C(13)  Bbb    -0.0001    -0.018    -0.006    -0.006 -0.5011  0.8516 -0.1540
              Bcc     0.0036     0.485     0.173     0.162  0.1072  0.2376  0.9654
 
              Baa    -0.0105    -1.411    -0.503    -0.471  0.0023  0.9414  0.3374
    71 C(13)  Bbb     0.0023     0.304     0.109     0.102  0.6828 -0.2480  0.6872
              Bcc     0.0082     1.107     0.395     0.369  0.7306  0.2288 -0.6433
 
              Baa    -0.0044    -2.374    -0.847    -0.792  0.7307  0.2890  0.6186
    72 H(1)   Bbb    -0.0037    -1.957    -0.698    -0.653 -0.5789  0.7425  0.3369
              Bcc     0.0081     4.331     1.545     1.445 -0.3619 -0.6043  0.7098
 
              Baa    -0.0168    -0.648    -0.231    -0.216  0.2465  0.2932  0.9237
    73 N(14)  Bbb     0.0064     0.248     0.089     0.083  0.9649  0.0152 -0.2623
              Bcc     0.0104     0.400     0.143     0.133 -0.0909  0.9559 -0.2792
 
              Baa    -0.0069    -0.930    -0.332    -0.310 -0.4764  0.8445 -0.2448
    74 C(13)  Bbb    -0.0037    -0.496    -0.177    -0.165  0.8772  0.4380 -0.1965
              Bcc     0.0106     1.426     0.509     0.476  0.0587  0.3083  0.9495
 
              Baa    -0.0049    -2.630    -0.939    -0.877  0.5005  0.6619 -0.5580
    75 H(1)   Bbb    -0.0046    -2.435    -0.869    -0.812  0.8566 -0.2855  0.4297
              Bcc     0.0095     5.065     1.807     1.690 -0.1251  0.6931  0.7099
 
              Baa    -0.0005    -0.072    -0.026    -0.024  0.3422  0.2010  0.9179
    76 C(13)  Bbb    -0.0003    -0.047    -0.017    -0.016 -0.0444  0.9792 -0.1979
              Bcc     0.0009     0.119     0.042     0.040  0.9386 -0.0269 -0.3440
 
              Baa    -0.0004    -0.216    -0.077    -0.072  0.3017  0.6266  0.7185
    77 H(1)   Bbb    -0.0004    -0.204    -0.073    -0.068 -0.1155  0.7721 -0.6249
              Bcc     0.0008     0.420     0.150     0.140  0.9464 -0.1055 -0.3053
 
              Baa    -0.0004    -0.204    -0.073    -0.068  0.2061  0.6510  0.7306
    78 H(1)   Bbb    -0.0003    -0.180    -0.064    -0.060 -0.2683  0.7556 -0.5976
              Bcc     0.0007     0.385     0.137     0.128  0.9410  0.0728 -0.3304
 
              Baa    -0.0003    -0.174    -0.062    -0.058  0.4346  0.4570  0.7761
    79 H(1)   Bbb    -0.0003    -0.150    -0.054    -0.050 -0.1735  0.8881 -0.4257
              Bcc     0.0006     0.324     0.116     0.108  0.8837 -0.0504 -0.4653
 
              Baa    -0.0042    -0.559    -0.199    -0.186  0.1806  0.0948  0.9790
    80 C(13)  Bbb     0.0010     0.131     0.047     0.044 -0.0107  0.9955 -0.0944
              Bcc     0.0032     0.428     0.153     0.143  0.9835 -0.0066 -0.1808
 
              Baa    -0.0018    -0.237    -0.084    -0.079  0.3212  0.9470 -0.0081
    81 C(13)  Bbb    -0.0007    -0.097    -0.034    -0.032  0.6194 -0.2036  0.7582
              Bcc     0.0025     0.333     0.119     0.111  0.7164 -0.2485 -0.6520
 
              Baa    -0.0009    -0.498    -0.178    -0.166  0.5414  0.7942  0.2759
    82 H(1)   Bbb    -0.0007    -0.381    -0.136    -0.127  0.2267 -0.4539  0.8618
              Bcc     0.0016     0.880     0.314     0.293  0.8096 -0.4040 -0.4258
 
              Baa    -0.0041    -0.548    -0.196    -0.183  0.4496 -0.1682  0.8773
    83 C(13)  Bbb    -0.0018    -0.239    -0.085    -0.080  0.3970  0.9174 -0.0276
              Bcc     0.0059     0.787     0.281     0.263  0.8002 -0.3607 -0.4792
 
              Baa    -0.0032    -1.719    -0.613    -0.573  0.7214  0.6919  0.0287
    84 H(1)   Bbb    -0.0027    -1.444    -0.515    -0.482  0.3875 -0.4378  0.8113
              Bcc     0.0059     3.163     1.129     1.055 -0.5739  0.5742  0.5840
 
              Baa    -0.0054    -0.726    -0.259    -0.242  0.0107  0.9999  0.0136
    85 C(13)  Bbb    -0.0036    -0.480    -0.171    -0.160  0.7591 -0.0170  0.6508
              Bcc     0.0090     1.206     0.430     0.402 -0.6509 -0.0033  0.7592
 
              Baa    -0.0370     2.679     0.956     0.894  0.2462  0.1542  0.9569
    86 O(17)  Bbb     0.0128    -0.925    -0.330    -0.309 -0.3408  0.9380 -0.0635
              Bcc     0.0242    -1.754    -0.626    -0.585  0.9073  0.3105 -0.2835
 
              Baa    -0.0105    -5.605    -2.000    -1.870 -0.3421  0.9030  0.2597
    87 H(1)   Bbb    -0.0082    -4.352    -1.553    -1.452  0.9101  0.2497  0.3308
              Bcc     0.0187     9.957     3.553     3.321 -0.2339 -0.3495  0.9073
 
              Baa    -0.0017    -0.233    -0.083    -0.078 -0.2683  0.9617 -0.0567
    88 C(13)  Bbb    -0.0006    -0.078    -0.028    -0.026  0.6805  0.2309  0.6954
              Bcc     0.0023     0.310     0.111     0.103 -0.6819 -0.1480  0.7164
 
              Baa    -0.0008    -0.404    -0.144    -0.135 -0.4518  0.8765 -0.1665
    89 H(1)   Bbb    -0.0007    -0.371    -0.132    -0.124  0.3262  0.3360  0.8836
              Bcc     0.0015     0.775     0.277     0.258  0.8304  0.3448 -0.4377
 
              Baa    -0.0042    -0.561    -0.200    -0.187  0.4068  0.2419  0.8809
    90 C(13)  Bbb    -0.0011    -0.153    -0.055    -0.051 -0.4026  0.9131 -0.0649
              Bcc     0.0053     0.714     0.255     0.238  0.8200  0.3283 -0.4688
 
              Baa    -0.0023    -1.210    -0.432    -0.404 -0.0730  0.7989  0.5971
    91 H(1)   Bbb    -0.0021    -1.129    -0.403    -0.377  0.7777 -0.3292  0.5355
              Bcc     0.0044     2.339     0.835     0.780  0.6244  0.5034 -0.5973
 

 ---------------------------------------------------------------------------------

 Unable to Open any file for archive entry.
 1\1\GINC-BGN1019\SP\UAPFD\Gen\C41H42Fe1N6O1(1+,2)\BECSLEIP\12-Sep-2024
 \0\\# apfd/gen scf=maxcycle=999 geom=check\\5b51_III_D\\1,2\Fe,0,20.96
 77620683,63.9003159279,152.256234071\N,0,20.168644632,62.4846427365,15
 3.3828411322\N,0,22.4664058438,64.1124725014,153.595698894\N,0,21.8283
 844776,65.3476529161,151.1348428965\N,0,19.5930839914,63.6229174456,15
 0.8335409677\C,0,19.0731701018,61.7431638019,153.0691506033\C,0,18.795
 5394043,60.7772474598,154.1108909548\C,0,19.7529270111,60.9523364853,1
 55.0594159248\C,0,20.6116166656,62.0136129322,154.5771923512\C,0,22.58
 99015978,63.4442233941,154.7752105517\C,0,23.7660493425,63.8717607124,
 155.487006049\C,0,24.3649533815,64.8200523504,154.7048896578\C,0,23.52
 16107972,64.9646754752,153.5351159817\C,0,22.9864319452,66.0140271714,
 151.3900377386\C,0,23.3249843999,66.8954147986,150.3038843038\C,0,22.3
 391717117,66.7464168163,149.3647934114\C,0,21.4254490027,65.7564247333
 ,149.9012603211\C,0,19.4723356507,64.2844727377,149.6502521699\C,0,18.
 3285427781,63.8003489869,148.912389679\C,0,17.7745372799,62.8149598266
 ,149.6717066911\C,0,18.5713634421,62.727558606,150.8736075407\C,0,18.3
 301592506,61.8431008301,151.9083529006\H,0,17.4847446612,61.1806903681
 ,151.8021771322\C,0,21.7110721728,62.4892795739,155.2620082024\H,0,21.
 9424578545,62.0382519486,156.2151687603\C,0,23.7761463403,65.851752984
 5,152.511634972\H,0,24.6343638826,66.4953831168,152.6135581056\C,0,20.
 2947699156,65.3172723611,149.2332151338\H,0,20.0673057663,65.775219051
 9,148.2821020377\C,0,19.9515912641,60.2332035322,156.3499254997\H,0,19
 .1836514248,59.477338802,156.4941713679\H,0,19.9080698421,60.931041451
 6,157.1868697321\H,0,20.9241678483,59.7415933068,156.3705382379\C,0,17
 .6575354662,59.8154183444,154.0834981143\H,0,17.7296169248,59.15903291
 53,153.2160159553\H,0,16.7083833933,60.3493626522,154.0250346291\H,0,1
 7.6503220648,59.198723681,154.9787984521\C,0,24.2280695243,63.32233616
 71,156.7930753482\H,0,24.4455029711,62.2573107359,156.7052501171\H,0,2
 3.462270049,63.4465448756,157.5596022975\H,0,25.1329558424,63.82825385
 91,157.1203979531\C,0,25.6087346458,65.5119385731,154.979001277\H,0,25
 .7516537697,65.819890166,156.0097732131\C,0,26.5705062613,65.747160368
 9,154.094786349\H,0,26.4951532402,65.4145043553,153.0734156535\H,0,27.
 4755562782,66.2638695611,154.3689485391\C,0,24.5746716812,67.698713885
 4,150.2184775875\H,0,25.4166463295,67.1335041682,150.6149765464\H,0,24
 .4868395068,68.6229526652,150.7918634469\H,0,24.7835988066,67.95471704
 95,149.1818807543\C,0,22.2200475728,67.3607292437,148.0615640953\H,0,2
 1.7626203469,66.7466630143,147.2939821593\C,0,22.6190881612,68.5883281
 527,147.7441874755\H,0,23.0365439027,69.2626663459,148.4713530852\H,0,
 22.517643667,68.9707558805,146.7419039732\C,0,17.9146234008,64.3085729
 239,147.5733054623\H,0,18.7091939877,64.1568985327,146.8416270791\H,0,
 17.6971396904,65.3760472041,147.6166640615\H,0,17.0244149098,63.792927
 7995,147.2220130004\C,0,16.5855257638,61.9628324762,149.3882758919\H,0
 ,16.8688470095,60.9102050634,149.3626760098\H,0,16.1413009856,62.22193
 54525,148.4300631969\H,0,15.8290217719,62.0896832499,150.1627843358\C,
 0,17.6216574126,68.1820838352,153.3894954051\H,0,18.0181412375,69.0234
 11058,153.9573147672\H,0,16.6240563725,67.955444572,153.7657746071\H,0
 ,17.5422766742,68.4716266161,152.3463036442\N,0,18.8276717367,66.42684
 94134,154.710343358\H,0,18.5076536067,66.7368978825,155.613076473\C,0,
 18.5109116395,66.9993028539,153.5065462926\C,0,19.6448995794,65.378103
 0095,154.4628772995\H,0,20.0550462053,64.7443973809,155.2222779581\N,0
 ,19.8626143345,65.2517994435,153.1762329729\C,0,19.1645253929,66.25345
 77282,152.5690677649\H,0,19.1830442266,66.3718737055,151.5058007607\C,
 0,27.4731337276,64.1257212791,150.0580164678\H,0,27.9120505488,64.5263
 89296,150.9695763894\H,0,27.493985684,64.8938888848,149.2885933211\H,0
 ,28.0975259225,63.2954765263,149.7259232129\C,0,26.0710138493,63.65306
 35703,150.3029752536\C,0,25.735763201,63.0151534081,151.4925141107\H,0
 ,26.4929585694,62.8659359129,152.2487660395\C,0,24.4481446809,62.57826
 67008,151.729701626\H,0,24.178747979,62.1011359323,152.6579851116\C,0,
 23.4651244395,62.7767782885,150.7683287165\O,0,22.1826047509,62.365819
 6709,151.042018253\H,0,21.6383729318,62.4796986334,150.2488112647\C,0,
 25.0839627948,63.8232517469,149.3425698177\H,0,25.3221059016,64.314040
 521,148.4099774275\C,0,23.7917794437,63.3836056083,149.5647697888\H,0,
 23.0278334953,63.5382220358,148.8144818564\\Version=ES64L-G16RevC.02\S
 tate=2-A\HF=-3253.3845383\S2=0.819477\S2-1=0.\S2A=0.751156\RMSD=5.663e
 -09\Dipole=-1.7626359,1.2270108,1.2715274\Quadrupole=7.2758789,-14.457
 7676,7.1818887,4.5165344,-1.788823,-3.649309\PG=C01 [X(C41H42Fe1N6O1)]
 \\@
 The archive entry for this job was punched.


    UPON JULIA'S CLOTHES

 WHENAS IN SILKS MY JULIA GOES,
 THEN, THEN, METHINKS, HOW SWEETLY FLOWS
 THAT LIQUEFACTION OF HER CLOTHES.

 NEXT, WHEN I CAST MINE EYES, AND SEE
 THAT BRAVE VIBRATION, EACH WAY FREE,
 O, HOW THAT GLITTERING TAKETH ME!
     -- ROBERT HERRICK, 1648
 Job cpu time:       0 days  9 hours 20 minutes  0.0 seconds.
 Elapsed time:       0 days  0 hours  9 minutes 26.4 seconds.
 File lengths (MBytes):  RWF=    578 Int=      0 D2E=      0 Chk=    248 Scr=      1
 Normal termination of Gaussian 16 at Thu Sep 12 22:42:56 2024.
