 Entering Gaussian System, Link 0=g16
 Input=5b8505.com
 Output=5b8505.log
 Initial command:
 /sw/chem/gaussian/g16_C02/a100/g16/l1.exe "/local/becsleip_8015303/Gau-3268902.inp" -scrdir="/local/becsleip_8015303/"
 Entering Link 1 = /sw/chem/gaussian/g16_C02/a100/g16/l1.exe PID=   3268903.
  
 Copyright (c) 1988-2021, Gaussian, Inc.  All Rights Reserved.
  
 This is part of the Gaussian(R) 16 program.  It is based on
 the Gaussian(R) 09 system (copyright 2009, Gaussian, Inc.),
 the Gaussian(R) 03 system (copyright 2003, Gaussian, Inc.),
 the Gaussian(R) 98 system (copyright 1998, Gaussian, Inc.),
 the Gaussian(R) 94 system (copyright 1995, Gaussian, Inc.),
 the Gaussian 92(TM) system (copyright 1992, Gaussian, Inc.),
 the Gaussian 90(TM) system (copyright 1990, Gaussian, Inc.),
 the Gaussian 88(TM) system (copyright 1988, Gaussian, Inc.),
 the Gaussian 86(TM) system (copyright 1986, Carnegie Mellon
 University), and the Gaussian 82(TM) system (copyright 1983,
 Carnegie Mellon University). Gaussian is a federally registered
 trademark of Gaussian, Inc.
  
 This software contains proprietary and confidential information,
 including trade secrets, belonging to Gaussian, Inc.
  
 This software is provided under written license and may be
 used, copied, transmitted, or stored only in accord with that
 written license.
  
 The following legend is applicable only to US Government
 contracts under FAR:
  
                    RESTRICTED RIGHTS LEGEND
  
 Use, reproduction and disclosure by the US Government is
 subject to restrictions as set forth in subparagraphs (a)
 and (c) of the Commercial Computer Software - Restricted
 Rights clause in FAR 52.227-19.
  
 Gaussian, Inc.
 340 Quinnipiac St., Bldg. 40, Wallingford CT 06492
  
  
 ---------------------------------------------------------------
 Warning -- This program may not be used in any manner that
 competes with the business of Gaussian, Inc. or will provide
 assistance to any competitor of Gaussian, Inc.  The licensee
 of this program is prohibited from giving any competitor of
 Gaussian, Inc. access to this program.  By using this program,
 the user acknowledges that Gaussian, Inc. is engaged in the
 business of creating and licensing software in the field of
 computational chemistry and represents and warrants to the
 licensee that it is not a competitor of Gaussian, Inc. and that
 it will not use this program in any manner prohibited above.
 ---------------------------------------------------------------
  

 Cite this work as:
 Gaussian 16, Revision C.02,
 M. J. Frisch, G. W. Trucks, H. B. Schlegel, G. E. Scuseria, 
 M. A. Robb, J. R. Cheeseman, G. Scalmani, V. Barone, 
 G. A. Petersson, H. Nakatsuji, X. Li, M. Caricato, A. V. Marenich, 
 J. Bloino, B. G. Janesko, R. Gomperts, B. Mennucci, H. P. Hratchian, 
 J. V. Ortiz, A. F. Izmaylov, J. L. Sonnenberg, D. Williams-Young, 
 F. Ding, F. Lipparini, F. Egidi, J. Goings, B. Peng, A. Petrone, 
 T. Henderson, D. Ranasinghe, V. G. Zakrzewski, J. Gao, N. Rega, 
 G. Zheng, W. Liang, M. Hada, M. Ehara, K. Toyota, R. Fukuda, 
 J. Hasegawa, M. Ishida, T. Nakajima, Y. Honda, O. Kitao, H. Nakai, 
 T. Vreven, K. Throssell, J. A. Montgomery, Jr., J. E. Peralta, 
 F. Ogliaro, M. J. Bearpark, J. J. Heyd, E. N. Brothers, K. N. Kudin, 
 V. N. Staroverov, T. A. Keith, R. Kobayashi, J. Normand, 
 K. Raghavachari, A. P. Rendell, J. C. Burant, S. S. Iyengar, 
 J. Tomasi, M. Cossi, J. M. Millam, M. Klene, C. Adamo, R. Cammi, 
 J. W. Ochterski, R. L. Martin, K. Morokuma, O. Farkas, 
 J. B. Foresman, and D. J. Fox, Gaussian, Inc., Wallingford CT, 2019.
 
 ******************************************
 Gaussian 16:  ES64L-G16RevC.02  7-Dec-2021
                13-Sep-2024 
 ******************************************
 %mem=16GB
 %CPU=0-71
 SetSPE:  set environment variable "OMP_PROC_BIND" = "true"
 SetSPE:  set environment variable "OMP_PLACES" = "{0},{1},{2},{3},{4},{5},{6},{7},{8},{9},{10},{11},{12},{13},{14},{15},{16},{17},{18},{19},{20},{21},{22},{23},{24},{25},{26},{27},{28},{29},{30},{31},{32},{33},{34},{35},{36},{37},{38},{39},{40},{41},{42},{43},{44},{45},{46},{47},{48},{49},{50},{51},{52},{53},{54},{55},{56},{57},{58},{59},{60},{61},{62},{63},{64},{65},{66},{67},{68},{69},{70},{71}"
 Will use up to   72 processors via shared memory.
 %gpucpu=0,1,2,3=0,1,2,3
 Will use    4 GPUs:
 Thread  CPU   GPU
      0    0     0
      1    1     1
      2    2     2
      3    3     3
      4    4    -1
      5    5    -1
      6    6    -1
      7    7    -1
      8    8    -1
      9    9    -1
     10   10    -1
     11   11    -1
     12   12    -1
     13   13    -1
     14   14    -1
     15   15    -1
     16   16    -1
     17   17    -1
     18   18    -1
     19   19    -1
     20   20    -1
     21   21    -1
     22   22    -1
     23   23    -1
     24   24    -1
     25   25    -1
     26   26    -1
     27   27    -1
     28   28    -1
     29   29    -1
     30   30    -1
     31   31    -1
     32   32    -1
     33   33    -1
     34   34    -1
     35   35    -1
     36   36    -1
     37   37    -1
     38   38    -1
     39   39    -1
     40   40    -1
     41   41    -1
     42   42    -1
     43   43    -1
     44   44    -1
     45   45    -1
     46   46    -1
     47   47    -1
     48   48    -1
     49   49    -1
     50   50    -1
     51   51    -1
     52   52    -1
     53   53    -1
     54   54    -1
     55   55    -1
     56   56    -1
     57   57    -1
     58   58    -1
     59   59    -1
     60   60    -1
     61   61    -1
     62   62    -1
     63   63    -1
     64   64    -1
     65   65    -1
     66   66    -1
     67   67    -1
     68   68    -1
     69   69    -1
     70   70    -1
     71   71    -1
 SetGPE:  set environment variable "OMP_PROC_BIND" = "true"
 SetGPE:  set environment variable "OMP_PLACES" = "{0},{1},{2},{3},{4},{5},{6},{7},{8},{9},{10},{11},{12},{13},{14},{15},{16},{17},{18},{19},{20},{21},{22},{23},{24},{25},{26},{27},{28},{29},{30},{31},{32},{33},{34},{35},{36},{37},{38},{39},{40},{41},{42},{43},{44},{45},{46},{47},{48},{49},{50},{51},{52},{53},{54},{55},{56},{57},{58},{59},{60},{61},{62},{63},{64},{65},{66},{67},{68},{69},{70},{71}"
 %oldchk=5b85_II_Sre.chk
 %chk=5b85_II_Qn.chk
 Properties for Device   0
 Minimum vector length:                              32
 Maximum vector length:                            1024
 Number of SMPs:                                    108
 Maximum number of threads per SMP:                2048
 Number of ASync Engines:                             5
 Memory:                                           9207742464
 Properties for Device   1
 Minimum vector length:                              32
 Maximum vector length:                            1024
 Number of SMPs:                                    108
 Maximum number of threads per SMP:                2048
 Number of ASync Engines:                             5
 Memory:                                           9207742464
 Properties for Device   2
 Minimum vector length:                              32
 Maximum vector length:                            1024
 Number of SMPs:                                    108
 Maximum number of threads per SMP:                2048
 Number of ASync Engines:                             5
 Memory:                                           9207742464
 Properties for Device   3
 Minimum vector length:                              32
 Maximum vector length:                            1024
 Number of SMPs:                                    108
 Maximum number of threads per SMP:                2048
 Number of ASync Engines:                             5
 Memory:                                           9207742464
   8286968217 words of memory will be used on each GPU.
 Copying data from "5b85_II_Sre.chk" to current chk file "5b85_II_Qn.chk"
 IOpt=  2 FromEx=T IUOpen= 4 IOptOp= 5 NList=   0 IFRang= 0 IUIn= 4 IUOut= 2.
 --------------------------------------------------------------
 # apfd/def2TZVP guess=read scf=maxcycle=999 geom=check pop=nbo
 --------------------------------------------------------------
 1/29=2,38=1,172=1/1;
 2/12=2,40=1/2;
 3/5=44,7=101,11=2,14=-4,25=1,30=1,74=-44,116=-2/1,2,3;
 4/5=1/1;
 5/5=2,7=999,38=6/2;
 6/7=2,8=2,9=2,10=2,28=1,40=1/1,7;
 99/5=1,9=1/99;
 ---------
 5b85_II_Q
 ---------
 Structure from the checkpoint file:  "5b85_II_Qn.chk"
 Charge =  0 Multiplicity = 5
 Z-Matrix found in chk file.
 Fe,0,45.6643566395,54.7995231076,8.4670654526
 N,0,45.4572216453,56.5106660754,7.4468342029
 N,0,45.0986015342,53.7749639642,6.8252786976
 N,0,45.7769573563,53.0690826713,9.4893313282
 N,0,46.1649296983,55.8113726807,10.1032685737
 C,0,45.724632035,57.7612505322,7.9068400614
 C,0,45.5275330995,58.7452696046,6.8651851996
 C,0,45.1500946779,58.054438586,5.756620965
 C,0,45.1107537869,56.6603280374,6.1416818541
 C,0,44.7944488494,54.2902946832,5.6039135524
 C,0,44.4176824243,53.2470670437,4.6832457587
 C,0,44.5153575276,52.0699373115,5.3750114658
 C,0,44.9296494086,52.4311670846,6.7182669942
 C,0,45.4838219675,51.8206768768,9.0317749412
 C,0,45.4345262708,50.8736659076,10.1139215974
 C,0,45.7584602728,51.5722464478,11.2486039619
 C,0,45.9849722766,52.9402382763,10.8262215179
 C,0,46.3172223378,55.3137874064,11.3591555939
 C,0,46.5676521584,56.3768181071,12.3074071093
 C,0,46.4917075315,57.5378877388,11.6045063338
 C,0,46.2140245845,57.1645333089,10.2343293581
 C,0,46.0682217522,58.0793207644,9.2084113782
 H,0,46.1936016467,59.1240827531,9.4498175342
 C,0,44.803549037,55.6339352823,5.2729201911
 H,0,44.53644198,55.9011850002,4.2620312986
 C,0,45.1433744411,51.510042709,7.7245473689
 H,0,44.9466856353,50.472882186,7.4993409328
 C,0,46.2635531587,53.9763152517,11.7002734111
 H,0,46.3962089257,53.7260071819,12.7417943436
 C,0,44.8182969383,58.5608868498,4.3947272375
 H,0,45.4937156408,58.1345573929,3.652416502
 H,0,44.9034289323,59.6440720668,4.3527459209
 H,0,43.7994560922,58.2861342249,4.1211259732
 C,0,45.7303964929,60.2115265725,7.042327154
 H,0,46.7498714483,60.4230257612,7.3661479614
 H,0,45.0487492704,60.6044954194,7.7971955837
 H,0,45.5504623877,60.7422005515,6.1106049154
 C,0,44.084275059,53.4500030707,3.2463160267
 H,0,44.7168417931,54.2208406264,2.8085909398
 H,0,43.0444728156,53.7595446526,3.128282138
 H,0,44.2313551805,52.5237907475,2.6944070224
 C,0,44.2684518894,50.7186486743,4.9222060663
 H,0,44.8960068428,49.9535150992,5.3651278229
 C,0,43.3488785715,50.3585937743,4.0326388129
 H,0,42.6660690547,51.066483963,3.5963111831
 H,0,43.2296118106,49.3315399455,3.7293497066
 C,0,45.165692858,49.4163556004,9.9682505209
 H,0,45.6335982668,49.0261991155,9.0654589149
 H,0,44.0938109953,49.2214183076,9.902156826
 H,0,45.5607646785,48.8762050337,10.8262430169
 C,0,45.8715770405,51.0997825244,12.6104795345
 H,0,46.6325255945,51.5845406956,13.211255791
 C,0,45.1255565562,50.1480942186,13.1622621176
 H,0,44.3246277452,49.6660369153,12.6291338218
 H,0,45.2753535538,49.8348336922,14.1822137177
 C,0,46.8205101235,56.1655153728,13.7608022676
 H,0,47.6888931294,55.5232878807,13.908594448
 H,0,45.9625388973,55.6870263752,14.2340074569
 H,0,47.0045446705,57.1118811208,14.2636147071
 C,0,46.6460145496,58.9422863441,12.0800000905
 H,0,47.4696415883,59.4362007373,11.5633402945
 H,0,46.8476125437,58.9687064869,13.1480380234
 H,0,45.7372112613,59.513277383,11.8887439382
 O,0,43.491,54.81,9.132
 H,0,43.353,53.934,9.491
 H,0,42.904,55.478,9.133
 C,0,50.6435683532,53.0178243373,6.7160812159
 H,0,51.0350350997,53.4192792443,5.7813723457
 H,0,50.294372705,52.005232481,6.5403385107
 H,0,51.45714678,52.9860227251,7.4406838945
 N,0,49.6696760102,55.1747731829,7.5360711527
 H,0,50.5229331845,55.7043621371,7.4649741622
 C,0,49.5212097977,53.8497719767,7.2191282863
 C,0,48.4692154227,55.6318130688,7.9597204611
 H,0,48.2863295075,56.6383329055,8.2754650763
 N,0,47.5709005977,54.6774921319,7.9293303857
 C,0,48.2102904609,53.5630611341,7.4710315448
 H,0,47.6876223932,52.6366427958,7.3542582293
 Recover connectivity data from disk.
 Stoichiometry    C34H36FeN6O(5)
 Framework group  C1[X(C34H36FeN6O)]
 Deg. of freedom   228
 Full point group                 C1      NOp   1
 Largest Abelian subgroup         C1      NOp   1
 Largest concise Abelian subgroup C1      NOp   1
                         Standard orientation:                         
 ---------------------------------------------------------------------
 Center     Atomic      Atomic             Coordinates (Angstroms)
 Number     Number       Type             X           Y           Z
 ---------------------------------------------------------------------
      1         26           0        0.217422   -0.030585   -0.279734
      2          7           0        1.391155   -1.638721   -0.498904
      3          7           0       -1.404032   -1.224997   -0.377375
      4          7           0       -0.991323    1.573891   -0.150421
      5          7           0        1.812840    1.154677   -0.242755
      6          6           0        2.750113   -1.652703   -0.488346
      7          6           0        3.251238   -3.004877   -0.600978
      8          6           0        2.158164   -3.811113   -0.662588
      9          6           0        1.006322   -2.937865   -0.598858
     10          6           0       -1.416069   -2.579555   -0.499176
     11          6           0       -2.766629   -3.080643   -0.552115
     12          6           0       -3.586127   -1.989671   -0.442944
     13          6           0       -2.706378   -0.839113   -0.349565
     14          6           0       -2.352331    1.585813   -0.186748
     15          6           0       -2.852323    2.927761   -0.326333
     16          6           0       -1.753211    3.747758   -0.322854
     17          6           0       -0.602694    2.875513   -0.193956
     18          6           0        1.824273    2.513607   -0.277634
     19          6           0        3.178557    3.015391   -0.355461
     20          6           0        3.983572    1.923216   -0.439276
     21          6           0        3.109334    0.771065   -0.393009
     22          6           0        3.562225   -0.533634   -0.450039
     23          1           0        4.628908   -0.689506   -0.508498
     24          6           0       -0.297396   -3.388326   -0.596486
     25          1           0       -0.456401   -4.451467   -0.691961
     26          6           0       -3.158999    0.459182   -0.221837
     27          1           0       -4.226639    0.617372   -0.236856
     28          6           0        0.706301    3.323293   -0.226429
     29          1           0        0.865923    4.389901   -0.269842
     30          6           0        2.083602   -5.294817   -0.782576
     31          1           0        1.561849   -5.722669    0.073980
     32          1           0        3.078830   -5.730270   -0.829482
     33          1           0        1.541738   -5.579839   -1.684535
     34          6           0        4.696896   -3.368100   -0.625163
     35          1           0        5.198404   -3.013125    0.275617
     36          1           0        5.191246   -2.917005   -1.485991
     37          1           0        4.823828   -4.446252   -0.684946
     38          6           0       -3.146150   -4.518845   -0.620310
     39          1           0       -2.471400   -5.124945   -0.017575
     40          1           0       -3.101638   -4.884539   -1.647550
     41          1           0       -4.160650   -4.655270   -0.251142
     42          6           0       -5.031043   -1.928335   -0.422156
     43          1           0       -5.458546   -1.148980    0.198555
     44          6           0       -5.847486   -2.732092   -1.095935
     45          1           0       -5.480724   -3.491299   -1.764374
     46          1           0       -6.918384   -2.638768   -1.021651
     47          6           0       -4.291351    3.307510   -0.373601
     48          1           0       -4.875555    2.690881    0.308062
     49          1           0       -4.697592    3.175321   -1.377988
     50          1           0       -4.411732    4.350819   -0.088977
     51          6           0       -1.689163    5.189014   -0.419808
     52          1           0       -0.889475    5.659668    0.140504
     53          6           0       -2.511588    5.952457   -1.132194
     54          1           0       -3.292779    5.537349   -1.744989
     55          1           0       -2.413986    7.025367   -1.146696
     56          6           0        3.540803    4.460926   -0.367747
     57          1           0        3.168822    4.956142    0.529348
     58          1           0        3.103674    4.958750   -1.233818
     59          1           0        4.619749    4.589607   -0.407916
     60          6           0        5.467487    1.850097   -0.561307
     61          1           0        5.897034    1.301991    0.277930
     62          1           0        5.903377    2.845970   -0.578123
     63          1           0        5.751225    1.336452   -1.480107
     64          8           0        0.045118    0.280362   -2.524584
     65          1           0       -0.659343    0.920969   -2.617633
     66          1           0        0.546373   -0.050146   -3.180558
     67          6           0       -1.079804   -0.288595    5.131696
     68          1           0       -0.963539   -1.243370    5.644512
     69          1           0       -2.136691   -0.115004    4.955570
     70          1           0       -0.700685    0.497454    5.784663
     71          7           0        0.999802   -0.482688    3.749364
     72          1           0        1.623426   -0.632011    4.525484
     73          6           0       -0.354757   -0.293458    3.835870
     74          6           0        1.338290   -0.429476    2.440905
     75          1           0        2.337108   -0.544562    2.073016
     76          7           0        0.280981   -0.219051    1.694956
     77          6           0       -0.779629   -0.132056    2.548391
     78          1           0       -1.769924    0.039571    2.181065
 ---------------------------------------------------------------------
 Rotational constants (GHZ):           0.0922837           0.0912113           0.0594438
 Standard basis: def2TZVP (5D, 7F)
 There are  1744 symmetry adapted cartesian basis functions of A   symmetry.
 There are  1532 symmetry adapted basis functions of A   symmetry.
  1532 basis functions,  2481 primitive gaussians,  1744 cartesian basis functions
   160 alpha electrons      156 beta electrons
       nuclear repulsion energy      5963.8570050266 Hartrees.
 NAtoms=   78 NActive=   78 NUniq=   78 SFac= 1.00D+00 NAtFMM=   60 NAOKFM=T Big=T
 Integral buffers will be    131072 words long.
 Raffenetti 2 integral format.
 Two-electron integral symmetry is turned on.
 R6APFD:  NTU= -4 IXU= 1 FactS= 1.050
 Nuclear repulsion after empirical dispersion term =     5963.7043406327 Hartrees.
 One-electron integrals computed using PRISM.
   1 Symmetry operations used in ECPInt.
 ECPInt:  NShTT=  186355 NPrTT=  576197 LenC2=  147073 LenP2D=  300911.
 LDataN:  DoStor=T MaxTD1= 6 Len=  172
 Number of processors reduced to  23 by ecpmxn.
 NBasis=  1532 RedAO= T EigKep=  3.37D-06  NBF=  1532
 NBsUse=  1532 1.00D-06 EigRej= -1.00D+00 NBFU=  1532
 Initial guess from the checkpoint file:  "5b85_II_Qn.chk"
 B after Tr=     0.000000    0.000000   -0.000000
         Rot=    1.000000   -0.000000   -0.000000    0.000000 Ang=   0.00 deg.
 Initial guess <Sx>= 0.0000 <Sy>= 0.0000 <Sz>= 2.0000 <S**2>= 6.1527 S= 2.0304
 Requested convergence on RMS density matrix=1.00D-08 within 999 cycles.
 Requested convergence on MAX density matrix=1.00D-06.
 Requested convergence on             energy=1.00D-06.
 No special actions if energy rises.
 Restarting incremental Fock formation.
 SCF Done:  E(UAPFD) =  -2984.01060790     A.U. after   34 cycles
            NFock= 34  Conv=0.15D-08     -V/T= 2.0031
 <Sx>= 0.0000 <Sy>= 0.0000 <Sz>= 2.0000 <S**2>= 6.1537 S= 2.0306
 <L.S>=  0.00000000000    
 Annihilation of the first spin contaminant:
 S**2 before annihilation     6.1537,   after     6.0008

 **********************************************************************

            Population analysis using the SCF Density.

 **********************************************************************

 Orbital symmetries:
 Alpha Orbitals:
       Occupied  (A) (A) (A) (A) (A) (A) (A) (A) (A) (A) (A) (A)
                 (A) (A) (A) (A) (A) (A) (A) (A) (A) (A) (A) (A)
                 (A) (A) (A) (A) (A) (A) (A) (A) (A) (A) (A) (A)
                 (A) (A) (A) (A) (A) (A) (A) (A) (A) (A) (A) (A)
                 (A) (A) (A) (A) (A) (A) (A) (A) (A) (A) (A) (A)
                 (A) (A) (A) (A) (A) (A) (A) (A) (A) (A) (A) (A)
                 (A) (A) (A) (A) (A) (A) (A) (A) (A) (A) (A) (A)
                 (A) (A) (A) (A) (A) (A) (A) (A) (A) (A) (A) (A)
                 (A) (A) (A) (A) (A) (A) (A) (A) (A) (A) (A) (A)
                 (A) (A) (A) (A) (A) (A) (A) (A) (A) (A) (A) (A)
                 (A) (A) (A) (A) (A) (A) (A) (A) (A) (A) (A) (A)
                 (A) (A) (A) (A) (A) (A) (A) (A) (A) (A) (A) (A)
                 (A) (A) (A) (A) (A) (A) (A) (A) (A) (A) (A) (A)
                 (A) (A) (A) (A)
       Virtual   (A) (A) (A) (A) (A) (A) (A) (A) (A) (A) (A) (A)
                 (A) (A) (A) (A) (A) (A) (A) (A) (A) (A) (A) (A)
                 (A) (A) (A) (A) (A) (A) (A) (A) (A) (A) (A) (A)
                 (A) (A) (A) (A) (A) (A) (A) (A) (A) (A) (A) (A)
                 (A) (A) (A) (A) (A) (A) (A) (A) (A) (A) (A) (A)
                 (A) (A) (A) (A) (A) (A) (A) (A) (A) (A) (A) (A)
                 (A) (A) (A) (A) (A) (A) (A) (A) (A) (A) (A) (A)
                 (A) (A) (A) (A) (A) (A) (A) (A) (A) (A) (A) (A)
                 (A) (A) (A) (A) (A) (A) (A) (A) (A) (A) (A) (A)
                 (A) (A) (A) (A) (A) (A) (A) (A) (A) (A) (A) (A)
                 (A) (A) (A) (A) (A) (A) (A) (A) (A) (A) (A) (A)
                 (A) (A) (A) (A) (A) (A) (A) (A) (A) (A) (A) (A)
                 (A) (A) (A) (A) (A) (A) (A) (A) (A) (A) (A) (A)
                 (A) (A) (A) (A) (A) (A) (A) (A) (A) (A) (A) (A)
                 (A) (A) (A) (A) (A) (A) (A) (A) (A) (A) (A) (A)
                 (A) (A) (A) (A) (A) (A) (A) (A) (A) (A) (A) (A)
                 (A) (A) (A) (A) (A) (A) (A) (A) (A) (A) (A) (A)
                 (A) (A) (A) (A) (A) (A) (A) (A) (A) (A) (A) (A)
                 (A) (A) (A) (A) (A) (A) (A) (A) (A) (A) (A) (A)
                 (A) (A) (A) (A) (A) (A) (A) (A) (A) (A) (A) (A)
                 (A) (A) (A) (A) (A) (A) (A) (A) (A) (A) (A) (A)
                 (A) (A) (A) (A) (A) (A) (A) (A) (A) (A) (A) (A)
                 (A) (A) (A) (A) (A) (A) (A) (A) (A) (A) (A) (A)
                 (A) (A) (A) (A) (A) (A) (A) (A) (A) (A) (A) (A)
                 (A) (A) (A) (A) (A) (A) (A) (A) (A) (A) (A) (A)
                 (A) (A) (A) (A) (A) (A) (A) (A) (A) (A) (A) (A)
                 (A) (A) (A) (A) (A) (A) (A) (A) (A) (A) (A) (A)
                 (A) (A) (A) (A) (A) (A) (A) (A) (A) (A) (A) (A)
                 (A) (A) (A) (A) (A) (A) (A) (A) (A) (A) (A) (A)
                 (A) (A) (A) (A) (A) (A) (A) (A) (A) (A) (A) (A)
                 (A) (A) (A) (A) (A) (A) (A) (A) (A) (A) (A) (A)
                 (A) (A) (A) (A) (A) (A) (A) (A) (A) (A) (A) (A)
                 (A) (A) (A) (A) (A) (A) (A) (A) (A) (A) (A) (A)
                 (A) (A) (A) (A) (A) (A) (A) (A) (A) (A) (A) (A)
                 (A) (A) (A) (A) (A) (A) (A) (A) (A) (A) (A) (A)
                 (A) (A) (A) (A) (A) (A) (A) (A) (A) (A) (A) (A)
                 (A) (A) (A) (A) (A) (A) (A) (A) (A) (A) (A) (A)
                 (A) (A) (A) (A) (A) (A) (A) (A) (A) (A) (A) (A)
                 (A) (A) (A) (A) (A) (A) (A) (A) (A) (A) (A) (A)
                 (A) (A) (A) (A) (A) (A) (A) (A) (A) (A) (A) (A)
                 (A) (A) (A) (A) (A) (A) (A) (A) (A) (A) (A) (A)
                 (A) (A) (A) (A) (A) (A) (A) (A) (A) (A) (A) (A)
                 (A) (A) (A) (A) (A) (A) (A) (A) (A) (A) (A) (A)
                 (A) (A) (A) (A) (A) (A) (A) (A) (A) (A) (A) (A)
                 (A) (A) (A) (A) (A) (A) (A) (A) (A) (A) (A) (A)
                 (A) (A) (A) (A) (A) (A) (A) (A) (A) (A) (A) (A)
                 (A) (A) (A) (A) (A) (A) (A) (A) (A) (A) (A) (A)
                 (A) (A) (A) (A) (A) (A) (A) (A) (A) (A) (A) (A)
                 (A) (A) (A) (A) (A) (A) (A) (A) (A) (A) (A) (A)
                 (A) (A) (A) (A) (A) (A) (A) (A) (A) (A) (A) (A)
                 (A) (A) (A) (A) (A) (A) (A) (A) (A) (A) (A) (A)
                 (A) (A) (A) (A) (A) (A) (A) (A) (A) (A) (A) (A)
                 (A) (A) (A) (A) (A) (A) (A) (A) (A) (A) (A) (A)
                 (A) (A) (A) (A) (A) (A) (A) (A) (A) (A) (A) (A)
                 (A) (A) (A) (A) (A) (A) (A) (A) (A) (A) (A) (A)
                 (A) (A) (A) (A) (A) (A) (A) (A) (A) (A) (A) (A)
                 (A) (A) (A) (A) (A) (A) (A) (A) (A) (A) (A) (A)
                 (A) (A) (A) (A) (A) (A) (A) (A) (A) (A) (A) (A)
                 (A) (A) (A) (A) (A) (A) (A) (A) (A) (A) (A) (A)
                 (A) (A) (A) (A) (A) (A) (A) (A) (A) (A) (A) (A)
                 (A) (A) (A) (A) (A) (A) (A) (A) (A) (A) (A) (A)
                 (A) (A) (A) (A) (A) (A) (A) (A) (A) (A) (A) (A)
                 (A) (A) (A) (A) (A) (A) (A) (A) (A) (A) (A) (A)
                 (A) (A) (A) (A) (A) (A) (A) (A) (A) (A) (A) (A)
                 (A) (A) (A) (A) (A) (A) (A) (A) (A) (A) (A) (A)
                 (A) (A) (A) (A) (A) (A) (A) (A) (A) (A) (A) (A)
                 (A) (A) (A) (A) (A) (A) (A) (A) (A) (A) (A) (A)
                 (A) (A) (A) (A) (A) (A) (A) (A) (A) (A) (A) (A)
                 (A) (A) (A) (A) (A) (A) (A) (A) (A) (A) (A) (A)
                 (A) (A) (A) (A) (A) (A) (A) (A) (A) (A) (A) (A)
                 (A) (A) (A) (A) (A) (A) (A) (A) (A) (A) (A) (A)
                 (A) (A) (A) (A) (A) (A) (A) (A) (A) (A) (A) (A)
                 (A) (A) (A) (A) (A) (A) (A) (A) (A) (A) (A) (A)
                 (A) (A) (A) (A) (A) (A) (A) (A) (A) (A) (A) (A)
                 (A) (A) (A) (A) (A) (A) (A) (A) (A) (A) (A) (A)
                 (A) (A) (A) (A) (A) (A) (A) (A) (A) (A) (A) (A)
                 (A) (A) (A) (A) (A) (A) (A) (A) (A) (A) (A) (A)
                 (A) (A) (A) (A) (A) (A) (A) (A) (A) (A) (A) (A)
                 (A) (A) (A) (A) (A) (A) (A) (A) (A) (A) (A) (A)
                 (A) (A) (A) (A) (A) (A) (A) (A) (A) (A) (A) (A)
                 (A) (A) (A) (A) (A) (A) (A) (A) (A) (A) (A) (A)
                 (A) (A) (A) (A) (A) (A) (A) (A) (A) (A) (A) (A)
                 (A) (A) (A) (A) (A) (A) (A) (A) (A) (A) (A) (A)
                 (A) (A) (A) (A) (A) (A) (A) (A) (A) (A) (A) (A)
                 (A) (A) (A) (A) (A) (A) (A) (A) (A) (A) (A) (A)
                 (A) (A) (A) (A) (A) (A) (A) (A) (A) (A) (A) (A)
                 (A) (A) (A) (A) (A) (A) (A) (A) (A) (A) (A) (A)
                 (A) (A) (A) (A) (A) (A) (A) (A) (A) (A) (A) (A)
                 (A) (A) (A) (A) (A) (A) (A) (A) (A) (A) (A) (A)
                 (A) (A) (A) (A) (A) (A) (A) (A) (A) (A) (A) (A)
                 (A) (A) (A) (A) (A) (A) (A) (A) (A) (A) (A) (A)
                 (A) (A) (A) (A) (A) (A) (A) (A) (A) (A) (A) (A)
                 (A) (A) (A) (A) (A) (A) (A) (A) (A) (A) (A) (A)
                 (A) (A) (A) (A) (A) (A) (A) (A) (A) (A) (A) (A)
                 (A) (A) (A) (A) (A) (A) (A) (A) (A) (A) (A) (A)
                 (A) (A) (A) (A) (A) (A) (A) (A) (A) (A) (A) (A)
                 (A) (A) (A) (A) (A) (A) (A) (A) (A) (A) (A) (A)
                 (A) (A) (A) (A) (A) (A) (A) (A) (A) (A) (A) (A)
                 (A) (A) (A) (A) (A) (A) (A) (A) (A) (A) (A) (A)
                 (A) (A) (A) (A) (A) (A) (A) (A) (A) (A) (A) (A)
                 (A) (A) (A) (A) (A) (A) (A) (A) (A) (A) (A) (A)
                 (A) (A) (A) (A) (A) (A) (A) (A) (A) (A) (A) (A)
                 (A) (A) (A) (A) (A) (A) (A) (A) (A) (A) (A) (A)
                 (A) (A) (A) (A) (A) (A) (A) (A) (A) (A) (A) (A)
                 (A) (A) (A) (A) (A) (A) (A) (A) (A) (A) (A) (A)
                 (A) (A) (A) (A) (A) (A) (A) (A) (A) (A) (A) (A)
                 (A) (A) (A) (A) (A) (A) (A) (A) (A) (A) (A) (A)
                 (A) (A) (A) (A) (A) (A) (A) (A) (A) (A) (A) (A)
                 (A) (A) (A) (A) (A) (A) (A) (A) (A) (A) (A) (A)
                 (A) (A) (A) (A) (A) (A) (A) (A) (A) (A) (A) (A)
                 (A) (A) (A) (A) (A) (A) (A) (A) (A) (A) (A) (A)
                 (A) (A) (A) (A) (A) (A) (A) (A) (A) (A) (A) (A)
                 (A) (A) (A) (A) (A) (A) (A) (A) (A) (A) (A) (A)
                 (A) (A) (A) (A) (A) (A) (A) (A) (A) (A) (A) (A)
                 (A) (A) (A) (A)
 Beta  Orbitals:
       Occupied  (A) (A) (A) (A) (A) (A) (A) (A) (A) (A) (A) (A)
                 (A) (A) (A) (A) (A) (A) (A) (A) (A) (A) (A) (A)
                 (A) (A) (A) (A) (A) (A) (A) (A) (A) (A) (A) (A)
                 (A) (A) (A) (A) (A) (A) (A) (A) (A) (A) (A) (A)
                 (A) (A) (A) (A) (A) (A) (A) (A) (A) (A) (A) (A)
                 (A) (A) (A) (A) (A) (A) (A) (A) (A) (A) (A) (A)
                 (A) (A) (A) (A) (A) (A) (A) (A) (A) (A) (A) (A)
                 (A) (A) (A) (A) (A) (A) (A) (A) (A) (A) (A) (A)
                 (A) (A) (A) (A) (A) (A) (A) (A) (A) (A) (A) (A)
                 (A) (A) (A) (A) (A) (A) (A) (A) (A) (A) (A) (A)
                 (A) (A) (A) (A) (A) (A) (A) (A) (A) (A) (A) (A)
                 (A) (A) (A) (A) (A) (A) (A) (A) (A) (A) (A) (A)
                 (A) (A) (A) (A) (A) (A) (A) (A) (A) (A) (A) (A)
       Virtual   (A) (A) (A) (A) (A) (A) (A) (A) (A) (A) (A) (A)
                 (A) (A) (A) (A) (A) (A) (A) (A) (A) (A) (A) (A)
                 (A) (A) (A) (A) (A) (A) (A) (A) (A) (A) (A) (A)
                 (A) (A) (A) (A) (A) (A) (A) (A) (A) (A) (A) (A)
                 (A) (A) (A) (A) (A) (A) (A) (A) (A) (A) (A) (A)
                 (A) (A) (A) (A) (A) (A) (A) (A) (A) (A) (A) (A)
                 (A) (A) (A) (A) (A) (A) (A) (A) (A) (A) (A) (A)
                 (A) (A) (A) (A) (A) (A) (A) (A) (A) (A) (A) (A)
                 (A) (A) (A) (A) (A) (A) (A) (A) (A) (A) (A) (A)
                 (A) (A) (A) (A) (A) (A) (A) (A) (A) (A) (A) (A)
                 (A) (A) (A) (A) (A) (A) (A) (A) (A) (A) (A) (A)
                 (A) (A) (A) (A) (A) (A) (A) (A) (A) (A) (A) (A)
                 (A) (A) (A) (A) (A) (A) (A) (A) (A) (A) (A) (A)
                 (A) (A) (A) (A) (A) (A) (A) (A) (A) (A) (A) (A)
                 (A) (A) (A) (A) (A) (A) (A) (A) (A) (A) (A) (A)
                 (A) (A) (A) (A) (A) (A) (A) (A) (A) (A) (A) (A)
                 (A) (A) (A) (A) (A) (A) (A) (A) (A) (A) (A) (A)
                 (A) (A) (A) (A) (A) (A) (A) (A) (A) (A) (A) (A)
                 (A) (A) (A) (A) (A) (A) (A) (A) (A) (A) (A) (A)
                 (A) (A) (A) (A) (A) (A) (A) (A) (A) (A) (A) (A)
                 (A) (A) (A) (A) (A) (A) (A) (A) (A) (A) (A) (A)
                 (A) (A) (A) (A) (A) (A) (A) (A) (A) (A) (A) (A)
                 (A) (A) (A) (A) (A) (A) (A) (A) (A) (A) (A) (A)
                 (A) (A) (A) (A) (A) (A) (A) (A) (A) (A) (A) (A)
                 (A) (A) (A) (A) (A) (A) (A) (A) (A) (A) (A) (A)
                 (A) (A) (A) (A) (A) (A) (A) (A) (A) (A) (A) (A)
                 (A) (A) (A) (A) (A) (A) (A) (A) (A) (A) (A) (A)
                 (A) (A) (A) (A) (A) (A) (A) (A) (A) (A) (A) (A)
                 (A) (A) (A) (A) (A) (A) (A) (A) (A) (A) (A) (A)
                 (A) (A) (A) (A) (A) (A) (A) (A) (A) (A) (A) (A)
                 (A) (A) (A) (A) (A) (A) (A) (A) (A) (A) (A) (A)
                 (A) (A) (A) (A) (A) (A) (A) (A) (A) (A) (A) (A)
                 (A) (A) (A) (A) (A) (A) (A) (A) (A) (A) (A) (A)
                 (A) (A) (A) (A) (A) (A) (A) (A) (A) (A) (A) (A)
                 (A) (A) (A) (A) (A) (A) (A) (A) (A) (A) (A) (A)
                 (A) (A) (A) (A) (A) (A) (A) (A) (A) (A) (A) (A)
                 (A) (A) (A) (A) (A) (A) (A) (A) (A) (A) (A) (A)
                 (A) (A) (A) (A) (A) (A) (A) (A) (A) (A) (A) (A)
                 (A) (A) (A) (A) (A) (A) (A) (A) (A) (A) (A) (A)
                 (A) (A) (A) (A) (A) (A) (A) (A) (A) (A) (A) (A)
                 (A) (A) (A) (A) (A) (A) (A) (A) (A) (A) (A) (A)
                 (A) (A) (A) (A) (A) (A) (A) (A) (A) (A) (A) (A)
                 (A) (A) (A) (A) (A) (A) (A) (A) (A) (A) (A) (A)
                 (A) (A) (A) (A) (A) (A) (A) (A) (A) (A) (A) (A)
                 (A) (A) (A) (A) (A) (A) (A) (A) (A) (A) (A) (A)
                 (A) (A) (A) (A) (A) (A) (A) (A) (A) (A) (A) (A)
                 (A) (A) (A) (A) (A) (A) (A) (A) (A) (A) (A) (A)
                 (A) (A) (A) (A) (A) (A) (A) (A) (A) (A) (A) (A)
                 (A) (A) (A) (A) (A) (A) (A) (A) (A) (A) (A) (A)
                 (A) (A) (A) (A) (A) (A) (A) (A) (A) (A) (A) (A)
                 (A) (A) (A) (A) (A) (A) (A) (A) (A) (A) (A) (A)
                 (A) (A) (A) (A) (A) (A) (A) (A) (A) (A) (A) (A)
                 (A) (A) (A) (A) (A) (A) (A) (A) (A) (A) (A) (A)
                 (A) (A) (A) (A) (A) (A) (A) (A) (A) (A) (A) (A)
                 (A) (A) (A) (A) (A) (A) (A) (A) (A) (A) (A) (A)
                 (A) (A) (A) (A) (A) (A) (A) (A) (A) (A) (A) (A)
                 (A) (A) (A) (A) (A) (A) (A) (A) (A) (A) (A) (A)
                 (A) (A) (A) (A) (A) (A) (A) (A) (A) (A) (A) (A)
                 (A) (A) (A) (A) (A) (A) (A) (A) (A) (A) (A) (A)
                 (A) (A) (A) (A) (A) (A) (A) (A) (A) (A) (A) (A)
                 (A) (A) (A) (A) (A) (A) (A) (A) (A) (A) (A) (A)
                 (A) (A) (A) (A) (A) (A) (A) (A) (A) (A) (A) (A)
                 (A) (A) (A) (A) (A) (A) (A) (A) (A) (A) (A) (A)
                 (A) (A) (A) (A) (A) (A) (A) (A) (A) (A) (A) (A)
                 (A) (A) (A) (A) (A) (A) (A) (A) (A) (A) (A) (A)
                 (A) (A) (A) (A) (A) (A) (A) (A) (A) (A) (A) (A)
                 (A) (A) (A) (A) (A) (A) (A) (A) (A) (A) (A) (A)
                 (A) (A) (A) (A) (A) (A) (A) (A) (A) (A) (A) (A)
                 (A) (A) (A) (A) (A) (A) (A) (A) (A) (A) (A) (A)
                 (A) (A) (A) (A) (A) (A) (A) (A) (A) (A) (A) (A)
                 (A) (A) (A) (A) (A) (A) (A) (A) (A) (A) (A) (A)
                 (A) (A) (A) (A) (A) (A) (A) (A) (A) (A) (A) (A)
                 (A) (A) (A) (A) (A) (A) (A) (A) (A) (A) (A) (A)
                 (A) (A) (A) (A) (A) (A) (A) (A) (A) (A) (A) (A)
                 (A) (A) (A) (A) (A) (A) (A) (A) (A) (A) (A) (A)
                 (A) (A) (A) (A) (A) (A) (A) (A) (A) (A) (A) (A)
                 (A) (A) (A) (A) (A) (A) (A) (A) (A) (A) (A) (A)
                 (A) (A) (A) (A) (A) (A) (A) (A) (A) (A) (A) (A)
                 (A) (A) (A) (A) (A) (A) (A) (A) (A) (A) (A) (A)
                 (A) (A) (A) (A) (A) (A) (A) (A) (A) (A) (A) (A)
                 (A) (A) (A) (A) (A) (A) (A) (A) (A) (A) (A) (A)
                 (A) (A) (A) (A) (A) (A) (A) (A) (A) (A) (A) (A)
                 (A) (A) (A) (A) (A) (A) (A) (A) (A) (A) (A) (A)
                 (A) (A) (A) (A) (A) (A) (A) (A) (A) (A) (A) (A)
                 (A) (A) (A) (A) (A) (A) (A) (A) (A) (A) (A) (A)
                 (A) (A) (A) (A) (A) (A) (A) (A) (A) (A) (A) (A)
                 (A) (A) (A) (A) (A) (A) (A) (A) (A) (A) (A) (A)
                 (A) (A) (A) (A) (A) (A) (A) (A) (A) (A) (A) (A)
                 (A) (A) (A) (A) (A) (A) (A) (A) (A) (A) (A) (A)
                 (A) (A) (A) (A) (A) (A) (A) (A) (A) (A) (A) (A)
                 (A) (A) (A) (A) (A) (A) (A) (A) (A) (A) (A) (A)
                 (A) (A) (A) (A) (A) (A) (A) (A) (A) (A) (A) (A)
                 (A) (A) (A) (A) (A) (A) (A) (A) (A) (A) (A) (A)
                 (A) (A) (A) (A) (A) (A) (A) (A) (A) (A) (A) (A)
                 (A) (A) (A) (A) (A) (A) (A) (A) (A) (A) (A) (A)
                 (A) (A) (A) (A) (A) (A) (A) (A) (A) (A) (A) (A)
                 (A) (A) (A) (A) (A) (A) (A) (A) (A) (A) (A) (A)
                 (A) (A) (A) (A) (A) (A) (A) (A) (A) (A) (A) (A)
                 (A) (A) (A) (A) (A) (A) (A) (A) (A) (A) (A) (A)
                 (A) (A) (A) (A) (A) (A) (A) (A) (A) (A) (A) (A)
                 (A) (A) (A) (A) (A) (A) (A) (A) (A) (A) (A) (A)
                 (A) (A) (A) (A) (A) (A) (A) (A) (A) (A) (A) (A)
                 (A) (A) (A) (A) (A) (A) (A) (A) (A) (A) (A) (A)
                 (A) (A) (A) (A) (A) (A) (A) (A) (A) (A) (A) (A)
                 (A) (A) (A) (A) (A) (A) (A) (A) (A) (A) (A) (A)
                 (A) (A) (A) (A) (A) (A) (A) (A) (A) (A) (A) (A)
                 (A) (A) (A) (A) (A) (A) (A) (A) (A) (A) (A) (A)
                 (A) (A) (A) (A) (A) (A) (A) (A) (A) (A) (A) (A)
                 (A) (A) (A) (A) (A) (A) (A) (A) (A) (A) (A) (A)
                 (A) (A) (A) (A) (A) (A) (A) (A) (A) (A) (A) (A)
                 (A) (A) (A) (A) (A) (A) (A) (A) (A) (A) (A) (A)
                 (A) (A) (A) (A) (A) (A) (A) (A) (A) (A) (A) (A)
                 (A) (A) (A) (A) (A) (A) (A) (A) (A) (A) (A) (A)
                 (A) (A) (A) (A) (A) (A) (A) (A) (A) (A) (A) (A)
                 (A) (A) (A) (A) (A) (A) (A) (A)
 The electronic state is 5-A.
 Alpha  occ. eigenvalues -- -256.18442 -30.07688 -25.92222 -25.90259 -25.90021
 Alpha  occ. eigenvalues --  -19.16713 -14.41636 -14.34947 -14.32384 -14.32117
 Alpha  occ. eigenvalues --  -14.32105 -14.32001 -10.25388 -10.23505 -10.21036
 Alpha  occ. eigenvalues --  -10.20957 -10.20935 -10.20905 -10.20874 -10.20631
 Alpha  occ. eigenvalues --  -10.20551 -10.20408 -10.20321 -10.20305 -10.19491
 Alpha  occ. eigenvalues --  -10.19390 -10.18804 -10.18728 -10.18639 -10.18606
 Alpha  occ. eigenvalues --  -10.18570 -10.18569 -10.18536 -10.18517 -10.18467
 Alpha  occ. eigenvalues --  -10.18334 -10.18325 -10.18219 -10.18190 -10.18170
 Alpha  occ. eigenvalues --  -10.18157 -10.18114 -10.18095 -10.18082 -10.18071
 Alpha  occ. eigenvalues --  -10.17932  -3.53413  -2.33150  -2.28863  -2.28562
 Alpha  occ. eigenvalues --   -1.05130  -1.04858  -0.96803  -0.95901  -0.95743
 Alpha  occ. eigenvalues --   -0.94849  -0.90729  -0.82083  -0.81731  -0.81406
 Alpha  occ. eigenvalues --   -0.80643  -0.80313  -0.80088  -0.79426  -0.79330
 Alpha  occ. eigenvalues --   -0.76575  -0.75546  -0.74156  -0.73749  -0.73063
 Alpha  occ. eigenvalues --   -0.71671  -0.70842  -0.69976  -0.68197  -0.67887
 Alpha  occ. eigenvalues --   -0.67669  -0.64527  -0.63993  -0.63850  -0.61184
 Alpha  occ. eigenvalues --   -0.60592  -0.60321  -0.59880  -0.57682  -0.56540
 Alpha  occ. eigenvalues --   -0.55857  -0.54324  -0.53529  -0.53229  -0.52667
 Alpha  occ. eigenvalues --   -0.50987  -0.50923  -0.50429  -0.48930  -0.47864
 Alpha  occ. eigenvalues --   -0.47703  -0.47520  -0.47338  -0.45159  -0.44694
 Alpha  occ. eigenvalues --   -0.44589  -0.44441  -0.43977  -0.43646  -0.43469
 Alpha  occ. eigenvalues --   -0.43398  -0.43326  -0.42872  -0.42721  -0.42556
 Alpha  occ. eigenvalues --   -0.42373  -0.42206  -0.42049  -0.41603  -0.41422
 Alpha  occ. eigenvalues --   -0.41333  -0.41281  -0.40602  -0.40362  -0.40054
 Alpha  occ. eigenvalues --   -0.39576  -0.39402  -0.39351  -0.39109  -0.38666
 Alpha  occ. eigenvalues --   -0.38499  -0.38306  -0.38053  -0.37586  -0.37067
 Alpha  occ. eigenvalues --   -0.36882  -0.36800  -0.36297  -0.36112  -0.35557
 Alpha  occ. eigenvalues --   -0.34598  -0.34358  -0.34246  -0.33574  -0.33125
 Alpha  occ. eigenvalues --   -0.32993  -0.31553  -0.30833  -0.30573  -0.30385
 Alpha  occ. eigenvalues --   -0.29661  -0.29435  -0.28780  -0.27829  -0.26305
 Alpha  occ. eigenvalues --   -0.26152  -0.23846  -0.22995  -0.22204  -0.21467
 Alpha  occ. eigenvalues --   -0.21247  -0.20101  -0.18001  -0.17564  -0.16058
 Alpha virt. eigenvalues --   -0.06620  -0.06389  -0.01719   0.00629   0.01521
 Alpha virt. eigenvalues --    0.02315   0.02462   0.03325   0.04417   0.04954
 Alpha virt. eigenvalues --    0.05402   0.05788   0.05946   0.06028   0.06568
 Alpha virt. eigenvalues --    0.07172   0.08046   0.08080   0.08432   0.08948
 Alpha virt. eigenvalues --    0.09100   0.09695   0.09863   0.09968   0.10407
 Alpha virt. eigenvalues --    0.10594   0.10853   0.11408   0.11679   0.11699
 Alpha virt. eigenvalues --    0.11910   0.12459   0.12464   0.12639   0.12853
 Alpha virt. eigenvalues --    0.13216   0.13441   0.13506   0.13941   0.14260
 Alpha virt. eigenvalues --    0.14549   0.14675   0.14793   0.14989   0.15091
 Alpha virt. eigenvalues --    0.15298   0.15448   0.15743   0.15963   0.16144
 Alpha virt. eigenvalues --    0.16203   0.16374   0.16681   0.16958   0.17300
 Alpha virt. eigenvalues --    0.17443   0.17893   0.18015   0.18175   0.18861
 Alpha virt. eigenvalues --    0.19352   0.19617   0.19775   0.19948   0.20153
 Alpha virt. eigenvalues --    0.20328   0.20667   0.20907   0.21211   0.21452
 Alpha virt. eigenvalues --    0.21673   0.22139   0.22431   0.22654   0.22732
 Alpha virt. eigenvalues --    0.23374   0.23377   0.23629   0.24388   0.24600
 Alpha virt. eigenvalues --    0.24800   0.25078   0.25565   0.25693   0.26073
 Alpha virt. eigenvalues --    0.26266   0.26304   0.26854   0.27115   0.27240
 Alpha virt. eigenvalues --    0.27558   0.27648   0.27802   0.28121   0.28787
 Alpha virt. eigenvalues --    0.28968   0.29199   0.29453   0.29529   0.29948
 Alpha virt. eigenvalues --    0.30091   0.30279   0.30770   0.30949   0.31202
 Alpha virt. eigenvalues --    0.31411   0.32008   0.32188   0.32254   0.32712
 Alpha virt. eigenvalues --    0.33025   0.33217   0.33508   0.33686   0.34036
 Alpha virt. eigenvalues --    0.34130   0.34522   0.34583   0.35040   0.35198
 Alpha virt. eigenvalues --    0.35840   0.36017   0.36213   0.36276   0.36653
 Alpha virt. eigenvalues --    0.37028   0.37282   0.37631   0.37748   0.38128
 Alpha virt. eigenvalues --    0.38222   0.38540   0.38757   0.39171   0.39360
 Alpha virt. eigenvalues --    0.39423   0.39808   0.40046   0.40338   0.40768
 Alpha virt. eigenvalues --    0.40847   0.40870   0.41171   0.41443   0.41516
 Alpha virt. eigenvalues --    0.41731   0.41952   0.42318   0.42435   0.42547
 Alpha virt. eigenvalues --    0.42822   0.42903   0.43179   0.43441   0.43577
 Alpha virt. eigenvalues --    0.43781   0.44121   0.44338   0.44743   0.44860
 Alpha virt. eigenvalues --    0.45108   0.45134   0.45295   0.45627   0.45972
 Alpha virt. eigenvalues --    0.46165   0.46605   0.46746   0.47036   0.47199
 Alpha virt. eigenvalues --    0.47407   0.47566   0.47658   0.47993   0.48086
 Alpha virt. eigenvalues --    0.48295   0.48533   0.48759   0.49124   0.49289
 Alpha virt. eigenvalues --    0.49413   0.49617   0.49757   0.49822   0.50129
 Alpha virt. eigenvalues --    0.50488   0.50771   0.51296   0.51386   0.51427
 Alpha virt. eigenvalues --    0.51615   0.51850   0.52114   0.52553   0.52712
 Alpha virt. eigenvalues --    0.52782   0.52894   0.53189   0.53455   0.53700
 Alpha virt. eigenvalues --    0.54162   0.54543   0.54649   0.54714   0.55030
 Alpha virt. eigenvalues --    0.55214   0.55602   0.55657   0.56039   0.56314
 Alpha virt. eigenvalues --    0.56554   0.56796   0.57208   0.57490   0.57538
 Alpha virt. eigenvalues --    0.57929   0.58370   0.58616   0.58801   0.59317
 Alpha virt. eigenvalues --    0.59391   0.59890   0.60073   0.60646   0.60791
 Alpha virt. eigenvalues --    0.60980   0.61272   0.61530   0.61910   0.62210
 Alpha virt. eigenvalues --    0.62669   0.62915   0.63237   0.63456   0.63814
 Alpha virt. eigenvalues --    0.64148   0.64214   0.64635   0.64982   0.65364
 Alpha virt. eigenvalues --    0.65508   0.65951   0.66098   0.66465   0.66766
 Alpha virt. eigenvalues --    0.66874   0.67070   0.67465   0.67707   0.68338
 Alpha virt. eigenvalues --    0.68592   0.68949   0.69600   0.69884   0.70163
 Alpha virt. eigenvalues --    0.70250   0.70687   0.71007   0.71576   0.71943
 Alpha virt. eigenvalues --    0.72222   0.72459   0.72530   0.72991   0.73218
 Alpha virt. eigenvalues --    0.73560   0.73827   0.74091   0.74409   0.74868
 Alpha virt. eigenvalues --    0.74985   0.75523   0.75757   0.76199   0.76546
 Alpha virt. eigenvalues --    0.76980   0.77315   0.77689   0.78078   0.78502
 Alpha virt. eigenvalues --    0.78658   0.78957   0.79227   0.79675   0.79946
 Alpha virt. eigenvalues --    0.80055   0.80343   0.80792   0.80910   0.81537
 Alpha virt. eigenvalues --    0.81809   0.82363   0.82580   0.83208   0.83450
 Alpha virt. eigenvalues --    0.83750   0.84323   0.84608   0.84930   0.85138
 Alpha virt. eigenvalues --    0.85973   0.86231   0.86491   0.86866   0.87448
 Alpha virt. eigenvalues --    0.88071   0.88486   0.88821   0.88887   0.89126
 Alpha virt. eigenvalues --    0.89678   0.90232   0.90432   0.90816   0.91253
 Alpha virt. eigenvalues --    0.91782   0.91881   0.92120   0.92526   0.92838
 Alpha virt. eigenvalues --    0.93248   0.93786   0.94181   0.94684   0.94903
 Alpha virt. eigenvalues --    0.95278   0.95915   0.96253   0.96367   0.96864
 Alpha virt. eigenvalues --    0.96996   0.97350   0.97979   0.98110   0.98739
 Alpha virt. eigenvalues --    0.99106   0.99360   0.99508   1.00186   1.00499
 Alpha virt. eigenvalues --    1.01041   1.01256   1.01582   1.01837   1.02195
 Alpha virt. eigenvalues --    1.02471   1.02590   1.02920   1.03095   1.03141
 Alpha virt. eigenvalues --    1.03563   1.03668   1.04142   1.04278   1.04546
 Alpha virt. eigenvalues --    1.04929   1.05227   1.05624   1.05853   1.06619
 Alpha virt. eigenvalues --    1.06960   1.07282   1.07984   1.08081   1.08122
 Alpha virt. eigenvalues --    1.08382   1.09315   1.10216   1.10521   1.10691
 Alpha virt. eigenvalues --    1.11073   1.11468   1.11838   1.12181   1.12906
 Alpha virt. eigenvalues --    1.12978   1.13247   1.13538   1.14074   1.14537
 Alpha virt. eigenvalues --    1.15858   1.16050   1.16651   1.16883   1.17431
 Alpha virt. eigenvalues --    1.17882   1.18323   1.18624   1.19099   1.19330
 Alpha virt. eigenvalues --    1.19753   1.20035   1.20279   1.20541   1.20822
 Alpha virt. eigenvalues --    1.21219   1.21393   1.21981   1.22461   1.22974
 Alpha virt. eigenvalues --    1.23551   1.23892   1.24324   1.24945   1.25519
 Alpha virt. eigenvalues --    1.25837   1.26713   1.26936   1.27256   1.27421
 Alpha virt. eigenvalues --    1.27723   1.28315   1.28398   1.29344   1.29624
 Alpha virt. eigenvalues --    1.29722   1.30077   1.30224   1.30680   1.31070
 Alpha virt. eigenvalues --    1.31610   1.31698   1.32153   1.32408   1.32927
 Alpha virt. eigenvalues --    1.33340   1.33953   1.34547   1.35436   1.36011
 Alpha virt. eigenvalues --    1.36336   1.36953   1.37574   1.37821   1.38528
 Alpha virt. eigenvalues --    1.39189   1.39839   1.39939   1.40315   1.40910
 Alpha virt. eigenvalues --    1.41815   1.42115   1.42767   1.43457   1.43731
 Alpha virt. eigenvalues --    1.44555   1.44747   1.45379   1.46240   1.46276
 Alpha virt. eigenvalues --    1.47160   1.47590   1.47759   1.47984   1.48553
 Alpha virt. eigenvalues --    1.48774   1.49052   1.49219   1.49476   1.50111
 Alpha virt. eigenvalues --    1.50350   1.50413   1.50968   1.51260   1.51434
 Alpha virt. eigenvalues --    1.51706   1.51847   1.52127   1.52451   1.52870
 Alpha virt. eigenvalues --    1.52969   1.53225   1.53432   1.53714   1.54176
 Alpha virt. eigenvalues --    1.54355   1.54632   1.54769   1.55016   1.55250
 Alpha virt. eigenvalues --    1.55414   1.55657   1.55829   1.56035   1.56208
 Alpha virt. eigenvalues --    1.56920   1.57201   1.57531   1.57555   1.57872
 Alpha virt. eigenvalues --    1.58123   1.58231   1.58682   1.58802   1.59131
 Alpha virt. eigenvalues --    1.59335   1.59667   1.59922   1.60349   1.60938
 Alpha virt. eigenvalues --    1.61421   1.61710   1.62009   1.62186   1.62399
 Alpha virt. eigenvalues --    1.62989   1.63329   1.63384   1.63936   1.64089
 Alpha virt. eigenvalues --    1.64396   1.64783   1.65020   1.65377   1.65537
 Alpha virt. eigenvalues --    1.65972   1.66367   1.66493   1.66934   1.67090
 Alpha virt. eigenvalues --    1.67589   1.68127   1.68197   1.68507   1.68857
 Alpha virt. eigenvalues --    1.69736   1.69909   1.70284   1.70724   1.70808
 Alpha virt. eigenvalues --    1.71146   1.71401   1.71701   1.72024   1.72783
 Alpha virt. eigenvalues --    1.72919   1.73283   1.73772   1.74137   1.74785
 Alpha virt. eigenvalues --    1.75302   1.76036   1.76679   1.77182   1.77819
 Alpha virt. eigenvalues --    1.78057   1.79284   1.79593   1.80152   1.80753
 Alpha virt. eigenvalues --    1.81381   1.82095   1.82477   1.82759   1.83069
 Alpha virt. eigenvalues --    1.83743   1.83880   1.84209   1.84969   1.85616
 Alpha virt. eigenvalues --    1.85947   1.86242   1.86314   1.86817   1.87119
 Alpha virt. eigenvalues --    1.87457   1.87852   1.88135   1.88607   1.88722
 Alpha virt. eigenvalues --    1.89304   1.89556   1.89726   1.89987   1.91742
 Alpha virt. eigenvalues --    1.92257   1.92331   1.93093   1.93613   1.94441
 Alpha virt. eigenvalues --    1.94680   1.95003   1.95638   1.95862   1.96207
 Alpha virt. eigenvalues --    1.96862   1.97451   1.97941   1.98203   1.98769
 Alpha virt. eigenvalues --    1.99002   1.99142   1.99828   2.00137   2.00362
 Alpha virt. eigenvalues --    2.00672   2.01064   2.02051   2.02204   2.02908
 Alpha virt. eigenvalues --    2.03721   2.04131   2.04727   2.04944   2.05337
 Alpha virt. eigenvalues --    2.05865   2.06697   2.06886   2.07154   2.07841
 Alpha virt. eigenvalues --    2.08502   2.09066   2.09514   2.09729   2.09978
 Alpha virt. eigenvalues --    2.10556   2.11172   2.11247   2.12000   2.12465
 Alpha virt. eigenvalues --    2.12950   2.13287   2.13570   2.13791   2.14382
 Alpha virt. eigenvalues --    2.15098   2.15394   2.15551   2.16039   2.16427
 Alpha virt. eigenvalues --    2.16722   2.18041   2.18450   2.18592   2.19021
 Alpha virt. eigenvalues --    2.19939   2.20026   2.20426   2.20768   2.20796
 Alpha virt. eigenvalues --    2.21501   2.21619   2.22783   2.23000   2.23897
 Alpha virt. eigenvalues --    2.24245   2.24661   2.25384   2.25829   2.26303
 Alpha virt. eigenvalues --    2.26580   2.26973   2.27579   2.28091   2.28357
 Alpha virt. eigenvalues --    2.28599   2.28975   2.29463   2.29710   2.30486
 Alpha virt. eigenvalues --    2.31061   2.31582   2.31843   2.32350   2.33103
 Alpha virt. eigenvalues --    2.33188   2.33931   2.34158   2.34660   2.35128
 Alpha virt. eigenvalues --    2.35579   2.35818   2.35949   2.36733   2.37071
 Alpha virt. eigenvalues --    2.37490   2.37614   2.38137   2.38480   2.38700
 Alpha virt. eigenvalues --    2.39023   2.40003   2.40172   2.40568   2.40841
 Alpha virt. eigenvalues --    2.41443   2.42218   2.42689   2.43004   2.43369
 Alpha virt. eigenvalues --    2.44031   2.44337   2.44847   2.45285   2.45517
 Alpha virt. eigenvalues --    2.45654   2.45857   2.46656   2.47077   2.47609
 Alpha virt. eigenvalues --    2.48130   2.48567   2.48823   2.49803   2.49867
 Alpha virt. eigenvalues --    2.50326   2.50790   2.51076   2.51864   2.52617
 Alpha virt. eigenvalues --    2.53080   2.53177   2.53327   2.53576   2.54088
 Alpha virt. eigenvalues --    2.54403   2.54751   2.55767   2.55773   2.56254
 Alpha virt. eigenvalues --    2.56631   2.56948   2.56976   2.57208   2.57801
 Alpha virt. eigenvalues --    2.57980   2.58654   2.58796   2.59787   2.60006
 Alpha virt. eigenvalues --    2.60141   2.60371   2.60926   2.61465   2.61523
 Alpha virt. eigenvalues --    2.61740   2.62187   2.62733   2.63380   2.63718
 Alpha virt. eigenvalues --    2.64267   2.65031   2.65440   2.65796   2.66118
 Alpha virt. eigenvalues --    2.66372   2.66676   2.67115   2.67623   2.67788
 Alpha virt. eigenvalues --    2.68366   2.68830   2.69126   2.69514   2.70095
 Alpha virt. eigenvalues --    2.70299   2.70599   2.71013   2.71246   2.71591
 Alpha virt. eigenvalues --    2.72194   2.72462   2.72976   2.73455   2.74295
 Alpha virt. eigenvalues --    2.74774   2.75321   2.75525   2.75746   2.76350
 Alpha virt. eigenvalues --    2.76549   2.76901   2.77359   2.77950   2.78483
 Alpha virt. eigenvalues --    2.78736   2.79018   2.79552   2.79974   2.80247
 Alpha virt. eigenvalues --    2.81007   2.81433   2.82034   2.82230   2.82388
 Alpha virt. eigenvalues --    2.82906   2.83223   2.83980   2.83996   2.84233
 Alpha virt. eigenvalues --    2.85205   2.85828   2.85895   2.86469   2.86694
 Alpha virt. eigenvalues --    2.87099   2.87456   2.87797   2.88108   2.88510
 Alpha virt. eigenvalues --    2.89595   2.89758   2.90222   2.90316   2.90598
 Alpha virt. eigenvalues --    2.90942   2.91016   2.91755   2.91835   2.92167
 Alpha virt. eigenvalues --    2.92777   2.93551   2.94048   2.94391   2.94601
 Alpha virt. eigenvalues --    2.95009   2.95350   2.95574   2.95751   2.96016
 Alpha virt. eigenvalues --    2.96492   2.96982   2.97044   2.97658   2.97944
 Alpha virt. eigenvalues --    2.98345   2.98462   2.98960   2.99249   2.99699
 Alpha virt. eigenvalues --    2.99833   3.00226   3.00543   3.01216   3.01265
 Alpha virt. eigenvalues --    3.01894   3.02157   3.02250   3.03124   3.03732
 Alpha virt. eigenvalues --    3.04089   3.04585   3.05166   3.05583   3.05992
 Alpha virt. eigenvalues --    3.06414   3.06516   3.06860   3.07298   3.07768
 Alpha virt. eigenvalues --    3.07866   3.08442   3.08566   3.08624   3.09068
 Alpha virt. eigenvalues --    3.09172   3.09498   3.10169   3.10586   3.10982
 Alpha virt. eigenvalues --    3.11139   3.11746   3.11964   3.12464   3.12523
 Alpha virt. eigenvalues --    3.12679   3.13181   3.13352   3.13987   3.14427
 Alpha virt. eigenvalues --    3.14516   3.14724   3.15326   3.15939   3.15969
 Alpha virt. eigenvalues --    3.16090   3.16831   3.16885   3.17068   3.17823
 Alpha virt. eigenvalues --    3.18003   3.18558   3.18796   3.19389   3.19528
 Alpha virt. eigenvalues --    3.19744   3.20050   3.20314   3.21154   3.21266
 Alpha virt. eigenvalues --    3.21521   3.21942   3.22574   3.22853   3.23042
 Alpha virt. eigenvalues --    3.23301   3.23377   3.23908   3.24296   3.24591
 Alpha virt. eigenvalues --    3.24799   3.25328   3.25474   3.25572   3.26125
 Alpha virt. eigenvalues --    3.26167   3.26354   3.26944   3.27114   3.27131
 Alpha virt. eigenvalues --    3.27532   3.27888   3.28015   3.28399   3.28626
 Alpha virt. eigenvalues --    3.28910   3.29499   3.29587   3.30115   3.30319
 Alpha virt. eigenvalues --    3.30331   3.30615   3.30824   3.30913   3.31122
 Alpha virt. eigenvalues --    3.31555   3.31738   3.32416   3.32700   3.32860
 Alpha virt. eigenvalues --    3.33119   3.33454   3.33732   3.34042   3.34402
 Alpha virt. eigenvalues --    3.34625   3.35043   3.35139   3.35698   3.35790
 Alpha virt. eigenvalues --    3.36182   3.36299   3.36577   3.36645   3.37198
 Alpha virt. eigenvalues --    3.37646   3.37892   3.38375   3.38679   3.38720
 Alpha virt. eigenvalues --    3.39033   3.39321   3.39541   3.39715   3.39844
 Alpha virt. eigenvalues --    3.40446   3.40579   3.40929   3.41353   3.41769
 Alpha virt. eigenvalues --    3.42171   3.42281   3.42759   3.43282   3.43750
 Alpha virt. eigenvalues --    3.43912   3.44516   3.45208   3.45428   3.45918
 Alpha virt. eigenvalues --    3.46115   3.46369   3.47250   3.47373   3.47568
 Alpha virt. eigenvalues --    3.48301   3.48560   3.49368   3.49698   3.50633
 Alpha virt. eigenvalues --    3.50838   3.50976   3.51078   3.51767   3.52662
 Alpha virt. eigenvalues --    3.53284   3.53851   3.54386   3.54505   3.54909
 Alpha virt. eigenvalues --    3.55055   3.55591   3.56071   3.56326   3.56450
 Alpha virt. eigenvalues --    3.56916   3.57918   3.57987   3.58533   3.59430
 Alpha virt. eigenvalues --    3.59480   3.59997   3.60389   3.60655   3.61719
 Alpha virt. eigenvalues --    3.61917   3.62427   3.62740   3.63326   3.63772
 Alpha virt. eigenvalues --    3.64422   3.65359   3.65563   3.66062   3.66415
 Alpha virt. eigenvalues --    3.67159   3.67465   3.67812   3.68839   3.69025
 Alpha virt. eigenvalues --    3.69438   3.69843   3.69995   3.70801   3.71365
 Alpha virt. eigenvalues --    3.71580   3.71629   3.71733   3.72075   3.72584
 Alpha virt. eigenvalues --    3.73348   3.73686   3.74294   3.74467   3.74694
 Alpha virt. eigenvalues --    3.75148   3.75401   3.75808   3.76370   3.77008
 Alpha virt. eigenvalues --    3.77167   3.78094   3.78313   3.78641   3.79525
 Alpha virt. eigenvalues --    3.79809   3.80560   3.81198   3.81745   3.81892
 Alpha virt. eigenvalues --    3.82870   3.83316   3.83678   3.84578   3.85077
 Alpha virt. eigenvalues --    3.85505   3.86054   3.86669   3.87237   3.88036
 Alpha virt. eigenvalues --    3.88345   3.89016   3.90336   3.90695   3.91153
 Alpha virt. eigenvalues --    3.91190   3.91723   3.92000   3.92237   3.93134
 Alpha virt. eigenvalues --    3.93771   3.94363   3.94973   3.95531   3.97127
 Alpha virt. eigenvalues --    3.97337   3.97855   3.99012   3.99723   4.00201
 Alpha virt. eigenvalues --    4.00573   4.00853   4.01062   4.01216   4.01942
 Alpha virt. eigenvalues --    4.02815   4.03154   4.03673   4.04517   4.04822
 Alpha virt. eigenvalues --    4.05361   4.05821   4.06353   4.06733   4.08320
 Alpha virt. eigenvalues --    4.08680   4.09830   4.10317   4.10676   4.10983
 Alpha virt. eigenvalues --    4.11458   4.11952   4.12368   4.13575   4.13808
 Alpha virt. eigenvalues --    4.14401   4.15628   4.16318   4.16637   4.17259
 Alpha virt. eigenvalues --    4.17378   4.17551   4.18445   4.19011   4.19255
 Alpha virt. eigenvalues --    4.19688   4.20777   4.21452   4.21670   4.22078
 Alpha virt. eigenvalues --    4.23036   4.23837   4.24318   4.24863   4.25583
 Alpha virt. eigenvalues --    4.25850   4.26420   4.26536   4.27271   4.28062
 Alpha virt. eigenvalues --    4.28572   4.29034   4.29806   4.30389   4.31374
 Alpha virt. eigenvalues --    4.32014   4.32633   4.33386   4.33881   4.34512
 Alpha virt. eigenvalues --    4.34618   4.35099   4.35330   4.36033   4.36969
 Alpha virt. eigenvalues --    4.37368   4.38693   4.39440   4.40545   4.40869
 Alpha virt. eigenvalues --    4.41250   4.41506   4.41731   4.41897   4.43112
 Alpha virt. eigenvalues --    4.43197   4.43888   4.44391   4.44879   4.45355
 Alpha virt. eigenvalues --    4.45490   4.45795   4.46543   4.46840   4.47203
 Alpha virt. eigenvalues --    4.48243   4.48698   4.49518   4.50180   4.51192
 Alpha virt. eigenvalues --    4.52056   4.52455   4.54097   4.55030   4.55619
 Alpha virt. eigenvalues --    4.56287   4.56783   4.57658   4.58680   4.59264
 Alpha virt. eigenvalues --    4.59600   4.61941   4.63675   4.64437   4.65319
 Alpha virt. eigenvalues --    4.65835   4.66728   4.68641   4.69119   4.69408
 Alpha virt. eigenvalues --    4.69922   4.70273   4.71960   4.72329   4.72986
 Alpha virt. eigenvalues --    4.73367   4.74277   4.74546   4.75201   4.75977
 Alpha virt. eigenvalues --    4.76516   4.78085   4.79989   4.80806   4.81901
 Alpha virt. eigenvalues --    4.82307   4.82784   4.84058   4.84126   4.84563
 Alpha virt. eigenvalues --    4.84968   4.85946   4.86295   4.86516   4.87585
 Alpha virt. eigenvalues --    4.88088   4.89524   4.90240   4.90487   4.91713
 Alpha virt. eigenvalues --    4.92471   4.93515   4.94455   4.95114   4.96124
 Alpha virt. eigenvalues --    4.96304   4.97219   4.98385   4.98998   5.00600
 Alpha virt. eigenvalues --    5.01242   5.02241   5.02305   5.03140   5.04038
 Alpha virt. eigenvalues --    5.04681   5.05354   5.06716   5.06920   5.07754
 Alpha virt. eigenvalues --    5.08424   5.09762   5.10684   5.10728   5.11642
 Alpha virt. eigenvalues --    5.14062   5.15365   5.16828   5.18975   5.19891
 Alpha virt. eigenvalues --    5.20046   5.20781   5.21456   5.21589   5.22686
 Alpha virt. eigenvalues --    5.23466   5.24111   5.25821   5.26346   5.28335
 Alpha virt. eigenvalues --    5.29177   5.30365   5.31083   5.33465   5.36245
 Alpha virt. eigenvalues --    5.36756   5.37324   5.38905   5.39041   5.39584
 Alpha virt. eigenvalues --    5.40564   5.40998   5.41558   5.42094   5.42950
 Alpha virt. eigenvalues --    5.43841   5.45097   5.47123   5.49187   5.50280
 Alpha virt. eigenvalues --    5.50589   5.51059   5.52509   5.53118   5.53487
 Alpha virt. eigenvalues --    5.56553   5.57298   5.60872   5.61679   5.62163
 Alpha virt. eigenvalues --    5.63117   5.64054   5.64367   5.66058   5.66665
 Alpha virt. eigenvalues --    5.67809   5.68635   5.69844   5.71026   5.74413
 Alpha virt. eigenvalues --    5.77722   5.77987   5.78549   5.81962   5.82581
 Alpha virt. eigenvalues --    5.90468   5.92685   5.93689   5.95304   5.97661
 Alpha virt. eigenvalues --    6.01714   6.03469   6.03592   6.09196   6.11825
 Alpha virt. eigenvalues --    6.12972   6.14062   6.14723   6.18181   6.19528
 Alpha virt. eigenvalues --    6.24851   6.27694   6.34502   6.35933   6.41821
 Alpha virt. eigenvalues --    6.47384   6.52349   6.54374   6.66566   6.97777
 Alpha virt. eigenvalues --    7.28534  22.36375  22.37257  22.44256  22.46217
 Alpha virt. eigenvalues --   22.47128  22.53004  22.53348  22.63021  22.63252
 Alpha virt. eigenvalues --   22.78582  22.85485  22.87893  22.91791  22.94594
 Alpha virt. eigenvalues --   22.95481  22.96521  22.97654  23.04141  23.04749
 Alpha virt. eigenvalues --   23.08859  23.15485  23.27671  23.29057  23.31421
 Alpha virt. eigenvalues --   23.32210  23.42136  23.42923  23.51634  23.52274
 Alpha virt. eigenvalues --   23.56609  23.74962  23.80034  23.81074  23.90517
 Alpha virt. eigenvalues --   32.41199  32.77734  32.92056  32.98044  33.06396
 Alpha virt. eigenvalues --   33.14668  44.08049
  Beta  occ. eigenvalues -- -256.18311 -29.99305 -25.84391 -25.83659 -25.83450
  Beta  occ. eigenvalues --  -19.16588 -14.41624 -14.34739 -14.32178 -14.31925
  Beta  occ. eigenvalues --  -14.31904 -14.31812 -10.25379 -10.23498 -10.21006
  Beta  occ. eigenvalues --  -10.20934 -10.20929 -10.20882 -10.20853 -10.20691
  Beta  occ. eigenvalues --  -10.20553 -10.20457 -10.20376 -10.20355 -10.19498
  Beta  occ. eigenvalues --  -10.19378 -10.18767 -10.18766 -10.18634 -10.18602
  Beta  occ. eigenvalues --  -10.18566 -10.18540 -10.18510 -10.18507 -10.18431
  Beta  occ. eigenvalues --  -10.18363 -10.18356 -10.18222 -10.18214 -10.18199
  Beta  occ. eigenvalues --  -10.18171 -10.18113 -10.18092 -10.18082 -10.18055
  Beta  occ. eigenvalues --  -10.17950  -3.33389  -2.08979  -2.08913  -2.08583
  Beta  occ. eigenvalues --   -1.05027  -1.04673  -0.96614  -0.95702  -0.95575
  Beta  occ. eigenvalues --   -0.94652  -0.90536  -0.82102  -0.81679  -0.81365
  Beta  occ. eigenvalues --   -0.80571  -0.80241  -0.80063  -0.79445  -0.79320
  Beta  occ. eigenvalues --   -0.76567  -0.75527  -0.74144  -0.73758  -0.73063
  Beta  occ. eigenvalues --   -0.71625  -0.70801  -0.69920  -0.68105  -0.67782
  Beta  occ. eigenvalues --   -0.67655  -0.64354  -0.63968  -0.63879  -0.61128
  Beta  occ. eigenvalues --   -0.60523  -0.60248  -0.59827  -0.57667  -0.56361
  Beta  occ. eigenvalues --   -0.55772  -0.54283  -0.53470  -0.53166  -0.52446
  Beta  occ. eigenvalues --   -0.50876  -0.50833  -0.50339  -0.48556  -0.47737
  Beta  occ. eigenvalues --   -0.47599  -0.47327  -0.47148  -0.44878  -0.44643
  Beta  occ. eigenvalues --   -0.44391  -0.44339  -0.43908  -0.43550  -0.43343
  Beta  occ. eigenvalues --   -0.43198  -0.43049  -0.42860  -0.42639  -0.42372
  Beta  occ. eigenvalues --   -0.42279  -0.42190  -0.41561  -0.41555  -0.41354
  Beta  occ. eigenvalues --   -0.41292  -0.40982  -0.40019  -0.40017  -0.39762
  Beta  occ. eigenvalues --   -0.39342  -0.39265  -0.39064  -0.38810  -0.38414
  Beta  occ. eigenvalues --   -0.38165  -0.37655  -0.37374  -0.36961  -0.36776
  Beta  occ. eigenvalues --   -0.36103  -0.35691  -0.35564  -0.35110  -0.34276
  Beta  occ. eigenvalues --   -0.34034  -0.33623  -0.33390  -0.32798  -0.31985
  Beta  occ. eigenvalues --   -0.31497  -0.30390  -0.30218  -0.29252  -0.29084
  Beta  occ. eigenvalues --   -0.28533  -0.26698  -0.26440  -0.24012  -0.23410
  Beta  occ. eigenvalues --   -0.22463  -0.22374  -0.21686  -0.18302  -0.17863
  Beta  occ. eigenvalues --   -0.13769
  Beta virt. eigenvalues --   -0.07151  -0.05770  -0.01817  -0.00672   0.00267
  Beta virt. eigenvalues --    0.00987   0.02090   0.02332   0.02652   0.03321
  Beta virt. eigenvalues --    0.04381   0.05048   0.05599   0.05861   0.05949
  Beta virt. eigenvalues --    0.06259   0.06483   0.07161   0.07815   0.08077
  Beta virt. eigenvalues --    0.08378   0.08520   0.08865   0.09284   0.09706
  Beta virt. eigenvalues --    0.09849   0.09882   0.10115   0.10456   0.10689
  Beta virt. eigenvalues --    0.10915   0.11437   0.11685   0.11733   0.11919
  Beta virt. eigenvalues --    0.12464   0.12470   0.12656   0.12861   0.13232
  Beta virt. eigenvalues --    0.13448   0.13514   0.13965   0.14256   0.14569
  Beta virt. eigenvalues --    0.14786   0.14809   0.15009   0.15161   0.15323
  Beta virt. eigenvalues --    0.15468   0.15787   0.15988   0.16158   0.16240
  Beta virt. eigenvalues --    0.16412   0.16685   0.17022   0.17320   0.17525
  Beta virt. eigenvalues --    0.17900   0.18034   0.18200   0.18929   0.19434
  Beta virt. eigenvalues --    0.19652   0.19811   0.19995   0.20174   0.20354
  Beta virt. eigenvalues --    0.20707   0.20949   0.21247   0.21466   0.21693
  Beta virt. eigenvalues --    0.22154   0.22484   0.22712   0.22746   0.23400
  Beta virt. eigenvalues --    0.23425   0.23661   0.24434   0.24776   0.24854
  Beta virt. eigenvalues --    0.25340   0.25590   0.25835   0.26120   0.26348
  Beta virt. eigenvalues --    0.26483   0.27010   0.27217   0.27330   0.27644
  Beta virt. eigenvalues --    0.27738   0.27948   0.28268   0.28843   0.29107
  Beta virt. eigenvalues --    0.29258   0.29522   0.30043   0.30130   0.30220
  Beta virt. eigenvalues --    0.30611   0.30878   0.30992   0.31386   0.31634
  Beta virt. eigenvalues --    0.32084   0.32332   0.32410   0.32804   0.33126
  Beta virt. eigenvalues --    0.33378   0.33548   0.33718   0.34140   0.34243
  Beta virt. eigenvalues --    0.34609   0.34830   0.35090   0.35493   0.35926
  Beta virt. eigenvalues --    0.36157   0.36392   0.36706   0.37027   0.37169
  Beta virt. eigenvalues --    0.37391   0.37704   0.37788   0.38229   0.38349
  Beta virt. eigenvalues --    0.38573   0.38897   0.39256   0.39419   0.39453
  Beta virt. eigenvalues --    0.39926   0.40142   0.40520   0.40892   0.40933
  Beta virt. eigenvalues --    0.40968   0.41376   0.41495   0.41622   0.41743
  Beta virt. eigenvalues --    0.41955   0.42451   0.42518   0.42676   0.42875
  Beta virt. eigenvalues --    0.43033   0.43282   0.43542   0.43765   0.43977
  Beta virt. eigenvalues --    0.44276   0.44470   0.44868   0.44993   0.45213
  Beta virt. eigenvalues --    0.45321   0.45546   0.45819   0.46214   0.46282
  Beta virt. eigenvalues --    0.46659   0.46820   0.47149   0.47284   0.47465
  Beta virt. eigenvalues --    0.47630   0.47712   0.48051   0.48216   0.48355
  Beta virt. eigenvalues --    0.48589   0.48840   0.49191   0.49352   0.49450
  Beta virt. eigenvalues --    0.49658   0.49806   0.49864   0.50170   0.50511
  Beta virt. eigenvalues --    0.50831   0.51335   0.51428   0.51647   0.51708
  Beta virt. eigenvalues --    0.51932   0.52180   0.52592   0.52741   0.52823
  Beta virt. eigenvalues --    0.52957   0.53343   0.53551   0.53736   0.54303
  Beta virt. eigenvalues --    0.54609   0.54708   0.54828   0.55121   0.55350
  Beta virt. eigenvalues --    0.55716   0.55990   0.56178   0.56441   0.56718
  Beta virt. eigenvalues --    0.56894   0.57265   0.57541   0.57605   0.57996
  Beta virt. eigenvalues --    0.58445   0.58669   0.58869   0.59464   0.59514
  Beta virt. eigenvalues --    0.59981   0.60249   0.60691   0.60867   0.61042
  Beta virt. eigenvalues --    0.61357   0.61634   0.62055   0.62267   0.62769
  Beta virt. eigenvalues --    0.63009   0.63334   0.63528   0.63876   0.64236
  Beta virt. eigenvalues --    0.64306   0.64687   0.65168   0.65451   0.65571
  Beta virt. eigenvalues --    0.66116   0.66300   0.66521   0.66830   0.66908
  Beta virt. eigenvalues --    0.67182   0.67558   0.67837   0.68422   0.68797
  Beta virt. eigenvalues --    0.69027   0.69732   0.69933   0.70336   0.70502
  Beta virt. eigenvalues --    0.70789   0.71121   0.71685   0.72051   0.72476
  Beta virt. eigenvalues --    0.72527   0.72696   0.73028   0.73317   0.73797
  Beta virt. eigenvalues --    0.74022   0.74169   0.74565   0.74922   0.75177
  Beta virt. eigenvalues --    0.75667   0.75810   0.76291   0.76719   0.77016
  Beta virt. eigenvalues --    0.77444   0.77748   0.78128   0.78580   0.78681
  Beta virt. eigenvalues --    0.79057   0.79302   0.79717   0.80024   0.80127
  Beta virt. eigenvalues --    0.80605   0.80877   0.80964   0.81611   0.81914
  Beta virt. eigenvalues --    0.82391   0.82644   0.83285   0.83600   0.83867
  Beta virt. eigenvalues --    0.84369   0.84674   0.84946   0.85173   0.86041
  Beta virt. eigenvalues --    0.86347   0.86550   0.86938   0.87543   0.88125
  Beta virt. eigenvalues --    0.88673   0.88904   0.89040   0.89247   0.89737
  Beta virt. eigenvalues --    0.90389   0.90535   0.90919   0.91275   0.91837
  Beta virt. eigenvalues --    0.91957   0.92213   0.92651   0.93050   0.93316
  Beta virt. eigenvalues --    0.93861   0.94315   0.94866   0.95001   0.95468
  Beta virt. eigenvalues --    0.96042   0.96319   0.96457   0.96991   0.97066
  Beta virt. eigenvalues --    0.97436   0.98064   0.98258   0.98780   0.99212
  Beta virt. eigenvalues --    0.99433   0.99647   1.00230   1.00534   1.01143
  Beta virt. eigenvalues --    1.01279   1.01785   1.01889   1.02285   1.02625
  Beta virt. eigenvalues --    1.02724   1.03051   1.03241   1.03334   1.03618
  Beta virt. eigenvalues --    1.03871   1.04318   1.04378   1.04646   1.04981
  Beta virt. eigenvalues --    1.05253   1.05771   1.05976   1.06765   1.07203
  Beta virt. eigenvalues --    1.07707   1.08110   1.08239   1.08283   1.08550
  Beta virt. eigenvalues --    1.09525   1.10513   1.10737   1.10828   1.11364
  Beta virt. eigenvalues --    1.11705   1.12076   1.12312   1.13020   1.13240
  Beta virt. eigenvalues --    1.13421   1.14014   1.14211   1.14934   1.15932
  Beta virt. eigenvalues --    1.16314   1.16835   1.16950   1.17545   1.18090
  Beta virt. eigenvalues --    1.18372   1.18783   1.19249   1.19422   1.19855
  Beta virt. eigenvalues --    1.20117   1.20410   1.20647   1.21091   1.21593
  Beta virt. eigenvalues --    1.21682   1.22255   1.22850   1.23063   1.23727
  Beta virt. eigenvalues --    1.24277   1.24611   1.25160   1.25812   1.26154
  Beta virt. eigenvalues --    1.26835   1.27096   1.27363   1.27560   1.27873
  Beta virt. eigenvalues --    1.28516   1.28558   1.29501   1.29709   1.29741
  Beta virt. eigenvalues --    1.30485   1.30704   1.30944   1.31456   1.31777
  Beta virt. eigenvalues --    1.31882   1.32243   1.32554   1.33166   1.33486
  Beta virt. eigenvalues --    1.34142   1.34849   1.35625   1.36369   1.36578
  Beta virt. eigenvalues --    1.37097   1.37724   1.38037   1.38675   1.39484
  Beta virt. eigenvalues --    1.39935   1.40152   1.40479   1.41097   1.41909
  Beta virt. eigenvalues --    1.42261   1.42876   1.43534   1.43798   1.44687
  Beta virt. eigenvalues --    1.44848   1.45671   1.46349   1.46540   1.47317
  Beta virt. eigenvalues --    1.47733   1.47872   1.48123   1.48664   1.48842
  Beta virt. eigenvalues --    1.49087   1.49404   1.49572   1.50134   1.50407
  Beta virt. eigenvalues --    1.50578   1.51132   1.51328   1.51518   1.51845
  Beta virt. eigenvalues --    1.51928   1.52213   1.52506   1.52999   1.53060
  Beta virt. eigenvalues --    1.53289   1.53691   1.53815   1.54285   1.54446
  Beta virt. eigenvalues --    1.54714   1.54908   1.55049   1.55396   1.55591
  Beta virt. eigenvalues --    1.55761   1.55926   1.56329   1.56618   1.56986
  Beta virt. eigenvalues --    1.57365   1.57611   1.57793   1.58019   1.58207
  Beta virt. eigenvalues --    1.58328   1.58790   1.58910   1.59156   1.59429
  Beta virt. eigenvalues --    1.59764   1.59971   1.60368   1.61103   1.61550
  Beta virt. eigenvalues --    1.61753   1.62098   1.62254   1.62509   1.63043
  Beta virt. eigenvalues --    1.63386   1.63457   1.63980   1.64162   1.64418
  Beta virt. eigenvalues --    1.64807   1.65081   1.65455   1.65570   1.66074
  Beta virt. eigenvalues --    1.66432   1.66557   1.66984   1.67119   1.67666
  Beta virt. eigenvalues --    1.68151   1.68245   1.68581   1.68910   1.69822
  Beta virt. eigenvalues --    1.69969   1.70399   1.70783   1.70863   1.71203
  Beta virt. eigenvalues --    1.71568   1.71774   1.72118   1.72868   1.72979
  Beta virt. eigenvalues --    1.73328   1.73813   1.74223   1.74856   1.75488
  Beta virt. eigenvalues --    1.76326   1.76818   1.77274   1.77867   1.78091
  Beta virt. eigenvalues --    1.79376   1.79676   1.80198   1.80873   1.81435
  Beta virt. eigenvalues --    1.82179   1.82558   1.82819   1.83145   1.83757
  Beta virt. eigenvalues --    1.83981   1.84317   1.85033   1.85654   1.86031
  Beta virt. eigenvalues --    1.86311   1.86346   1.86863   1.87135   1.87548
  Beta virt. eigenvalues --    1.87917   1.88160   1.88734   1.88808   1.89439
  Beta virt. eigenvalues --    1.89619   1.89845   1.90080   1.91783   1.92313
  Beta virt. eigenvalues --    1.92452   1.93281   1.93682   1.94738   1.94871
  Beta virt. eigenvalues --    1.95297   1.95684   1.95969   1.96238   1.96960
  Beta virt. eigenvalues --    1.97510   1.98023   1.98544   1.98878   1.99035
  Beta virt. eigenvalues --    1.99431   1.99971   2.00211   2.00432   2.00776
  Beta virt. eigenvalues --    2.01163   2.02108   2.02242   2.02972   2.04011
  Beta virt. eigenvalues --    2.04264   2.04847   2.05126   2.05468   2.06381
  Beta virt. eigenvalues --    2.06856   2.06944   2.07251   2.08101   2.08614
  Beta virt. eigenvalues --    2.09140   2.09579   2.09768   2.10175   2.10636
  Beta virt. eigenvalues --    2.11269   2.11396   2.12087   2.12556   2.13079
  Beta virt. eigenvalues --    2.13400   2.13884   2.13967   2.14540   2.15329
  Beta virt. eigenvalues --    2.15610   2.15872   2.16129   2.16631   2.17220
  Beta virt. eigenvalues --    2.18123   2.18529   2.18648   2.19191   2.20058
  Beta virt. eigenvalues --    2.20164   2.20679   2.20821   2.20975   2.21581
  Beta virt. eigenvalues --    2.21807   2.22888   2.23132   2.24011   2.24393
  Beta virt. eigenvalues --    2.24887   2.25465   2.25886   2.26341   2.26678
  Beta virt. eigenvalues --    2.27011   2.27662   2.28173   2.28469   2.28601
  Beta virt. eigenvalues --    2.29178   2.29502   2.29821   2.30621   2.31197
  Beta virt. eigenvalues --    2.31790   2.31925   2.32402   2.33166   2.33578
  Beta virt. eigenvalues --    2.33968   2.34272   2.34727   2.35228   2.35645
  Beta virt. eigenvalues --    2.35847   2.36056   2.36785   2.37103   2.37514
  Beta virt. eigenvalues --    2.37621   2.38217   2.38557   2.38829   2.39133
  Beta virt. eigenvalues --    2.40044   2.40275   2.40689   2.40934   2.41555
  Beta virt. eigenvalues --    2.42350   2.42799   2.43118   2.43556   2.44223
  Beta virt. eigenvalues --    2.44472   2.45188   2.45458   2.45670   2.45825
  Beta virt. eigenvalues --    2.46092   2.46731   2.47430   2.47754   2.48215
  Beta virt. eigenvalues --    2.48800   2.48973   2.50002   2.50068   2.50510
  Beta virt. eigenvalues --    2.51044   2.51279   2.52031   2.52657   2.53157
  Beta virt. eigenvalues --    2.53237   2.53444   2.53940   2.54285   2.54586
  Beta virt. eigenvalues --    2.55052   2.55838   2.56155   2.56313   2.56702
  Beta virt. eigenvalues --    2.57051   2.57156   2.57311   2.57855   2.58074
  Beta virt. eigenvalues --    2.58836   2.59122   2.59970   2.60104   2.60328
  Beta virt. eigenvalues --    2.60529   2.61079   2.61521   2.61577   2.61868
  Beta virt. eigenvalues --    2.62446   2.62866   2.63500   2.63849   2.64373
  Beta virt. eigenvalues --    2.65091   2.65560   2.65866   2.66158   2.66472
  Beta virt. eigenvalues --    2.66787   2.67169   2.67861   2.68145   2.68397
  Beta virt. eigenvalues --    2.68948   2.69234   2.69587   2.70131   2.70478
  Beta virt. eigenvalues --    2.70665   2.71173   2.71408   2.71701   2.72284
  Beta virt. eigenvalues --    2.72573   2.73062   2.73604   2.74433   2.75016
  Beta virt. eigenvalues --    2.75392   2.75762   2.75980   2.76590   2.76666
  Beta virt. eigenvalues --    2.77217   2.77581   2.78053   2.78552   2.78804
  Beta virt. eigenvalues --    2.79194   2.79637   2.80093   2.80464   2.81048
  Beta virt. eigenvalues --    2.81547   2.82109   2.82381   2.82565   2.83181
  Beta virt. eigenvalues --    2.83289   2.84013   2.84139   2.84398   2.85294
  Beta virt. eigenvalues --    2.85898   2.85952   2.86540   2.86797   2.87276
  Beta virt. eigenvalues --    2.87535   2.87836   2.88276   2.88730   2.89657
  Beta virt. eigenvalues --    2.89815   2.90348   2.90627   2.90716   2.91121
  Beta virt. eigenvalues --    2.91402   2.91819   2.92134   2.92217   2.93078
  Beta virt. eigenvalues --    2.93607   2.94123   2.94586   2.94924   2.95124
  Beta virt. eigenvalues --    2.95408   2.95674   2.95847   2.96129   2.96531
  Beta virt. eigenvalues --    2.97003   2.97144   2.97881   2.98120   2.98474
  Beta virt. eigenvalues --    2.98668   2.99050   2.99378   2.99737   3.00011
  Beta virt. eigenvalues --    3.00500   3.00706   3.01285   3.01501   3.02012
  Beta virt. eigenvalues --    3.02251   3.02360   3.03204   3.03815   3.04551
  Beta virt. eigenvalues --    3.04963   3.05318   3.05680   3.06037   3.06452
  Beta virt. eigenvalues --    3.06626   3.06995   3.07519   3.07791   3.07924
  Beta virt. eigenvalues --    3.08583   3.08657   3.08724   3.09125   3.09253
  Beta virt. eigenvalues --    3.09711   3.10322   3.10650   3.11054   3.11178
  Beta virt. eigenvalues --    3.11814   3.12063   3.12528   3.12543   3.12736
  Beta virt. eigenvalues --    3.13276   3.13406   3.14055   3.14461   3.14554
  Beta virt. eigenvalues --    3.14761   3.15383   3.15978   3.16036   3.16141
  Beta virt. eigenvalues --    3.16923   3.17014   3.17103   3.17883   3.18054
  Beta virt. eigenvalues --    3.18586   3.18845   3.19443   3.19563   3.19791
  Beta virt. eigenvalues --    3.20072   3.20438   3.21220   3.21288   3.21528
  Beta virt. eigenvalues --    3.21981   3.22677   3.22863   3.23106   3.23341
  Beta virt. eigenvalues --    3.23437   3.23985   3.24316   3.24627   3.24849
  Beta virt. eigenvalues --    3.25364   3.25532   3.25599   3.26168   3.26236
  Beta virt. eigenvalues --    3.26401   3.27006   3.27163   3.27266   3.27660
  Beta virt. eigenvalues --    3.27946   3.28091   3.28460   3.28697   3.28953
  Beta virt. eigenvalues --    3.29569   3.29615   3.30178   3.30337   3.30347
  Beta virt. eigenvalues --    3.30632   3.30847   3.30925   3.31132   3.31597
  Beta virt. eigenvalues --    3.31818   3.32448   3.32784   3.32896   3.33159
  Beta virt. eigenvalues --    3.33530   3.33809   3.34130   3.34432   3.34668
  Beta virt. eigenvalues --    3.35100   3.35223   3.35765   3.35823   3.36203
  Beta virt. eigenvalues --    3.36408   3.36605   3.36702   3.37270   3.37717
  Beta virt. eigenvalues --    3.37895   3.38444   3.38703   3.38797   3.39092
  Beta virt. eigenvalues --    3.39360   3.39582   3.39776   3.39933   3.40502
  Beta virt. eigenvalues --    3.40723   3.40957   3.41409   3.41971   3.42200
  Beta virt. eigenvalues --    3.42348   3.42823   3.43323   3.43897   3.43996
  Beta virt. eigenvalues --    3.44573   3.45254   3.45650   3.46133   3.46313
  Beta virt. eigenvalues --    3.46607   3.47314   3.47416   3.47765   3.48512
  Beta virt. eigenvalues --    3.48726   3.49592   3.49761   3.50761   3.50917
  Beta virt. eigenvalues --    3.51015   3.51225   3.51944   3.52713   3.53374
  Beta virt. eigenvalues --    3.54052   3.54603   3.54773   3.55121   3.55177
  Beta virt. eigenvalues --    3.55724   3.56210   3.56461   3.56771   3.57052
  Beta virt. eigenvalues --    3.58015   3.58121   3.58634   3.59508   3.59710
  Beta virt. eigenvalues --    3.60152   3.60530   3.60817   3.61916   3.62108
  Beta virt. eigenvalues --    3.62563   3.62850   3.63485   3.64012   3.64522
  Beta virt. eigenvalues --    3.65634   3.65667   3.66348   3.66704   3.67371
[...]
                                                    1324(v)
   143. CR (   1) N  71                  0.99969   -14.22043  1326(v),1352(v),1320(v)
                                                    1522(v)
   144. CR (   1) C  73                  0.99957   -10.08735  1527(g),1409(v),1532(v)
                                                    1254(v),1297(v),1411(v)
   145. CR (   1) C  74                  0.99966   -10.12091  1381(v),149(r),1523(v)
                                                    1531(v),1377(v),150(r)
   146. CR (   1) N  76                  0.99971   -14.12856  149(r),150(r),153(r),1350(v)
                                                    1407(v),1528(v),168(r)
                                                    148(r),167(r),171(r)
   147. CR (   1) C  77                  0.99948   -10.05679  1324(v),1522(v),1527(g)
                                                    1382(v),149(r),150(r),2(r)
   163. LP (   1) N  76                  0.82681    -0.35882  149(r),150(r),153(r),1526(v)
                                                    1527(v),1350(v),1528(v)
                                                    1529(g),1532(v),1407(v)
                                                    1531(g),148(r),1384(g)
                                                    1381(g),170(r),177(r),219(r)
                                                    244(r),195(r),273(r),221(r)
                                                    271(r),171(r),247(r),270(r)
                                                    154(r),192(r),1448(r)
                                                    1442(r),1443(r),1438(r)
                                                    1446(r),1439(r),2(r),1440(r)
                                                    1445(r),193(r),218(r),245(r)
                                                    176(r)
   164. LP (   1) C  77                  0.52314    -0.10996  1525(v),1530(v),1328(v)
                                                    1383(v),1408(g),148(r),2(r)
  1252. RY*(   1) C  67                  0.00059     1.16932   
  1253. RY*(   2) C  67                  0.00039     2.01879   
  1254. RY*(   3) C  67                  0.00025     1.30831   
  1255. RY*(   4) C  67                  0.00006     1.27188   
  1256. RY*(   5) C  67                  0.00004     1.78323   
  1257. RY*(   6) C  67                  0.00000     2.80438   
  1258. RY*(   7) C  67                  0.00000    21.58349   
  1259. RY*(   8) C  67                  0.00001     1.78584   
  1260. RY*(   9) C  67                  0.00001     1.50070   
  1261. RY*(  10) C  67                  0.00001     1.15009   
  1262. RY*(  11) C  67                  0.00000     1.33988   
  1263. RY*(  12) C  67                  0.00000     3.17403   
  1264. RY*(  13) C  67                  0.00000     2.52436   
  1265. RY*(  14) C  67                  0.00000     2.75006   
  1266. RY*(  15) C  67                  0.00000     2.35053   
  1267. RY*(  16) C  67                  0.00001     2.85862   
  1268. RY*(  17) C  67                  0.00000     2.41657   
  1269. RY*(  18) C  67                  0.00001     2.56728   
  1270. RY*(  19) C  67                  0.00000     2.51869   
  1271. RY*(  20) C  67                  0.00000     3.53527   
  1272. RY*(  21) C  67                  0.00000     3.46718   
  1273. RY*(  22) C  67                  0.00000     3.30135   
  1274. RY*(  23) C  67                  0.00000     3.68167   
  1275. RY*(  24) C  67                  0.00000     3.48317   
  1276. RY*(  25) C  67                  0.00000     3.45655   
  1277. RY*(  26) C  67                  0.00000     3.30533   
  1278. RY*(   1) H  68                  0.00037     1.00340   
  1279. RY*(   2) H  68                  0.00007     1.69270   
  1280. RY*(   3) H  68                  0.00003     1.89977   
  1281. RY*(   4) H  68                  0.00004     2.07985   
  1282. RY*(   5) H  68                  0.00000     2.88752   
  1283. RY*(   1) H  69                  0.00012     1.47773   
  1284. RY*(   2) H  69                  0.00006     1.71114   
  1285. RY*(   3) H  69                  0.00004     2.05902   
  1286. RY*(   4) H  69                  0.00000     2.94991   
  1287. RY*(   5) H  69                  0.00001     1.46404   
  1288. RY*(   1) H  70                  0.00037     0.99415   
  1289. RY*(   2) H  70                  0.00007     1.68695   
  1290. RY*(   3) H  70                  0.00004     1.97987   
  1291. RY*(   4) H  70                  0.00003     2.01459   
  1292. RY*(   5) H  70                  0.00000     2.88742   
  1293. RY*(   1) N  71                  0.00135     0.71161   
  1294. RY*(   2) N  71                  0.00106     1.85076   
  1295. RY*(   3) N  71                  0.00052     2.17940   
  1296. RY*(   4) N  71                  0.00039     2.29438   
  1297. RY*(   5) N  71                  0.00025     1.10399   
  1298. RY*(   6) N  71                  0.00010     2.14134   
  1299. RY*(   7) N  71                  0.00007     2.32635   
  1300. RY*(   8) N  71                  0.00002     3.18762   
  1301. RY*(   9) N  71                  0.00003     2.67699   
  1302. RY*(  10) N  71                  0.00001     2.67063   
  1303. RY*(  11) N  71                  0.00002     3.50360   
  1304. RY*(  12) N  71                  0.00000    30.65329   
  1305. RY*(  13) N  71                  0.00000     4.02772   
  1306. RY*(  14) N  71                  0.00001     2.49385   
  1307. RY*(  15) N  71                  0.00001     4.13938   
  1308. RY*(  16) N  71                  0.00000     3.10176   
  1309. RY*(  17) N  71                  0.00000     4.50680   
  1310. RY*(  18) N  71                  0.00000     2.26080   
  1311. RY*(  19) N  71                  0.00000     3.81321   
  1312. RY*(  20) N  71                  0.00000     4.71122   
  1313. RY*(  21) N  71                  0.00000     4.62566   
  1314. RY*(  22) N  71                  0.00000     4.33015   
  1315. RY*(  23) N  71                  0.00000     4.47579   
  1316. RY*(  24) N  71                  0.00000     4.30182   
  1317. RY*(  25) N  71                  0.00000     4.44322   
  1318. RY*(  26) N  71                  0.00000     4.34136   
  1319. RY*(   1) H  72                  0.00028     2.17664   
  1320. RY*(   2) H  72                  0.00020     2.14726   
  1321. RY*(   3) H  72                  0.00010     1.11794   
  1322. RY*(   4) H  72                  0.00010     2.70945   
  1323. RY*(   5) H  72                  0.00000     3.08138   
  1324. RY*(   1) C  73                  0.00193     1.68073   
  1325. RY*(   2) C  73                  0.00175     1.21430   
  1326. RY*(   3) C  73                  0.00093     1.46968   
  1327. RY*(   4) C  73                  0.00081     2.17604   
  1328. RY*(   5) C  73                  0.00066     1.88503   
  1329. RY*(   6) C  73                  0.00048     1.78558   
  1330. RY*(   7) C  73                  0.00021     2.62451   
  1331. RY*(   8) C  73                  0.00011     2.78890   
  1332. RY*(   9) C  73                  0.00008     2.53193   
  1333. RY*(  10) C  73                  0.00003     3.63698   
  1334. RY*(  11) C  73                  0.00002     2.45734   
  1335. RY*(  12) C  73                  0.00000    21.50782   
  1336. RY*(  13) C  73                  0.00000     1.66173   
  1337. RY*(  14) C  73                  0.00000     1.62219   
  1338. RY*(  15) C  73                  0.00000     2.46791   
  1339. RY*(  16) C  73                  0.00000     1.92615   
  1340. RY*(  17) C  73                  0.00000     3.54857   
  1341. RY*(  18) C  73                  0.00000     1.07791   
  1342. RY*(  19) C  73                  0.00001     1.81891   
  1343. RY*(  20) C  73                  0.00000     4.01195   
  1344. RY*(  21) C  73                  0.00000     3.82965   
  1345. RY*(  22) C  73                  0.00000     3.55218   
  1346. RY*(  23) C  73                  0.00000     3.79020   
  1347. RY*(  24) C  73                  0.00000     3.43211   
  1348. RY*(  25) C  73                  0.00000     3.56988   
  1349. RY*(  26) C  73                  0.00000     3.53390   
  1350. RY*(   1) C  74                  0.00230     1.67608   
  1351. RY*(   2) C  74                  0.00185     0.64853   
  1352. RY*(   3) C  74                  0.00118     1.80608   
  1353. RY*(   4) C  74                  0.00078     1.15364   
  1354. RY*(   5) C  74                  0.00052     2.68956   
  1355. RY*(   6) C  74                  0.00039     1.82662   
  1356. RY*(   7) C  74                  0.00019     1.96896   
  1357. RY*(   8) C  74                  0.00010     1.77903   
  1358. RY*(   9) C  74                  0.00009     1.25313   
  1359. RY*(  10) C  74                  0.00006     1.72707   
  1360. RY*(  11) C  74                  0.00004     3.14664   
  1361. RY*(  12) C  74                  0.00002     1.66049   
  1362. RY*(  13) C  74                  0.00002     1.68590   
  1363. RY*(  14) C  74                  0.00002     2.03548   
  1364. RY*(  15) C  74                  0.00002     2.31147   
  1365. RY*(  16) C  74                  0.00002     3.52198   
  1366. RY*(  17) C  74                  0.00000     3.56831   
  1367. RY*(  18) C  74                  0.00000     3.24102   
  1368. RY*(  19) C  74                  0.00000    21.20928   
  1369. RY*(  20) C  74                  0.00001     3.86659   
  1370. RY*(  21) C  74                  0.00000     3.79102   
  1371. RY*(  22) C  74                  0.00000     3.56396   
  1372. RY*(  23) C  74                  0.00000     3.79979   
  1373. RY*(  24) C  74                  0.00000     3.54469   
  1374. RY*(  25) C  74                  0.00000     3.75468   
  1375. RY*(  26) C  74                  0.00000     3.46262   
  1376. RY*(   1) H  75                  0.00031     0.71346   
  1377. RY*(   2) H  75                  0.00019     2.38685   
  1378. RY*(   3) H  75                  0.00008     2.25444   
  1379. RY*(   4) H  75                  0.00002     2.64894   
  1380. RY*(   5) H  75                  0.00001     3.02934   
  1381. RY*(   1) N  76                  0.00350     1.26418   
  1382. RY*(   2) N  76                  0.00311     1.09423   
  1383. RY*(   3) N  76                  0.00117     0.94838   
  1384. RY*(   4) N  76                  0.00045     1.66808   
  1385. RY*(   5) N  76                  0.00044     1.78490   
  1386. RY*(   6) N  76                  0.00026     1.96444   
  1387. RY*(   7) N  76                  0.00023     2.75552   
  1388. RY*(   8) N  76                  0.00015     3.10268   
  1389. RY*(   9) N  76                  0.00005     2.30731   
  1390. RY*(  10) N  76                  0.00005     3.52676   
  1391. RY*(  11) N  76                  0.00003     4.40467   
  1392. RY*(  12) N  76                  0.00003     3.05341   
  1393. RY*(  13) N  76                  0.00000     3.76836   
  1394. RY*(  14) N  76                  0.00001     3.15988   
  1395. RY*(  15) N  76                  0.00000     4.80316   
  1396. RY*(  16) N  76                  0.00001     3.08726   
  1397. RY*(  17) N  76                  0.00000     4.90114   
  1398. RY*(  18) N  76                  0.00001     5.19337   
  1399. RY*(  19) N  76                  0.00001     4.44847   
  1400. RY*(  20) N  76                  0.00000     4.46719   
  1401. RY*(  21) N  76                  0.00000    31.73422   
  1402. RY*(  22) N  76                  0.00000     4.09876   
  1403. RY*(  23) N  76                  0.00000     4.65614   
  1404. RY*(  24) N  76                  0.00000     4.76310   
  1405. RY*(  25) N  76                  0.00000     4.61131   
  1406. RY*(  26) N  76                  0.00000     4.55185   
  1407. RY*(   1) C  77                  0.00206     1.48488   
  1408. RY*(   2) C  77                  0.00133     0.79748   
  1409. RY*(   3) C  77                  0.00095     1.54882   
  1410. RY*(   4) C  77                  0.00040     1.91942   
  1411. RY*(   5) C  77                  0.00030     1.53993   
  1412. RY*(   6) C  77                  0.00020     2.38608   
  1413. RY*(   7) C  77                  0.00018     2.15500   
  1414. RY*(   8) C  77                  0.00014     1.59896   
  1415. RY*(   9) C  77                  0.00009     1.76906   
  1416. RY*(  10) C  77                  0.00007     1.86053   
  1417. RY*(  11) C  77                  0.00005     1.41630   
  1418. RY*(  12) C  77                  0.00003     2.90639   
  1419. RY*(  13) C  77                  0.00003     1.96035   
  1420. RY*(  14) C  77                  0.00002     3.28991   
  1421. RY*(  15) C  77                  0.00001     2.25152   
  1422. RY*(  16) C  77                  0.00001     1.44490   
  1423. RY*(  17) C  77                  0.00000     3.55829   
  1424. RY*(  18) C  77                  0.00000     3.29223   
  1425. RY*(  19) C  77                  0.00000    21.50229   
  1426. RY*(  20) C  77                  0.00000     3.92236   
  1427. RY*(  21) C  77                  0.00000     3.95612   
  1428. RY*(  22) C  77                  0.00000     3.48545   
  1429. RY*(  23) C  77                  0.00000     3.73740   
  1430. RY*(  24) C  77                  0.00000     3.49963   
  1431. RY*(  25) C  77                  0.00000     3.68284   
  1432. RY*(  26) C  77                  0.00000     3.40682   
  1433. RY*(   1) H  78                  0.00030     1.08745   
  1434. RY*(   2) H  78                  0.00017     1.99493   
  1435. RY*(   3) H  78                  0.00012     2.31301   
  1436. RY*(   4) H  78                  0.00003     2.73358   
  1437. RY*(   5) H  78                  0.00000     3.12052   
  1519. BD*(   1) C  67 - H  68          0.00599     0.36006   
  1520. BD*(   1) C  67 - H  69          0.00173     0.37387   
  1521. BD*(   1) C  67 - H  70          0.00591     0.36011   
  1522. BD*(   1) C  67 - C  73          0.00692     0.39056   
  1523. BD*(   1) N  71 - H  72          0.00722     0.36837   
  1524. BD*(   1) N  71 - C  73          0.01363     0.43076   
  1525. BD*(   2) N  71 - C  73          0.38914    -0.04523  1530(v),1519(v),1521(v)
                                                    1325(g),1293(g),1330(g)
                                                    1253(v),1412(v),169(r)
  1526. BD*(   1) N  71 - C  74          0.01145     0.44962   
  1527. BD*(   1) C  73 - C  77          0.01069     0.56886   
  1528. BD*(   1) C  74 - H  75          0.00927     0.39072   
  1529. BD*(   1) C  74 - N  76          0.00953     0.53139   
  1530. BD*(   2) C  74 - N  76          0.20664    -0.00244  1525(v),154(r),1351(g)
                                                    1383(g),152(r),1444(r),2(r)
                                                    1441(r),148(r)
  1531. BD*(   1) N  76 - C  77          0.00947     0.48045   
  1532. BD*(   1) C  77 - H  78          0.00737     0.43365   
       -------------------------------
              Total Lewis   21.09998  ( 96.6406%)
        Valence non-Lewis    0.69497  (  3.1830%)
        Rydberg non-Lewis    0.03851  (  0.1764%)
       -------------------------------
            Total unit  3   21.83346  (100.0000%)
           Charge unit  3    0.16654
 Unable to Open any file for archive entry.
 1\1\GINC-BGN1023\SP\UAPFD\def2TZVP\C34H36Fe1N6O1(5)\BECSLEIP\13-Sep-20
 24\0\\# apfd/def2TZVP guess=read scf=maxcycle=999 geom=check pop=nbo\\
 5b85_II_Q\\0,5\Fe,0,45.6643566395,54.7995231076,8.4670654526\N,0,45.45
 72216453,56.5106660754,7.4468342029\N,0,45.0986015342,53.7749639642,6.
 8252786976\N,0,45.7769573563,53.0690826713,9.4893313282\N,0,46.1649296
 983,55.8113726807,10.1032685737\C,0,45.724632035,57.7612505322,7.90684
 00614\C,0,45.5275330995,58.7452696046,6.8651851996\C,0,45.1500946779,5
 8.054438586,5.756620965\C,0,45.1107537869,56.6603280374,6.1416818541\C
 ,0,44.7944488494,54.2902946832,5.6039135524\C,0,44.4176824243,53.24706
 70437,4.6832457587\C,0,44.5153575276,52.0699373115,5.3750114658\C,0,44
 .9296494086,52.4311670846,6.7182669942\C,0,45.4838219675,51.8206768768
 ,9.0317749412\C,0,45.4345262708,50.8736659076,10.1139215974\C,0,45.758
 4602728,51.5722464478,11.2486039619\C,0,45.9849722766,52.9402382763,10
 .8262215179\C,0,46.3172223378,55.3137874064,11.3591555939\C,0,46.56765
 21584,56.3768181071,12.3074071093\C,0,46.4917075315,57.5378877388,11.6
 045063338\C,0,46.2140245845,57.1645333089,10.2343293581\C,0,46.0682217
 522,58.0793207644,9.2084113782\H,0,46.1936016467,59.1240827531,9.44981
 75342\C,0,44.803549037,55.6339352823,5.2729201911\H,0,44.53644198,55.9
 011850002,4.2620312986\C,0,45.1433744411,51.510042709,7.7245473689\H,0
 ,44.9466856353,50.472882186,7.4993409328\C,0,46.2635531587,53.97631525
 17,11.7002734111\H,0,46.3962089257,53.7260071819,12.7417943436\C,0,44.
 8182969383,58.5608868498,4.3947272375\H,0,45.4937156408,58.1345573929,
 3.652416502\H,0,44.9034289323,59.6440720668,4.3527459209\H,0,43.799456
 0922,58.2861342249,4.1211259732\C,0,45.7303964929,60.2115265725,7.0423
 27154\H,0,46.7498714483,60.4230257612,7.3661479614\H,0,45.0487492704,6
 0.6044954194,7.7971955837\H,0,45.5504623877,60.7422005515,6.1106049154
 \C,0,44.084275059,53.4500030707,3.2463160267\H,0,44.7168417931,54.2208
 406264,2.8085909398\H,0,43.0444728156,53.7595446526,3.128282138\H,0,44
 .2313551805,52.5237907475,2.6944070224\C,0,44.2684518894,50.7186486743
 ,4.9222060663\H,0,44.8960068428,49.9535150992,5.3651278229\C,0,43.3488
 785715,50.3585937743,4.0326388129\H,0,42.6660690547,51.066483963,3.596
 3111831\H,0,43.2296118106,49.3315399455,3.7293497066\C,0,45.165692858,
 49.4163556004,9.9682505209\H,0,45.6335982668,49.0261991155,9.065458914
 9\H,0,44.0938109953,49.2214183076,9.902156826\H,0,45.5607646785,48.876
 2050337,10.8262430169\C,0,45.8715770405,51.0997825244,12.6104795345\H,
 0,46.6325255945,51.5845406956,13.211255791\C,0,45.1255565562,50.148094
 2186,13.1622621176\H,0,44.3246277452,49.6660369153,12.6291338218\H,0,4
 5.2753535538,49.8348336922,14.1822137177\C,0,46.8205101235,56.16551537
 28,13.7608022676\H,0,47.6888931294,55.5232878807,13.908594448\H,0,45.9
 625388973,55.6870263752,14.2340074569\H,0,47.0045446705,57.1118811208,
 14.2636147071\C,0,46.6460145496,58.9422863441,12.0800000905\H,0,47.469
 6415883,59.4362007373,11.5633402945\H,0,46.8476125437,58.9687064869,13
 .1480380234\H,0,45.7372112613,59.513277383,11.8887439382\O,0,43.491,54
 .81,9.132\H,0,43.353,53.934,9.491\H,0,42.904,55.478,9.133\C,0,50.64356
 83532,53.0178243373,6.7160812159\H,0,51.0350350997,53.4192792443,5.781
 3723457\H,0,50.294372705,52.005232481,6.5403385107\H,0,51.45714678,52.
 9860227251,7.4406838945\N,0,49.6696760102,55.1747731829,7.5360711527\H
 ,0,50.5229331845,55.7043621371,7.4649741622\C,0,49.5212097977,53.84977
 19767,7.2191282863\C,0,48.4692154227,55.6318130688,7.9597204611\H,0,48
 .2863295075,56.6383329055,8.2754650763\N,0,47.5709005977,54.6774921319
 ,7.9293303857\C,0,48.2102904609,53.5630611341,7.4710315448\H,0,47.6876
 223932,52.6366427958,7.3542582293\\Version=ES64L-G16RevC.02\State=5-A\
 HF=-2984.0106079\S2=6.153701\S2-1=0.\S2A=6.000815\RMSD=1.490e-09\Dipol
 e=1.3326931,0.7585631,-0.2239974\Quadrupole=9.8571193,-3.0865984,-6.77
 05209,2.528739,-3.9083387,-0.0844544\PG=C01 [X(C34H36Fe1N6O1)]\\@
 The archive entry for this job was punched.


 THERE IS SOMETHING FASCINATING ABOUT SCIENCE.
 ONE GETS SUCH WHOLESALE CONJECTURE OUT OF SUCH TRIFLING INVESTMENTS.

                                                       -- MARK TWAIN
 Job cpu time:       1 days  0 hours 28 minutes 12.2 seconds.
 Elapsed time:       0 days  0 hours 22 minutes 36.9 seconds.
 File lengths (MBytes):  RWF=   2166 Int=      0 D2E=      0 Chk=    197 Scr=      1
 Normal termination of Gaussian 16 at Fri Sep 13 08:30:27 2024.
