 Entering Gaussian System, Link 0=g16
 Input=5ccp12re.com
 Output=5ccp12re.log
 Initial command:
 /sw/chem/gaussian/g16_C02/a100/g16/l1.exe "/local/becsleip_8020455/Gau-436408.inp" -scrdir="/local/becsleip_8020455/"
 Entering Link 1 = /sw/chem/gaussian/g16_C02/a100/g16/l1.exe PID=    436409.
  
 Copyright (c) 1988-2021, Gaussian, Inc.  All Rights Reserved.
  
 This is part of the Gaussian(R) 16 program.  It is based on
 the Gaussian(R) 09 system (copyright 2009, Gaussian, Inc.),
 the Gaussian(R) 03 system (copyright 2003, Gaussian, Inc.),
 the Gaussian(R) 98 system (copyright 1998, Gaussian, Inc.),
 the Gaussian(R) 94 system (copyright 1995, Gaussian, Inc.),
 the Gaussian 92(TM) system (copyright 1992, Gaussian, Inc.),
 the Gaussian 90(TM) system (copyright 1990, Gaussian, Inc.),
 the Gaussian 88(TM) system (copyright 1988, Gaussian, Inc.),
 the Gaussian 86(TM) system (copyright 1986, Carnegie Mellon
 University), and the Gaussian 82(TM) system (copyright 1983,
 Carnegie Mellon University). Gaussian is a federally registered
 trademark of Gaussian, Inc.
  
 This software contains proprietary and confidential information,
 including trade secrets, belonging to Gaussian, Inc.
  
 This software is provided under written license and may be
 used, copied, transmitted, or stored only in accord with that
 written license.
  
 The following legend is applicable only to US Government
 contracts under FAR:
  
                    RESTRICTED RIGHTS LEGEND
  
 Use, reproduction and disclosure by the US Government is
 subject to restrictions as set forth in subparagraphs (a)
 and (c) of the Commercial Computer Software - Restricted
 Rights clause in FAR 52.227-19.
  
 Gaussian, Inc.
 340 Quinnipiac St., Bldg. 40, Wallingford CT 06492
  
  
 ---------------------------------------------------------------
 Warning -- This program may not be used in any manner that
 competes with the business of Gaussian, Inc. or will provide
 assistance to any competitor of Gaussian, Inc.  The licensee
 of this program is prohibited from giving any competitor of
 Gaussian, Inc. access to this program.  By using this program,
 the user acknowledges that Gaussian, Inc. is engaged in the
 business of creating and licensing software in the field of
 computational chemistry and represents and warrants to the
 licensee that it is not a competitor of Gaussian, Inc. and that
 it will not use this program in any manner prohibited above.
 ---------------------------------------------------------------
  

 Cite this work as:
 Gaussian 16, Revision C.02,
 M. J. Frisch, G. W. Trucks, H. B. Schlegel, G. E. Scuseria, 
 M. A. Robb, J. R. Cheeseman, G. Scalmani, V. Barone, 
 G. A. Petersson, H. Nakatsuji, X. Li, M. Caricato, A. V. Marenich, 
 J. Bloino, B. G. Janesko, R. Gomperts, B. Mennucci, H. P. Hratchian, 
 J. V. Ortiz, A. F. Izmaylov, J. L. Sonnenberg, D. Williams-Young, 
 F. Ding, F. Lipparini, F. Egidi, J. Goings, B. Peng, A. Petrone, 
 T. Henderson, D. Ranasinghe, V. G. Zakrzewski, J. Gao, N. Rega, 
 G. Zheng, W. Liang, M. Hada, M. Ehara, K. Toyota, R. Fukuda, 
 J. Hasegawa, M. Ishida, T. Nakajima, Y. Honda, O. Kitao, H. Nakai, 
 T. Vreven, K. Throssell, J. A. Montgomery, Jr., J. E. Peralta, 
 F. Ogliaro, M. J. Bearpark, J. J. Heyd, E. N. Brothers, K. N. Kudin, 
 V. N. Staroverov, T. A. Keith, R. Kobayashi, J. Normand, 
 K. Raghavachari, A. P. Rendell, J. C. Burant, S. S. Iyengar, 
 J. Tomasi, M. Cossi, J. M. Millam, M. Klene, C. Adamo, R. Cammi, 
 J. W. Ochterski, R. L. Martin, K. Morokuma, O. Farkas, 
 J. B. Foresman, and D. J. Fox, Gaussian, Inc., Wallingford CT, 2019.
 
 ******************************************
 Gaussian 16:  ES64L-G16RevC.02  7-Dec-2021
                16-Sep-2024 
 ******************************************
 %mem=16GB
 %CPU=0-71
 SetSPE:  set environment variable "OMP_PROC_BIND" = "true"
 SetSPE:  set environment variable "OMP_PLACES" = "{0},{1},{2},{3},{4},{5},{6},{7},{8},{9},{10},{11},{12},{13},{14},{15},{16},{17},{18},{19},{20},{21},{22},{23},{24},{25},{26},{27},{28},{29},{30},{31},{32},{33},{34},{35},{36},{37},{38},{39},{40},{41},{42},{43},{44},{45},{46},{47},{48},{49},{50},{51},{52},{53},{54},{55},{56},{57},{58},{59},{60},{61},{62},{63},{64},{65},{66},{67},{68},{69},{70},{71}"
 Will use up to   72 processors via shared memory.
 %gpucpu=0,1,2,3=0,1,2,3
 Will use    4 GPUs:
 Thread  CPU   GPU
      0    0     0
      1    1     1
      2    2     2
      3    3     3
      4    4    -1
      5    5    -1
      6    6    -1
      7    7    -1
      8    8    -1
      9    9    -1
     10   10    -1
     11   11    -1
     12   12    -1
     13   13    -1
     14   14    -1
     15   15    -1
     16   16    -1
     17   17    -1
     18   18    -1
     19   19    -1
     20   20    -1
     21   21    -1
     22   22    -1
     23   23    -1
     24   24    -1
     25   25    -1
     26   26    -1
     27   27    -1
     28   28    -1
     29   29    -1
     30   30    -1
     31   31    -1
     32   32    -1
     33   33    -1
     34   34    -1
     35   35    -1
     36   36    -1
     37   37    -1
     38   38    -1
     39   39    -1
     40   40    -1
     41   41    -1
     42   42    -1
     43   43    -1
     44   44    -1
     45   45    -1
     46   46    -1
     47   47    -1
     48   48    -1
     49   49    -1
     50   50    -1
     51   51    -1
     52   52    -1
     53   53    -1
     54   54    -1
     55   55    -1
     56   56    -1
     57   57    -1
     58   58    -1
     59   59    -1
     60   60    -1
     61   61    -1
     62   62    -1
     63   63    -1
     64   64    -1
     65   65    -1
     66   66    -1
     67   67    -1
     68   68    -1
     69   69    -1
     70   70    -1
     71   71    -1
 SetGPE:  set environment variable "OMP_PROC_BIND" = "true"
 SetGPE:  set environment variable "OMP_PLACES" = "{0},{1},{2},{3},{4},{5},{6},{7},{8},{9},{10},{11},{12},{13},{14},{15},{16},{17},{18},{19},{20},{21},{22},{23},{24},{25},{26},{27},{28},{29},{30},{31},{32},{33},{34},{35},{36},{37},{38},{39},{40},{41},{42},{43},{44},{45},{46},{47},{48},{49},{50},{51},{52},{53},{54},{55},{56},{57},{58},{59},{60},{61},{62},{63},{64},{65},{66},{67},{68},{69},{70},{71}"
 %oldchk=5ccp_II_S.chk
 %chk=5ccp_II_Sre.chk
 Properties for Device   0
 Minimum vector length:                              32
 Maximum vector length:                            1024
 Number of SMPs:                                    108
 Maximum number of threads per SMP:                2048
 Number of ASync Engines:                             5
 Memory:                                           9207742464
 Properties for Device   1
 Minimum vector length:                              32
 Maximum vector length:                            1024
 Number of SMPs:                                    108
 Maximum number of threads per SMP:                2048
 Number of ASync Engines:                             5
 Memory:                                           9207742464
 Properties for Device   2
 Minimum vector length:                              32
 Maximum vector length:                            1024
 Number of SMPs:                                    108
 Maximum number of threads per SMP:                2048
 Number of ASync Engines:                             5
 Memory:                                           9207742464
 Properties for Device   3
 Minimum vector length:                              32
 Maximum vector length:                            1024
 Number of SMPs:                                    108
 Maximum number of threads per SMP:                2048
 Number of ASync Engines:                             5
 Memory:                                           9207742464
   8286968217 words of memory will be used on each GPU.
 Copying data from "5ccp_II_S.chk" to current chk file "5ccp_II_Sre.chk"
 IOpt=  2 FromEx=T IUOpen= 4 IOptOp= 5 NList=   0 IFRang= 0 IUIn= 4 IUOut= 2.
 --------------------------------------
 # apfd/gen scf=maxcycle=999 geom=check
 --------------------------------------
 1/29=2,38=1,172=1/1;
 2/12=2,40=1/2;
 3/5=7,11=2,14=-4,25=1,30=1,74=-44/1,2,3;
 4//1;
 5/5=2,7=999,38=5/2;
 6/7=2,8=2,9=2,10=2,28=1/1;
 99/5=1,9=1/99;
 ----------
 5ccp_III_D
 ----------
 Structure from the checkpoint file:  "5ccp_II_Sre.chk"
 Charge =  1 Multiplicity = 2
 Z-Matrix found in chk file.
 Fe,0,-5.8645496782,57.09215217,21.514866817
 N,0,-6.510933591,56.190647774,23.234838051
 N,0,-6.7178892686,58.8026705192,22.2132463431
 N,0,-5.1267558286,58.035608822,19.9570727259
 N,0,-4.6864196699,55.4548250693,21.1756121117
 C,0,-6.2798216082,54.9000373275,23.6037865524
 C,0,-6.7998639184,54.645246739,24.9285639963
 C,0,-7.4555311171,55.7761144309,25.3043136678
 C,0,-7.2793555319,56.7254056096,24.2263172213
 C,0,-7.5480394484,58.9690727902,23.2765821753
 C,0,-8.0317879541,60.3230786417,23.3456903309
 C,0,-7.5348944365,60.9642454651,22.2403885354
 C,0,-6.7234070308,59.9853337816,21.5420554816
 C,0,-5.1510442694,59.3841695416,19.7466339119
 C,0,-4.219139691,59.7617212731,18.7155314727
 C,0,-3.5017890299,58.6325798885,18.425532368
 C,0,-4.0188813745,57.5909165805,19.2974433181
 C,0,-4.1317698735,55.2313170991,19.9478128469
 C,0,-3.822413715,53.8332655406,19.7642120014
 C,0,-4.3950309356,53.1837971406,20.8137256343
 C,0,-4.959347747,54.2109858295,21.6592435848
 C,0,-5.588859328,53.9562001737,22.8631137914
 H,0,-5.5971424351,52.938848022,23.2241163006
 C,0,-7.7235965201,58.0301809139,24.2837907921
 H,0,-8.3302750879,58.311167257,25.1312044689
 C,0,-5.9689026008,60.2756759357,20.4180103363
 H,0,-5.9903414666,61.2938033155,20.0591302737
 C,0,-3.6961248996,56.2514342817,19.1175360287
 H,0,-3.0297462865,55.9967806255,18.3065471209
 C,0,-8.1934843706,56.0644390732,26.5668892997
 H,0,-8.2085720099,55.1905678691,27.2135736796
 H,0,-9.223776481,56.3487393777,26.3518234041
 H,0,-7.7235880988,56.8850999454,27.1099381561
 C,0,-6.6446436314,53.3561819906,25.6599259876
 H,0,-5.5907663636,53.0943278309,25.7523225077
 H,0,-7.1471990208,52.5483162441,25.1268107049
 H,0,-7.0701247441,53.4238070175,26.6582585875
 C,0,-8.8708361836,60.8829454997,24.4412004734
 H,0,-8.5595677497,60.4878986855,25.4071911039
 H,0,-9.9227515094,60.6294330386,24.2972493642
 H,0,-8.7790657971,61.966858609,24.4635269257
 C,0,-7.7226968905,62.3361958657,21.8236984329
 H,0,-6.8787269009,62.7956104893,21.3222172998
 C,0,-8.8299867565,63.0506354991,21.997585869
 H,0,-9.7165780896,62.6351669986,22.4439248977
 H,0,-8.8960266942,64.0755168708,21.6717417762
 C,0,-4.032001826,61.1399724403,18.1844219164
 H,0,-4.1166264867,61.8764180526,18.9819612659
 H,0,-4.7879555822,61.3702465665,17.431929294
 H,0,-3.0497091021,61.2344124822,17.7260781598
 C,0,-2.3954959216,58.4582917776,17.5114418111
 H,0,-1.6325101523,57.7581073472,17.8319573173
 C,0,-2.262389296,59.0687235554,16.3378628682
 H,0,-3.013771351,59.7354710399,15.9518465058
 H,0,-1.4042366416,58.9005521775,15.7084251171
 C,0,-3.1046652287,53.2795572598,18.5815569623
 H,0,-2.0998647916,53.6977323795,18.5171502044
 H,0,-3.6312698848,53.5284893781,17.6599183131
 H,0,-3.0205403002,52.1976039671,18.6495931364
 C,0,-4.4334103151,51.7253695906,21.1168381443
 H,0,-3.9052548231,51.5109255791,22.0465419882
 H,0,-3.9674865079,51.1520582021,20.3189975804
 H,0,-5.4634919204,51.3865542547,21.2280811643
 O,0,-4.091,57.713,22.8370000002
 H,0,-4.348,57.157,23.5729999999
 H,0,-3.4600000001,58.3400000001,22.8459999999
 C,0,-9.2606337754,54.7998285682,17.7539700233
 H,0,-8.4564826568,54.5684746119,17.0625129371
 H,0,-9.9808596894,55.4437204815,17.2490484645
 H,0,-9.7648969955,53.8728322032,18.026936601
 N,0,-9.4877110318,55.8597540265,20.011107917
 H,0,-10.4845619973,55.7377677616,20.0804004433
 C,0,-8.7046037257,55.4712527852,18.9560446163
 C,0,-8.6791297359,56.433494989,20.9320571043
 H,0,-9.0180696809,56.8336884834,21.8651852791
 N,0,-7.4324475419,56.4303963368,20.5242077653
 C,0,-7.4333374237,55.8368233376,19.2951532385
 H,0,-6.5238522556,55.7143186854,18.7436242549
 Recover connectivity data from disk.
 Stoichiometry    C34H36FeN6O(1+,2)
 Framework group  C1[X(C34H36FeN6O)]
 Deg. of freedom   228
 Full point group                 C1      NOp   1
 Largest Abelian subgroup         C1      NOp   1
 Largest concise Abelian subgroup C1      NOp   1
                         Standard orientation:                         
 ---------------------------------------------------------------------
 Center     Atomic      Atomic             Coordinates (Angstroms)
 Number     Number       Type             X           Y           Z
 ---------------------------------------------------------------------
      1         26           0       -0.010712   -0.095335   -0.279699
      2          7           0        0.720276   -1.992520   -0.514589
      3          7           0        1.923298    0.538212   -0.275260
      4          7           0       -0.670453    1.754469   -0.215386
      5          7           0       -1.863060   -0.818826   -0.758541
      6          6           0       -0.017849   -3.127327   -0.664901
      7          6           0        0.838371   -4.266481   -0.909059
      8          6           0        2.115809   -3.816376   -0.784530
      9          6           0        2.022668   -2.396506   -0.520783
     10          6           0        3.062330   -0.199822   -0.201546
     11          6           0        4.220040    0.648755   -0.093171
     12          6           0        3.747630    1.933760   -0.020505
     13          6           0        2.304179    1.835101   -0.126167
     14          6           0        0.087227    2.884066   -0.331251
     15          6           0       -0.737775    4.031984   -0.606606
     16          6           0       -1.997575    3.544823   -0.828483
     17          6           0       -1.903412    2.101589   -0.683965
     18          6           0       -2.988849   -0.087895   -0.506703
     19          6           0       -4.149116   -0.940397   -0.401913
     20          6           0       -3.674317   -2.215268   -0.380735
     21          6           0       -2.244849   -2.112211   -0.566401
     22          6           0       -1.400265   -3.202751   -0.655307
     23          1           0       -1.843598   -4.187054   -0.655656
     24          6           0        3.121753   -1.567802   -0.429377
     25          1           0        4.096093   -2.032124   -0.443125
     26          6           0        1.462717    2.932815   -0.189571
     27          1           0        1.923165    3.909173   -0.166148
     28          6           0       -3.031008    1.293674   -0.603011
     29          1           0       -3.998828    1.769446   -0.662820
     30          6           0        3.397900   -4.565052   -0.916930
     31          1           0        3.211716   -5.621649   -1.093048
     32          1           0        3.992819   -4.469274   -0.008370
     33          1           0        3.987364   -4.177253   -1.748393
     34          6           0        0.345704   -5.643755   -1.193779
     35          1           0       -0.316488   -5.640860   -2.059374
     36          1           0       -0.212998   -6.036111   -0.343290
     37          1           0        1.174735   -6.316914   -1.398327
     38          6           0        5.634033    0.181708   -0.102472
     39          1           0        5.766098   -0.637503   -0.807838
     40          1           0        5.935778   -0.172630    0.884904
     41          1           0        6.293648    0.997608   -0.390574
     42          6           0        4.488394    3.169333    0.105098
     43          1           0        4.061194    4.027789   -0.400256
     44          6           0        5.619013    3.325192    0.786392
     45          1           0        6.065277    2.523416    1.348423
     46          1           0        6.125622    4.275244    0.827233
     47          6           0       -0.252220    5.434223   -0.727584
     48          1           0        0.714950    5.466739   -1.226689
     49          1           0       -0.138376    5.890226    0.257220
     50          1           0       -0.960641    6.027480   -1.302112
     51          6           0       -3.200443    4.251153   -1.207993
     52          1           0       -3.863528    3.715220   -1.877493
     53          6           0       -3.542480    5.467530   -0.794386
     54          1           0       -2.943910    6.022070   -0.092720
     55          1           0       -4.451616    5.941381   -1.125802
     56          6           0       -5.545557   -0.444000   -0.247091
     57          1           0       -5.835260    0.151083   -1.113458
     58          1           0       -5.634452    0.186603    0.637858
     59          1           0       -6.244021   -1.271970   -0.152518
     60          6           0       -4.417445   -3.499497   -0.243348
     61          1           0       -4.302690   -4.109043   -1.140326
     62          1           0       -5.478041   -3.317882   -0.086911
     63          1           0       -4.037268   -4.070690    0.603672
     64          8           0        0.215366   -0.024638   -2.565056
     65          1           0        0.408913   -0.958548   -2.650104
     66          1           0        0.294927    0.589815   -3.203404
     67          6           0       -1.846391   -0.288925    4.966755
     68          1           0       -2.803102    0.163309    4.724917
     69          1           0       -1.345921    0.330033    5.711529
     70          1           0       -2.024363   -1.271399    5.404003
     71          7           0        0.227993   -0.957020    3.733767
     72          1           0        0.706138   -1.332547    4.536108
     73          6           0       -1.024279   -0.400996    3.735279
     74          6           0        0.697405   -0.905953    2.465629
     75          1           0        1.657757   -1.269846    2.163854
     76          7           0       -0.182092   -0.352670    1.665047
     77          6           0       -1.257555   -0.031297    2.441579
     78          1           0       -2.119965    0.440599    2.017411
 ---------------------------------------------------------------------
 Rotational constants (GHZ):           0.0929578           0.0906114           0.0595120
 General basis read from cards:  (5D, 7F)
 There are   723 symmetry adapted cartesian basis functions of A   symmetry.
 There are   679 symmetry adapted basis functions of A   symmetry.
   679 basis functions,  1378 primitive gaussians,   723 cartesian basis functions
   158 alpha electrons      157 beta electrons
       nuclear repulsion energy      5962.1654611452 Hartrees.
 NAtoms=   78 NActive=   78 NUniq=   78 SFac= 1.00D+00 NAtFMM=   60 NAOKFM=T Big=T
 Integral buffers will be    131072 words long.
 Raffenetti 2 integral format.
 Two-electron integral symmetry is turned on.
 R6APFD:  NTU= -4 IXU= 1 FactS= 1.050
 Nuclear repulsion after empirical dispersion term =     5962.0101488945 Hartrees.
 One-electron integrals computed using PRISM.
 NBasis=   679 RedAO= T EigKep=  3.00D-04  NBF=   679
 NBsUse=   679 1.00D-06 EigRej= -1.00D+00 NBFU=   679
 ExpMin= 4.20D-02 ExpMax= 3.01D+05 ExpMxC= 2.91D+03 IAcc=3 IRadAn=         5 AccDes= 0.00D+00
 Harris functional with IExCor= 3731 and IRadAn=       5 diagonalized for initial guess.
 HarFok:  IExCor= 3731 AccDes= 0.00D+00 IRadAn=         5 IDoV= 1 UseB2=F ITyADJ=14
 ICtDFT=  3500011 ScaDFX=  1.000000  1.000000  1.000000  1.000000
 FoFCou: FMM=F IPFlag=           0 FMFlag=      100000 FMFlg1=        2001
         NFxFlg=           0 DoJE=T BraDBF=F KetDBF=T FulRan=T
         wScrn=  0.000000 ICntrl=       500 IOpCl=  0 I1Cent=   200000004 NGrid=           0
         NMat0=    1 NMatS0=      1 NMatT0=    0 NMatD0=    1 NMtDS0=    0 NMtDT0=    0
 Petite list used in FoFCou.
 Initial guess <Sx>= 0.0000 <Sy>= 0.0000 <Sz>= 0.5000 <S**2>= 0.7500 S= 0.5000
 Requested convergence on RMS density matrix=1.00D-08 within 999 cycles.
 Requested convergence on MAX density matrix=1.00D-06.
 Requested convergence on             energy=1.00D-06.
 No special actions if energy rises.
 EnCoef did   100 forward-backward iterations
 EnCoef did   100 forward-backward iterations
 EnCoef did   100 forward-backward iterations
 EnCoef did   100 forward-backward iterations
 EnCoef did     3 forward-backward iterations
 EnCoef did     2 forward-backward iterations
 EnCoef did     2 forward-backward iterations
 EnCoef did     4 forward-backward iterations
 EnCoef did     4 forward-backward iterations
 Restarting incremental Fock formation.
 Rare condition: small coef for last iteration:  0.000D+00
 Rare condition: small coef for last iteration:  0.000D+00
 Rare condition: small coef for last iteration:  0.000D+00
 Rare condition: small coef for last iteration:  0.000D+00
 Rare condition: small coef for last iteration:  0.000D+00
 Rare condition: small coef for last iteration:  0.000D+00
 Rare condition: small coef for last iteration:  0.000D+00
 Restarting incremental Fock formation.
 Restarting incremental Fock formation.
 SCF Done:  E(UAPFD) =  -2983.18672547     A.U. after   75 cycles
            NFock= 75  Conv=0.32D-08     -V/T= 2.0038
 <Sx>= 0.0000 <Sy>= 0.0000 <Sz>= 0.5000 <S**2>= 0.9340 S= 0.5881
 <L.S>=  0.00000000000    
 Annihilation of the first spin contaminant:
 S**2 before annihilation     0.9340,   after     0.7548

 **********************************************************************

            Population analysis using the SCF Density.

 **********************************************************************

 Orbital symmetries:
 Alpha Orbitals:
       Occupied  (A) (A) (A) (A) (A) (A) (A) (A) (A) (A) (A) (A)
                 (A) (A) (A) (A) (A) (A) (A) (A) (A) (A) (A) (A)
                 (A) (A) (A) (A) (A) (A) (A) (A) (A) (A) (A) (A)
                 (A) (A) (A) (A) (A) (A) (A) (A) (A) (A) (A) (A)
                 (A) (A) (A) (A) (A) (A) (A) (A) (A) (A) (A) (A)
                 (A) (A) (A) (A) (A) (A) (A) (A) (A) (A) (A) (A)
                 (A) (A) (A) (A) (A) (A) (A) (A) (A) (A) (A) (A)
                 (A) (A) (A) (A) (A) (A) (A) (A) (A) (A) (A) (A)
                 (A) (A) (A) (A) (A) (A) (A) (A) (A) (A) (A) (A)
                 (A) (A) (A) (A) (A) (A) (A) (A) (A) (A) (A) (A)
                 (A) (A) (A) (A) (A) (A) (A) (A) (A) (A) (A) (A)
                 (A) (A) (A) (A) (A) (A) (A) (A) (A) (A) (A) (A)
                 (A) (A) (A) (A) (A) (A) (A) (A) (A) (A) (A) (A)
                 (A) (A)
       Virtual   (A) (A) (A) (A) (A) (A) (A) (A) (A) (A) (A) (A)
                 (A) (A) (A) (A) (A) (A) (A) (A) (A) (A) (A) (A)
                 (A) (A) (A) (A) (A) (A) (A) (A) (A) (A) (A) (A)
                 (A) (A) (A) (A) (A) (A) (A) (A) (A) (A) (A) (A)
                 (A) (A) (A) (A) (A) (A) (A) (A) (A) (A) (A) (A)
                 (A) (A) (A) (A) (A) (A) (A) (A) (A) (A) (A) (A)
                 (A) (A) (A) (A) (A) (A) (A) (A) (A) (A) (A) (A)
                 (A) (A) (A) (A) (A) (A) (A) (A) (A) (A) (A) (A)
                 (A) (A) (A) (A) (A) (A) (A) (A) (A) (A) (A) (A)
                 (A) (A) (A) (A) (A) (A) (A) (A) (A) (A) (A) (A)
                 (A) (A) (A) (A) (A) (A) (A) (A) (A) (A) (A) (A)
                 (A) (A) (A) (A) (A) (A) (A) (A) (A) (A) (A) (A)
                 (A) (A) (A) (A) (A) (A) (A) (A) (A) (A) (A) (A)
                 (A) (A) (A) (A) (A) (A) (A) (A) (A) (A) (A) (A)
                 (A) (A) (A) (A) (A) (A) (A) (A) (A) (A) (A) (A)
                 (A) (A) (A) (A) (A) (A) (A) (A) (A) (A) (A) (A)
                 (A) (A) (A) (A) (A) (A) (A) (A) (A) (A) (A) (A)
                 (A) (A) (A) (A) (A) (A) (A) (A) (A) (A) (A) (A)
                 (A) (A) (A) (A) (A) (A) (A) (A) (A) (A) (A) (A)
                 (A) (A) (A) (A) (A) (A) (A) (A) (A) (A) (A) (A)
                 (A) (A) (A) (A) (A) (A) (A) (A) (A) (A) (A) (A)
                 (A) (A) (A) (A) (A) (A) (A) (A) (A) (A) (A) (A)
                 (A) (A) (A) (A) (A) (A) (A) (A) (A) (A) (A) (A)
                 (A) (A) (A) (A) (A) (A) (A) (A) (A) (A) (A) (A)
                 (A) (A) (A) (A) (A) (A) (A) (A) (A) (A) (A) (A)
                 (A) (A) (A) (A) (A) (A) (A) (A) (A) (A) (A) (A)
                 (A) (A) (A) (A) (A) (A) (A) (A) (A) (A) (A) (A)
                 (A) (A) (A) (A) (A) (A) (A) (A) (A) (A) (A) (A)
                 (A) (A) (A) (A) (A) (A) (A) (A) (A) (A) (A) (A)
                 (A) (A) (A) (A) (A) (A) (A) (A) (A) (A) (A) (A)
                 (A) (A) (A) (A) (A) (A) (A) (A) (A) (A) (A) (A)
                 (A) (A) (A) (A) (A) (A) (A) (A) (A) (A) (A) (A)
                 (A) (A) (A) (A) (A) (A) (A) (A) (A) (A) (A) (A)
                 (A) (A) (A) (A) (A) (A) (A) (A) (A) (A) (A) (A)
                 (A) (A) (A) (A) (A) (A) (A) (A) (A) (A) (A) (A)
                 (A) (A) (A) (A) (A) (A) (A) (A) (A) (A) (A) (A)
                 (A) (A) (A) (A) (A) (A) (A) (A) (A) (A) (A) (A)
                 (A) (A) (A) (A) (A) (A) (A) (A) (A) (A) (A) (A)
                 (A) (A) (A) (A) (A) (A) (A) (A) (A) (A) (A) (A)
                 (A) (A) (A) (A) (A) (A) (A) (A) (A) (A) (A) (A)
                 (A) (A) (A) (A) (A) (A) (A) (A) (A) (A) (A) (A)
                 (A) (A) (A) (A) (A) (A) (A) (A) (A) (A) (A) (A)
                 (A) (A) (A) (A) (A) (A) (A) (A) (A) (A) (A) (A)
                 (A) (A) (A) (A) (A)
 Beta  Orbitals:
       Occupied  (A) (A) (A) (A) (A) (A) (A) (A) (A) (A) (A) (A)
                 (A) (A) (A) (A) (A) (A) (A) (A) (A) (A) (A) (A)
                 (A) (A) (A) (A) (A) (A) (A) (A) (A) (A) (A) (A)
                 (A) (A) (A) (A) (A) (A) (A) (A) (A) (A) (A) (A)
                 (A) (A) (A) (A) (A) (A) (A) (A) (A) (A) (A) (A)
                 (A) (A) (A) (A) (A) (A) (A) (A) (A) (A) (A) (A)
                 (A) (A) (A) (A) (A) (A) (A) (A) (A) (A) (A) (A)
                 (A) (A) (A) (A) (A) (A) (A) (A) (A) (A) (A) (A)
                 (A) (A) (A) (A) (A) (A) (A) (A) (A) (A) (A) (A)
                 (A) (A) (A) (A) (A) (A) (A) (A) (A) (A) (A) (A)
                 (A) (A) (A) (A) (A) (A) (A) (A) (A) (A) (A) (A)
                 (A) (A) (A) (A) (A) (A) (A) (A) (A) (A) (A) (A)
                 (A) (A) (A) (A) (A) (A) (A) (A) (A) (A) (A) (A)
                 (A)
       Virtual   (A) (A) (A) (A) (A) (A) (A) (A) (A) (A) (A) (A)
                 (A) (A) (A) (A) (A) (A) (A) (A) (A) (A) (A) (A)
                 (A) (A) (A) (A) (A) (A) (A) (A) (A) (A) (A) (A)
                 (A) (A) (A) (A) (A) (A) (A) (A) (A) (A) (A) (A)
                 (A) (A) (A) (A) (A) (A) (A) (A) (A) (A) (A) (A)
                 (A) (A) (A) (A) (A) (A) (A) (A) (A) (A) (A) (A)
                 (A) (A) (A) (A) (A) (A) (A) (A) (A) (A) (A) (A)
                 (A) (A) (A) (A) (A) (A) (A) (A) (A) (A) (A) (A)
                 (A) (A) (A) (A) (A) (A) (A) (A) (A) (A) (A) (A)
                 (A) (A) (A) (A) (A) (A) (A) (A) (A) (A) (A) (A)
                 (A) (A) (A) (A) (A) (A) (A) (A) (A) (A) (A) (A)
                 (A) (A) (A) (A) (A) (A) (A) (A) (A) (A) (A) (A)
                 (A) (A) (A) (A) (A) (A) (A) (A) (A) (A) (A) (A)
                 (A) (A) (A) (A) (A) (A) (A) (A) (A) (A) (A) (A)
                 (A) (A) (A) (A) (A) (A) (A) (A) (A) (A) (A) (A)
                 (A) (A) (A) (A) (A) (A) (A) (A) (A) (A) (A) (A)
                 (A) (A) (A) (A) (A) (A) (A) (A) (A) (A) (A) (A)
                 (A) (A) (A) (A) (A) (A) (A) (A) (A) (A) (A) (A)
                 (A) (A) (A) (A) (A) (A) (A) (A) (A) (A) (A) (A)
                 (A) (A) (A) (A) (A) (A) (A) (A) (A) (A) (A) (A)
                 (A) (A) (A) (A) (A) (A) (A) (A) (A) (A) (A) (A)
                 (A) (A) (A) (A) (A) (A) (A) (A) (A) (A) (A) (A)
                 (A) (A) (A) (A) (A) (A) (A) (A) (A) (A) (A) (A)
                 (A) (A) (A) (A) (A) (A) (A) (A) (A) (A) (A) (A)
                 (A) (A) (A) (A) (A) (A) (A) (A) (A) (A) (A) (A)
                 (A) (A) (A) (A) (A) (A) (A) (A) (A) (A) (A) (A)
                 (A) (A) (A) (A) (A) (A) (A) (A) (A) (A) (A) (A)
                 (A) (A) (A) (A) (A) (A) (A) (A) (A) (A) (A) (A)
                 (A) (A) (A) (A) (A) (A) (A) (A) (A) (A) (A) (A)
                 (A) (A) (A) (A) (A) (A) (A) (A) (A) (A) (A) (A)
                 (A) (A) (A) (A) (A) (A) (A) (A) (A) (A) (A) (A)
                 (A) (A) (A) (A) (A) (A) (A) (A) (A) (A) (A) (A)
                 (A) (A) (A) (A) (A) (A) (A) (A) (A) (A) (A) (A)
                 (A) (A) (A) (A) (A) (A) (A) (A) (A) (A) (A) (A)
                 (A) (A) (A) (A) (A) (A) (A) (A) (A) (A) (A) (A)
                 (A) (A) (A) (A) (A) (A) (A) (A) (A) (A) (A) (A)
                 (A) (A) (A) (A) (A) (A) (A) (A) (A) (A) (A) (A)
                 (A) (A) (A) (A) (A) (A) (A) (A) (A) (A) (A) (A)
                 (A) (A) (A) (A) (A) (A) (A) (A) (A) (A) (A) (A)
                 (A) (A) (A) (A) (A) (A) (A) (A) (A) (A) (A) (A)
                 (A) (A) (A) (A) (A) (A) (A) (A) (A) (A) (A) (A)
                 (A) (A) (A) (A) (A) (A) (A) (A) (A) (A) (A) (A)
                 (A) (A) (A) (A) (A) (A) (A) (A) (A) (A) (A) (A)
                 (A) (A) (A) (A) (A) (A)
 The electronic state is 2-A.
 Alpha  occ. eigenvalues -- -256.37841 -30.24697 -26.09418 -26.09072 -26.06464
 Alpha  occ. eigenvalues --  -19.28961 -14.54527 -14.51318 -14.47274 -14.46972
 Alpha  occ. eigenvalues --  -14.46947 -14.46940 -10.38698 -10.35768 -10.33267
 Alpha  occ. eigenvalues --  -10.33258 -10.33164 -10.33162 -10.33080 -10.33061
 Alpha  occ. eigenvalues --  -10.32988 -10.32971 -10.32946 -10.30787 -10.30323
 Alpha  occ. eigenvalues --  -10.30294 -10.30204 -10.30147 -10.30136 -10.30120
 Alpha  occ. eigenvalues --  -10.29988 -10.29975 -10.29954 -10.29917 -10.29832
 Alpha  occ. eigenvalues --  -10.29593 -10.29188 -10.28987 -10.28244 -10.28233
 Alpha  occ. eigenvalues --  -10.28208 -10.28097 -10.27990 -10.27855 -10.27705
 Alpha  occ. eigenvalues --  -10.27650  -3.63604  -2.42057  -2.41331  -2.35544
 Alpha  occ. eigenvalues --   -1.17351  -1.15341  -1.08580  -1.07706  -1.07470
 Alpha  occ. eigenvalues --   -1.06612  -1.03202  -0.93149  -0.91853  -0.91513
 Alpha  occ. eigenvalues --   -0.91159  -0.91043  -0.90767  -0.90380  -0.90296
 Alpha  occ. eigenvalues --   -0.86427  -0.85154  -0.84843  -0.84054  -0.82781
 Alpha  occ. eigenvalues --   -0.82556  -0.80865  -0.79874  -0.78322  -0.78110
 Alpha  occ. eigenvalues --   -0.77926  -0.76406  -0.74753  -0.74701  -0.72744
 Alpha  occ. eigenvalues --   -0.71270  -0.70328  -0.69673  -0.68338  -0.67702
 Alpha  occ. eigenvalues --   -0.67260  -0.64815  -0.64033  -0.63194  -0.62823
 Alpha  occ. eigenvalues --   -0.61493  -0.61447  -0.61019  -0.59385  -0.58777
 Alpha  occ. eigenvalues --   -0.58453  -0.57889  -0.57639  -0.55490  -0.55110
 Alpha  occ. eigenvalues --   -0.54763  -0.54340  -0.54207  -0.53982  -0.53797
 Alpha  occ. eigenvalues --   -0.53579  -0.53181  -0.52960  -0.52860  -0.52342
 Alpha  occ. eigenvalues --   -0.52131  -0.51947  -0.51743  -0.51630  -0.51004
 Alpha  occ. eigenvalues --   -0.50541  -0.50422  -0.50191  -0.50047  -0.49902
 Alpha  occ. eigenvalues --   -0.49800  -0.49484  -0.49303  -0.49029  -0.48792
 Alpha  occ. eigenvalues --   -0.48427  -0.48202  -0.48015  -0.47649  -0.47329
 Alpha  occ. eigenvalues --   -0.47139  -0.46872  -0.46559  -0.46050  -0.45601
 Alpha  occ. eigenvalues --   -0.45462  -0.44583  -0.44092  -0.43824  -0.43220
 Alpha  occ. eigenvalues --   -0.42609  -0.42488  -0.41837  -0.41194  -0.40522
 Alpha  occ. eigenvalues --   -0.39476  -0.39388  -0.38961  -0.38602  -0.36822
 Alpha  occ. eigenvalues --   -0.36577  -0.34898  -0.33594  -0.33059  -0.31892
 Alpha  occ. eigenvalues --   -0.31411  -0.29307  -0.28285
 Alpha virt. eigenvalues --   -0.19310  -0.17074  -0.17048  -0.14656  -0.11398
 Alpha virt. eigenvalues --   -0.09277  -0.07637  -0.06829  -0.05133  -0.04653
 Alpha virt. eigenvalues --   -0.02707  -0.01730  -0.01612  -0.00700   0.00926
 Alpha virt. eigenvalues --    0.01339   0.02043   0.02537   0.03082   0.03255
 Alpha virt. eigenvalues --    0.03610   0.04042   0.04372   0.04769   0.04857
 Alpha virt. eigenvalues --    0.05263   0.05559   0.05811   0.06329   0.06734
 Alpha virt. eigenvalues --    0.06883   0.07129   0.07663   0.07978   0.08175
 Alpha virt. eigenvalues --    0.08378   0.08614   0.08655   0.09183   0.09267
 Alpha virt. eigenvalues --    0.09365   0.09784   0.09971   0.10504   0.10559
 Alpha virt. eigenvalues --    0.10787   0.11331   0.11746   0.11864   0.12056
 Alpha virt. eigenvalues --    0.12489   0.12844   0.12855   0.13559   0.13902
 Alpha virt. eigenvalues --    0.14420   0.15103   0.15444   0.15852   0.15986
 Alpha virt. eigenvalues --    0.16718   0.16827   0.17268   0.17726   0.18106
 Alpha virt. eigenvalues --    0.18238   0.19527   0.20095   0.20306   0.20939
 Alpha virt. eigenvalues --    0.21596   0.22191   0.23041   0.23724   0.23886
 Alpha virt. eigenvalues --    0.24940   0.25433   0.25960   0.26543   0.27133
 Alpha virt. eigenvalues --    0.27433   0.28626   0.28988   0.30488   0.31343
 Alpha virt. eigenvalues --    0.31437   0.32414   0.33327   0.33771   0.34418
 Alpha virt. eigenvalues --    0.34963   0.35181   0.37093   0.38366   0.38445
 Alpha virt. eigenvalues --    0.38679   0.39758   0.40039   0.40613   0.40727
 Alpha virt. eigenvalues --    0.40942   0.41702   0.42025   0.42335   0.42714
 Alpha virt. eigenvalues --    0.43263   0.43591   0.43999   0.44180   0.44596
 Alpha virt. eigenvalues --    0.44763   0.45271   0.45500   0.45760   0.46378
 Alpha virt. eigenvalues --    0.46551   0.47458   0.47721   0.48246   0.48781
 Alpha virt. eigenvalues --    0.48916   0.49358   0.49600   0.50355   0.50929
 Alpha virt. eigenvalues --    0.51143   0.51206   0.51563   0.52422   0.52653
 Alpha virt. eigenvalues --    0.52835   0.53422   0.54018   0.54520   0.55061
 Alpha virt. eigenvalues --    0.55170   0.55531   0.55877   0.56127   0.56385
 Alpha virt. eigenvalues --    0.56635   0.57153   0.57399   0.57572   0.58088
 Alpha virt. eigenvalues --    0.58392   0.58723   0.59887   0.60143   0.60523
 Alpha virt. eigenvalues --    0.61013   0.61428   0.62106   0.62267   0.62974
 Alpha virt. eigenvalues --    0.63257   0.63552   0.64364   0.64729   0.65308
 Alpha virt. eigenvalues --    0.65935   0.66243   0.66722   0.67186   0.67656
 Alpha virt. eigenvalues --    0.68063   0.68439   0.68680   0.69026   0.69333
 Alpha virt. eigenvalues --    0.69538   0.69992   0.70239   0.70624   0.71053
 Alpha virt. eigenvalues --    0.71443   0.71842   0.72720   0.73317   0.73684
 Alpha virt. eigenvalues --    0.74362   0.75250   0.75755   0.75914   0.76178
 Alpha virt. eigenvalues --    0.77127   0.77676   0.77986   0.78292   0.79057
 Alpha virt. eigenvalues --    0.79223   0.79435   0.79688   0.80123   0.80240
 Alpha virt. eigenvalues --    0.80824   0.81172   0.81496   0.81657   0.82334
 Alpha virt. eigenvalues --    0.82905   0.83277   0.83440   0.83810   0.84355
 Alpha virt. eigenvalues --    0.84528   0.84680   0.85430   0.85792   0.85937
 Alpha virt. eigenvalues --    0.86436   0.86774   0.86944   0.87068   0.87275
 Alpha virt. eigenvalues --    0.87767   0.88575   0.88932   0.89842   0.90224
 Alpha virt. eigenvalues --    0.90283   0.90388   0.90687   0.91375   0.91635
 Alpha virt. eigenvalues --    0.92341   0.92591   0.92946   0.93254   0.93707
 Alpha virt. eigenvalues --    0.93951   0.94689   0.95688   0.95732   0.96021
 Alpha virt. eigenvalues --    0.96434   0.97436   0.97554   0.97838   0.98267
 Alpha virt. eigenvalues --    0.99592   1.00490   1.00860   1.01922   1.02817
 Alpha virt. eigenvalues --    1.04095   1.04493   1.04912   1.05606   1.06688
 Alpha virt. eigenvalues --    1.07271   1.07494   1.08049   1.08253   1.08689
 Alpha virt. eigenvalues --    1.09157   1.09875   1.10118   1.10849   1.11069
 Alpha virt. eigenvalues --    1.11363   1.12576   1.12670   1.13279   1.14032
 Alpha virt. eigenvalues --    1.14315   1.15179   1.16013   1.17012   1.17741
 Alpha virt. eigenvalues --    1.18498   1.18852   1.19980   1.20300   1.20913
 Alpha virt. eigenvalues --    1.21984   1.22537   1.23123   1.24058   1.24385
 Alpha virt. eigenvalues --    1.25842   1.26144   1.26484   1.27334   1.27954
 Alpha virt. eigenvalues --    1.28449   1.28645   1.29068   1.29374   1.31027
 Alpha virt. eigenvalues --    1.31372   1.31938   1.33147   1.33929   1.34792
 Alpha virt. eigenvalues --    1.35515   1.36419   1.37284   1.37858   1.38063
 Alpha virt. eigenvalues --    1.38764   1.39444   1.39992   1.41432   1.41520
 Alpha virt. eigenvalues --    1.42248   1.43112   1.43581   1.44615   1.45557
 Alpha virt. eigenvalues --    1.46320   1.46905   1.47571   1.48755   1.50350
 Alpha virt. eigenvalues --    1.50924   1.51329   1.53013   1.53682   1.54140
 Alpha virt. eigenvalues --    1.55684   1.56065   1.56144   1.58421   1.59508
 Alpha virt. eigenvalues --    1.60004   1.60545   1.61427   1.62425   1.63775
 Alpha virt. eigenvalues --    1.63992   1.64939   1.65048   1.68107   1.68958
 Alpha virt. eigenvalues --    1.69322   1.69634   1.70473   1.70800   1.70975
 Alpha virt. eigenvalues --    1.71193   1.72290   1.73026   1.73162   1.73944
 Alpha virt. eigenvalues --    1.74394   1.74846   1.75936   1.76520   1.76974
 Alpha virt. eigenvalues --    1.77393   1.77942   1.78523   1.78932   1.79611
 Alpha virt. eigenvalues --    1.79693   1.80461   1.81190   1.81436   1.81834
 Alpha virt. eigenvalues --    1.82207   1.82848   1.83620   1.84641   1.85537
 Alpha virt. eigenvalues --    1.85930   1.86517   1.87404   1.88221   1.89192
 Alpha virt. eigenvalues --    1.90293   1.90752   1.90853   1.91229   1.91868
 Alpha virt. eigenvalues --    1.92595   1.93390   1.94586   1.95074   1.95991
 Alpha virt. eigenvalues --    1.96504   1.96729   1.97052   1.97767   1.98472
 Alpha virt. eigenvalues --    1.98666   1.99491   2.00649   2.01122   2.02262
 Alpha virt. eigenvalues --    2.02739   2.04099   2.04540   2.05767   2.06342
 Alpha virt. eigenvalues --    2.06798   2.07190   2.09077   2.09667   2.10637
 Alpha virt. eigenvalues --    2.10963   2.11206   2.12158   2.12404   2.13240
 Alpha virt. eigenvalues --    2.13792   2.14131   2.14749   2.15351   2.16300
 Alpha virt. eigenvalues --    2.16602   2.16996   2.17505   2.18034   2.18581
 Alpha virt. eigenvalues --    2.19034   2.19305   2.20032   2.20619   2.21138
 Alpha virt. eigenvalues --    2.21657   2.21740   2.22850   2.23156   2.23515
 Alpha virt. eigenvalues --    2.24478   2.25591   2.26148   2.26626   2.26779
 Alpha virt. eigenvalues --    2.27361   2.27781   2.28207   2.28425   2.29560
 Alpha virt. eigenvalues --    2.30248   2.30628   2.31584   2.32131   2.32565
 Alpha virt. eigenvalues --    2.33191   2.33359   2.34227   2.34511   2.35120
 Alpha virt. eigenvalues --    2.36240   2.36992   2.37856   2.38230   2.39232
 Alpha virt. eigenvalues --    2.39956   2.40903   2.42480   2.42886   2.43468
 Alpha virt. eigenvalues --    2.44180   2.44825   2.45688   2.46553   2.46938
 Alpha virt. eigenvalues --    2.47318   2.48007   2.49670   2.49936   2.50238
 Alpha virt. eigenvalues --    2.52045   2.52769   2.54159   2.54752   2.56034
 Alpha virt. eigenvalues --    2.57404   2.59198   2.60583   2.61602   2.62266
 Alpha virt. eigenvalues --    2.63093   2.64535   2.65152   2.66885   2.68472
 Alpha virt. eigenvalues --    2.69629   2.70502   2.71343   2.72362   2.76040
 Alpha virt. eigenvalues --    2.76442   2.78346   2.78488   2.80796   2.81926
 Alpha virt. eigenvalues --    2.83239   2.83685   2.85431   2.85954   2.87226
 Alpha virt. eigenvalues --    2.88178   2.89196   2.90485   2.92796   2.93940
 Alpha virt. eigenvalues --    2.94786   2.96489   3.01706   3.02876   3.04640
 Alpha virt. eigenvalues --    3.09768   3.12180   3.13300   3.19985   3.20160
 Alpha virt. eigenvalues --    3.26178   3.27549   3.29187   3.33700   3.34482
 Alpha virt. eigenvalues --    3.49582   3.55315   3.65876   3.73742   4.00183
 Alpha virt. eigenvalues --    4.09362
  Beta  occ. eigenvalues -- -256.37803 -30.22448 -26.06928 -26.06538 -26.05857
  Beta  occ. eigenvalues --  -19.28950 -14.54523 -14.51390 -14.47299 -14.47069
  Beta  occ. eigenvalues --  -14.47007 -14.46972 -10.38676 -10.35772 -10.33268
  Beta  occ. eigenvalues --  -10.33242 -10.33157 -10.33154 -10.33081 -10.33057
  Beta  occ. eigenvalues --  -10.32971 -10.32966 -10.32936 -10.30787 -10.30343
  Beta  occ. eigenvalues --  -10.30272 -10.30195 -10.30159 -10.30130 -10.30125
  Beta  occ. eigenvalues --  -10.29993 -10.29992 -10.29957 -10.29910 -10.29833
  Beta  occ. eigenvalues --  -10.29591 -10.29193 -10.28990 -10.28244 -10.28234
  Beta  occ. eigenvalues --  -10.28208 -10.28098 -10.27992 -10.27848 -10.27701
  Beta  occ. eigenvalues --  -10.27650  -3.58142  -2.34729  -2.33720  -2.33079
  Beta  occ. eigenvalues --   -1.17355  -1.15323  -1.08611  -1.07707  -1.07545
  Beta  occ. eigenvalues --   -1.06652  -1.03235  -0.93160  -0.91842  -0.91529
  Beta  occ. eigenvalues --   -0.91157  -0.91043  -0.90779  -0.90396  -0.90314
  Beta  occ. eigenvalues --   -0.86423  -0.85154  -0.84877  -0.84056  -0.82784
  Beta  occ. eigenvalues --   -0.82554  -0.80866  -0.79883  -0.78329  -0.78113
  Beta  occ. eigenvalues --   -0.77943  -0.76420  -0.74757  -0.74703  -0.72741
  Beta  occ. eigenvalues --   -0.71239  -0.70325  -0.69677  -0.68334  -0.67709
  Beta  occ. eigenvalues --   -0.67258  -0.64821  -0.64044  -0.63193  -0.62820
  Beta  occ. eigenvalues --   -0.61504  -0.61465  -0.61038  -0.59341  -0.58750
  Beta  occ. eigenvalues --   -0.58402  -0.57904  -0.57617  -0.55487  -0.55105
  Beta  occ. eigenvalues --   -0.54720  -0.54355  -0.54058  -0.53877  -0.53774
  Beta  occ. eigenvalues --   -0.53578  -0.53137  -0.52965  -0.52871  -0.52327
  Beta  occ. eigenvalues --   -0.52116  -0.51849  -0.51740  -0.51628  -0.50963
  Beta  occ. eigenvalues --   -0.50534  -0.50415  -0.50159  -0.49904  -0.49828
  Beta  occ. eigenvalues --   -0.49526  -0.49381  -0.49326  -0.48785  -0.48691
  Beta  occ. eigenvalues --   -0.48361  -0.48121  -0.48023  -0.47616  -0.47171
  Beta  occ. eigenvalues --   -0.46972  -0.46723  -0.46332  -0.45576  -0.45417
  Beta  occ. eigenvalues --   -0.44613  -0.44270  -0.43690  -0.43523  -0.43152
  Beta  occ. eigenvalues --   -0.42357  -0.41782  -0.41129  -0.40678  -0.39314
  Beta  occ. eigenvalues --   -0.38770  -0.38187  -0.37033  -0.36779  -0.36242
  Beta  occ. eigenvalues --   -0.34837  -0.33716  -0.33114  -0.31942  -0.31357
  Beta  occ. eigenvalues --   -0.29321  -0.28202
  Beta virt. eigenvalues --   -0.19643  -0.17395  -0.16759  -0.16172  -0.11612
  Beta virt. eigenvalues --   -0.11316  -0.09064  -0.07559  -0.06763  -0.05027
  Beta virt. eigenvalues --   -0.04634  -0.02622  -0.01714  -0.01497  -0.00665
  Beta virt. eigenvalues --    0.00968   0.01348   0.02043   0.02539   0.03086
  Beta virt. eigenvalues --    0.03260   0.03624   0.04046   0.04369   0.04767
  Beta virt. eigenvalues --    0.04879   0.05303   0.05559   0.05822   0.06336
  Beta virt. eigenvalues --    0.06759   0.06892   0.07139   0.07679   0.07982
  Beta virt. eigenvalues --    0.08194   0.08405   0.08622   0.08657   0.09190
  Beta virt. eigenvalues --    0.09269   0.09380   0.09804   0.09982   0.10509
  Beta virt. eigenvalues --    0.10578   0.10793   0.11368   0.11753   0.11877
  Beta virt. eigenvalues --    0.12064   0.12514   0.12853   0.12891   0.13594
  Beta virt. eigenvalues --    0.13924   0.14451   0.15113   0.15497   0.15891
  Beta virt. eigenvalues --    0.16071   0.16737   0.16823   0.17280   0.17770
  Beta virt. eigenvalues --    0.18126   0.18240   0.19728   0.20334   0.20500
  Beta virt. eigenvalues --    0.20974   0.21735   0.22322   0.23096   0.23830
  Beta virt. eigenvalues --    0.23899   0.24999   0.25490   0.25972   0.26554
  Beta virt. eigenvalues --    0.27179   0.27448   0.28759   0.29131   0.30543
  Beta virt. eigenvalues --    0.31372   0.31567   0.32565   0.33338   0.33785
  Beta virt. eigenvalues --    0.34428   0.35039   0.35255   0.37328   0.38394
  Beta virt. eigenvalues --    0.38479   0.38712   0.39783   0.40068   0.40694
  Beta virt. eigenvalues --    0.40775   0.40953   0.41762   0.42047   0.42341
  Beta virt. eigenvalues --    0.42766   0.43270   0.43642   0.44013   0.44202
  Beta virt. eigenvalues --    0.44656   0.44814   0.45360   0.45544   0.45791
  Beta virt. eigenvalues --    0.46424   0.46663   0.47505   0.47725   0.48243
  Beta virt. eigenvalues --    0.48799   0.48950   0.49381   0.49616   0.50391
  Beta virt. eigenvalues --    0.50921   0.51172   0.51265   0.51596   0.52440
  Beta virt. eigenvalues --    0.52695   0.52822   0.53424   0.54167   0.54562
  Beta virt. eigenvalues --    0.55094   0.55406   0.55538   0.55891   0.56157
  Beta virt. eigenvalues --    0.56394   0.56681   0.57157   0.57451   0.57602
  Beta virt. eigenvalues --    0.58189   0.58409   0.58717   0.59907   0.60198
  Beta virt. eigenvalues --    0.60592   0.61092   0.61479   0.62265   0.62300
  Beta virt. eigenvalues --    0.62990   0.63336   0.63587   0.64381   0.64811
  Beta virt. eigenvalues --    0.65344   0.65943   0.66254   0.66768   0.67214
  Beta virt. eigenvalues --    0.67688   0.68128   0.68480   0.68691   0.69052
  Beta virt. eigenvalues --    0.69394   0.69574   0.69998   0.70273   0.70859
  Beta virt. eigenvalues --    0.71113   0.71477   0.71960   0.72731   0.73364
  Beta virt. eigenvalues --    0.73689   0.74382   0.75277   0.75775   0.75934
  Beta virt. eigenvalues --    0.76191   0.77147   0.77680   0.78007   0.78308
  Beta virt. eigenvalues --    0.79102   0.79234   0.79468   0.79714   0.80139
  Beta virt. eigenvalues --    0.80266   0.80915   0.81182   0.81522   0.81669
  Beta virt. eigenvalues --    0.82378   0.82916   0.83274   0.83501   0.83904
  Beta virt. eigenvalues --    0.84429   0.84559   0.84689   0.85444   0.85802
  Beta virt. eigenvalues --    0.85985   0.86470   0.86797   0.87016   0.87063
  Beta virt. eigenvalues --    0.87601   0.87779   0.88587   0.88974   0.89837
  Beta virt. eigenvalues --    0.90285   0.90357   0.90471   0.90694   0.91386
  Beta virt. eigenvalues --    0.91687   0.92357   0.92614   0.92985   0.93290
  Beta virt. eigenvalues --    0.93722   0.93971   0.94720   0.95703   0.95810
  Beta virt. eigenvalues --    0.96031   0.96445   0.97470   0.97614   0.97851
  Beta virt. eigenvalues --    0.98305   0.99665   1.00562   1.00885   1.01950
  Beta virt. eigenvalues --    1.02902   1.04313   1.04518   1.04939   1.05701
  Beta virt. eigenvalues --    1.06735   1.07328   1.07528   1.08103   1.08399
  Beta virt. eigenvalues --    1.08708   1.09197   1.09938   1.10174   1.11051
  Beta virt. eigenvalues --    1.11120   1.11395   1.12656   1.12722   1.13288
  Beta virt. eigenvalues --    1.14043   1.14351   1.15402   1.16026   1.17040
  Beta virt. eigenvalues --    1.17787   1.18584   1.18890   1.20010   1.20331
  Beta virt. eigenvalues --    1.20947   1.21988   1.22592   1.23148   1.24113
  Beta virt. eigenvalues --    1.24389   1.25896   1.26175   1.26501   1.27351
  Beta virt. eigenvalues --    1.28045   1.28456   1.28650   1.29095   1.29405
  Beta virt. eigenvalues --    1.31036   1.31387   1.31949   1.33167   1.33951
  Beta virt. eigenvalues --    1.34815   1.35515   1.36423   1.37274   1.37875
  Beta virt. eigenvalues --    1.38081   1.38759   1.39445   1.40003   1.41453
  Beta virt. eigenvalues --    1.41544   1.42315   1.43194   1.43698   1.44648
  Beta virt. eigenvalues --    1.45608   1.46491   1.46964   1.47632   1.48789
  Beta virt. eigenvalues --    1.50386   1.50962   1.51345   1.53034   1.53724
  Beta virt. eigenvalues --    1.54305   1.55691   1.56086   1.56182   1.58442
  Beta virt. eigenvalues --    1.59520   1.60059   1.60565   1.61434   1.62432
  Beta virt. eigenvalues --    1.63911   1.64123   1.64978   1.65076   1.68143
  Beta virt. eigenvalues --    1.68964   1.69333   1.69644   1.70479   1.70812
  Beta virt. eigenvalues --    1.70997   1.71221   1.72310   1.73028   1.73205
  Beta virt. eigenvalues --    1.74007   1.74404   1.74854   1.75950   1.76531
  Beta virt. eigenvalues --    1.76962   1.77400   1.77928   1.78590   1.78945
  Beta virt. eigenvalues --    1.79616   1.79732   1.80470   1.81231   1.81470
  Beta virt. eigenvalues --    1.81878   1.82330   1.82973   1.83627   1.84812
  Beta virt. eigenvalues --    1.85627   1.86007   1.86565   1.87537   1.88393
  Beta virt. eigenvalues --    1.89256   1.90322   1.90757   1.90926   1.91345
  Beta virt. eigenvalues --    1.91890   1.92645   1.93512   1.94624   1.95129
  Beta virt. eigenvalues --    1.96047   1.96557   1.96740   1.97067   1.97785
  Beta virt. eigenvalues --    1.98498   1.98931   1.99520   2.00674   2.01169
  Beta virt. eigenvalues --    2.02299   2.02770   2.04118   2.04549   2.05809
  Beta virt. eigenvalues --    2.06381   2.06806   2.07232   2.09089   2.09735
  Beta virt. eigenvalues --    2.10666   2.10989   2.11227   2.12213   2.12512
  Beta virt. eigenvalues --    2.13413   2.13811   2.14152   2.14812   2.15413
  Beta virt. eigenvalues --    2.16410   2.16658   2.16996   2.17634   2.18318
  Beta virt. eigenvalues --    2.18597   2.19205   2.19389   2.20067   2.20770
  Beta virt. eigenvalues --    2.21190   2.21697   2.21778   2.22920   2.23205
  Beta virt. eigenvalues --    2.23574   2.24517   2.25757   2.26182   2.26663
  Beta virt. eigenvalues --    2.26785   2.27385   2.27811   2.28270   2.28580
  Beta virt. eigenvalues --    2.29695   2.30356   2.30661   2.31606   2.32153
  Beta virt. eigenvalues --    2.32579   2.33210   2.33446   2.34289   2.34602
  Beta virt. eigenvalues --    2.35207   2.36256   2.37166   2.38001   2.38246
  Beta virt. eigenvalues --    2.39264   2.40023   2.41130   2.42625   2.42973
  Beta virt. eigenvalues --    2.43543   2.44242   2.44908   2.45780   2.46612
  Beta virt. eigenvalues --    2.46958   2.47359   2.48054   2.49736   2.50030
  Beta virt. eigenvalues --    2.50264   2.52101   2.52794   2.54173   2.54847
  Beta virt. eigenvalues --    2.56056   2.57427   2.59239   2.60593   2.61614
  Beta virt. eigenvalues --    2.62277   2.63122   2.64556   2.65184   2.66930
  Beta virt. eigenvalues --    2.68472   2.69635   2.70517   2.71342   2.72361
  Beta virt. eigenvalues --    2.76034   2.76431   2.78359   2.78492   2.80806
  Beta virt. eigenvalues --    2.81934   2.83261   2.83689   2.85439   2.85929
  Beta virt. eigenvalues --    2.87222   2.88176   2.89208   2.90504   2.92881
  Beta virt. eigenvalues --    2.93939   2.94788   2.96534   3.01707   3.02899
  Beta virt. eigenvalues --    3.04651   3.09771   3.12236   3.13323   3.19986
  Beta virt. eigenvalues --    3.20165   3.26175   3.27552   3.29245   3.33707
  Beta virt. eigenvalues --    3.34479   3.53862   3.59080   3.69451   3.75815
  Beta virt. eigenvalues --    4.02021   4.10841
          Condensed to atoms (all electrons):
          Atomic-Atomic Spin Densities.
 Mulliken charges and spin densities:
               1          2
     1  Fe   0.881240   1.099224
     2  N   -0.658029  -0.029021
     3  N   -0.651200  -0.021177
     4  N   -0.634212  -0.040688
     5  N   -0.602657  -0.024147
     6  C    0.291491   0.001171
     7  C    0.038991   0.000024
     8  C    0.039736  -0.001926
     9  C    0.273863   0.004597
    10  C    0.277861   0.004158
    11  C    0.040802   0.014781
    12  C    0.003895   0.003740
    13  C    0.320892   0.010661
    14  C    0.305555   0.009839
    15  C    0.050040  -0.003253
    16  C    0.001534   0.002571
    17  C    0.281384   0.006316
    18  C    0.253158   0.008819
    19  C    0.053179   0.003596
    20  C    0.042749   0.008373
    21  C    0.304230   0.003500
    22  C   -0.293483  -0.013030
    23  H    0.190887   0.000649
    24  C   -0.287864  -0.014222
    25  H    0.188447   0.000677
    26  C   -0.291603  -0.009075
    27  H    0.192204   0.000462
    28  C   -0.285712  -0.007304
    29  H    0.196606   0.000473
    30  C   -0.611149   0.000010
    31  H    0.203942  -0.000113
    32  H    0.198941  -0.000024
    33  H    0.204489  -0.000036
    34  C   -0.610785  -0.000196
    35  H    0.203641   0.000035
    36  H    0.201625   0.000073
    37  H    0.202956  -0.000133
    38  C   -0.613079  -0.001375
    39  H    0.196285   0.000423
    40  H    0.201678   0.000976
    41  H    0.214006   0.000232
    42  C   -0.150953  -0.003425
    43  H    0.179273   0.000195
    44  C   -0.390299   0.005885
    45  H    0.185779  -0.000290
    46  H    0.193551  -0.000339
    47  C   -0.612773  -0.000021
    48  H    0.193663   0.000011
    49  H    0.206643  -0.000078
    50  H    0.211163  -0.000105
    51  C   -0.153661  -0.001854
    52  H    0.181254   0.000137
    53  C   -0.393622   0.002893
    54  H    0.187942  -0.000138
    55  H    0.192947  -0.000196
    56  C   -0.609810  -0.000367
    57  H    0.206835   0.000215
    58  H    0.201372   0.000374
    59  H    0.203453  -0.000009
    60  C   -0.611208  -0.000840
    61  H    0.207633   0.000519
    62  H    0.203207  -0.000068
    63  H    0.200970   0.000539
    64  O   -0.806175  -0.000504
    65  H    0.477812  -0.000284
    66  H    0.461248   0.001174
    67  C   -0.602589  -0.000195
    68  H    0.222794  -0.000021
    69  H    0.217392   0.000133
    70  H    0.214113  -0.000257
    71  N   -0.630098   0.001790
    72  H    0.389724   0.000018
    73  C    0.284601  -0.001942
    74  C    0.266640   0.010349
    75  H    0.238427  -0.000510
    76  N   -0.461448  -0.033174
    77  C   -0.039284   0.000809
    78  H    0.216947  -0.000086
 Sum of Mulliken charges =   1.00000   1.00000
 Mulliken charges and spin densities with hydrogens summed into heavy atoms:
               1          2
     1  Fe   0.881240   1.099224
     2  N   -0.658029  -0.029021
     3  N   -0.651200  -0.021177
     4  N   -0.634212  -0.040688
     5  N   -0.602657  -0.024147
     6  C    0.291491   0.001171
     7  C    0.038991   0.000024
     8  C    0.039736  -0.001926
     9  C    0.273863   0.004597
    10  C    0.277861   0.004158
    11  C    0.040802   0.014781
    12  C    0.003895   0.003740
    13  C    0.320892   0.010661
    14  C    0.305555   0.009839
    15  C    0.050040  -0.003253
    16  C    0.001534   0.002571
    17  C    0.281384   0.006316
    18  C    0.253158   0.008819
    19  C    0.053179   0.003596
    20  C    0.042749   0.008373
    21  C    0.304230   0.003500
    22  C   -0.102596  -0.012381
    24  C   -0.099417  -0.013545
    26  C   -0.099399  -0.008613
    28  C   -0.089105  -0.006831
    30  C   -0.003776  -0.000163
    34  C   -0.002563  -0.000221
    38  C   -0.001110   0.000257
    42  C    0.028320  -0.003230
    44  C   -0.010968   0.005257
    47  C   -0.001304  -0.000193
    51  C    0.027593  -0.001717
    53  C   -0.012733   0.002559
    56  C    0.001849   0.000213
    60  C    0.000602   0.000150
    64  O    0.132886   0.000385
    67  C    0.051711  -0.000339
    71  N   -0.240374   0.001808
    73  C    0.284601  -0.001942
    74  C    0.505067   0.009839
    76  N   -0.461448  -0.033174
    77  C    0.177663   0.000723
 Electronic spatial extent (au):  <R**2>=          19921.4916
 Charge=              1.0000 electrons
 Dipole moment (field-independent basis, Debye):
    X=              0.1595    Y=             -2.2655    Z=              4.1423  Tot=              4.7240
 Quadrupole moment (field-independent basis, Debye-Ang):
   XX=           -184.4161   YY=           -187.8649   ZZ=           -199.9925
   XY=             -2.3414   XZ=              0.5694   YZ=             -6.3303
 Traceless Quadrupole moment (field-independent basis, Debye-Ang):
   XX=              6.3417   YY=              2.8929   ZZ=             -9.2347
   XY=             -2.3414   XZ=              0.5694   YZ=             -6.3303
 Octapole moment (field-independent basis, Debye-Ang**2):
  XXX=              0.9685  YYY=              2.6767  ZZZ=            146.4265  XYY=              0.4622
  XXY=              6.3056  XXZ=             11.3292  XZZ=             -4.9279  YZZ=            -48.6577
  YYZ=            -38.8572  XYZ=             12.5761
 Hexadecapole moment (field-independent basis, Debye-Ang**3):
 XXXX=         -10292.2132 YYYY=          -9935.4039 ZZZZ=          -2407.7431 XXXY=            133.3897
 XXXZ=            168.9721 YYYX=           -122.4246 YYYZ=             90.3995 ZZZX=            -95.2131
 ZZZY=           -196.5329 XXYY=          -3290.3437 XXZZ=          -2496.7179 YYZZ=          -2460.9301
 XXYZ=              5.2915 YYXZ=             36.0066 ZZXY=            -55.9592
 N-N= 5.962010148894D+03 E-N=-1.889862750904D+04  KE= 2.971972662097D+03
                          Isotropic Fermi Contact Couplings
        Atom                 a.u.       MegaHertz       Gauss      10(-4) cm-1
     1  Fe(57)             0.12519      18.15727       6.47896       6.05661
     2  N(14)             -0.02539      -8.20429      -2.92750      -2.73666
     3  N(14)             -0.00818      -2.64373      -0.94335      -0.88185
     4  N(14)             -0.02881      -9.30812      -3.32137      -3.10485
     5  N(14)             -0.00405      -1.30917      -0.46715      -0.43669
     6  C(13)             -0.00071      -0.79986      -0.28541      -0.26680
     7  C(13)             -0.00063      -0.70767      -0.25252      -0.23605
     8  C(13)             -0.00090      -1.01157      -0.36095      -0.33742
     9  C(13)              0.00002       0.01845       0.00658       0.00616
    10  C(13)              0.00074       0.83643       0.29846       0.27900
    11  C(13)              0.00178       2.00448       0.71525       0.66862
    12  C(13)             -0.00002      -0.02555      -0.00912      -0.00852
    13  C(13)              0.00097       1.09064       0.38917       0.36380
    14  C(13)              0.00015       0.16665       0.05947       0.05559
    15  C(13)             -0.00128      -1.44281      -0.51483      -0.48127
    16  C(13)             -0.00060      -0.67923      -0.24237      -0.22657
    17  C(13)              0.00001       0.01004       0.00358       0.00335
    18  C(13)              0.00293       3.29483       1.17568       1.09904
    19  C(13)              0.00035       0.39753       0.14185       0.13260
    20  C(13)              0.00082       0.92734       0.33090       0.30933
    21  C(13)              0.00003       0.03428       0.01223       0.01143
    22  C(13)             -0.00167      -1.87764      -0.66999      -0.62631
    23  H(1)               0.00022       0.97670       0.34851       0.32579
    24  C(13)             -0.00186      -2.08597      -0.74433      -0.69580
    25  H(1)               0.00023       1.02551       0.36593       0.34207
    26  C(13)             -0.00132      -1.48911      -0.53135      -0.49671
    27  H(1)               0.00018       0.81930       0.29235       0.27329
    28  C(13)             -0.00110      -1.23594      -0.44101      -0.41226
    29  H(1)               0.00018       0.81808       0.29191       0.27288
    30  C(13)             -0.00002      -0.02245      -0.00801      -0.00749
    31  H(1)              -0.00005      -0.20891      -0.07455      -0.06969
    32  H(1)               0.00001       0.03820       0.01363       0.01274
    33  H(1)               0.00002       0.09345       0.03335       0.03117
    34  C(13)             -0.00011      -0.12519      -0.04467      -0.04176
    35  H(1)               0.00006       0.24920       0.08892       0.08312
    36  H(1)               0.00004       0.19997       0.07136       0.06670
    37  H(1)              -0.00006      -0.25849      -0.09224      -0.08622
    38  C(13)             -0.00046      -0.51487      -0.18372      -0.17174
    39  H(1)               0.00019       0.82740       0.29524       0.27599
    40  H(1)               0.00051       2.28034       0.81368       0.76064
    41  H(1)               0.00007       0.33027       0.11785       0.11017
    42  C(13)             -0.00062      -0.69467      -0.24788      -0.23172
    43  H(1)               0.00006       0.28832       0.10288       0.09617
    44  C(13)              0.00065       0.72788       0.25973       0.24279
    45  H(1)              -0.00009      -0.39420      -0.14066      -0.13149
    46  H(1)              -0.00011      -0.48861      -0.17435      -0.16298
    47  C(13)             -0.00003      -0.03204      -0.01143      -0.01069
    48  H(1)              -0.00003      -0.13382      -0.04775      -0.04464
    49  H(1)              -0.00004      -0.18118      -0.06465      -0.06043
    50  H(1)              -0.00004      -0.18658      -0.06658      -0.06224
    51  C(13)             -0.00033      -0.37510      -0.13384      -0.12512
    52  H(1)               0.00004       0.16915       0.06036       0.05642
    53  C(13)              0.00028       0.31274       0.11159       0.10432
    54  H(1)              -0.00004      -0.19863      -0.07088      -0.06626
    55  H(1)              -0.00007      -0.29341      -0.10470      -0.09787
    56  C(13)             -0.00009      -0.10092      -0.03601      -0.03366
    57  H(1)               0.00007       0.29417       0.10497       0.09812
    58  H(1)               0.00014       0.61610       0.21984       0.20551
    59  H(1)              -0.00001      -0.03101      -0.01107      -0.01034
    60  C(13)             -0.00031      -0.35406      -0.12634      -0.11810
    61  H(1)               0.00023       1.02194       0.36465       0.34088
    62  H(1)              -0.00004      -0.16850      -0.06013      -0.05621
    63  H(1)               0.00025       1.13527       0.40509       0.37869
    64  O(17)              0.00903      -5.47362      -1.95313      -1.82580
    65  H(1)              -0.00023      -1.01564      -0.36241      -0.33878
    66  H(1)               0.00058       2.61035       0.93144       0.87072
    67  C(13)             -0.00015      -0.16909      -0.06034      -0.05640
    68  H(1)              -0.00002      -0.07916      -0.02824      -0.02640
    69  H(1)               0.00008       0.35788       0.12770       0.11938
    70  H(1)              -0.00012      -0.54030      -0.19279      -0.18022
    71  N(14)             -0.00017      -0.05506      -0.01965      -0.01836
    72  H(1)               0.00002       0.07033       0.02510       0.02346
    73  C(13)             -0.00156      -1.75507      -0.62625      -0.58543
    74  C(13)              0.00450       5.06004       1.80555       1.68785
    75  H(1)              -0.00027      -1.20817      -0.43111      -0.40300
    76  N(14)             -0.03251     -10.50274      -3.74764      -3.50334
    77  C(13)             -0.00134      -1.51178      -0.53944      -0.50428
    78  H(1)              -0.00012      -0.53988      -0.19264      -0.18008
 --------------------------------------------------------
       Center         ----  Spin Dipole Couplings  ----
                      3XX-RR        3YY-RR        3ZZ-RR
 --------------------------------------------------------
     1   Atom        1.000510     -2.377494      1.376984
     2   Atom        0.006291     -0.009378      0.003087
     3   Atom        0.001499     -0.011207      0.009708
     4   Atom        0.020244      0.009541     -0.029785
     5   Atom       -0.000505     -0.006169      0.006674
     6   Atom       -0.005269      0.007746     -0.002477
     7   Atom       -0.002365      0.002338      0.000027
     8   Atom        0.000403      0.001430     -0.001832
     9   Atom       -0.002159      0.002430     -0.000271
    10   Atom        0.007850     -0.007236     -0.000614
    11   Atom       -0.005118     -0.009824      0.014942
    12   Atom       -0.001738     -0.003417      0.005155
    13   Atom       -0.001502     -0.004757      0.006259
    14   Atom       -0.009320      0.002933      0.006388
    15   Atom       -0.001140      0.002343     -0.001203
    16   Atom       -0.001798     -0.001986      0.003784
    17   Atom       -0.004250      0.001938      0.002311
    18   Atom        0.010187     -0.009889     -0.000298
    19   Atom        0.001787     -0.004321      0.002534
    20   Atom       -0.003398     -0.004749      0.008147
    21   Atom        0.002153     -0.000778     -0.001375
    22   Atom        0.003958      0.011945     -0.015903
    23   Atom       -0.000448      0.001955     -0.001507
    24   Atom        0.011358      0.005355     -0.016714
    25   Atom        0.001439      0.000084     -0.001524
    26   Atom        0.001499      0.009373     -0.010872
    27   Atom       -0.000499      0.002163     -0.001664
    28   Atom        0.008005      0.001716     -0.009721
    29   Atom        0.002039     -0.000374     -0.001665
    30   Atom       -0.000023      0.000587     -0.000564
    31   Atom       -0.000151      0.000615     -0.000464
    32   Atom        0.000200      0.000423     -0.000623
    33   Atom        0.000246      0.000299     -0.000546
    34   Atom       -0.000665      0.001181     -0.000516
    35   Atom       -0.000677      0.001183     -0.000506
    36   Atom       -0.000640      0.001258     -0.000619
    37   Atom       -0.000496      0.000942     -0.000446
    38   Atom        0.001500     -0.000996     -0.000504
    39   Atom        0.001421     -0.000624     -0.000797
    40   Atom        0.001353     -0.000728     -0.000625
    41   Atom        0.001359     -0.000646     -0.000713
    42   Atom        0.000914      0.001296     -0.002210
    43   Atom        0.000348      0.000475     -0.000823
    44   Atom       -0.000030     -0.002265      0.002294
    45   Atom        0.000558     -0.000152     -0.000407
    46   Atom        0.000184      0.000272     -0.000456
    47   Atom       -0.000615      0.001233     -0.000618
    48   Atom       -0.000744      0.001433     -0.000690
    49   Atom       -0.000596      0.001260     -0.000664
    50   Atom       -0.000483      0.001021     -0.000539
    51   Atom        0.000131      0.001122     -0.001253
    52   Atom        0.000279      0.000366     -0.000645
    53   Atom       -0.000548     -0.000124      0.000673
    54   Atom       -0.000198      0.000604     -0.000405
    55   Atom        0.000129      0.000224     -0.000353
    56   Atom        0.002034     -0.000903     -0.001131
    57   Atom        0.001402     -0.000702     -0.000700
    58   Atom        0.001544     -0.000775     -0.000769
    59   Atom        0.001278     -0.000624     -0.000654
    60   Atom        0.000485      0.000272     -0.000757
    61   Atom        0.000236      0.000425     -0.000660
    62   Atom        0.000711     -0.000076     -0.000635
    63   Atom        0.000171      0.000581     -0.000752
    64   Atom        0.001549     -0.020965      0.019415
    65   Atom       -0.008313     -0.006039      0.014352
    66   Atom       -0.005157     -0.004480      0.009637
    67   Atom       -0.000475     -0.000577      0.001052
    68   Atom       -0.000267     -0.000747      0.001014
    69   Atom       -0.000466     -0.000626      0.001092
    70   Atom       -0.000361     -0.000655      0.001016
    71   Atom       -0.003422      0.001379      0.002042
    72   Atom       -0.001235     -0.000967      0.002202
    73   Atom        0.000040     -0.003496      0.003456
    74   Atom       -0.005811      0.001023      0.004788
    75   Atom       -0.000055     -0.002653      0.002709
    76   Atom        0.009842      0.001762     -0.011604
    77   Atom       -0.007568     -0.001865      0.009433
    78   Atom        0.001008     -0.004092      0.003084
 --------------------------------------------------------
                        XY            XZ            YZ
 --------------------------------------------------------
     1   Atom        1.557140     -0.381715      1.385431
     2   Atom        0.004528     -0.002553      0.002946
     3   Atom       -0.000368      0.044763      0.021823
     4   Atom        0.006180      0.009795      0.006368
     5   Atom       -0.001735     -0.051107     -0.016959
     6   Atom       -0.001831     -0.001105     -0.000107
     7   Atom        0.000126      0.000345     -0.001028
     8   Atom       -0.002141      0.000260     -0.000888
     9   Atom       -0.006397      0.001311     -0.000628
    10   Atom       -0.000475     -0.002811     -0.000301
    11   Atom        0.000509     -0.002624     -0.003246
    12   Atom        0.002677     -0.005512     -0.000732
    13   Atom        0.007944     -0.003794     -0.004590
    14   Atom       -0.002707     -0.001221      0.001942
    15   Atom        0.000588     -0.000154     -0.000960
    16   Atom       -0.001699     -0.001072     -0.000869
    17   Atom       -0.006494     -0.000290     -0.000653
    18   Atom       -0.001952      0.006415     -0.001007
    19   Atom        0.001341      0.005432      0.003433
    20   Atom        0.003007      0.006169      0.001766
    21   Atom        0.007666      0.004854      0.004980
    22   Atom        0.003732      0.000782      0.000000
    23   Atom        0.000925      0.000128      0.000360
    24   Atom       -0.004333      0.000152      0.001483
    25   Atom       -0.001205     -0.000108      0.000182
    26   Atom        0.003908     -0.000471      0.000899
    27   Atom        0.001451      0.000091      0.000159
    28   Atom       -0.004742      0.000821     -0.000035
    29   Atom       -0.001705      0.000367     -0.000253
    30   Atom       -0.000939     -0.000057      0.000077
    31   Atom       -0.000658     -0.000087      0.000160
    32   Atom       -0.000954      0.000034     -0.000037
    33   Atom       -0.000938     -0.000306      0.000322
    34   Atom       -0.000141     -0.000022      0.000188
    35   Atom        0.000124      0.000031      0.000544
    36   Atom        0.000063      0.000003      0.000051
    37   Atom       -0.000275     -0.000049      0.000242
    38   Atom       -0.000253     -0.000077     -0.000054
    39   Atom       -0.000462     -0.000261      0.000110
    40   Atom       -0.000271      0.000499     -0.000126
    41   Atom        0.000265     -0.000084      0.000054
    42   Atom        0.001792      0.001759     -0.000771
    43   Atom        0.001199      0.000037      0.000004
    44   Atom       -0.000294     -0.003614      0.001675
    45   Atom        0.000311      0.000369      0.000015
    46   Atom        0.000767     -0.000027      0.000171
    47   Atom       -0.000118      0.000044     -0.000254
    48   Atom        0.000206     -0.000009     -0.000342
    49   Atom       -0.000070     -0.000014      0.000153
    50   Atom       -0.000245      0.000012     -0.000249
    51   Atom       -0.001408      0.000782      0.000341
    52   Atom       -0.001139      0.000388     -0.000440
    53   Atom        0.000263     -0.001368     -0.001573
    54   Atom       -0.000374      0.000054      0.000083
    55   Atom       -0.000556      0.000094     -0.000191
    56   Atom       -0.000082      0.000394      0.000009
    57   Atom       -0.000190      0.000308     -0.000062
    58   Atom       -0.000289     -0.000453      0.000073
    59   Atom        0.000262     -0.000063     -0.000031
    60   Atom        0.001265      0.000290      0.000232
    61   Atom        0.001039      0.000182      0.000263
    62   Atom        0.000937     -0.000073     -0.000040
    63   Atom        0.001145     -0.000225     -0.000348
    64   Atom        0.005433      0.003184     -0.010201
    65   Atom       -0.001565     -0.004541      0.010007
    66   Atom        0.000649     -0.001275     -0.004543
    67   Atom       -0.000075     -0.000454      0.000270
    68   Atom       -0.000036     -0.000927      0.000116
    69   Atom       -0.000045     -0.000417      0.000127
    70   Atom        0.000129     -0.000580     -0.000332
    71   Atom        0.002886      0.002011      0.003273
    72   Atom       -0.000154      0.000705     -0.000923
    73   Atom        0.000280     -0.000507      0.003094
    74   Atom        0.004205      0.006325     -0.004537
    75   Atom       -0.002727      0.005045     -0.004085
    76   Atom        0.002708      0.001412     -0.016066
    77   Atom       -0.002829     -0.002463      0.006225
    78   Atom       -0.001786     -0.006941      0.002185
 --------------------------------------------------------


 ---------------------------------------------------------------------------------
              Anisotropic Spin Dipole Couplings in Principal Axis System
 ---------------------------------------------------------------------------------

       Atom             a.u.   MegaHertz   Gauss  10(-4) cm-1        Axes

              Baa    -3.4127   -59.084   -21.082   -19.708 -0.3407  0.8955 -0.2862
     1 Fe(57) Bbb     1.5340    26.558     9.476     8.859  0.8749  0.1906 -0.4452
              Bcc     1.8787    32.526    11.606    10.849  0.3442  0.4021  0.8485
 
              Baa    -0.0114    -0.442    -0.158    -0.147 -0.2722  0.9326 -0.2369
     2 N(14)  Bbb     0.0033     0.127     0.045     0.042  0.2928  0.3148  0.9029
              Bcc     0.0082     0.315     0.112     0.105  0.9166  0.1764 -0.3587
 
              Baa    -0.0463    -1.784    -0.637    -0.595 -0.6229 -0.4181  0.6612
     3 N(14)  Bbb    -0.0083    -0.319    -0.114    -0.106 -0.4709  0.8753  0.1099
              Bcc     0.0545     2.103     0.750     0.702  0.6247  0.2429  0.7421
 
              Baa    -0.0323    -1.245    -0.444    -0.415 -0.1678 -0.1241  0.9780
     4 N(14)  Bbb     0.0068     0.262     0.093     0.087 -0.4399  0.8972  0.0384
              Bcc     0.0255     0.983     0.351     0.328  0.8822  0.4237  0.2052
 
              Baa    -0.0518    -2.000    -0.714    -0.667  0.6825  0.2770  0.6763
     5 N(14)  Bbb    -0.0045    -0.175    -0.062    -0.058 -0.3258  0.9437 -0.0577
              Bcc     0.0564     2.175     0.776     0.725 -0.6542 -0.1809  0.7343
 
              Baa    -0.0059    -0.789    -0.282    -0.263  0.9420  0.1290  0.3098
     6 C(13)  Bbb    -0.0021    -0.284    -0.101    -0.095 -0.3063 -0.0465  0.9508
              Bcc     0.0080     1.073     0.383     0.358 -0.1371  0.9906  0.0043
 
              Baa    -0.0024    -0.326    -0.116    -0.109  0.9845 -0.0615 -0.1640
     7 C(13)  Bbb    -0.0003    -0.040    -0.014    -0.013  0.1752  0.3503  0.9201
              Bcc     0.0027     0.366     0.131     0.122 -0.0009  0.9346 -0.3557
 
              Baa    -0.0021    -0.284    -0.101    -0.095  0.2054  0.3527  0.9129
     8 C(13)  Bbb    -0.0011    -0.154    -0.055    -0.051  0.7728  0.5139 -0.3724
              Bcc     0.0033     0.438     0.156     0.146 -0.6005  0.7820 -0.1670
 
              Baa    -0.0067    -0.904    -0.323    -0.302  0.8186  0.5634 -0.1113
     9 C(13)  Bbb    -0.0004    -0.055    -0.020    -0.018 -0.0062  0.2024  0.9793
              Bcc     0.0071     0.959     0.342     0.320 -0.5743  0.8010 -0.1692
 
              Baa    -0.0073    -0.976    -0.348    -0.326  0.0430  0.9971  0.0632
    10 C(13)  Bbb    -0.0014    -0.192    -0.069    -0.064  0.2857 -0.0729  0.9556
              Bcc     0.0087     1.168     0.417     0.390  0.9574 -0.0231 -0.2880
 
              Baa    -0.0102    -1.375    -0.491    -0.459 -0.0348  0.9917  0.1242
    11 C(13)  Bbb    -0.0055    -0.732    -0.261    -0.244  0.9913  0.0185  0.1305
              Bcc     0.0157     2.107     0.752     0.703 -0.1271 -0.1276  0.9836
 
              Baa    -0.0063    -0.845    -0.302    -0.282  0.7339 -0.6020  0.3147
    12 C(13)  Bbb    -0.0022    -0.300    -0.107    -0.100  0.4605  0.7815  0.4210
              Bcc     0.0085     1.145     0.409     0.382 -0.4994 -0.1640  0.8507
 
              Baa    -0.0113    -1.520    -0.542    -0.507 -0.6095  0.7892  0.0745
    13 C(13)  Bbb    -0.0002    -0.027    -0.010    -0.009  0.6221  0.4179  0.6621
              Bcc     0.0115     1.547     0.552     0.516 -0.4914 -0.4499  0.7457
 
              Baa    -0.0099    -1.333    -0.476    -0.445  0.9788  0.1985  0.0496
    14 C(13)  Bbb     0.0024     0.318     0.113     0.106 -0.1529  0.8709 -0.4671
              Bcc     0.0076     1.015     0.362     0.339 -0.1359  0.4496  0.8828
 
              Baa    -0.0014    -0.194    -0.069    -0.065  0.0229  0.2422  0.9700
    15 C(13)  Bbb    -0.0012    -0.166    -0.059    -0.055  0.9873 -0.1578  0.0161
              Bcc     0.0027     0.360     0.128     0.120  0.1569  0.9573 -0.2428
 
              Baa    -0.0038    -0.515    -0.184    -0.172  0.6828  0.7089  0.1768
    16 C(13)  Bbb    -0.0002    -0.026    -0.009    -0.009  0.7146 -0.6984  0.0401
              Bcc     0.0040     0.542     0.193     0.181 -0.1519 -0.0990  0.9834
 
              Baa    -0.0084    -1.125    -0.401    -0.375  0.8435  0.5343  0.0555
    17 C(13)  Bbb     0.0023     0.309     0.110     0.103 -0.1032  0.0598  0.9929
              Bcc     0.0061     0.816     0.291     0.272 -0.5271  0.8432 -0.1056
 
              Baa    -0.0101    -1.355    -0.483    -0.452  0.0800  0.9955  0.0499
    18 C(13)  Bbb    -0.0033    -0.448    -0.160    -0.150 -0.4298 -0.0107  0.9029
              Bcc     0.0134     1.803     0.643     0.601  0.8994 -0.0937  0.4270
 
              Baa    -0.0059    -0.792    -0.282    -0.264  0.1799  0.8652 -0.4681
    19 C(13)  Bbb    -0.0026    -0.353    -0.126    -0.118  0.7499 -0.4286 -0.5039
              Bcc     0.0085     1.145     0.408     0.382  0.6366  0.2604  0.7259
 
              Baa    -0.0077    -1.037    -0.370    -0.346  0.7491 -0.6243 -0.2216
    20 C(13)  Bbb    -0.0036    -0.482    -0.172    -0.161  0.5198  0.7613 -0.3876
              Bcc     0.0113     1.520     0.542     0.507  0.4107  0.1752  0.8948
 
              Baa    -0.0073    -0.981    -0.350    -0.327 -0.5305  0.8110 -0.2467
    21 C(13)  Bbb    -0.0048    -0.637    -0.227    -0.213 -0.5148 -0.0770  0.8538
              Bcc     0.0121     1.618     0.577     0.540  0.6734  0.5800  0.4584
 
              Baa    -0.0159    -2.138    -0.763    -0.713 -0.0403  0.0054  0.9992
    22 C(13)  Bbb     0.0025     0.337     0.120     0.113  0.9291 -0.3677  0.0394
              Bcc     0.0134     1.801     0.643     0.601  0.3676  0.9299  0.0098
 
              Baa    -0.0015    -0.824    -0.294    -0.275 -0.0380 -0.0922  0.9950
    23 H(1)   Bbb    -0.0008    -0.407    -0.145    -0.136  0.9464 -0.3229  0.0062
              Bcc     0.0023     1.231     0.439     0.411  0.3207  0.9419  0.0995
 
              Baa    -0.0168    -2.257    -0.805    -0.753 -0.0161 -0.0699  0.9974
    24 C(13)  Bbb     0.0032     0.427     0.152     0.142  0.4661  0.8820  0.0693
              Bcc     0.0136     1.830     0.653     0.610  0.8846 -0.4661 -0.0183
 
              Baa    -0.0015    -0.824    -0.294    -0.275 -0.0126 -0.1204  0.9926
    25 H(1)   Bbb    -0.0006    -0.325    -0.116    -0.108  0.5082  0.8542  0.1101
              Bcc     0.0022     1.149     0.410     0.383  0.8611 -0.5058 -0.0505
 
              Baa    -0.0109    -1.469    -0.524    -0.490  0.0549 -0.0547  0.9970
    26 C(13)  Bbb    -0.0001    -0.007    -0.003    -0.002  0.9238 -0.3761 -0.0715
              Bcc     0.0110     1.476     0.527     0.493  0.3789  0.9250  0.0299
 
              Baa    -0.0017    -0.892    -0.318    -0.298 -0.0494 -0.0226  0.9985
    27 H(1)   Bbb    -0.0011    -0.606    -0.216    -0.202  0.9142 -0.4037  0.0361
              Bcc     0.0028     1.498     0.535     0.500  0.4023  0.9146  0.0406
 
              Baa    -0.0098    -1.310    -0.467    -0.437 -0.0509 -0.0180  0.9985
    28 C(13)  Bbb    -0.0008    -0.109    -0.039    -0.036  0.4703  0.8816  0.0399
              Bcc     0.0106     1.419     0.506     0.473  0.8810 -0.4716  0.0364
 
              Baa    -0.0017    -0.914    -0.326    -0.305 -0.0281  0.1509  0.9882
    29 H(1)   Bbb    -0.0012    -0.667    -0.238    -0.222  0.4675  0.8757 -0.1204
              Bcc     0.0030     1.581     0.564     0.527  0.8835 -0.4586  0.0951
 
              Baa    -0.0007    -0.095    -0.034    -0.032  0.8093  0.5874  0.0070
    30 C(13)  Bbb    -0.0006    -0.076    -0.027    -0.025  0.0249 -0.0462  0.9986
              Bcc     0.0013     0.171     0.061     0.057 -0.5869  0.8080  0.0521
 
              Baa    -0.0005    -0.283    -0.101    -0.094  0.8571  0.5061 -0.0964
    31 H(1)   Bbb    -0.0005    -0.259    -0.092    -0.086  0.1448 -0.0571  0.9878
              Bcc     0.0010     0.542     0.193     0.181 -0.4944  0.8606  0.1222
 
              Baa    -0.0006    -0.346    -0.124    -0.115  0.7471  0.6638 -0.0354
    32 H(1)   Bbb    -0.0006    -0.333    -0.119    -0.111  0.0089  0.0433  0.9990
              Bcc     0.0013     0.679     0.242     0.227 -0.6647  0.7467 -0.0264
 
              Baa    -0.0007    -0.356    -0.127    -0.119  0.6368  0.7146 -0.2893
    33 H(1)   Bbb    -0.0007    -0.347    -0.124    -0.116  0.3678  0.0482  0.9286
              Bcc     0.0013     0.703     0.251     0.235 -0.6776  0.6978  0.2322
 
              Baa    -0.0007    -0.091    -0.032    -0.030  0.9959  0.0698  0.0567
    34 C(13)  Bbb    -0.0005    -0.072    -0.026    -0.024 -0.0487 -0.1125  0.9925
              Bcc     0.0012     0.163     0.058     0.054 -0.0756  0.9912  0.1086
 
              Baa    -0.0007    -0.366    -0.131    -0.122  0.9658 -0.1293  0.2247
    35 H(1)   Bbb    -0.0007    -0.354    -0.126    -0.118 -0.2515 -0.2578  0.9329
              Bcc     0.0014     0.721     0.257     0.240  0.0626  0.9575  0.2815
 
              Baa    -0.0006    -0.342    -0.122    -0.114  0.9976 -0.0312 -0.0621
    36 H(1)   Bbb    -0.0006    -0.331    -0.118    -0.110  0.0612 -0.0289  0.9977
              Bcc     0.0013     0.673     0.240     0.225  0.0329  0.9991  0.0269
 
              Baa    -0.0005    -0.292    -0.104    -0.097  0.9831  0.1708  0.0653
    37 H(1)   Bbb    -0.0005    -0.260    -0.093    -0.087 -0.0353 -0.1735  0.9842
              Bcc     0.0010     0.552     0.197     0.184 -0.1794  0.9699  0.1645
 
              Baa    -0.0010    -0.138    -0.049    -0.046  0.1022  0.9880  0.1159
    38 C(13)  Bbb    -0.0005    -0.067    -0.024    -0.022  0.0231 -0.1188  0.9926
              Bcc     0.0015     0.205     0.073     0.068  0.9945 -0.0988 -0.0349
 
              Baa    -0.0009    -0.454    -0.162    -0.151  0.0254 -0.3938  0.9189
    39 H(1)   Bbb    -0.0007    -0.375    -0.134    -0.125  0.2409  0.8945  0.3767
              Bcc     0.0016     0.829     0.296     0.276  0.9702 -0.2117 -0.1176
 
              Baa    -0.0008    -0.435    -0.155    -0.145 -0.0521  0.7649  0.6420
    40 H(1)   Bbb    -0.0007    -0.371    -0.132    -0.124 -0.2615 -0.6309  0.7305
              Bcc     0.0015     0.806     0.288     0.269  0.9638 -0.1298  0.2329
 
              Baa    -0.0008    -0.408    -0.146    -0.136  0.1056 -0.5960  0.7960
    41 H(1)   Bbb    -0.0006    -0.337    -0.120    -0.112 -0.0801  0.7928  0.6042
              Bcc     0.0014     0.745     0.266     0.248  0.9912  0.1276 -0.0360
 
              Baa    -0.0035    -0.465    -0.166    -0.155 -0.4602  0.3080  0.8327
    42 C(13)  Bbb     0.0005     0.064     0.023     0.021 -0.5311  0.6561 -0.5362
              Bcc     0.0030     0.401     0.143     0.134  0.7115  0.6890  0.1384
 
              Baa    -0.0008    -0.446    -0.159    -0.149 -0.3392  0.3076  0.8890
    43 H(1)   Bbb    -0.0008    -0.415    -0.148    -0.138  0.6413 -0.6158  0.4577
              Bcc     0.0016     0.860     0.307     0.287  0.6882  0.7254  0.0116
 
              Baa    -0.0034    -0.450    -0.161    -0.150 -0.5156  0.6736 -0.5295
    44 C(13)  Bbb    -0.0019    -0.253    -0.090    -0.084  0.6472  0.7112  0.2745
              Bcc     0.0052     0.703     0.251     0.235 -0.5615  0.2012  0.8027
 
              Baa    -0.0006    -0.296    -0.105    -0.099 -0.3672  0.2507  0.8957
    45 H(1)   Bbb    -0.0002    -0.121    -0.043    -0.040 -0.2035  0.9180 -0.3403
              Bcc     0.0008     0.416     0.148     0.139  0.9076  0.3072  0.2861
 
              Baa    -0.0006    -0.344    -0.123    -0.115  0.5536 -0.5759  0.6015
    46 H(1)   Bbb    -0.0004    -0.192    -0.069    -0.064 -0.4807  0.3688  0.7955
              Bcc     0.0010     0.536     0.191     0.179  0.6800  0.7296  0.0727
 
              Baa    -0.0007    -0.090    -0.032    -0.030 -0.5117  0.0823  0.8552
    47 C(13)  Bbb    -0.0006    -0.081    -0.029    -0.027  0.8567  0.1239  0.5007
              Bcc     0.0013     0.171     0.061     0.057 -0.0648  0.9889 -0.1339
 
              Baa    -0.0008    -0.415    -0.148    -0.138  0.8293 -0.1601 -0.5354
    48 H(1)   Bbb    -0.0007    -0.388    -0.139    -0.130  0.5514  0.0787  0.8305
              Bcc     0.0015     0.803     0.287     0.268  0.0908  0.9840 -0.1536
 
              Baa    -0.0007    -0.361    -0.129    -0.120  0.1075 -0.0746  0.9914
    49 H(1)   Bbb    -0.0006    -0.319    -0.114    -0.106  0.9935  0.0462 -0.1042
              Bcc     0.0013     0.680     0.243     0.227 -0.0381  0.9961  0.0791
 
              Baa    -0.0006    -0.314    -0.112    -0.105  0.3553  0.1957  0.9140
    50 H(1)   Bbb    -0.0005    -0.272    -0.097    -0.091  0.9222  0.0862 -0.3769
              Bcc     0.0011     0.586     0.209     0.195 -0.1526  0.9769 -0.1499
 
              Baa    -0.0019    -0.258    -0.092    -0.086 -0.5255 -0.3310  0.7838
    51 C(13)  Bbb    -0.0002    -0.028    -0.010    -0.009  0.6134  0.4910  0.6186
              Bcc     0.0021     0.286     0.102     0.095 -0.5896  0.8058 -0.0550
 
              Baa    -0.0008    -0.445    -0.159    -0.148  0.5064  0.6768  0.5342
    52 H(1)   Bbb    -0.0008    -0.417    -0.149    -0.139 -0.5434 -0.2305  0.8072
              Bcc     0.0016     0.862     0.307     0.287 -0.6695  0.6991 -0.2511
 
              Baa    -0.0018    -0.244    -0.087    -0.081  0.5839  0.5020  0.6380
    53 C(13)  Bbb    -0.0006    -0.083    -0.029    -0.028  0.7089 -0.6982 -0.0995
              Bcc     0.0024     0.326     0.116     0.109 -0.3955 -0.5104  0.7635
 
              Baa    -0.0005    -0.247    -0.088    -0.083 -0.5123 -0.2435  0.8236
    54 H(1)   Bbb    -0.0003    -0.155    -0.055    -0.052  0.7784  0.2735  0.5651
              Bcc     0.0008     0.402     0.144     0.134 -0.3628  0.9305  0.0495
 
              Baa    -0.0004    -0.237    -0.085    -0.079  0.4172  0.5527  0.7214
    55 H(1)   Bbb    -0.0003    -0.174    -0.062    -0.058 -0.6263 -0.4003  0.6689
              Bcc     0.0008     0.411     0.147     0.137 -0.6585  0.7309 -0.1792
 
              Baa    -0.0012    -0.158    -0.057    -0.053 -0.1230 -0.0684  0.9900
    56 C(13)  Bbb    -0.0009    -0.121    -0.043    -0.040  0.0183  0.9973  0.0711
              Bcc     0.0021     0.280     0.100     0.093  0.9922 -0.0269  0.1214
 
              Baa    -0.0008    -0.410    -0.146    -0.137 -0.0662  0.5723  0.8174
    57 H(1)   Bbb    -0.0007    -0.371    -0.132    -0.124  0.1557  0.8151 -0.5581
              Bcc     0.0015     0.781     0.279     0.261  0.9856 -0.0903  0.1431
 
              Baa    -0.0009    -0.459    -0.164    -0.153  0.1342 -0.3411  0.9304
    58 H(1)   Bbb    -0.0008    -0.429    -0.153    -0.143  0.1756  0.9322  0.3165
              Bcc     0.0017     0.889     0.317     0.296  0.9753 -0.1209 -0.1850
 
              Baa    -0.0007    -0.363    -0.129    -0.121 -0.0759  0.7313  0.6779
    59 H(1)   Bbb    -0.0006    -0.339    -0.121    -0.113  0.1159 -0.6687  0.7344
              Bcc     0.0013     0.702     0.251     0.234  0.9904  0.1343 -0.0340
 
              Baa    -0.0009    -0.121    -0.043    -0.040  0.6792 -0.6783 -0.2804
    60 C(13)  Bbb    -0.0008    -0.108    -0.039    -0.036  0.0863 -0.3056  0.9482
              Bcc     0.0017     0.229     0.082     0.076  0.7289  0.6682  0.1490
 
              Baa    -0.0008    -0.402    -0.143    -0.134  0.4662 -0.5634  0.6821
    61 H(1)   Bbb    -0.0007    -0.357    -0.127    -0.119 -0.5843  0.3829  0.7156
              Bcc     0.0014     0.759     0.271     0.253  0.6643  0.7321  0.1507
 
              Baa    -0.0007    -0.373    -0.133    -0.125 -0.5537  0.8245 -0.1167
    62 H(1)   Bbb    -0.0006    -0.340    -0.121    -0.113 -0.0298  0.1205  0.9923
              Bcc     0.0013     0.714     0.255     0.238  0.8322  0.5529 -0.0421
 
              Baa    -0.0009    -0.458    -0.164    -0.153 -0.3520  0.4746  0.8067
    63 H(1)   Bbb    -0.0008    -0.401    -0.143    -0.134  0.6927 -0.4475  0.5656
              Bcc     0.0016     0.860     0.307     0.287  0.6294  0.7579 -0.1713
 
              Baa    -0.0248     1.793     0.640     0.598 -0.2236  0.9461  0.2345
    64 O(17)  Bbb     0.0028    -0.200    -0.071    -0.067  0.9702  0.2390 -0.0391
              Bcc     0.0220    -1.593    -0.568    -0.531  0.0930 -0.2188  0.9713
 
              Baa    -0.0102    -5.440    -1.941    -1.815 -0.2419  0.8821 -0.4043
    65 H(1)   Bbb    -0.0091    -4.845    -1.729    -1.616  0.9551  0.2900  0.0612
              Bcc     0.0193    10.285     3.670     3.431 -0.1713  0.3713  0.9126
 
              Baa    -0.0059    -3.160    -1.127    -1.054 -0.3756  0.8975  0.2313
    66 H(1)   Bbb    -0.0052    -2.760    -0.985    -0.921  0.9228  0.3389  0.1834
              Bcc     0.0111     5.919     2.112     1.975 -0.0862 -0.2823  0.9555
 
              Baa    -0.0006    -0.083    -0.030    -0.028  0.0718  0.9876 -0.1397
    67 C(13)  Bbb    -0.0006    -0.080    -0.029    -0.027  0.9625 -0.0319  0.2696
              Bcc     0.0012     0.164     0.058     0.055 -0.2618  0.1538  0.9528
 
              Baa    -0.0008    -0.414    -0.148    -0.138 -0.6113  0.7036 -0.3624
    68 H(1)   Bbb    -0.0007    -0.390    -0.139    -0.130  0.6415  0.7087  0.2938
              Bcc     0.0015     0.804     0.287     0.268 -0.4635  0.0529  0.8845
 
              Baa    -0.0006    -0.340    -0.121    -0.114  0.1940  0.9807 -0.0253
    69 H(1)   Bbb    -0.0006    -0.304    -0.108    -0.101  0.9504 -0.1815  0.2527
              Bcc     0.0012     0.644     0.230     0.215 -0.2432  0.0731  0.9672
 
              Baa    -0.0007    -0.384    -0.137    -0.128 -0.1070  0.9826  0.1518
    70 H(1)   Bbb    -0.0006    -0.306    -0.109    -0.102  0.9350  0.0475  0.3515
              Bcc     0.0013     0.690     0.246     0.230 -0.3381 -0.1796  0.9238
 
              Baa    -0.0048    -0.186    -0.066    -0.062  0.9198 -0.3826 -0.0872
    71 N(14)  Bbb    -0.0014    -0.055    -0.019    -0.018 -0.2011 -0.6503  0.7326
              Bcc     0.0062     0.240     0.086     0.080  0.3369  0.6563  0.6751
 
              Baa    -0.0014    -0.735    -0.262    -0.245  0.9609 -0.1551 -0.2292
    72 H(1)   Bbb    -0.0012    -0.645    -0.230    -0.215  0.2055  0.9546  0.2158
              Bcc     0.0026     1.380     0.493     0.460  0.1853 -0.2545  0.9492
 
              Baa    -0.0047    -0.633    -0.226    -0.211 -0.0928  0.9292 -0.3576
    73 C(13)  Bbb     0.0001     0.007     0.002     0.002  0.9924  0.1155  0.0427
              Bcc     0.0047     0.626     0.223     0.209 -0.0810  0.3509  0.9329
 
              Baa    -0.0115    -1.537    -0.548    -0.513  0.7973 -0.4246 -0.4290
    74 C(13)  Bbb     0.0028     0.372     0.133     0.124  0.5355  0.8256  0.1779
              Bcc     0.0087     1.165     0.416     0.389  0.2787 -0.3716  0.8856
 
              Baa    -0.0049    -2.592    -0.925    -0.865  0.0021  0.8805  0.4740
    75 H(1)   Bbb    -0.0038    -2.038    -0.727    -0.680  0.8359  0.2586 -0.4841
              Bcc     0.0087     4.631     1.652     1.545  0.5488 -0.3972  0.7355
 
              Baa    -0.0225    -0.869    -0.310    -0.290 -0.0826  0.5559  0.8271
    76 N(14)  Bbb     0.0094     0.362     0.129     0.121  0.9014 -0.3124  0.2999
              Bcc     0.0132     0.508     0.181     0.169  0.4251  0.7703 -0.4753
 
              Baa    -0.0087    -1.172    -0.418    -0.391  0.9222  0.3866 -0.0075
    77 C(13)  Bbb    -0.0040    -0.541    -0.193    -0.180 -0.3493  0.8245 -0.4452
              Bcc     0.0128     1.713     0.611     0.571 -0.1660  0.4132  0.8954
 
              Baa    -0.0050    -2.661    -0.950    -0.888  0.7103 -0.2172  0.6695
    78 H(1)   Bbb    -0.0047    -2.484    -0.886    -0.829  0.2960  0.9552 -0.0042
              Bcc     0.0096     5.145     1.836     1.716 -0.6386  0.2012  0.7428
 

 ---------------------------------------------------------------------------------

 Unable to Open any file for archive entry.
 1\1\GINC-BGN1029\SP\UAPFD\Gen\C34H36Fe1N6O1(1+,2)\BECSLEIP\16-Sep-2024
 \0\\# apfd/gen scf=maxcycle=999 geom=check\\5ccp_III_D\\1,2\Fe,0,-5.86
 45496782,57.09215217,21.514866817\N,0,-6.510933591,56.190647774,23.234
 838051\N,0,-6.7178892686,58.8026705192,22.2132463431\N,0,-5.1267558286
 ,58.035608822,19.9570727259\N,0,-4.6864196699,55.4548250693,21.1756121
 117\C,0,-6.2798216082,54.9000373275,23.6037865524\C,0,-6.7998639184,54
 .645246739,24.9285639963\C,0,-7.4555311171,55.7761144309,25.3043136678
 \C,0,-7.2793555319,56.7254056096,24.2263172213\C,0,-7.5480394484,58.96
 90727902,23.2765821753\C,0,-8.0317879541,60.3230786417,23.3456903309\C
 ,0,-7.5348944365,60.9642454651,22.2403885354\C,0,-6.7234070308,59.9853
 337816,21.5420554816\C,0,-5.1510442694,59.3841695416,19.7466339119\C,0
 ,-4.219139691,59.7617212731,18.7155314727\C,0,-3.5017890299,58.6325798
 885,18.425532368\C,0,-4.0188813745,57.5909165805,19.2974433181\C,0,-4.
 1317698735,55.2313170991,19.9478128469\C,0,-3.822413715,53.8332655406,
 19.7642120014\C,0,-4.3950309356,53.1837971406,20.8137256343\C,0,-4.959
 347747,54.2109858295,21.6592435848\C,0,-5.588859328,53.9562001737,22.8
 631137914\H,0,-5.5971424351,52.938848022,23.2241163006\C,0,-7.72359652
 01,58.0301809139,24.2837907921\H,0,-8.3302750879,58.311167257,25.13120
 44689\C,0,-5.9689026008,60.2756759357,20.4180103363\H,0,-5.9903414666,
 61.2938033155,20.0591302737\C,0,-3.6961248996,56.2514342817,19.1175360
 287\H,0,-3.0297462865,55.9967806255,18.3065471209\C,0,-8.1934843706,56
 .0644390732,26.5668892997\H,0,-8.2085720099,55.1905678691,27.213573679
 6\H,0,-9.223776481,56.3487393777,26.3518234041\H,0,-7.7235880988,56.88
 50999454,27.1099381561\C,0,-6.6446436314,53.3561819906,25.6599259876\H
 ,0,-5.5907663636,53.0943278309,25.7523225077\H,0,-7.1471990208,52.5483
 162441,25.1268107049\H,0,-7.0701247441,53.4238070175,26.6582585875\C,0
 ,-8.8708361836,60.8829454997,24.4412004734\H,0,-8.5595677497,60.487898
 6855,25.4071911039\H,0,-9.9227515094,60.6294330386,24.2972493642\H,0,-
 8.7790657971,61.966858609,24.4635269257\C,0,-7.7226968905,62.336195865
 7,21.8236984329\H,0,-6.8787269009,62.7956104893,21.3222172998\C,0,-8.8
 299867565,63.0506354991,21.997585869\H,0,-9.7165780896,62.6351669986,2
 2.4439248977\H,0,-8.8960266942,64.0755168708,21.6717417762\C,0,-4.0320
 01826,61.1399724403,18.1844219164\H,0,-4.1166264867,61.8764180526,18.9
 819612659\H,0,-4.7879555822,61.3702465665,17.431929294\H,0,-3.04970910
 21,61.2344124822,17.7260781598\C,0,-2.3954959216,58.4582917776,17.5114
 418111\H,0,-1.6325101523,57.7581073472,17.8319573173\C,0,-2.262389296,
 59.0687235554,16.3378628682\H,0,-3.013771351,59.7354710399,15.95184650
 58\H,0,-1.4042366416,58.9005521775,15.7084251171\C,0,-3.1046652287,53.
 2795572598,18.5815569623\H,0,-2.0998647916,53.6977323795,18.5171502044
 \H,0,-3.6312698848,53.5284893781,17.6599183131\H,0,-3.0205403002,52.19
 76039671,18.6495931364\C,0,-4.4334103151,51.7253695906,21.1168381443\H
 ,0,-3.9052548231,51.5109255791,22.0465419882\H,0,-3.9674865079,51.1520
 582021,20.3189975804\H,0,-5.4634919204,51.3865542547,21.2280811643\O,0
 ,-4.091,57.713,22.8370000002\H,0,-4.348,57.157,23.5729999999\H,0,-3.46
 00000001,58.3400000001,22.8459999999\C,0,-9.2606337754,54.7998285682,1
 7.7539700233\H,0,-8.4564826568,54.5684746119,17.0625129371\H,0,-9.9808
 596894,55.4437204815,17.2490484645\H,0,-9.7648969955,53.8728322032,18.
 026936601\N,0,-9.4877110318,55.8597540265,20.011107917\H,0,-10.4845619
 973,55.7377677616,20.0804004433\C,0,-8.7046037257,55.4712527852,18.956
 0446163\C,0,-8.6791297359,56.433494989,20.9320571043\H,0,-9.0180696809
 ,56.8336884834,21.8651852791\N,0,-7.4324475419,56.4303963368,20.524207
 7653\C,0,-7.4333374237,55.8368233376,19.2951532385\H,0,-6.5238522556,5
 5.7143186854,18.7436242549\\Version=ES64L-G16RevC.02\State=2-A\HF=-298
 3.1867255\S2=0.934014\S2-1=0.\S2A=0.754836\RMSD=3.239e-09\Dipole=-1.58
 47123,-0.9256754,-0.2934861\Quadrupole=-0.5519983,2.4307147,-1.8787164
 ,1.0851384,-7.4151263,1.1509282\PG=C01 [X(C34H36Fe1N6O1)]\\@
 The archive entry for this job was punched.


 There are more things in heaven and earth, Horatio,
 than are dreamt of in your philosophy.
                   -- Hamlet, Act I, Scene 5
 Job cpu time:       0 days  4 hours 36 minutes 41.2 seconds.
 Elapsed time:       0 days  0 hours  4 minutes 47.8 seconds.
 File lengths (MBytes):  RWF=    430 Int=      0 D2E=      0 Chk=    155 Scr=      1
 Normal termination of Gaussian 16 at Mon Sep 16 19:51:43 2024.
