 Entering Gaussian System, Link 0=g16
 Input=5cn416re.com
 Output=5cn416re.log
 Initial command:
 /sw/chem/gaussian/g16_C02/a100/g16/l1.exe "/local/becsleip_8022090/Gau-605531.inp" -scrdir="/local/becsleip_8022090/"
 Entering Link 1 = /sw/chem/gaussian/g16_C02/a100/g16/l1.exe PID=    605532.
  
 Copyright (c) 1988-2021, Gaussian, Inc.  All Rights Reserved.
  
 This is part of the Gaussian(R) 16 program.  It is based on
 the Gaussian(R) 09 system (copyright 2009, Gaussian, Inc.),
 the Gaussian(R) 03 system (copyright 2003, Gaussian, Inc.),
 the Gaussian(R) 98 system (copyright 1998, Gaussian, Inc.),
 the Gaussian(R) 94 system (copyright 1995, Gaussian, Inc.),
 the Gaussian 92(TM) system (copyright 1992, Gaussian, Inc.),
 the Gaussian 90(TM) system (copyright 1990, Gaussian, Inc.),
 the Gaussian 88(TM) system (copyright 1988, Gaussian, Inc.),
 the Gaussian 86(TM) system (copyright 1986, Carnegie Mellon
 University), and the Gaussian 82(TM) system (copyright 1983,
 Carnegie Mellon University). Gaussian is a federally registered
 trademark of Gaussian, Inc.
  
 This software contains proprietary and confidential information,
 including trade secrets, belonging to Gaussian, Inc.
  
 This software is provided under written license and may be
 used, copied, transmitted, or stored only in accord with that
 written license.
  
 The following legend is applicable only to US Government
 contracts under FAR:
  
                    RESTRICTED RIGHTS LEGEND
  
 Use, reproduction and disclosure by the US Government is
 subject to restrictions as set forth in subparagraphs (a)
 and (c) of the Commercial Computer Software - Restricted
 Rights clause in FAR 52.227-19.
  
 Gaussian, Inc.
 340 Quinnipiac St., Bldg. 40, Wallingford CT 06492
  
  
 ---------------------------------------------------------------
 Warning -- This program may not be used in any manner that
 competes with the business of Gaussian, Inc. or will provide
 assistance to any competitor of Gaussian, Inc.  The licensee
 of this program is prohibited from giving any competitor of
 Gaussian, Inc. access to this program.  By using this program,
 the user acknowledges that Gaussian, Inc. is engaged in the
 business of creating and licensing software in the field of
 computational chemistry and represents and warrants to the
 licensee that it is not a competitor of Gaussian, Inc. and that
 it will not use this program in any manner prohibited above.
 ---------------------------------------------------------------
  

 Cite this work as:
 Gaussian 16, Revision C.02,
 M. J. Frisch, G. W. Trucks, H. B. Schlegel, G. E. Scuseria, 
 M. A. Robb, J. R. Cheeseman, G. Scalmani, V. Barone, 
 G. A. Petersson, H. Nakatsuji, X. Li, M. Caricato, A. V. Marenich, 
 J. Bloino, B. G. Janesko, R. Gomperts, B. Mennucci, H. P. Hratchian, 
 J. V. Ortiz, A. F. Izmaylov, J. L. Sonnenberg, D. Williams-Young, 
 F. Ding, F. Lipparini, F. Egidi, J. Goings, B. Peng, A. Petrone, 
 T. Henderson, D. Ranasinghe, V. G. Zakrzewski, J. Gao, N. Rega, 
 G. Zheng, W. Liang, M. Hada, M. Ehara, K. Toyota, R. Fukuda, 
 J. Hasegawa, M. Ishida, T. Nakajima, Y. Honda, O. Kitao, H. Nakai, 
 T. Vreven, K. Throssell, J. A. Montgomery, Jr., J. E. Peralta, 
 F. Ogliaro, M. J. Bearpark, J. J. Heyd, E. N. Brothers, K. N. Kudin, 
 V. N. Staroverov, T. A. Keith, R. Kobayashi, J. Normand, 
 K. Raghavachari, A. P. Rendell, J. C. Burant, S. S. Iyengar, 
 J. Tomasi, M. Cossi, J. M. Millam, M. Klene, C. Adamo, R. Cammi, 
 J. W. Ochterski, R. L. Martin, K. Morokuma, O. Farkas, 
 J. B. Foresman, and D. J. Fox, Gaussian, Inc., Wallingford CT, 2019.
 
 ******************************************
 Gaussian 16:  ES64L-G16RevC.02  7-Dec-2021
                19-Sep-2024 
 ******************************************
 %mem=16GB
 %CPU=0-71
 SetSPE:  set environment variable "OMP_PROC_BIND" = "true"
 SetSPE:  set environment variable "OMP_PLACES" = "{0},{1},{2},{3},{4},{5},{6},{7},{8},{9},{10},{11},{12},{13},{14},{15},{16},{17},{18},{19},{20},{21},{22},{23},{24},{25},{26},{27},{28},{29},{30},{31},{32},{33},{34},{35},{36},{37},{38},{39},{40},{41},{42},{43},{44},{45},{46},{47},{48},{49},{50},{51},{52},{53},{54},{55},{56},{57},{58},{59},{60},{61},{62},{63},{64},{65},{66},{67},{68},{69},{70},{71}"
 Will use up to   72 processors via shared memory.
 %gpucpu=0,1,2,3=0,1,2,3
 Will use    4 GPUs:
 Thread  CPU   GPU
      0    0     0
      1    1     1
      2    2     2
      3    3     3
      4    4    -1
      5    5    -1
      6    6    -1
      7    7    -1
      8    8    -1
      9    9    -1
     10   10    -1
     11   11    -1
     12   12    -1
     13   13    -1
     14   14    -1
     15   15    -1
     16   16    -1
     17   17    -1
     18   18    -1
     19   19    -1
     20   20    -1
     21   21    -1
     22   22    -1
     23   23    -1
     24   24    -1
     25   25    -1
     26   26    -1
     27   27    -1
     28   28    -1
     29   29    -1
     30   30    -1
     31   31    -1
     32   32    -1
     33   33    -1
     34   34    -1
     35   35    -1
     36   36    -1
     37   37    -1
     38   38    -1
     39   39    -1
     40   40    -1
     41   41    -1
     42   42    -1
     43   43    -1
     44   44    -1
     45   45    -1
     46   46    -1
     47   47    -1
     48   48    -1
     49   49    -1
     50   50    -1
     51   51    -1
     52   52    -1
     53   53    -1
     54   54    -1
     55   55    -1
     56   56    -1
     57   57    -1
     58   58    -1
     59   59    -1
     60   60    -1
     61   61    -1
     62   62    -1
     63   63    -1
     64   64    -1
     65   65    -1
     66   66    -1
     67   67    -1
     68   68    -1
     69   69    -1
     70   70    -1
     71   71    -1
 SetGPE:  set environment variable "OMP_PROC_BIND" = "true"
 SetGPE:  set environment variable "OMP_PLACES" = "{0},{1},{2},{3},{4},{5},{6},{7},{8},{9},{10},{11},{12},{13},{14},{15},{16},{17},{18},{19},{20},{21},{22},{23},{24},{25},{26},{27},{28},{29},{30},{31},{32},{33},{34},{35},{36},{37},{38},{39},{40},{41},{42},{43},{44},{45},{46},{47},{48},{49},{50},{51},{52},{53},{54},{55},{56},{57},{58},{59},{60},{61},{62},{63},{64},{65},{66},{67},{68},{69},{70},{71}"
 %oldchk=5cn4_III_D.chk
 %chk=5cn4_III_Dre.chk
 Properties for Device   0
 Minimum vector length:                              32
 Maximum vector length:                            1024
 Number of SMPs:                                    108
 Maximum number of threads per SMP:                2048
 Number of ASync Engines:                             5
 Memory:                                           9207742464
 Properties for Device   1
 Minimum vector length:                              32
 Maximum vector length:                            1024
 Number of SMPs:                                    108
 Maximum number of threads per SMP:                2048
 Number of ASync Engines:                             5
 Memory:                                           9207742464
 Properties for Device   2
 Minimum vector length:                              32
 Maximum vector length:                            1024
 Number of SMPs:                                    108
 Maximum number of threads per SMP:                2048
 Number of ASync Engines:                             5
 Memory:                                           9207742464
 Properties for Device   3
 Minimum vector length:                              32
 Maximum vector length:                            1024
 Number of SMPs:                                    108
 Maximum number of threads per SMP:                2048
 Number of ASync Engines:                             5
 Memory:                                           9207742464
   8286968217 words of memory will be used on each GPU.
 Copying data from "5cn4_III_D.chk" to current chk file "5cn4_III_Dre.chk"
 IOpt=  2 FromEx=T IUOpen= 4 IOptOp= 5 NList=   0 IFRang= 0 IUIn= 4 IUOut= 2.
 --------------------------------------
 # apfd/gen scf=maxcycle=999 geom=check
 --------------------------------------
 1/29=2,38=1,172=1/1;
 2/12=2,40=1/2;
 3/5=7,11=2,14=-4,25=1,30=1,74=-44/1,2,3;
 4//1;
 5/5=2,7=999,38=5/2;
 6/7=2,8=2,9=2,10=2,28=1/1;
 99/5=1,9=1/99;
 ----------
 5cn4_III_H
 ----------
 Structure from the checkpoint file:  "5cn4_III_Dre.chk"
 Charge =  1 Multiplicity = 6
 Z-Matrix found in chk file.
 Fe,0,12.0569198614,-28.9414069127,13.6059169309
 N,0,11.0427802059,-30.2557622698,14.6909592835
 N,0,11.9665490344,-27.6272778987,15.1332184378
 N,0,12.9429281601,-27.5150836831,12.493144958
 N,0,12.0167376575,-30.1449751514,12.035709087
 C,0,10.670934858,-31.50626672,14.2999452371
 C,0,10.0176837982,-32.2093205852,15.3810291162
 C,0,9.9917544667,-31.3507653012,16.4352892562
 C,0,10.6320896828,-30.1357304698,15.9843605811
 C,0,11.3992621157,-27.8385429603,16.356754068
 C,0,11.4858612508,-26.6608990546,17.1801989808
 C,0,12.1277534174,-25.7141010558,16.4282423027
 C,0,12.4137311457,-26.3422175636,15.1541133112
 C,0,13.244289537,-26.2359347869,12.8553051109
 C,0,13.772103193,-25.4898591208,11.7428609365
 C,0,13.7880784099,-26.3498893422,10.6780509553
 C,0,13.2499250134,-27.6026517558,11.1694388456
 C,0,12.4945148432,-29.9001823377,10.7851826691
 C,0,12.2317869815,-31.0172909278,9.9057694064
 C,0,11.5966647875,-31.9540865784,10.6593080495
 C,0,11.465283979,-31.3896825236,11.9841183512
 C,0,10.8618907677,-32.0425590441,13.0407222656
 H,0,10.4918943302,-33.0407445514,12.8636389441
 C,0,10.7996962627,-29.015319768,16.7710752835
 H,0,10.4013710609,-29.047204526,17.7736494467
 C,0,13.0398386764,-25.6943839226,14.1098848846
 H,0,13.3241201064,-24.6644425627,14.2598850072
 C,0,13.1051770631,-28.7293298901,10.3818280147
 H,0,13.4179910346,-28.6629633727,9.3511062563
 C,0,9.4280269724,-31.5465180506,17.800968645
 H,0,9.0058484825,-32.5428504957,17.9053034686
 H,0,8.6404842571,-30.818725361,17.9970790382
 H,0,10.2011940761,-31.4201521642,18.559510925
 C,0,9.4904491914,-33.5994124771,15.2815999211
 H,0,10.2853709123,-34.2919761089,15.0044583054
 H,0,8.710580112,-33.65855347,14.5221291309
 H,0,9.0686239203,-33.9225218839,16.2300959854
 C,0,11.0184683297,-26.5616359893,18.590400776
 H,0,11.2190043162,-27.4852236644,19.1318284091
 H,0,9.9444682657,-26.3737741869,18.6310138409
 H,0,11.5292735069,-25.7441256959,19.0950752828
 C,0,12.4889062763,-24.3577051826,16.779410513
 H,0,13.4191182536,-23.9963383418,16.3561572782
 C,0,11.7772717281,-23.5485339319,17.5568409905
 H,0,10.8237272349,-23.8372970765,17.9631926669
 H,0,12.1134447442,-22.5518474785,17.7900971561
 C,0,14.2613950152,-24.0855766311,11.8075214881
 H,0,14.7887637499,-23.9031789188,12.7427363171
 H,0,13.4300626273,-23.3815743145,11.7460311505
 H,0,14.9403636101,-23.8890449088,10.9802640896
 C,0,14.2347577745,-26.1176151164,9.3213064864
 H,0,14.6996542834,-26.9642157897,8.8289741463
 C,0,14.1130123735,-24.9736986686,8.6565200822
 H,0,13.616855818,-24.1169524538,9.0778357452
 H,0,14.4826765189,-24.8645580149,7.6503822972
 C,0,12.6147910148,-31.0605314688,8.4664735445
 H,0,13.6946343124,-30.9605661423,8.3527663302
 H,0,12.1404148811,-30.2449852698,7.9203683639
 H,0,12.3082984354,-31.9998516074,8.0130276216
 C,0,11.0860594207,-33.2971339163,10.2648016577
 H,0,11.5609689402,-34.0772486818,10.8604705561
 H,0,11.2895847221,-33.495515228,9.215376763
 H,0,10.0092119533,-33.3587853001,10.4232447957
 C,0,17.3295513868,-30.7654778756,13.9434501792
 H,0,17.5279783453,-30.5956170301,12.8899490944
 H,0,17.486859237,-31.8216417255,14.1622625586
 H,0,18.0408588975,-30.1859302358,14.5314469248
 N,0,15.4211814007,-30.4213707881,15.5269179559
 H,0,15.9161544689,-30.7294448167,16.347860253
 C,0,15.9354413882,-30.3636671265,14.2583997956
 C,0,14.1410393711,-29.9911244361,15.471785017
 H,0,13.4916682241,-29.9282096093,16.3216953537
 N,0,13.8103530783,-29.6638032751,14.2435280199
 C,0,14.9195068055,-29.8915780261,13.4777175206
 H,0,14.9110296647,-29.7000364276,12.4240175813
 Recover connectivity data from disk.
 Stoichiometry    C34H34FeN6(1+,6)
 Framework group  C1[X(C34H34FeN6)]
 Deg. of freedom   219
 Full point group                 C1      NOp   1
 Largest Abelian subgroup         C1      NOp   1
 Largest concise Abelian subgroup C1      NOp   1
                         Standard orientation:                         
 ---------------------------------------------------------------------
 Center     Atomic      Atomic             Coordinates (Angstroms)
 Number     Number       Type             X           Y           Z
 ---------------------------------------------------------------------
      1         26           0       -0.048012   -0.192257   -0.350868
      2          7           0       -1.331328   -1.693168   -0.534420
      3          7           0       -1.589026    1.108786   -0.333135
      4          7           0        1.215281    1.376522   -0.324529
      5          7           0        1.486653   -1.428215   -0.532405
      6          6           0       -1.016231   -3.014964   -0.626578
      7          6           0       -2.211983   -3.826394   -0.665579
      8          6           0       -3.261703   -2.963945   -0.606213
      9          6           0       -2.692512   -1.637392   -0.529048
     10          6           0       -2.917100    0.798912   -0.393830
     11          6           0       -3.728559    1.987987   -0.400062
     12          6           0       -2.860333    3.044521   -0.338337
     13          6           0       -1.531455    2.467987   -0.300787
     14          6           0        0.903703    2.703548   -0.313497
     15          6           0        2.087187    3.517651   -0.410184
     16          6           0        3.143813    2.650361   -0.481442
     17          6           0        2.570628    1.319785   -0.442550
     18          6           0        2.810199   -1.113955   -0.570832
     19          6           0        3.615729   -2.299728   -0.758950
     20          6           0        2.747651   -3.344647   -0.817007
     21          6           0        1.423036   -2.781035   -0.680364
     22          6           0        0.263767   -3.531077   -0.696931
     23          1           0        0.364188   -4.601220   -0.793571
     24          6           0       -3.440608   -0.480885   -0.457106
     25          1           0       -4.514829   -0.580425   -0.488355
     26          6           0       -0.376444    3.220489   -0.258330
     27          1           0       -0.480013    4.294439   -0.256898
     28          6           0        3.327141    0.163976   -0.492328
     29          1           0        4.399150    0.269932   -0.557242
     30          6           0       -4.724034   -3.251153   -0.623099
     31          1           0       -4.906764   -4.321388   -0.677927
     32          1           0       -5.196210   -2.778647   -1.484582
     33          1           0       -5.203365   -2.866783    0.277814
     34          6           0       -2.215310   -5.313163   -0.764198
     35          1           0       -1.665827   -5.753754    0.067848
     36          1           0       -1.740604   -5.635378   -1.691193
     37          1           0       -3.231150   -5.700200   -0.748274
     38          6           0       -5.217302    2.012859   -0.402605
     39          1           0       -5.620002    1.216155    0.221469
     40          1           0       -5.606005    1.878262   -1.413155
     41          1           0       -5.574190    2.967647   -0.021880
     42          6           0       -3.146408    4.462343   -0.299581
     43          1           0       -2.468564    5.060591    0.298458
     44          6           0       -4.149085    5.062715   -0.931856
     45          1           0       -4.821975    4.526100   -1.577625
     46          1           0       -4.313360    6.124171   -0.847425
     47          6           0        2.110687    5.005140   -0.360986
     48          1           0        1.383238    5.379173    0.357993
     49          1           0        1.869755    5.429713   -1.336795
     50          1           0        3.099671    5.352788   -0.069387
     51          6           0        4.558707    2.938435   -0.577971
     52          1           0        5.214984    2.243430   -0.066580
     53          6           0        5.092162    3.962719   -1.234915
     54          1           0        4.492708    4.654811   -1.800029
     55          1           0        6.156782    4.127404   -1.253329
     56          6           0        5.102431   -2.297336   -0.858186
     57          1           0        5.547750   -1.889773    0.049870
     58          1           0        5.428091   -1.684528   -1.698895
     59          1           0        5.481758   -3.305856   -1.002659
     60          6           0        3.026671   -4.795759   -1.008192
     61          1           0        2.652464   -5.372213   -0.161664
     62          1           0        4.095009   -4.975562   -1.099816
     63          1           0        2.538013   -5.163724   -1.910589
     64          6           0        1.397105   -0.366571    5.045711
     65          1           0        2.449190   -0.196556    4.840035
     66          1           0        1.292858   -1.318003    5.567264
     67          1           0        1.036887    0.424027    5.703565
     68          7           0       -0.725274   -0.523476    3.727172
     69          1           0       -1.330154   -0.632637    4.524704
     70          6           0        0.636284   -0.377938    3.770873
     71          6           0       -1.100895   -0.491915    2.429162
     72          1           0       -2.114970   -0.582112    2.095238
     73          7           0       -0.059128   -0.335583    1.644694
     74          6           0        1.029486   -0.263501    2.468279
     75          1           0        2.015014   -0.133651    2.069636
 ---------------------------------------------------------------------
 Rotational constants (GHZ):           0.0942081           0.0927304           0.0594191
 General basis read from cards:  (5D, 7F)
 There are   704 symmetry adapted cartesian basis functions of A   symmetry.
 There are   661 symmetry adapted basis functions of A   symmetry.
   661 basis functions,  1342 primitive gaussians,   704 cartesian basis functions
   155 alpha electrons      150 beta electrons
       nuclear repulsion energy      5572.9201203899 Hartrees.
 NAtoms=   75 NActive=   75 NUniq=   75 SFac= 1.00D+00 NAtFMM=   60 NAOKFM=T Big=T
 Integral buffers will be    131072 words long.
 Raffenetti 2 integral format.
 Two-electron integral symmetry is turned on.
 R6APFD:  NTU= -4 IXU= 1 FactS= 1.050
 Nuclear repulsion after empirical dispersion term =     5572.7867014509 Hartrees.
 One-electron integrals computed using PRISM.
 NBasis=   661 RedAO= T EigKep=  2.54D-04  NBF=   661
 NBsUse=   661 1.00D-06 EigRej= -1.00D+00 NBFU=   661
 ExpMin= 4.20D-02 ExpMax= 3.01D+05 ExpMxC= 2.91D+03 IAcc=3 IRadAn=         5 AccDes= 0.00D+00
 Harris functional with IExCor= 3731 and IRadAn=       5 diagonalized for initial guess.
 HarFok:  IExCor= 3731 AccDes= 0.00D+00 IRadAn=         5 IDoV= 1 UseB2=F ITyADJ=14
 ICtDFT=  3500011 ScaDFX=  1.000000  1.000000  1.000000  1.000000
 FoFCou: FMM=F IPFlag=           0 FMFlag=      100000 FMFlg1=        2001
         NFxFlg=           0 DoJE=T BraDBF=F KetDBF=T FulRan=T
         wScrn=  0.000000 ICntrl=       500 IOpCl=  0 I1Cent=   200000004 NGrid=           0
         NMat0=    1 NMatS0=      1 NMatT0=    0 NMatD0=    1 NMtDS0=    0 NMtDT0=    0
 Petite list used in FoFCou.
 Initial guess <Sx>= 0.0000 <Sy>= 0.0000 <Sz>= 2.5000 <S**2>= 8.7500 S= 2.5000
 Requested convergence on RMS density matrix=1.00D-08 within 999 cycles.
 Requested convergence on MAX density matrix=1.00D-06.
 Requested convergence on             energy=1.00D-06.
 No special actions if energy rises.
 EnCoef did   100 forward-backward iterations
 EnCoef did   100 forward-backward iterations
 EnCoef did   100 forward-backward iterations
 EnCoef did     3 forward-backward iterations
 EnCoef did     2 forward-backward iterations
 EnCoef did    10 forward-backward iterations
 EnCoef did     8 forward-backward iterations
 EnCoef did     5 forward-backward iterations
 EnCoef did     2 forward-backward iterations
 Restarting incremental Fock formation.
 SCF Done:  E(UAPFD) =  -2906.83956243     A.U. after   31 cycles
            NFock= 31  Conv=0.68D-08     -V/T= 2.0035
 <Sx>= 0.0000 <Sy>= 0.0000 <Sz>= 2.5000 <S**2>= 8.7607 S= 2.5018
 <L.S>=  0.00000000000    
 Annihilation of the first spin contaminant:
 S**2 before annihilation     8.7607,   after     8.7500

 **********************************************************************

            Population analysis using the SCF Density.

 **********************************************************************

 Orbital symmetries:
 Alpha Orbitals:
       Occupied  (A) (A) (A) (A) (A) (A) (A) (A) (A) (A) (A) (A)
                 (A) (A) (A) (A) (A) (A) (A) (A) (A) (A) (A) (A)
                 (A) (A) (A) (A) (A) (A) (A) (A) (A) (A) (A) (A)
                 (A) (A) (A) (A) (A) (A) (A) (A) (A) (A) (A) (A)
                 (A) (A) (A) (A) (A) (A) (A) (A) (A) (A) (A) (A)
                 (A) (A) (A) (A) (A) (A) (A) (A) (A) (A) (A) (A)
                 (A) (A) (A) (A) (A) (A) (A) (A) (A) (A) (A) (A)
                 (A) (A) (A) (A) (A) (A) (A) (A) (A) (A) (A) (A)
                 (A) (A) (A) (A) (A) (A) (A) (A) (A) (A) (A) (A)
                 (A) (A) (A) (A) (A) (A) (A) (A) (A) (A) (A) (A)
                 (A) (A) (A) (A) (A) (A) (A) (A) (A) (A) (A) (A)
                 (A) (A) (A) (A) (A) (A) (A) (A) (A) (A) (A) (A)
                 (A) (A) (A) (A) (A) (A) (A) (A) (A) (A) (A)
       Virtual   (A) (A) (A) (A) (A) (A) (A) (A) (A) (A) (A) (A)
                 (A) (A) (A) (A) (A) (A) (A) (A) (A) (A) (A) (A)
                 (A) (A) (A) (A) (A) (A) (A) (A) (A) (A) (A) (A)
                 (A) (A) (A) (A) (A) (A) (A) (A) (A) (A) (A) (A)
                 (A) (A) (A) (A) (A) (A) (A) (A) (A) (A) (A) (A)
                 (A) (A) (A) (A) (A) (A) (A) (A) (A) (A) (A) (A)
                 (A) (A) (A) (A) (A) (A) (A) (A) (A) (A) (A) (A)
                 (A) (A) (A) (A) (A) (A) (A) (A) (A) (A) (A) (A)
                 (A) (A) (A) (A) (A) (A) (A) (A) (A) (A) (A) (A)
                 (A) (A) (A) (A) (A) (A) (A) (A) (A) (A) (A) (A)
                 (A) (A) (A) (A) (A) (A) (A) (A) (A) (A) (A) (A)
                 (A) (A) (A) (A) (A) (A) (A) (A) (A) (A) (A) (A)
                 (A) (A) (A) (A) (A) (A) (A) (A) (A) (A) (A) (A)
                 (A) (A) (A) (A) (A) (A) (A) (A) (A) (A) (A) (A)
                 (A) (A) (A) (A) (A) (A) (A) (A) (A) (A) (A) (A)
                 (A) (A) (A) (A) (A) (A) (A) (A) (A) (A) (A) (A)
                 (A) (A) (A) (A) (A) (A) (A) (A) (A) (A) (A) (A)
                 (A) (A) (A) (A) (A) (A) (A) (A) (A) (A) (A) (A)
                 (A) (A) (A) (A) (A) (A) (A) (A) (A) (A) (A) (A)
                 (A) (A) (A) (A) (A) (A) (A) (A) (A) (A) (A) (A)
                 (A) (A) (A) (A) (A) (A) (A) (A) (A) (A) (A) (A)
                 (A) (A) (A) (A) (A) (A) (A) (A) (A) (A) (A) (A)
                 (A) (A) (A) (A) (A) (A) (A) (A) (A) (A) (A) (A)
                 (A) (A) (A) (A) (A) (A) (A) (A) (A) (A) (A) (A)
                 (A) (A) (A) (A) (A) (A) (A) (A) (A) (A) (A) (A)
                 (A) (A) (A) (A) (A) (A) (A) (A) (A) (A) (A) (A)
                 (A) (A) (A) (A) (A) (A) (A) (A) (A) (A) (A) (A)
                 (A) (A) (A) (A) (A) (A) (A) (A) (A) (A) (A) (A)
                 (A) (A) (A) (A) (A) (A) (A) (A) (A) (A) (A) (A)
                 (A) (A) (A) (A) (A) (A) (A) (A) (A) (A) (A) (A)
                 (A) (A) (A) (A) (A) (A) (A) (A) (A) (A) (A) (A)
                 (A) (A) (A) (A) (A) (A) (A) (A) (A) (A) (A) (A)
                 (A) (A) (A) (A) (A) (A) (A) (A) (A) (A) (A) (A)
                 (A) (A) (A) (A) (A) (A) (A) (A) (A) (A) (A) (A)
                 (A) (A) (A) (A) (A) (A) (A) (A) (A) (A) (A) (A)
                 (A) (A) (A) (A) (A) (A) (A) (A) (A) (A) (A) (A)
                 (A) (A) (A) (A) (A) (A) (A) (A) (A) (A) (A) (A)
                 (A) (A) (A) (A) (A) (A) (A) (A) (A) (A) (A) (A)
                 (A) (A) (A) (A) (A) (A) (A) (A) (A) (A) (A) (A)
                 (A) (A) (A) (A) (A) (A) (A) (A) (A) (A) (A) (A)
                 (A) (A) (A) (A) (A) (A) (A) (A) (A) (A) (A) (A)
                 (A) (A) (A) (A) (A) (A) (A) (A) (A) (A) (A) (A)
                 (A) (A)
 Beta  Orbitals:
       Occupied  (A) (A) (A) (A) (A) (A) (A) (A) (A) (A) (A) (A)
                 (A) (A) (A) (A) (A) (A) (A) (A) (A) (A) (A) (A)
                 (A) (A) (A) (A) (A) (A) (A) (A) (A) (A) (A) (A)
                 (A) (A) (A) (A) (A) (A) (A) (A) (A) (A) (A) (A)
                 (A) (A) (A) (A) (A) (A) (A) (A) (A) (A) (A) (A)
                 (A) (A) (A) (A) (A) (A) (A) (A) (A) (A) (A) (A)
                 (A) (A) (A) (A) (A) (A) (A) (A) (A) (A) (A) (A)
                 (A) (A) (A) (A) (A) (A) (A) (A) (A) (A) (A) (A)
                 (A) (A) (A) (A) (A) (A) (A) (A) (A) (A) (A) (A)
                 (A) (A) (A) (A) (A) (A) (A) (A) (A) (A) (A) (A)
                 (A) (A) (A) (A) (A) (A) (A) (A) (A) (A) (A) (A)
                 (A) (A) (A) (A) (A) (A) (A) (A) (A) (A) (A) (A)
                 (A) (A) (A) (A) (A) (A)
       Virtual   (A) (A) (A) (A) (A) (A) (A) (A) (A) (A) (A) (A)
                 (A) (A) (A) (A) (A) (A) (A) (A) (A) (A) (A) (A)
                 (A) (A) (A) (A) (A) (A) (A) (A) (A) (A) (A) (A)
                 (A) (A) (A) (A) (A) (A) (A) (A) (A) (A) (A) (A)
                 (A) (A) (A) (A) (A) (A) (A) (A) (A) (A) (A) (A)
                 (A) (A) (A) (A) (A) (A) (A) (A) (A) (A) (A) (A)
                 (A) (A) (A) (A) (A) (A) (A) (A) (A) (A) (A) (A)
                 (A) (A) (A) (A) (A) (A) (A) (A) (A) (A) (A) (A)
                 (A) (A) (A) (A) (A) (A) (A) (A) (A) (A) (A) (A)
                 (A) (A) (A) (A) (A) (A) (A) (A) (A) (A) (A) (A)
                 (A) (A) (A) (A) (A) (A) (A) (A) (A) (A) (A) (A)
                 (A) (A) (A) (A) (A) (A) (A) (A) (A) (A) (A) (A)
                 (A) (A) (A) (A) (A) (A) (A) (A) (A) (A) (A) (A)
                 (A) (A) (A) (A) (A) (A) (A) (A) (A) (A) (A) (A)
                 (A) (A) (A) (A) (A) (A) (A) (A) (A) (A) (A) (A)
                 (A) (A) (A) (A) (A) (A) (A) (A) (A) (A) (A) (A)
                 (A) (A) (A) (A) (A) (A) (A) (A) (A) (A) (A) (A)
                 (A) (A) (A) (A) (A) (A) (A) (A) (A) (A) (A) (A)
                 (A) (A) (A) (A) (A) (A) (A) (A) (A) (A) (A) (A)
                 (A) (A) (A) (A) (A) (A) (A) (A) (A) (A) (A) (A)
                 (A) (A) (A) (A) (A) (A) (A) (A) (A) (A) (A) (A)
                 (A) (A) (A) (A) (A) (A) (A) (A) (A) (A) (A) (A)
                 (A) (A) (A) (A) (A) (A) (A) (A) (A) (A) (A) (A)
                 (A) (A) (A) (A) (A) (A) (A) (A) (A) (A) (A) (A)
                 (A) (A) (A) (A) (A) (A) (A) (A) (A) (A) (A) (A)
                 (A) (A) (A) (A) (A) (A) (A) (A) (A) (A) (A) (A)
                 (A) (A) (A) (A) (A) (A) (A) (A) (A) (A) (A) (A)
                 (A) (A) (A) (A) (A) (A) (A) (A) (A) (A) (A) (A)
                 (A) (A) (A) (A) (A) (A) (A) (A) (A) (A) (A) (A)
                 (A) (A) (A) (A) (A) (A) (A) (A) (A) (A) (A) (A)
                 (A) (A) (A) (A) (A) (A) (A) (A) (A) (A) (A) (A)
                 (A) (A) (A) (A) (A) (A) (A) (A) (A) (A) (A) (A)
                 (A) (A) (A) (A) (A) (A) (A) (A) (A) (A) (A) (A)
                 (A) (A) (A) (A) (A) (A) (A) (A) (A) (A) (A) (A)
                 (A) (A) (A) (A) (A) (A) (A) (A) (A) (A) (A) (A)
                 (A) (A) (A) (A) (A) (A) (A) (A) (A) (A) (A) (A)
                 (A) (A) (A) (A) (A) (A) (A) (A) (A) (A) (A) (A)
                 (A) (A) (A) (A) (A) (A) (A) (A) (A) (A) (A) (A)
                 (A) (A) (A) (A) (A) (A) (A) (A) (A) (A) (A) (A)
                 (A) (A) (A) (A) (A) (A) (A) (A) (A) (A) (A) (A)
                 (A) (A) (A) (A) (A) (A) (A) (A) (A) (A) (A) (A)
                 (A) (A) (A) (A) (A) (A) (A) (A) (A) (A) (A) (A)
                 (A) (A) (A) (A) (A) (A) (A)
 The electronic state is 6-A.
 Alpha  occ. eigenvalues -- -256.42479 -30.33475 -26.16527 -26.16357 -26.16334
 Alpha  occ. eigenvalues --  -14.54365 -14.50002 -14.47049 -14.47023 -14.46961
 Alpha  occ. eigenvalues --  -14.46946 -10.38505 -10.35576 -10.33831 -10.33691
 Alpha  occ. eigenvalues --  -10.33689 -10.33688 -10.33673 -10.33663 -10.33654
 Alpha  occ. eigenvalues --  -10.33494 -10.33039 -10.30719 -10.30689 -10.30681
 Alpha  occ. eigenvalues --  -10.30677 -10.30628 -10.30603 -10.30593 -10.30528
 Alpha  occ. eigenvalues --  -10.30515 -10.30427 -10.30412 -10.30393 -10.30357
 Alpha  occ. eigenvalues --  -10.29513 -10.29502 -10.28615 -10.28493 -10.28429
 Alpha  occ. eigenvalues --  -10.28402 -10.28287 -10.28227 -10.28189 -10.28083
 Alpha  occ. eigenvalues --   -3.78818  -2.55484  -2.55354  -2.55328  -1.17119
 Alpha  occ. eigenvalues --   -1.09431  -1.08394  -1.08347  -1.07389  -1.03014
 Alpha  occ. eigenvalues --   -0.93820  -0.92497  -0.92190  -0.91807  -0.91510
 Alpha  occ. eigenvalues --   -0.91055  -0.90958  -0.90880  -0.86937  -0.85663
 Alpha  occ. eigenvalues --   -0.85537  -0.84536  -0.83193  -0.82422  -0.81448
 Alpha  occ. eigenvalues --   -0.80471  -0.78941  -0.78658  -0.78577  -0.76414
 Alpha  occ. eigenvalues --   -0.75383  -0.75344  -0.72654  -0.70931  -0.70287
 Alpha  occ. eigenvalues --   -0.69104  -0.68699  -0.67247  -0.65460  -0.64831
 Alpha  occ. eigenvalues --   -0.64234  -0.63958  -0.62397  -0.62164  -0.62122
 Alpha  occ. eigenvalues --   -0.61651  -0.60214  -0.58864  -0.58706  -0.58628
 Alpha  occ. eigenvalues --   -0.58016  -0.56641  -0.56525  -0.56129  -0.56072
 Alpha  occ. eigenvalues --   -0.55403  -0.55359  -0.54755  -0.54626  -0.54008
 Alpha  occ. eigenvalues --   -0.53869  -0.53573  -0.53530  -0.53371  -0.53073
 Alpha  occ. eigenvalues --   -0.52694  -0.52448  -0.52330  -0.51997  -0.51859
 Alpha  occ. eigenvalues --   -0.51447  -0.50868  -0.50690  -0.50606  -0.50368
 Alpha  occ. eigenvalues --   -0.50051  -0.49883  -0.49752  -0.49394  -0.49134
 Alpha  occ. eigenvalues --   -0.49014  -0.48894  -0.48538  -0.48182  -0.47850
 Alpha  occ. eigenvalues --   -0.47222  -0.47116  -0.46536  -0.45970  -0.45453
 Alpha  occ. eigenvalues --   -0.45108  -0.44046  -0.43675  -0.43225  -0.42951
 Alpha  occ. eigenvalues --   -0.42556  -0.41602  -0.40762  -0.39588  -0.39333
 Alpha  occ. eigenvalues --   -0.37554  -0.37443  -0.34895  -0.34138  -0.33847
 Alpha  occ. eigenvalues --   -0.32949  -0.32564  -0.32260  -0.29808  -0.28799
 Alpha virt. eigenvalues --   -0.17653  -0.17583  -0.11745  -0.09256  -0.08058
 Alpha virt. eigenvalues --   -0.06941  -0.05334  -0.04712  -0.04251  -0.02220
 Alpha virt. eigenvalues --   -0.01822  -0.01206   0.00621   0.00854   0.01737
 Alpha virt. eigenvalues --    0.02440   0.02929   0.03154   0.03615   0.03794
 Alpha virt. eigenvalues --    0.04175   0.04586   0.04756   0.05167   0.05465
 Alpha virt. eigenvalues --    0.05781   0.05902   0.06299   0.06801   0.07371
 Alpha virt. eigenvalues --    0.07505   0.07770   0.08055   0.08355   0.08490
 Alpha virt. eigenvalues --    0.08776   0.09292   0.09330   0.09475   0.09816
 Alpha virt. eigenvalues --    0.10017   0.10358   0.10817   0.11013   0.11442
 Alpha virt. eigenvalues --    0.11663   0.12064   0.12250   0.12566   0.12825
 Alpha virt. eigenvalues --    0.13074   0.13505   0.13827   0.14565   0.14928
 Alpha virt. eigenvalues --    0.15333   0.15540   0.15824   0.16387   0.16700
 Alpha virt. eigenvalues --    0.16893   0.17636   0.17773   0.19177   0.19363
 Alpha virt. eigenvalues --    0.19819   0.20606   0.21500   0.21669   0.22666
 Alpha virt. eigenvalues --    0.23165   0.24562   0.25009   0.25342   0.25535
 Alpha virt. eigenvalues --    0.26532   0.26857   0.26965   0.28403   0.29974
 Alpha virt. eigenvalues --    0.30254   0.30843   0.31801   0.33032   0.33625
 Alpha virt. eigenvalues --    0.33704   0.34218   0.34866   0.37174   0.37444
 Alpha virt. eigenvalues --    0.37839   0.38475   0.39010   0.39641   0.39702
 Alpha virt. eigenvalues --    0.40301   0.40471   0.40889   0.41363   0.41808
 Alpha virt. eigenvalues --    0.42494   0.42564   0.43173   0.43308   0.43663
 Alpha virt. eigenvalues --    0.43737   0.44541   0.44634   0.45005   0.45746
 Alpha virt. eigenvalues --    0.45847   0.46381   0.47135   0.47440   0.47566
 Alpha virt. eigenvalues --    0.48330   0.48449   0.48923   0.49332   0.49892
 Alpha virt. eigenvalues --    0.50163   0.50533   0.50860   0.51291   0.51961
 Alpha virt. eigenvalues --    0.52234   0.52683   0.53056   0.53757   0.54109
 Alpha virt. eigenvalues --    0.54447   0.54846   0.55210   0.55350   0.55809
 Alpha virt. eigenvalues --    0.56111   0.56565   0.56645   0.56925   0.57403
 Alpha virt. eigenvalues --    0.57472   0.57857   0.58328   0.59290   0.59453
 Alpha virt. eigenvalues --    0.59961   0.60268   0.60678   0.60923   0.62254
 Alpha virt. eigenvalues --    0.62590   0.62769   0.62992   0.63810   0.64682
 Alpha virt. eigenvalues --    0.64826   0.65577   0.66211   0.66564   0.66749
 Alpha virt. eigenvalues --    0.67332   0.67617   0.67946   0.68205   0.68374
 Alpha virt. eigenvalues --    0.68640   0.69024   0.69419   0.69666   0.70321
 Alpha virt. eigenvalues --    0.70334   0.71193   0.71407   0.72533   0.73248
 Alpha virt. eigenvalues --    0.73397   0.74237   0.74543   0.76023   0.76370
 Alpha virt. eigenvalues --    0.77176   0.77294   0.77569   0.78071   0.78254
 Alpha virt. eigenvalues --    0.78542   0.78882   0.78963   0.79463   0.79927
 Alpha virt. eigenvalues --    0.81006   0.81302   0.81376   0.82286   0.82538
 Alpha virt. eigenvalues --    0.82600   0.82712   0.82871   0.83539   0.83610
 Alpha virt. eigenvalues --    0.83948   0.84476   0.84633   0.84904   0.85756
 Alpha virt. eigenvalues --    0.86311   0.86564   0.87156   0.87324   0.87790
 Alpha virt. eigenvalues --    0.87870   0.88951   0.89236   0.89341   0.89610
 Alpha virt. eigenvalues --    0.90275   0.90749   0.90890   0.91198   0.91699
 Alpha virt. eigenvalues --    0.92407   0.92831   0.93360   0.93748   0.93972
 Alpha virt. eigenvalues --    0.94448   0.95135   0.95395   0.96169   0.97082
 Alpha virt. eigenvalues --    0.97192   0.97649   0.98259   0.99127   1.01046
 Alpha virt. eigenvalues --    1.01663   1.02658   1.03298   1.04975   1.05192
 Alpha virt. eigenvalues --    1.05664   1.05874   1.06544   1.07511   1.08036
 Alpha virt. eigenvalues --    1.08289   1.09584   1.09862   1.10130   1.10249
 Alpha virt. eigenvalues --    1.11072   1.11136   1.11615   1.12375   1.13323
 Alpha virt. eigenvalues --    1.13498   1.14471   1.15001   1.16613   1.17757
 Alpha virt. eigenvalues --    1.18514   1.19142   1.19925   1.20279   1.20789
 Alpha virt. eigenvalues --    1.21225   1.21663   1.22585   1.23239   1.23924
 Alpha virt. eigenvalues --    1.24933   1.25766   1.26384   1.26582   1.27166
 Alpha virt. eigenvalues --    1.27660   1.27752   1.27915   1.28257   1.29027
 Alpha virt. eigenvalues --    1.29474   1.30247   1.30649   1.32298   1.33239
 Alpha virt. eigenvalues --    1.33429   1.33918   1.34531   1.36089   1.37029
 Alpha virt. eigenvalues --    1.37477   1.38008   1.38625   1.39568   1.41293
 Alpha virt. eigenvalues --    1.41497   1.42977   1.43354   1.44177   1.44564
 Alpha virt. eigenvalues --    1.45238   1.45814   1.46364   1.47135   1.48486
 Alpha virt. eigenvalues --    1.49724   1.50214   1.51405   1.52170   1.52376
 Alpha virt. eigenvalues --    1.53323   1.54953   1.56434   1.56764   1.57910
 Alpha virt. eigenvalues --    1.59815   1.59997   1.61076   1.61695   1.62920
 Alpha virt. eigenvalues --    1.64912   1.67709   1.68099   1.68498   1.69123
 Alpha virt. eigenvalues --    1.69432   1.70196   1.70342   1.70958   1.71134
 Alpha virt. eigenvalues --    1.71477   1.72038   1.72654   1.72919   1.73567
 Alpha virt. eigenvalues --    1.73930   1.74816   1.75243   1.75486   1.76970
 Alpha virt. eigenvalues --    1.77085   1.77486   1.78025   1.79087   1.79371
 Alpha virt. eigenvalues --    1.79844   1.80668   1.81641   1.81990   1.82313
 Alpha virt. eigenvalues --    1.82797   1.84415   1.84699   1.84928   1.85733
 Alpha virt. eigenvalues --    1.85893   1.86241   1.88529   1.90120   1.90153
 Alpha virt. eigenvalues --    1.90234   1.90833   1.91022   1.91704   1.92845
 Alpha virt. eigenvalues --    1.93062   1.94542   1.95080   1.95329   1.95697
 Alpha virt. eigenvalues --    1.96124   1.97353   1.97720   1.98353   1.98970
 Alpha virt. eigenvalues --    2.00785   2.01069   2.01987   2.02783   2.03336
 Alpha virt. eigenvalues --    2.04599   2.04903   2.05613   2.06028   2.06370
 Alpha virt. eigenvalues --    2.06991   2.08193   2.08593   2.09902   2.10289
 Alpha virt. eigenvalues --    2.11033   2.11252   2.12469   2.12986   2.13257
 Alpha virt. eigenvalues --    2.13927   2.14100   2.15861   2.16356   2.16605
 Alpha virt. eigenvalues --    2.16799   2.16862   2.17290   2.18217   2.18748
 Alpha virt. eigenvalues --    2.19301   2.20005   2.20338   2.20677   2.21070
 Alpha virt. eigenvalues --    2.21447   2.21861   2.23269   2.24445   2.24774
 Alpha virt. eigenvalues --    2.25460   2.25889   2.26658   2.27363   2.27452
 Alpha virt. eigenvalues --    2.27941   2.28153   2.28934   2.30362   2.30880
 Alpha virt. eigenvalues --    2.31195   2.31423   2.32048   2.32953   2.33881
 Alpha virt. eigenvalues --    2.34016   2.34548   2.35018   2.35165   2.37923
 Alpha virt. eigenvalues --    2.38168   2.39017   2.39815   2.41936   2.42602
 Alpha virt. eigenvalues --    2.42968   2.43012   2.43284   2.45249   2.45502
 Alpha virt. eigenvalues --    2.46270   2.46594   2.46778   2.49227   2.49999
 Alpha virt. eigenvalues --    2.50627   2.50905   2.52923   2.54999   2.56493
 Alpha virt. eigenvalues --    2.57401   2.57961   2.58119   2.58505   2.60319
 Alpha virt. eigenvalues --    2.61556   2.63271   2.63960   2.65484   2.67601
 Alpha virt. eigenvalues --    2.68110   2.69789   2.70862   2.71387   2.76306
 Alpha virt. eigenvalues --    2.77148   2.77386   2.78296   2.80124   2.80632
 Alpha virt. eigenvalues --    2.82279   2.84599   2.86477   2.86747   2.87656
 Alpha virt. eigenvalues --    2.88511   2.89277   2.89384   2.90660   2.94076
 Alpha virt. eigenvalues --    2.94651   2.95087   3.01844   3.03347   3.04655
 Alpha virt. eigenvalues --    3.10198   3.12952   3.14212   3.19834   3.19963
 Alpha virt. eigenvalues --    3.27530   3.29256   3.29460   3.34190   3.35931
 Alpha virt. eigenvalues --    3.36016   3.36442   3.43035   3.68159   3.84468
 Alpha virt. eigenvalues --    4.03648
  Beta  occ. eigenvalues -- -256.42313 -30.23988 -26.08676 -26.08375 -26.08370
  Beta  occ. eigenvalues --  -14.54348 -14.49629 -14.46730 -14.46705 -14.46652
  Beta  occ. eigenvalues --  -14.46637 -10.38488 -10.35560 -10.33815 -10.33676
  Beta  occ. eigenvalues --  -10.33675 -10.33669 -10.33659 -10.33641 -10.33638
  Beta  occ. eigenvalues --  -10.33480 -10.33037 -10.30686 -10.30682 -10.30639
  Beta  occ. eigenvalues --  -10.30637 -10.30620 -10.30561 -10.30558 -10.30506
  Beta  occ. eigenvalues --  -10.30490 -10.30426 -10.30402 -10.30357 -10.30319
  Beta  occ. eigenvalues --  -10.29521 -10.29510 -10.28615 -10.28493 -10.28429
  Beta  occ. eigenvalues --  -10.28402 -10.28287 -10.28209 -10.28171 -10.28083
  Beta  occ. eigenvalues --   -3.56476  -2.32024  -2.31296  -2.31260  -1.16916
  Beta  occ. eigenvalues --   -1.09017  -1.07987  -1.07945  -1.06962  -1.02631
  Beta  occ. eigenvalues --   -0.93750  -0.92310  -0.92021  -0.91602  -0.91302
  Beta  occ. eigenvalues --   -0.90925  -0.90854  -0.90820  -0.86872  -0.85584
  Beta  occ. eigenvalues --   -0.85455  -0.84473  -0.83156  -0.82325  -0.81340
  Beta  occ. eigenvalues --   -0.80327  -0.78761  -0.78538  -0.78362  -0.76025
  Beta  occ. eigenvalues --   -0.75288  -0.75246  -0.72540  -0.70751  -0.70129
  Beta  occ. eigenvalues --   -0.68947  -0.68264  -0.67046  -0.65317  -0.64591
  Beta  occ. eigenvalues --   -0.63710  -0.63497  -0.61947  -0.61918  -0.61455
  Beta  occ. eigenvalues --   -0.59348  -0.59037  -0.58439  -0.58299  -0.58016
  Beta  occ. eigenvalues --   -0.56099  -0.55191  -0.54787  -0.54729  -0.54216
  Beta  occ. eigenvalues --   -0.53949  -0.53905  -0.53634  -0.53527  -0.53386
  Beta  occ. eigenvalues --   -0.53058  -0.52629  -0.52322  -0.52140  -0.52078
  Beta  occ. eigenvalues --   -0.51589  -0.50841  -0.50670  -0.50579  -0.50370
  Beta  occ. eigenvalues --   -0.50281  -0.49941  -0.49756  -0.49648  -0.49437
  Beta  occ. eigenvalues --   -0.49136  -0.48787  -0.48463  -0.47989  -0.47834
  Beta  occ. eigenvalues --   -0.47776  -0.47477  -0.47146  -0.46655  -0.46246
  Beta  occ. eigenvalues --   -0.45895  -0.45007  -0.44412  -0.43811  -0.43219
  Beta  occ. eigenvalues --   -0.42998  -0.42653  -0.41964  -0.41375  -0.39575
  Beta  occ. eigenvalues --   -0.39139  -0.37613  -0.37410  -0.34989  -0.34282
  Beta  occ. eigenvalues --   -0.34109  -0.32757  -0.32055  -0.29857  -0.28700
  Beta virt. eigenvalues --   -0.21618  -0.21538  -0.20094  -0.17502  -0.16470
  Beta virt. eigenvalues --   -0.16413  -0.11787  -0.11536  -0.08767  -0.07864
  Beta virt. eigenvalues --   -0.06743  -0.04916  -0.04420  -0.02383  -0.01829
  Beta virt. eigenvalues --   -0.01604  -0.00815   0.00829   0.01042   0.01758
  Beta virt. eigenvalues --    0.02524   0.03000   0.03276   0.03816   0.03937
  Beta virt. eigenvalues --    0.04299   0.04771   0.04925   0.05229   0.05604
  Beta virt. eigenvalues --    0.05846   0.06089   0.06448   0.06871   0.07417
  Beta virt. eigenvalues --    0.07593   0.07859   0.08204   0.08428   0.08605
  Beta virt. eigenvalues --    0.08964   0.09305   0.09434   0.09650   0.10008
  Beta virt. eigenvalues --    0.10080   0.10431   0.11066   0.11523   0.11723
  Beta virt. eigenvalues --    0.11995   0.12279   0.12481   0.12721   0.13056
  Beta virt. eigenvalues --    0.13277   0.13727   0.14400   0.14791   0.15169
  Beta virt. eigenvalues --    0.15671   0.15926   0.16211   0.16572   0.16886
  Beta virt. eigenvalues --    0.17119   0.17753   0.17864   0.19562   0.20323
  Beta virt. eigenvalues --    0.20516   0.20769   0.21834   0.22237   0.23055
  Beta virt. eigenvalues --    0.23346   0.24889   0.25298   0.25587   0.25832
  Beta virt. eigenvalues --    0.26721   0.27063   0.27501   0.28547   0.30242
  Beta virt. eigenvalues --    0.30796   0.31400   0.32269   0.33111   0.33708
  Beta virt. eigenvalues --    0.33811   0.34485   0.35776   0.37703   0.37814
  Beta virt. eigenvalues --    0.38195   0.38681   0.39367   0.40010   0.40129
  Beta virt. eigenvalues --    0.40516   0.40655   0.41594   0.41702   0.41927
  Beta virt. eigenvalues --    0.42622   0.42688   0.43256   0.43422   0.43770
  Beta virt. eigenvalues --    0.43836   0.44725   0.44963   0.45107   0.45947
  Beta virt. eigenvalues --    0.46010   0.46712   0.47345   0.47582   0.47658
  Beta virt. eigenvalues --    0.48449   0.48573   0.49026   0.49652   0.50000
  Beta virt. eigenvalues --    0.50267   0.50652   0.50958   0.51424   0.52190
  Beta virt. eigenvalues --    0.52360   0.52775   0.53244   0.53917   0.54213
  Beta virt. eigenvalues --    0.54777   0.55251   0.55533   0.55842   0.55948
  Beta virt. eigenvalues --    0.56552   0.56715   0.57092   0.57207   0.57554
  Beta virt. eigenvalues --    0.57641   0.58001   0.58507   0.59575   0.59714
  Beta virt. eigenvalues --    0.60110   0.60544   0.61190   0.61565   0.62422
  Beta virt. eigenvalues --    0.62756   0.63105   0.63396   0.63990   0.64894
  Beta virt. eigenvalues --    0.64973   0.65708   0.66422   0.66688   0.66904
  Beta virt. eigenvalues --    0.67557   0.67891   0.68091   0.68462   0.68772
  Beta virt. eigenvalues --    0.68866   0.69390   0.69543   0.69955   0.70436
  Beta virt. eigenvalues --    0.70723   0.71319   0.71767   0.72809   0.73412
  Beta virt. eigenvalues --    0.73554   0.74443   0.74916   0.76192   0.76504
  Beta virt. eigenvalues --    0.77331   0.77406   0.77640   0.78194   0.78457
  Beta virt. eigenvalues --    0.78673   0.78953   0.79135   0.79740   0.80245
  Beta virt. eigenvalues --    0.81121   0.81416   0.81722   0.82489   0.82638
  Beta virt. eigenvalues --    0.82736   0.83028   0.83148   0.83818   0.83908
  Beta virt. eigenvalues --    0.84077   0.84578   0.84875   0.85113   0.85972
  Beta virt. eigenvalues --    0.86533   0.86831   0.87261   0.87567   0.87902
  Beta virt. eigenvalues --    0.88146   0.89085   0.89581   0.89604   0.89833
  Beta virt. eigenvalues --    0.90474   0.90912   0.91109   0.91454   0.91778
  Beta virt. eigenvalues --    0.92557   0.93167   0.93777   0.93927   0.94358
  Beta virt. eigenvalues --    0.94707   0.95528   0.95791   0.96603   0.97268
  Beta virt. eigenvalues --    0.97462   0.97894   0.99116   0.99614   1.01297
  Beta virt. eigenvalues --    1.01806   1.03780   1.04385   1.05077   1.05623
  Beta virt. eigenvalues --    1.06556   1.06747   1.07527   1.07723   1.08409
  Beta virt. eigenvalues --    1.08811   1.09724   1.10164   1.10344   1.10610
  Beta virt. eigenvalues --    1.11202   1.11440   1.11816   1.13454   1.13799
  Beta virt. eigenvalues --    1.14327   1.14801   1.15123   1.16836   1.17907
  Beta virt. eigenvalues --    1.18687   1.19432   1.20115   1.20466   1.20927
  Beta virt. eigenvalues --    1.21346   1.21865   1.22838   1.23410   1.24203
  Beta virt. eigenvalues --    1.25189   1.25886   1.26525   1.26751   1.27287
  Beta virt. eigenvalues --    1.27794   1.27864   1.28018   1.28407   1.29205
  Beta virt. eigenvalues --    1.30209   1.30409   1.31223   1.32870   1.33498
  Beta virt. eigenvalues --    1.33658   1.34181   1.34743   1.36480   1.37231
  Beta virt. eigenvalues --    1.37610   1.38193   1.38775   1.40294   1.41470
  Beta virt. eigenvalues --    1.41891   1.43226   1.43461   1.44293   1.44752
  Beta virt. eigenvalues --    1.45404   1.46135   1.46669   1.47736   1.48940
  Beta virt. eigenvalues --    1.50196   1.50363   1.51687   1.52568   1.53015
  Beta virt. eigenvalues --    1.53571   1.55318   1.56641   1.57416   1.58423
  Beta virt. eigenvalues --    1.60004   1.60192   1.61283   1.61883   1.63181
  Beta virt. eigenvalues --    1.65148   1.68086   1.68397   1.68995   1.69569
  Beta virt. eigenvalues --    1.69928   1.70363   1.70524   1.71251   1.71479
  Beta virt. eigenvalues --    1.71756   1.72296   1.72825   1.73290   1.73734
  Beta virt. eigenvalues --    1.74206   1.74970   1.75436   1.75776   1.77099
  Beta virt. eigenvalues --    1.77217   1.77679   1.78124   1.79442   1.79770
  Beta virt. eigenvalues --    1.79960   1.81000   1.81868   1.82320   1.82604
  Beta virt. eigenvalues --    1.83085   1.84628   1.85125   1.85468   1.86041
  Beta virt. eigenvalues --    1.86375   1.87821   1.89672   1.90289   1.90367
  Beta virt. eigenvalues --    1.90431   1.90972   1.91276   1.91963   1.93276
  Beta virt. eigenvalues --    1.93595   1.94939   1.95253   1.95746   1.96076
  Beta virt. eigenvalues --    1.96503   1.97699   1.98045   1.98595   1.99365
  Beta virt. eigenvalues --    2.01069   2.01514   2.02134   2.03173   2.03515
  Beta virt. eigenvalues --    2.04960   2.05728   2.06149   2.06363   2.07059
  Beta virt. eigenvalues --    2.07336   2.08713   2.09266   2.10723   2.11107
  Beta virt. eigenvalues --    2.11296   2.12704   2.13291   2.13669   2.14235
  Beta virt. eigenvalues --    2.14636   2.15419   2.16100   2.16739   2.16947
  Beta virt. eigenvalues --    2.17049   2.17547   2.17748   2.18475   2.19127
  Beta virt. eigenvalues --    2.19919   2.20233   2.20488   2.20926   2.21624
  Beta virt. eigenvalues --    2.22077   2.22171   2.23412   2.24737   2.24941
  Beta virt. eigenvalues --    2.25560   2.25963   2.26874   2.27489   2.27657
  Beta virt. eigenvalues --    2.28226   2.28289   2.29107   2.30497   2.31033
  Beta virt. eigenvalues --    2.31418   2.31624   2.32230   2.33165   2.33985
  Beta virt. eigenvalues --    2.34266   2.34690   2.35304   2.35584   2.38205
  Beta virt. eigenvalues --    2.38437   2.39610   2.40238   2.42147   2.42848
  Beta virt. eigenvalues --    2.43114   2.43267   2.43584   2.45434   2.45719
  Beta virt. eigenvalues --    2.46410   2.46838   2.47070   2.49783   2.50167
  Beta virt. eigenvalues --    2.50836   2.51255   2.53047   2.55093   2.56610
  Beta virt. eigenvalues --    2.57813   2.58362   2.58469   2.58718   2.60499
  Beta virt. eigenvalues --    2.61790   2.63555   2.64293   2.65674   2.68239
  Beta virt. eigenvalues --    2.68245   2.69906   2.70950   2.71482   2.76590
  Beta virt. eigenvalues --    2.77401   2.77581   2.78527   2.80376   2.80864
  Beta virt. eigenvalues --    2.82570   2.84856   2.86639   2.86947   2.88398
  Beta virt. eigenvalues --    2.88671   2.89435   2.89790   2.90777   2.94472
  Beta virt. eigenvalues --    2.94979   2.95295   3.02079   3.03593   3.04747
  Beta virt. eigenvalues --    3.10318   3.13189   3.14897   3.19923   3.20054
  Beta virt. eigenvalues --    3.27973   3.29519   3.30358   3.36127   3.36240
  Beta virt. eigenvalues --    3.43697   3.49505   3.55618   3.80037   3.95001
  Beta virt. eigenvalues --    4.13934
          Condensed to atoms (all electrons):
          Atomic-Atomic Spin Densities.
 Mulliken charges and spin densities:
               1          2
     1  Fe   1.140507   4.272497
     2  N   -0.756252   0.093771
     3  N   -0.747047   0.088200
     4  N   -0.749304   0.088105
     5  N   -0.762140   0.094215
     6  C    0.341540   0.005848
     7  C    0.042416   0.018305
     8  C    0.043361   0.025926
     9  C    0.320595   0.000347
    10  C    0.319580   0.001175
    11  C    0.046384   0.021720
    12  C    0.008059   0.020791
    13  C    0.339485   0.000478
    14  C    0.334525   0.000469
    15  C    0.047338   0.022956
    16  C    0.010145   0.021746
    17  C    0.332503   0.002479
    18  C    0.329634   0.001378
    19  C    0.044948   0.025777
    20  C    0.043591   0.020502
    21  C    0.343988   0.005720
    22  C   -0.295146   0.001148
    23  H    0.193441   0.000189
    24  C   -0.311409   0.005857
    25  H    0.193282  -0.000024
    26  C   -0.288260   0.007951
    27  H    0.194857  -0.000121
    28  C   -0.303134   0.006451
    29  H    0.194012  -0.000052
    30  C   -0.611853  -0.001286
    31  H    0.205881   0.000412
    32  H    0.210988   0.001153
    33  H    0.198780   0.001140
    34  C   -0.612926  -0.000769
    35  H    0.203240   0.000842
    36  H    0.210102   0.000898
    37  H    0.204624   0.000392
    38  C   -0.614528  -0.001023
    39  H    0.191680   0.000715
    40  H    0.211758   0.001204
    41  H    0.212437   0.000501
    42  C   -0.155336  -0.006623
    43  H    0.180544   0.000598
    44  C   -0.387011   0.012392
    45  H    0.191190  -0.000606
    46  H    0.195445  -0.000453
    47  C   -0.616037  -0.001155
    48  H    0.196533   0.000796
    49  H    0.211880   0.001286
    50  H    0.212177   0.000513
    51  C   -0.155098  -0.006775
    52  H    0.178526   0.000645
    53  C   -0.386092   0.012794
    54  H    0.191805  -0.000623
    55  H    0.195124  -0.000457
    56  C   -0.613168  -0.001285
    57  H    0.202397   0.001190
    58  H    0.211153   0.001152
    59  H    0.205607   0.000416
    60  C   -0.613034  -0.000913
    61  H    0.204089   0.000995
    62  H    0.205249   0.000398
    63  H    0.209216   0.000966
    64  C   -0.602682   0.000862
    65  H    0.221776   0.000049
    66  H    0.215462   0.000286
    67  H    0.214164   0.000305
    68  N   -0.627707   0.005133
    69  H    0.387682   0.001510
    70  C    0.282281   0.007290
    71  C    0.266621   0.005115
    72  H    0.233508   0.000311
    73  N   -0.492911   0.108546
    74  C   -0.036189  -0.003656
    75  H    0.211157   0.001013
 Sum of Mulliken charges =   1.00000   5.00000
 Mulliken charges and spin densities with hydrogens summed into heavy atoms:
               1          2
     1  Fe   1.140507   4.272497
     2  N   -0.756252   0.093771
     3  N   -0.747047   0.088200
     4  N   -0.749304   0.088105
     5  N   -0.762140   0.094215
     6  C    0.341540   0.005848
     7  C    0.042416   0.018305
     8  C    0.043361   0.025926
     9  C    0.320595   0.000347
    10  C    0.319580   0.001175
    11  C    0.046384   0.021720
    12  C    0.008059   0.020791
    13  C    0.339485   0.000478
    14  C    0.334525   0.000469
    15  C    0.047338   0.022956
    16  C    0.010145   0.021746
    17  C    0.332503   0.002479
    18  C    0.329634   0.001378
    19  C    0.044948   0.025777
    20  C    0.043591   0.020502
    21  C    0.343988   0.005720
    22  C   -0.101705   0.001337
    24  C   -0.118127   0.005833
    26  C   -0.093404   0.007830
    28  C   -0.109123   0.006399
    30  C    0.003796   0.001420
    34  C    0.005039   0.001363
    38  C    0.001348   0.001396
    42  C    0.025208  -0.006025
    44  C   -0.000376   0.011333
    47  C    0.004552   0.001440
    51  C    0.023428  -0.006131
    53  C    0.000837   0.011714
    56  C    0.005988   0.001473
    60  C    0.005521   0.001445
    64  C    0.048720   0.001503
    68  N   -0.240025   0.006643
    70  C    0.282281   0.007290
    71  C    0.500128   0.005427
    73  N   -0.492911   0.108546
    74  C    0.174968  -0.002644
 Electronic spatial extent (au):  <R**2>=          19716.1293
 Charge=              1.0000 electrons
 Dipole moment (field-independent basis, Debye):
    X=             -0.8823    Y=             -1.5609    Z=              5.2726  Tot=              5.5691
 Quadrupole moment (field-independent basis, Debye-Ang):
   XX=           -170.6997   YY=           -177.4357   ZZ=           -205.8322
   XY=              1.1729   XZ=             -3.5786   YZ=             -3.0381
 Traceless Quadrupole moment (field-independent basis, Debye-Ang):
   XX=             13.9561   YY=              7.2202   ZZ=            -21.1763
   XY=              1.1729   XZ=             -3.5786   YZ=             -3.0381
 Octapole moment (field-independent basis, Debye-Ang**2):
  XXX=              6.6866  YYY=             -3.1240  ZZZ=            203.3236  XYY=             -9.9105
  XXY=              6.3692  XXZ=            -31.8355  XZZ=            -13.7030  YZZ=            -29.8766
  YYZ=            -57.6003  XYZ=              5.2415
 Hexadecapole moment (field-independent basis, Debye-Ang**3):
 XXXX=         -10134.4149 YYYY=          -9888.9904 ZZZZ=          -2349.7080 XXXY=             36.2506
 XXXZ=              4.8761 YYYX=            -41.7672 YYYZ=             20.6425 ZZZX=            -38.7937
 ZZZY=           -104.0149 XXYY=          -3133.0109 XXZZ=          -2417.7162 YYZZ=          -2467.3513
 XXYZ=            -87.3743 YYXZ=            -45.0211 ZZXY=             17.3534
 N-N= 5.572786701451D+03 E-N=-1.793887284318D+04  KE= 2.896813210549D+03
                          Isotropic Fermi Contact Couplings
        Atom                 a.u.       MegaHertz       Gauss      10(-4) cm-1
     1  Fe(57)             0.58420      16.94636       6.04688       5.65270
     2  N(14)              0.12744       8.23561       2.93867       2.74710
     3  N(14)              0.12981       8.38828       2.99315       2.79803
     4  N(14)              0.12856       8.30795       2.96448       2.77123
     5  N(14)              0.12590       8.13572       2.90303       2.71379
     6  C(13)              0.00536       1.20419       0.42969       0.40168
     7  C(13)              0.00554       1.24635       0.44473       0.41574
     8  C(13)              0.00668       1.50114       0.53564       0.50073
     9  C(13)              0.00504       1.13427       0.40474       0.37835
    10  C(13)              0.00460       1.03491       0.36928       0.34521
    11  C(13)              0.00603       1.35515       0.48355       0.45203
    12  C(13)              0.00601       1.35135       0.48220       0.45076
    13  C(13)              0.00482       1.08435       0.38692       0.36170
    14  C(13)              0.00486       1.09294       0.38999       0.36457
    15  C(13)              0.00617       1.38813       0.49532       0.46303
    16  C(13)              0.00601       1.35219       0.48249       0.45104
    17  C(13)              0.00472       1.06022       0.37831       0.35365
    18  C(13)              0.00515       1.15756       0.41304       0.38612
    19  C(13)              0.00656       1.47576       0.52659       0.49226
    20  C(13)              0.00582       1.30775       0.46664       0.43622
    21  C(13)              0.00541       1.21620       0.43397       0.40568
    22  C(13)             -0.00057      -0.12921      -0.04610      -0.04310
    23  H(1)               0.00007       0.05975       0.02132       0.01993
    24  C(13)              0.00037       0.08319       0.02968       0.02775
    25  H(1)              -0.00000      -0.00303      -0.00108      -0.00101
    26  C(13)              0.00057       0.12751       0.04550       0.04253
    27  H(1)              -0.00003      -0.03026      -0.01080      -0.01009
    28  C(13)              0.00048       0.10756       0.03838       0.03588
    29  H(1)              -0.00001      -0.01078      -0.00385      -0.00360
    30  C(13)             -0.00030      -0.06658      -0.02376      -0.02221
    31  H(1)               0.00016       0.14347       0.05119       0.04786
    32  H(1)               0.00061       0.54371       0.19401       0.18136
    33  H(1)               0.00059       0.52997       0.18911       0.17678
    34  C(13)             -0.00013      -0.02851      -0.01017      -0.00951
    35  H(1)               0.00043       0.38611       0.13777       0.12879
    36  H(1)               0.00047       0.41934       0.14963       0.13988
    37  H(1)               0.00015       0.13636       0.04866       0.04549
    38  C(13)             -0.00021      -0.04611      -0.01645      -0.01538
    39  H(1)               0.00034       0.30336       0.10825       0.10119
    40  H(1)               0.00064       0.56932       0.20315       0.18990
    41  H(1)               0.00017       0.15316       0.05465       0.05109
    42  C(13)             -0.00098      -0.21985      -0.07845      -0.07334
    43  H(1)               0.00023       0.20136       0.07185       0.06716
    44  C(13)              0.00199       0.44631       0.15925       0.14887
    45  H(1)              -0.00018      -0.16250      -0.05798      -0.05420
    46  H(1)              -0.00013      -0.11484      -0.04098      -0.03831
    47  C(13)             -0.00025      -0.05636      -0.02011      -0.01880
    48  H(1)               0.00037       0.32916       0.11745       0.10980
    49  H(1)               0.00067       0.60050       0.21427       0.20031
    50  H(1)               0.00018       0.15713       0.05607       0.05241
    51  C(13)             -0.00105      -0.23587      -0.08417      -0.07868
    52  H(1)               0.00024       0.21893       0.07812       0.07303
    53  C(13)              0.00208       0.46699       0.16663       0.15577
    54  H(1)              -0.00019      -0.16691      -0.05956      -0.05568
    55  H(1)              -0.00013      -0.11599      -0.04139      -0.03869
    56  C(13)             -0.00029      -0.06604      -0.02357      -0.02203
    57  H(1)               0.00061       0.54481       0.19440       0.18173
    58  H(1)               0.00060       0.53915       0.19238       0.17984
    59  H(1)               0.00016       0.14431       0.05149       0.04814
    60  C(13)             -0.00018      -0.03967      -0.01416      -0.01323
    61  H(1)               0.00051       0.45822       0.16350       0.15284
    62  H(1)               0.00015       0.13822       0.04932       0.04611
    63  H(1)               0.00050       0.44525       0.15888       0.14852
    64  C(13)              0.00053       0.11820       0.04218       0.03943
    65  H(1)               0.00005       0.04253       0.01518       0.01419
    66  H(1)               0.00016       0.14263       0.05089       0.04757
    67  H(1)               0.00017       0.15290       0.05456       0.05100
    68  N(14)              0.00888       0.57370       0.20471       0.19137
    69  H(1)               0.00063       0.55888       0.19942       0.18642
    70  C(13)              0.00514       1.15495       0.41212       0.38525
    71  C(13)              0.00655       1.47318       0.52567       0.49140
    72  H(1)               0.00019       0.17220       0.06145       0.05744
    73  N(14)              0.18954      12.24827       4.37049       4.08558
    74  C(13)              0.00082       0.18450       0.06583       0.06154
    75  H(1)               0.00045       0.40008       0.14276       0.13345
 --------------------------------------------------------
       Center         ----  Spin Dipole Couplings  ----
                      3XX-RR        3YY-RR        3ZZ-RR
 --------------------------------------------------------
     1   Atom        0.077135      0.117476     -0.194611
     2   Atom       -0.010298      0.063060     -0.052762
     3   Atom        0.068911     -0.004443     -0.064468
     4   Atom       -0.013107      0.073910     -0.060803
     5   Atom        0.066756     -0.021202     -0.045554
     6   Atom       -0.026012      0.051718     -0.025706
     7   Atom       -0.008032      0.003171      0.004861
     8   Atom       -0.005948     -0.005449      0.011396
     9   Atom        0.046305     -0.014950     -0.031355
    10   Atom        0.051748     -0.022131     -0.029617
    11   Atom        0.001552     -0.009772      0.008220
    12   Atom       -0.003141     -0.003576      0.006717
    13   Atom       -0.013892      0.043370     -0.029478
    14   Atom       -0.022663      0.052120     -0.029457
    15   Atom       -0.010959      0.001103      0.009856
    16   Atom       -0.004486     -0.003439      0.007924
    17   Atom        0.041824     -0.013981     -0.027843
    18   Atom        0.054631     -0.024530     -0.030101
    19   Atom        0.000097     -0.011478      0.011381
    20   Atom       -0.003214     -0.003938      0.007152
    21   Atom       -0.016986      0.042581     -0.025595
    22   Atom       -0.013650      0.032922     -0.019273
    23   Atom       -0.007149      0.015499     -0.008351
    24   Atom        0.030772     -0.015767     -0.015004
    25   Atom        0.015601     -0.007232     -0.008369
    26   Atom       -0.016377      0.029258     -0.012881
    27   Atom       -0.007257      0.015516     -0.008259
    28   Atom        0.030263     -0.015839     -0.014424
    29   Atom        0.015665     -0.007277     -0.008389
    30   Atom        0.005754     -0.001503     -0.004250
    31   Atom        0.002493      0.000696     -0.003189
    32   Atom        0.005123     -0.001745     -0.003378
    33   Atom        0.005318     -0.001615     -0.003703
    34   Atom       -0.003343      0.007754     -0.004411
    35   Atom       -0.002947      0.006841     -0.003894
    36   Atom       -0.002849      0.006003     -0.003154
    37   Atom       -0.000843      0.004023     -0.003180
    38   Atom        0.007549     -0.003150     -0.004399
    39   Atom        0.007040     -0.003060     -0.003980
    40   Atom        0.005433     -0.002395     -0.003038
    41   Atom        0.003980     -0.000789     -0.003191
    42   Atom       -0.001219      0.008221     -0.007002
    43   Atom       -0.001758      0.005683     -0.003925
    44   Atom        0.001462     -0.003166      0.001704
    45   Atom        0.001249      0.000822     -0.002072
    46   Atom       -0.000626      0.002647     -0.002020
    47   Atom       -0.003267      0.007633     -0.004366
    48   Atom       -0.003053      0.006905     -0.003852
    49   Atom       -0.002551      0.005703     -0.003151
    50   Atom       -0.000822      0.004020     -0.003198
    51   Atom        0.008239     -0.000891     -0.007348
    52   Atom        0.005814     -0.001725     -0.004089
    53   Atom       -0.003706      0.001194      0.002512
    54   Atom        0.000641      0.001431     -0.002072
    55   Atom        0.002591     -0.000613     -0.001978
    56   Atom        0.007767     -0.003538     -0.004229
    57   Atom        0.006668     -0.002900     -0.003768
    58   Atom        0.006283     -0.003026     -0.003257
    59   Atom        0.004073     -0.000942     -0.003131
    60   Atom       -0.001416      0.005647     -0.004232
    61   Atom       -0.001572      0.005465     -0.003893
    62   Atom        0.000700      0.002396     -0.003097
    63   Atom       -0.001723      0.004704     -0.002981
    64   Atom       -0.003878     -0.005065      0.008943
    65   Atom       -0.001324     -0.003967      0.005291
    66   Atom       -0.002748     -0.002731      0.005480
    67   Atom       -0.002869     -0.002992      0.005861
    68   Atom       -0.014980     -0.008270      0.023250
    69   Atom       -0.004207     -0.006015      0.010222
    70   Atom       -0.012160     -0.008647      0.020807
    71   Atom       -0.006884     -0.026866      0.033750
    72   Atom        0.006537     -0.019829      0.013293
    73   Atom       -0.195204     -0.154194      0.349399
    74   Atom       -0.006089     -0.036133      0.042223
    75   Atom        0.006920     -0.021528      0.014608
 --------------------------------------------------------
                        XY            XZ            YZ
 --------------------------------------------------------
     1   Atom       -0.004384      0.002465      0.033559
     2   Atom        0.213092      0.038698      0.037307
     3   Atom       -0.210205      0.016516     -0.020619
     4   Atom        0.206996     -0.012307     -0.026345
     5   Atom       -0.209065     -0.049979      0.031145
     6   Atom        0.017714      0.002269      0.007344
     7   Atom        0.015430      0.001592      0.000409
     8   Atom        0.016344      0.001462     -0.000612
     9   Atom        0.029619      0.003869      0.002292
    10   Atom       -0.017573      0.001759     -0.000394
    11   Atom       -0.014952      0.000681     -0.001695
    12   Atom       -0.015939     -0.000876     -0.001403
    13   Atom       -0.028878     -0.000791      0.000629
    14   Atom        0.016235      0.000017     -0.000316
    15   Atom        0.014629      0.000881     -0.002199
    16   Atom        0.015988      0.000342     -0.001548
    17   Atom        0.030126     -0.004419     -0.000904
    18   Atom       -0.016097     -0.006775      0.001642
    19   Atom       -0.015396     -0.000488     -0.001625
    20   Atom       -0.016342     -0.001959     -0.000174
    21   Atom       -0.030699     -0.003702      0.008202
    22   Atom       -0.004320     -0.000625      0.007075
    23   Atom       -0.002109     -0.000263      0.002625
    24   Atom        0.003708      0.003385      0.000304
    25   Atom        0.002018      0.000935      0.000134
    26   Atom       -0.004474      0.000213     -0.000446
    27   Atom       -0.002240     -0.000035      0.000260
    28   Atom        0.005200     -0.003938     -0.000197
    29   Atom        0.002394     -0.001352     -0.000063
    30   Atom        0.006112      0.000499      0.000270
    31   Atom        0.004465      0.000361      0.000317
    32   Atom        0.003902      0.002257      0.000795
    33   Atom        0.004230     -0.001420     -0.000393
    34   Atom        0.004419      0.000357      0.000923
    35   Atom        0.002639     -0.000056     -0.001025
    36   Atom        0.002614      0.000521      0.002724
    37   Atom        0.003807      0.000278      0.000525
    38   Atom       -0.004380      0.000172     -0.000227
    39   Atom       -0.002301     -0.001268      0.000144
    40   Atom       -0.002968      0.002050     -0.000496
    41   Atom       -0.003750     -0.000492      0.000229
    42   Atom       -0.006879      0.003798      0.000635
    43   Atom       -0.004175     -0.000378      0.001107
    44   Atom       -0.002680     -0.007973     -0.002002
    45   Atom       -0.002915      0.001263     -0.000701
    46   Atom       -0.002464     -0.000155     -0.000244
    47   Atom        0.004269     -0.000112     -0.000025
    48   Atom        0.002303      0.000164      0.001571
    49   Atom        0.002717     -0.000392     -0.001942
    50   Atom        0.003747      0.000167      0.000458
    51   Atom        0.006618     -0.000520     -0.004277
    52   Atom        0.004244      0.000408      0.000097
    53   Atom        0.003654     -0.001219      0.007992
    54   Atom        0.002845     -0.000837     -0.001424
    55   Atom        0.002535     -0.000594     -0.000019
    56   Atom       -0.004309     -0.001084      0.000291
    57   Atom       -0.002691      0.001045     -0.000017
    58   Atom       -0.002245     -0.002810      0.000426
    59   Atom       -0.003779     -0.000865      0.000485
    60   Atom       -0.006118     -0.000847      0.001457
    61   Atom       -0.004263      0.000047     -0.000597
    62   Atom       -0.004416     -0.000725      0.000893
    63   Atom       -0.003951     -0.001174      0.003015
    64   Atom       -0.000102      0.004035     -0.000383
    65   Atom        0.000061      0.004589      0.000016
    66   Atom       -0.000382      0.002077     -0.001769
    67   Atom        0.000116      0.001683      0.001078
    68   Atom       -0.000523     -0.003821     -0.002227
    69   Atom        0.000511     -0.004863     -0.001525
    70   Atom       -0.000594      0.003462     -0.001400
    71   Atom        0.004212     -0.033362     -0.007628
    72   Atom        0.004890     -0.028867     -0.005350
    73   Atom       -0.004459      0.002361     -0.031837
    74   Atom        0.001133      0.034596     -0.001250
    75   Atom        0.001031      0.030728      0.000897
 --------------------------------------------------------


 ---------------------------------------------------------------------------------
              Anisotropic Spin Dipole Couplings in Principal Axis System
 ---------------------------------------------------------------------------------

       Atom             a.u.   MegaHertz   Gauss  10(-4) cm-1        Axes

              Baa    -0.1982    -3.432    -1.224    -1.145 -0.0106 -0.1058  0.9943
     1 Fe(57) Bbb     0.0768     1.329     0.474     0.443  0.9957  0.0906  0.0202
              Bcc     0.1214     2.102     0.750     0.701 -0.0922  0.9902  0.1044
 
              Baa    -0.1901    -7.331    -2.616    -2.445  0.7674 -0.6397 -0.0425
     2 N(14)  Bbb    -0.0619    -2.388    -0.852    -0.796 -0.0786 -0.1597  0.9840
              Bcc     0.2520     9.719     3.468     3.242  0.6363  0.7518  0.1728
 
              Baa    -0.1814    -6.995    -2.496    -2.333  0.6408  0.7664  0.0447
     3 N(14)  Bbb    -0.0664    -2.560    -0.914    -0.854 -0.0921  0.0190  0.9956
              Bcc     0.2478     9.556     3.410     3.187  0.7622 -0.6420  0.0827
 
              Baa    -0.1815    -7.001    -2.498    -2.335  0.7726 -0.6322 -0.0592
     4 N(14)  Bbb    -0.0630    -2.429    -0.867    -0.810  0.1040  0.0340  0.9940
              Bcc     0.2445     9.431     3.365     3.146  0.6263  0.7741 -0.0920
 
              Baa    -0.1913    -7.376    -2.632    -2.460  0.6349  0.7708  0.0530
     5 N(14)  Bbb    -0.0568    -2.191    -0.782    -0.731  0.1179 -0.1644  0.9793
              Bcc     0.2481     9.567     3.414     3.191  0.7636 -0.6155 -0.1953
 
              Baa    -0.0300    -4.023    -1.435    -1.342  0.9645 -0.1929 -0.1806
     6 C(13)  Bbb    -0.0263    -3.529    -1.259    -1.177  0.1578 -0.1280  0.9791
              Bcc     0.0563     7.552     2.695     2.519  0.2120  0.9728  0.0930
 
              Baa    -0.0189    -2.535    -0.905    -0.846  0.8191 -0.5719 -0.0450
     7 C(13)  Bbb     0.0047     0.636     0.227     0.212 -0.0400 -0.1353  0.9900
              Bcc     0.0142     1.899     0.678     0.634  0.5723  0.8091  0.1337
 
              Baa    -0.0221    -2.967    -1.059    -0.990  0.7123 -0.7005 -0.0439
     8 C(13)  Bbb     0.0103     1.387     0.495     0.463  0.6062  0.6456 -0.4645
              Bcc     0.0118     1.580     0.564     0.527  0.3537  0.3043  0.8845
 
              Baa    -0.0317    -4.250    -1.516    -1.418  0.0074 -0.1486  0.9889
     9 C(13)  Bbb    -0.0268    -3.601    -1.285    -1.201 -0.3780  0.9151  0.1403
              Bcc     0.0585     7.851     2.801     2.619  0.9258  0.3748  0.0494
 
              Baa    -0.0297    -3.979    -1.420    -1.327 -0.0208  0.0039  0.9998
    10 C(13)  Bbb    -0.0261    -3.502    -1.250    -1.168  0.2202  0.9755  0.0008
              Bcc     0.0558     7.482     2.670     2.496  0.9752 -0.2202  0.0211
 
              Baa    -0.0201    -2.702    -0.964    -0.901  0.5665  0.8233  0.0356
    11 C(13)  Bbb     0.0077     1.033     0.369     0.345 -0.3011  0.1666  0.9389
              Bcc     0.0124     1.668     0.595     0.557  0.7671 -0.5426  0.3423
 
              Baa    -0.0194    -2.603    -0.929    -0.868  0.7004  0.7110  0.0617
    12 C(13)  Bbb     0.0068     0.912     0.325     0.304 -0.0876 -0.0001  0.9962
              Bcc     0.0126     1.691     0.604     0.564  0.7083 -0.7031  0.0622
 
              Baa    -0.0296    -3.966    -1.415    -1.323  0.1270  0.0418  0.9910
    13 C(13)  Bbb    -0.0259    -3.470    -1.238    -1.158  0.9143  0.3826 -0.1333
              Bcc     0.0554     7.436     2.653     2.480 -0.3847  0.9230  0.0104
 
              Baa    -0.0295    -3.953    -1.411    -1.319 -0.0225  0.0084  0.9997
    14 C(13)  Bbb    -0.0260    -3.493    -1.247    -1.165  0.9788 -0.2032  0.0237
              Bcc     0.0555     7.447     2.657     2.484  0.2034  0.9791 -0.0036
 
              Baa    -0.0209    -2.801    -1.000    -0.934  0.8278 -0.5574 -0.0636
    15 C(13)  Bbb     0.0090     1.211     0.432     0.404  0.3676  0.4534  0.8120
              Bcc     0.0118     1.590     0.567     0.530  0.4237  0.6955 -0.5802
 
              Baa    -0.0200    -2.687    -0.959    -0.896  0.7169 -0.6956 -0.0473
    16 C(13)  Bbb     0.0078     1.048     0.374     0.349  0.1742  0.1130  0.9782
              Bcc     0.0122     1.639     0.585     0.547  0.6751  0.7095 -0.2022
 
              Baa    -0.0287    -3.846    -1.372    -1.283  0.2518 -0.4644  0.8491
    17 C(13)  Bbb    -0.0266    -3.564    -1.272    -1.189 -0.3143  0.7905  0.5256
              Bcc     0.0552     7.410     2.644     2.472  0.9153  0.3992 -0.0530
 
              Baa    -0.0307    -4.117    -1.469    -1.373  0.0569 -0.1157  0.9916
    18 C(13)  Bbb    -0.0276    -3.710    -1.324    -1.237  0.1991  0.9746  0.1023
              Bcc     0.0583     7.827     2.793     2.611  0.9783 -0.1916 -0.0785
 
              Baa    -0.0222    -2.981    -1.064    -0.994  0.5680  0.8216  0.0480
    19 C(13)  Bbb     0.0105     1.406     0.502     0.469  0.7387 -0.4832 -0.4699
              Bcc     0.0117     1.575     0.562     0.525  0.3629 -0.3024  0.8814
 
              Baa    -0.0200    -2.684    -0.958    -0.895  0.6997  0.7123  0.0550
    20 C(13)  Bbb     0.0070     0.933     0.333     0.311  0.1154 -0.1888  0.9752
              Bcc     0.0131     1.751     0.625     0.584  0.7050 -0.6760 -0.2143
 
              Baa    -0.0300    -4.024    -1.436    -1.342  0.9217  0.3829  0.0618
    21 C(13)  Bbb    -0.0266    -3.565    -1.272    -1.189 -0.0149 -0.1243  0.9921
              Bcc     0.0566     7.589     2.708     2.531 -0.3876  0.9154  0.1089
 
              Baa    -0.0202    -2.713    -0.968    -0.905  0.0079 -0.1313  0.9913
    22 C(13)  Bbb    -0.0140    -1.885    -0.673    -0.629  0.9958  0.0910  0.0041
              Bcc     0.0343     4.598     1.641     1.534 -0.0907  0.9872  0.1315
 
              Baa    -0.0086    -4.608    -1.644    -1.537  0.0260 -0.1058  0.9940
    23 H(1)   Bbb    -0.0073    -3.918    -1.398    -1.307  0.9955  0.0937 -0.0161
              Bcc     0.0160     8.526     3.042     2.844 -0.0915  0.9900  0.1078
 
              Baa    -0.0161    -2.155    -0.769    -0.719 -0.0757  0.9961 -0.0444
    24 C(13)  Bbb    -0.0153    -2.047    -0.730    -0.683 -0.0764  0.0387  0.9963
              Bcc     0.0313     4.202     1.499     1.402  0.9942  0.0788  0.0732
 
              Baa    -0.0084    -4.486    -1.601    -1.496 -0.0343 -0.0548  0.9979
    25 H(1)   Bbb    -0.0074    -3.952    -1.410    -1.318 -0.0894  0.9947  0.0515
              Bcc     0.0158     8.438     3.011     2.815  0.9954  0.0874  0.0390
 
              Baa    -0.0168    -2.257    -0.805    -0.753  0.9944  0.0961 -0.0430
    26 C(13)  Bbb    -0.0129    -1.728    -0.617    -0.576  0.0417  0.0150  0.9990
              Bcc     0.0297     3.985     1.422     1.329 -0.0967  0.9953 -0.0109
 
              Baa    -0.0083    -4.408    -1.573    -1.470  0.0127 -0.0097  0.9999
    27 H(1)   Bbb    -0.0075    -3.988    -1.423    -1.330  0.9952  0.0971 -0.0117
              Bcc     0.0157     8.397     2.996     2.801 -0.0970  0.9952  0.0109
 
              Baa    -0.0165    -2.208    -0.788    -0.736 -0.1212  0.9828 -0.1397
    28 C(13)  Bbb    -0.0147    -1.977    -0.705    -0.659  0.0691  0.1487  0.9865
              Bcc     0.0312     4.184     1.493     1.396  0.9902  0.1099 -0.0860
 
              Baa    -0.0085    -4.519    -1.612    -1.507  0.0631 -0.0742  0.9952
    29 H(1)   Bbb    -0.0075    -4.011    -1.431    -1.338 -0.0977  0.9920  0.0801
              Bcc     0.0160     8.530     3.044     2.845  0.9932  0.1023 -0.0553
 
              Baa    -0.0050    -0.669    -0.239    -0.223 -0.4952  0.8686  0.0170
    30 C(13)  Bbb    -0.0043    -0.574    -0.205    -0.191 -0.0280 -0.0355  0.9990
              Bcc     0.0093     1.242     0.443     0.414  0.8683  0.4943  0.0419
 
              Baa    -0.0032    -1.715    -0.612    -0.572  0.0019 -0.0830  0.9966
    31 H(1)   Bbb    -0.0030    -1.579    -0.563    -0.527 -0.6348  0.7699  0.0653
              Bcc     0.0062     3.294     1.175     1.099  0.7727  0.6328  0.0512
 
              Baa    -0.0040    -2.128    -0.759    -0.710 -0.3389  0.2700  0.9012
    32 H(1)   Bbb    -0.0034    -1.828    -0.652    -0.610 -0.3009  0.8765 -0.3757
              Bcc     0.0074     3.956     1.412     1.320  0.8914  0.3985  0.2158
 
              Baa    -0.0040    -2.155    -0.769    -0.719  0.3167 -0.4141  0.8533
    33 H(1)   Bbb    -0.0035    -1.851    -0.660    -0.617 -0.3066  0.8066  0.5053
              Bcc     0.0075     4.006     1.429     1.336  0.8976  0.4217 -0.1285
 
              Baa    -0.0049    -0.656    -0.234    -0.219  0.9428 -0.3237 -0.0794
    34 C(13)  Bbb    -0.0045    -0.601    -0.214    -0.201  0.0516 -0.0937  0.9943
              Bcc     0.0094     1.257     0.449     0.419  0.3293  0.9415  0.0716
 
              Baa    -0.0041    -2.170    -0.774    -0.724 -0.3654  0.1743  0.9144
    35 H(1)   Bbb    -0.0035    -1.883    -0.672    -0.628  0.8987 -0.1896  0.3953
              Bcc     0.0076     4.052     1.446     1.352  0.2423  0.9663 -0.0874
 
              Baa    -0.0040    -2.124    -0.758    -0.708  0.3735 -0.3339  0.8654
    36 H(1)   Bbb    -0.0035    -1.846    -0.659    -0.616  0.8932 -0.1222 -0.4326
              Bcc     0.0074     3.969     1.416     1.324  0.2503  0.9346  0.2526
 
              Baa    -0.0032    -1.717    -0.613    -0.573 -0.0065 -0.0689  0.9976
    37 H(1)   Bbb    -0.0029    -1.562    -0.558    -0.521  0.8776 -0.4786 -0.0273
              Bcc     0.0061     3.279     1.170     1.094  0.4793  0.8753  0.0635
 
              Baa    -0.0048    -0.641    -0.229    -0.214  0.3043  0.8716  0.3844
    38 C(13)  Bbb    -0.0043    -0.582    -0.208    -0.194 -0.1447 -0.3566  0.9230
              Bcc     0.0091     1.223     0.437     0.408  0.9415 -0.3365  0.0176
 
              Baa    -0.0041    -2.212    -0.789    -0.738  0.1482  0.1852  0.9715
    39 H(1)   Bbb    -0.0035    -1.885    -0.672    -0.629  0.1836  0.9601 -0.2111
              Bcc     0.0077     4.097     1.462     1.366  0.9718 -0.2097 -0.1083
 
              Baa    -0.0036    -1.933    -0.690    -0.645 -0.3489 -0.5311  0.7721
    40 H(1)   Bbb    -0.0033    -1.735    -0.619    -0.579  0.1279  0.7892  0.6007
              Bcc     0.0069     3.669     1.309     1.224  0.9284 -0.3083  0.2074
 
              Baa    -0.0032    -1.721    -0.614    -0.574  0.0964  0.0548  0.9938
    41 H(1)   Bbb    -0.0028    -1.518    -0.542    -0.506  0.4742  0.8754 -0.0942
              Bcc     0.0061     3.239     1.156     1.080  0.8751 -0.4803 -0.0584
 
              Baa    -0.0098    -1.312    -0.468    -0.438 -0.5470 -0.2374  0.8028
    42 C(13)  Bbb    -0.0021    -0.288    -0.103    -0.096  0.6874  0.4198  0.5926
              Bcc     0.0119     1.600     0.571     0.534 -0.4777  0.8760 -0.0664
 
              Baa    -0.0041    -2.171    -0.775    -0.724 -0.1774 -0.1856  0.9665
    43 H(1)   Bbb    -0.0036    -1.922    -0.686    -0.641  0.8964  0.3748  0.2366
              Bcc     0.0077     4.093     1.460     1.365 -0.4062  0.9083  0.0999
 
              Baa    -0.0085    -1.136    -0.405    -0.379  0.6131  0.5309  0.5851
    44 C(13)  Bbb    -0.0011    -0.149    -0.053    -0.050 -0.3530  0.8466 -0.3983
              Bcc     0.0096     1.285     0.458     0.429  0.7068 -0.0377 -0.7064
 
              Baa    -0.0026    -1.363    -0.486    -0.455 -0.4458 -0.2038  0.8716
    45 H(1)   Bbb    -0.0017    -0.916    -0.327    -0.305  0.5274  0.7270  0.4397
              Bcc     0.0043     2.278     0.813     0.760  0.7233 -0.6557  0.2166
 
              Baa    -0.0022    -1.195    -0.426    -0.399  0.5666  0.3235  0.7578
    46 H(1)   Bbb    -0.0017    -0.924    -0.330    -0.308  0.6757  0.3439 -0.6520
              Bcc     0.0040     2.119     0.756     0.707 -0.4716  0.8815 -0.0237
 
              Baa    -0.0048    -0.639    -0.228    -0.213  0.9184 -0.3158  0.2381
    47 C(13)  Bbb    -0.0043    -0.583    -0.208    -0.194 -0.2237  0.0818  0.9712
              Bcc     0.0091     1.222     0.436     0.408  0.3262  0.9453 -0.0044
 
              Baa    -0.0041    -2.199    -0.785    -0.734  0.2645 -0.1900  0.9455
    48 H(1)   Bbb    -0.0035    -1.870    -0.667    -0.624  0.9411 -0.1635 -0.2961
              Bcc     0.0076     4.069     1.452     1.357  0.2109  0.9681  0.1355
 
              Baa    -0.0036    -1.947    -0.695    -0.650 -0.4621  0.3070  0.8320
    49 H(1)   Bbb    -0.0033    -1.736    -0.620    -0.579  0.8420 -0.1426  0.5203
              Bcc     0.0069     3.684     1.314     1.229  0.2784  0.9410 -0.1926
 
              Baa    -0.0032    -1.727    -0.616    -0.576  0.1423 -0.1354  0.9805
    50 H(1)   Bbb    -0.0028    -1.520    -0.542    -0.507  0.8672 -0.4605 -0.1894
              Bcc     0.0061     3.247     1.159     1.083  0.4772  0.8773  0.0519
 
              Baa    -0.0099    -1.328    -0.474    -0.443 -0.1656  0.5197  0.8381
    51 C(13)  Bbb    -0.0021    -0.287    -0.102    -0.096 -0.4748  0.7029 -0.5297
              Bcc     0.0120     1.615     0.576     0.539  0.8644  0.4857 -0.1303
 
              Baa    -0.0041    -2.196    -0.784    -0.733 -0.0970  0.1321  0.9865
    52 H(1)   Bbb    -0.0036    -1.931    -0.689    -0.644 -0.3992  0.9028 -0.1602
              Bcc     0.0077     4.127     1.473     1.377  0.9117  0.4094  0.0348
 
              Baa    -0.0087    -1.168    -0.417    -0.390 -0.5848  0.6293 -0.5119
    53 C(13)  Bbb    -0.0014    -0.182    -0.065    -0.061  0.8022  0.3549 -0.4801
              Bcc     0.0101     1.350     0.482     0.450  0.1204  0.6914  0.7123
 
              Baa    -0.0026    -1.387    -0.495    -0.463 -0.1241  0.4074  0.9048
    54 H(1)   Bbb    -0.0017    -0.919    -0.328    -0.307  0.7690 -0.5368  0.3472
              Bcc     0.0043     2.306     0.823     0.769  0.6271  0.7388 -0.2466
 
              Baa    -0.0023    -1.220    -0.435    -0.407  0.3895 -0.5820  0.7138
    55 H(1)   Bbb    -0.0017    -0.933    -0.333    -0.311 -0.2895  0.6584  0.6948
              Bcc     0.0040     2.153     0.768     0.718  0.8744  0.4773 -0.0879
 
              Baa    -0.0050    -0.671    -0.239    -0.224  0.3259  0.9398  0.1030
    56 C(13)  Bbb    -0.0043    -0.579    -0.207    -0.193  0.0447 -0.1242  0.9913
              Bcc     0.0093     1.250     0.446     0.417  0.9443 -0.3185 -0.0825
 
              Baa    -0.0040    -2.140    -0.764    -0.714 -0.2053 -0.4845  0.8504
    57 H(1)   Bbb    -0.0035    -1.843    -0.658    -0.615  0.1693  0.8382  0.5184
              Bcc     0.0075     3.983     1.421     1.328  0.9640 -0.2504  0.0900
 
              Baa    -0.0041    -2.176    -0.776    -0.726  0.3089  0.2933  0.9047
    58 H(1)   Bbb    -0.0035    -1.847    -0.659    -0.616  0.1162  0.9325 -0.3419
              Bcc     0.0075     4.023     1.436     1.342  0.9440 -0.2108 -0.2540
 
              Baa    -0.0032    -1.727    -0.616    -0.576  0.0599 -0.1111  0.9920
    59 H(1)   Bbb    -0.0030    -1.584    -0.565    -0.528  0.4783  0.8754  0.0692
              Bcc     0.0062     3.311     1.181     1.104  0.8761 -0.4704 -0.1056
 
              Baa    -0.0049    -0.664    -0.237    -0.221  0.8665  0.4990  0.0096
    60 C(13)  Bbb    -0.0044    -0.596    -0.213    -0.199  0.0530 -0.1112  0.9924
              Bcc     0.0094     1.260     0.450     0.420 -0.4963  0.8594  0.1228
 
              Baa    -0.0040    -2.146    -0.766    -0.716  0.3726  0.2241  0.9005
    61 H(1)   Bbb    -0.0035    -1.856    -0.662    -0.619  0.8250  0.3644 -0.4320
              Bcc     0.0075     4.003     1.428     1.335 -0.4249  0.9039 -0.0491
 
              Baa    -0.0032    -1.729    -0.617    -0.577  0.0515 -0.1169  0.9918
    62 H(1)   Bbb    -0.0029    -1.573    -0.561    -0.525  0.7732  0.6332  0.0345
              Bcc     0.0062     3.301     1.178     1.101 -0.6320  0.7651  0.1229
 
              Baa    -0.0041    -2.174    -0.776    -0.725 -0.2756 -0.4208  0.8642
    63 H(1)   Bbb    -0.0035    -1.865    -0.666    -0.622  0.8717  0.2696  0.4093
              Bcc     0.0076     4.040     1.441     1.347 -0.4052  0.8662  0.2926
 
              Baa    -0.0051    -0.681    -0.243    -0.227 -0.2194  0.9715  0.0897
    64 C(13)  Bbb    -0.0050    -0.676    -0.241    -0.226  0.9355  0.2355 -0.2635
              Bcc     0.0101     1.358     0.484     0.453  0.2771 -0.0261  0.9605
 
              Baa    -0.0040    -2.120    -0.757    -0.707 -0.1377  0.9882  0.0664
    65 H(1)   Bbb    -0.0037    -1.956    -0.698    -0.652  0.8794  0.1528 -0.4508
              Bcc     0.0076     4.076     1.455     1.360  0.4557  0.0036  0.8901
 
              Baa    -0.0033    -1.735    -0.619    -0.579  0.9369 -0.2240 -0.2683
    66 H(1)   Bbb    -0.0031    -1.645    -0.587    -0.549  0.2663  0.9547  0.1326
              Bcc     0.0063     3.380     1.206     1.128  0.2264 -0.1957  0.9542
 
              Baa    -0.0032    -1.728    -0.617    -0.576  0.7995  0.5612 -0.2143
    67 H(1)   Bbb    -0.0031    -1.633    -0.583    -0.545 -0.5729  0.8196  0.0090
              Bcc     0.0063     3.362     1.199     1.121  0.1807  0.1156  0.9767
 
              Baa    -0.0154    -0.595    -0.212    -0.199  0.9891  0.1044  0.1037
    68 N(14)  Bbb    -0.0083    -0.322    -0.115    -0.107 -0.1106  0.9922  0.0566
              Bcc     0.0238     0.917     0.327     0.306 -0.0970 -0.0674  0.9930
 
              Baa    -0.0062    -3.289    -1.173    -1.097 -0.1119  0.9920  0.0591
    69 H(1)   Bbb    -0.0057    -3.036    -1.083    -1.013  0.9501  0.0894  0.2990
              Bcc     0.0119     6.324     2.257     2.110 -0.2913 -0.0896  0.9524
 
              Baa    -0.0126    -1.687    -0.602    -0.563  0.9886  0.1147 -0.0977
    70 C(13)  Bbb    -0.0087    -1.163    -0.415    -0.388 -0.1092  0.9922  0.0599
              Bcc     0.0212     2.850     1.017     0.951  0.1039 -0.0486  0.9934
 
              Baa    -0.0278    -3.732    -1.332    -1.245 -0.0275  0.9937  0.1082
    71 C(13)  Bbb    -0.0256    -3.439    -1.227    -1.147  0.8730 -0.0288  0.4868
              Bcc     0.0534     7.171     2.559     2.392 -0.4869 -0.1079  0.8668
 
              Baa    -0.0207   -11.053    -3.944    -3.687 -0.1254  0.9909  0.0494
    72 H(1)   Bbb    -0.0191   -10.214    -3.645    -3.407  0.7407  0.0604  0.6691
              Bcc     0.0399    21.267     7.588     7.094 -0.6600 -0.1205  0.7415
 
              Baa    -0.1957    -7.547    -2.693    -2.517  0.9941  0.1084  0.0020
    73 N(14)  Bbb    -0.1557    -6.006    -2.143    -2.003 -0.1083  0.9921  0.0630
              Bcc     0.3514    13.553     4.836     4.521  0.0048 -0.0629  0.9980
 
              Baa    -0.0363    -4.877    -1.740    -1.627 -0.1112  0.9917  0.0647
    74 C(13)  Bbb    -0.0239    -3.210    -1.145    -1.071  0.8798  0.1285 -0.4577
              Bcc     0.0603     8.087     2.886     2.698  0.4622 -0.0061  0.8867
 
              Baa    -0.0216   -11.514    -4.109    -3.841 -0.1107  0.9914  0.0695
    75 H(1)   Bbb    -0.0202   -10.767    -3.842    -3.591  0.7416  0.1290 -0.6584
              Bcc     0.0418    22.281     7.951     7.432  0.6617  0.0214  0.7495
 

 ---------------------------------------------------------------------------------

 Unable to Open any file for archive entry.
 1\1\GINC-BGN1009\SP\UAPFD\Gen\C34H34Fe1N6(1+,6)\BECSLEIP\19-Sep-2024\0
 \\# apfd/gen scf=maxcycle=999 geom=check\\5cn4_III_H\\1,6\Fe,0,12.0569
 198614,-28.9414069127,13.6059169309\N,0,11.0427802059,-30.2557622698,1
 4.6909592835\N,0,11.9665490344,-27.6272778987,15.1332184378\N,0,12.942
 9281601,-27.5150836831,12.493144958\N,0,12.0167376575,-30.1449751514,1
 2.035709087\C,0,10.670934858,-31.50626672,14.2999452371\C,0,10.0176837
 982,-32.2093205852,15.3810291162\C,0,9.9917544667,-31.3507653012,16.43
 52892562\C,0,10.6320896828,-30.1357304698,15.9843605811\C,0,11.3992621
 157,-27.8385429603,16.356754068\C,0,11.4858612508,-26.6608990546,17.18
 01989808\C,0,12.1277534174,-25.7141010558,16.4282423027\C,0,12.4137311
 457,-26.3422175636,15.1541133112\C,0,13.244289537,-26.2359347869,12.85
 53051109\C,0,13.772103193,-25.4898591208,11.7428609365\C,0,13.78807840
 99,-26.3498893422,10.6780509553\C,0,13.2499250134,-27.6026517558,11.16
 94388456\C,0,12.4945148432,-29.9001823377,10.7851826691\C,0,12.2317869
 815,-31.0172909278,9.9057694064\C,0,11.5966647875,-31.9540865784,10.65
 93080495\C,0,11.465283979,-31.3896825236,11.9841183512\C,0,10.86189076
 77,-32.0425590441,13.0407222656\H,0,10.4918943302,-33.0407445514,12.86
 36389441\C,0,10.7996962627,-29.015319768,16.7710752835\H,0,10.40137106
 09,-29.047204526,17.7736494467\C,0,13.0398386764,-25.6943839226,14.109
 8848846\H,0,13.3241201064,-24.6644425627,14.2598850072\C,0,13.10517706
 31,-28.7293298901,10.3818280147\H,0,13.4179910346,-28.6629633727,9.351
 1062563\C,0,9.4280269724,-31.5465180506,17.800968645\H,0,9.0058484825,
 -32.5428504957,17.9053034686\H,0,8.6404842571,-30.818725361,17.9970790
 382\H,0,10.2011940761,-31.4201521642,18.559510925\C,0,9.4904491914,-33
 .5994124771,15.2815999211\H,0,10.2853709123,-34.2919761089,15.00445830
 54\H,0,8.710580112,-33.65855347,14.5221291309\H,0,9.0686239203,-33.922
 5218839,16.2300959854\C,0,11.0184683297,-26.5616359893,18.590400776\H,
 0,11.2190043162,-27.4852236644,19.1318284091\H,0,9.9444682657,-26.3737
 741869,18.6310138409\H,0,11.5292735069,-25.7441256959,19.0950752828\C,
 0,12.4889062763,-24.3577051826,16.779410513\H,0,13.4191182536,-23.9963
 383418,16.3561572782\C,0,11.7772717281,-23.5485339319,17.5568409905\H,
 0,10.8237272349,-23.8372970765,17.9631926669\H,0,12.1134447442,-22.551
 8474785,17.7900971561\C,0,14.2613950152,-24.0855766311,11.8075214881\H
 ,0,14.7887637499,-23.9031789188,12.7427363171\H,0,13.4300626273,-23.38
 15743145,11.7460311505\H,0,14.9403636101,-23.8890449088,10.9802640896\
 C,0,14.2347577745,-26.1176151164,9.3213064864\H,0,14.6996542834,-26.96
 42157897,8.8289741463\C,0,14.1130123735,-24.9736986686,8.6565200822\H,
 0,13.616855818,-24.1169524538,9.0778357452\H,0,14.4826765189,-24.86455
 80149,7.6503822972\C,0,12.6147910148,-31.0605314688,8.4664735445\H,0,1
 3.6946343124,-30.9605661423,8.3527663302\H,0,12.1404148811,-30.2449852
 698,7.9203683639\H,0,12.3082984354,-31.9998516074,8.0130276216\C,0,11.
 0860594207,-33.2971339163,10.2648016577\H,0,11.5609689402,-34.07724868
 18,10.8604705561\H,0,11.2895847221,-33.495515228,9.215376763\H,0,10.00
 92119533,-33.3587853001,10.4232447957\C,0,17.3295513868,-30.7654778756
 ,13.9434501792\H,0,17.5279783453,-30.5956170301,12.8899490944\H,0,17.4
 86859237,-31.8216417255,14.1622625586\H,0,18.0408588975,-30.1859302358
 ,14.5314469248\N,0,15.4211814007,-30.4213707881,15.5269179559\H,0,15.9
 161544689,-30.7294448167,16.347860253\C,0,15.9354413882,-30.3636671265
 ,14.2583997956\C,0,14.1410393711,-29.9911244361,15.471785017\H,0,13.49
 16682241,-29.9282096093,16.3216953537\N,0,13.8103530783,-29.6638032751
 ,14.2435280199\C,0,14.9195068055,-29.8915780261,13.4777175206\H,0,14.9
 110296647,-29.7000364276,12.4240175813\\Version=ES64L-G16RevC.02\State
 =6-A\HF=-2906.8395624\S2=8.760729\S2-1=0.\S2A=8.750034\RMSD=6.841e-09\
 Dipole=1.579435,-1.1780585,0.9582792\Quadrupole=-13.8451247,4.6637591,
 9.1813656,4.3817745,-6.0865353,0.0670205\PG=C01 [X(C34H34Fe1N6)]\\@
 The archive entry for this job was punched.


 THE MOST BEAUTIFUL EXPERIENCE WE CAN HAVE IS THE MYSTERIOUS.
 IT IS THE FUNDAMENTAL EMOTION WHICH STANDS AT AT THE CRADLE 
 OF TRUE ART AND TRUE SCIENCE.

                                    -- ALBERT EINSTEIN
 Job cpu time:       0 days  1 hours 47 minutes 16.6 seconds.
 Elapsed time:       0 days  0 hours  1 minutes 54.6 seconds.
 File lengths (MBytes):  RWF=    408 Int=      0 D2E=      0 Chk=    150 Scr=      1
 Normal termination of Gaussian 16 at Thu Sep 19 23:05:42 2024.
