 Entering Gaussian System, Link 0=g16
 Input=5cn516re.com
 Output=5cn516re.log
 Initial command:
 /sw/chem/gaussian/g16_C02/a100/g16/l1.exe "/local/becsleip_8022111/Gau-606605.inp" -scrdir="/local/becsleip_8022111/"
 Entering Link 1 = /sw/chem/gaussian/g16_C02/a100/g16/l1.exe PID=    606606.
  
 Copyright (c) 1988-2021, Gaussian, Inc.  All Rights Reserved.
  
 This is part of the Gaussian(R) 16 program.  It is based on
 the Gaussian(R) 09 system (copyright 2009, Gaussian, Inc.),
 the Gaussian(R) 03 system (copyright 2003, Gaussian, Inc.),
 the Gaussian(R) 98 system (copyright 1998, Gaussian, Inc.),
 the Gaussian(R) 94 system (copyright 1995, Gaussian, Inc.),
 the Gaussian 92(TM) system (copyright 1992, Gaussian, Inc.),
 the Gaussian 90(TM) system (copyright 1990, Gaussian, Inc.),
 the Gaussian 88(TM) system (copyright 1988, Gaussian, Inc.),
 the Gaussian 86(TM) system (copyright 1986, Carnegie Mellon
 University), and the Gaussian 82(TM) system (copyright 1983,
 Carnegie Mellon University). Gaussian is a federally registered
 trademark of Gaussian, Inc.
  
 This software contains proprietary and confidential information,
 including trade secrets, belonging to Gaussian, Inc.
  
 This software is provided under written license and may be
 used, copied, transmitted, or stored only in accord with that
 written license.
  
 The following legend is applicable only to US Government
 contracts under FAR:
  
                    RESTRICTED RIGHTS LEGEND
  
 Use, reproduction and disclosure by the US Government is
 subject to restrictions as set forth in subparagraphs (a)
 and (c) of the Commercial Computer Software - Restricted
 Rights clause in FAR 52.227-19.
  
 Gaussian, Inc.
 340 Quinnipiac St., Bldg. 40, Wallingford CT 06492
  
  
 ---------------------------------------------------------------
 Warning -- This program may not be used in any manner that
 competes with the business of Gaussian, Inc. or will provide
 assistance to any competitor of Gaussian, Inc.  The licensee
 of this program is prohibited from giving any competitor of
 Gaussian, Inc. access to this program.  By using this program,
 the user acknowledges that Gaussian, Inc. is engaged in the
 business of creating and licensing software in the field of
 computational chemistry and represents and warrants to the
 licensee that it is not a competitor of Gaussian, Inc. and that
 it will not use this program in any manner prohibited above.
 ---------------------------------------------------------------
  

 Cite this work as:
 Gaussian 16, Revision C.02,
 M. J. Frisch, G. W. Trucks, H. B. Schlegel, G. E. Scuseria, 
 M. A. Robb, J. R. Cheeseman, G. Scalmani, V. Barone, 
 G. A. Petersson, H. Nakatsuji, X. Li, M. Caricato, A. V. Marenich, 
 J. Bloino, B. G. Janesko, R. Gomperts, B. Mennucci, H. P. Hratchian, 
 J. V. Ortiz, A. F. Izmaylov, J. L. Sonnenberg, D. Williams-Young, 
 F. Ding, F. Lipparini, F. Egidi, J. Goings, B. Peng, A. Petrone, 
 T. Henderson, D. Ranasinghe, V. G. Zakrzewski, J. Gao, N. Rega, 
 G. Zheng, W. Liang, M. Hada, M. Ehara, K. Toyota, R. Fukuda, 
 J. Hasegawa, M. Ishida, T. Nakajima, Y. Honda, O. Kitao, H. Nakai, 
 T. Vreven, K. Throssell, J. A. Montgomery, Jr., J. E. Peralta, 
 F. Ogliaro, M. J. Bearpark, J. J. Heyd, E. N. Brothers, K. N. Kudin, 
 V. N. Staroverov, T. A. Keith, R. Kobayashi, J. Normand, 
 K. Raghavachari, A. P. Rendell, J. C. Burant, S. S. Iyengar, 
 J. Tomasi, M. Cossi, J. M. Millam, M. Klene, C. Adamo, R. Cammi, 
 J. W. Ochterski, R. L. Martin, K. Morokuma, O. Farkas, 
 J. B. Foresman, and D. J. Fox, Gaussian, Inc., Wallingford CT, 2019.
 
 ******************************************
 Gaussian 16:  ES64L-G16RevC.02  7-Dec-2021
                19-Sep-2024 
 ******************************************
 %mem=16GB
 %CPU=0-71
 SetSPE:  set environment variable "OMP_PROC_BIND" = "true"
 SetSPE:  set environment variable "OMP_PLACES" = "{0},{1},{2},{3},{4},{5},{6},{7},{8},{9},{10},{11},{12},{13},{14},{15},{16},{17},{18},{19},{20},{21},{22},{23},{24},{25},{26},{27},{28},{29},{30},{31},{32},{33},{34},{35},{36},{37},{38},{39},{40},{41},{42},{43},{44},{45},{46},{47},{48},{49},{50},{51},{52},{53},{54},{55},{56},{57},{58},{59},{60},{61},{62},{63},{64},{65},{66},{67},{68},{69},{70},{71}"
 Will use up to   72 processors via shared memory.
 %gpucpu=0,1,2,3=0,1,2,3
 Will use    4 GPUs:
 Thread  CPU   GPU
      0    0     0
      1    1     1
      2    2     2
      3    3     3
      4    4    -1
      5    5    -1
      6    6    -1
      7    7    -1
      8    8    -1
      9    9    -1
     10   10    -1
     11   11    -1
     12   12    -1
     13   13    -1
     14   14    -1
     15   15    -1
     16   16    -1
     17   17    -1
     18   18    -1
     19   19    -1
     20   20    -1
     21   21    -1
     22   22    -1
     23   23    -1
     24   24    -1
     25   25    -1
     26   26    -1
     27   27    -1
     28   28    -1
     29   29    -1
     30   30    -1
     31   31    -1
     32   32    -1
     33   33    -1
     34   34    -1
     35   35    -1
     36   36    -1
     37   37    -1
     38   38    -1
     39   39    -1
     40   40    -1
     41   41    -1
     42   42    -1
     43   43    -1
     44   44    -1
     45   45    -1
     46   46    -1
     47   47    -1
     48   48    -1
     49   49    -1
     50   50    -1
     51   51    -1
     52   52    -1
     53   53    -1
     54   54    -1
     55   55    -1
     56   56    -1
     57   57    -1
     58   58    -1
     59   59    -1
     60   60    -1
     61   61    -1
     62   62    -1
     63   63    -1
     64   64    -1
     65   65    -1
     66   66    -1
     67   67    -1
     68   68    -1
     69   69    -1
     70   70    -1
     71   71    -1
 SetGPE:  set environment variable "OMP_PROC_BIND" = "true"
 SetGPE:  set environment variable "OMP_PLACES" = "{0},{1},{2},{3},{4},{5},{6},{7},{8},{9},{10},{11},{12},{13},{14},{15},{16},{17},{18},{19},{20},{21},{22},{23},{24},{25},{26},{27},{28},{29},{30},{31},{32},{33},{34},{35},{36},{37},{38},{39},{40},{41},{42},{43},{44},{45},{46},{47},{48},{49},{50},{51},{52},{53},{54},{55},{56},{57},{58},{59},{60},{61},{62},{63},{64},{65},{66},{67},{68},{69},{70},{71}"
 %oldchk=5cn5_III_D.chk
 %chk=5cn5_III_Dre.chk
 Properties for Device   0
 Minimum vector length:                              32
 Maximum vector length:                            1024
 Number of SMPs:                                    108
 Maximum number of threads per SMP:                2048
 Number of ASync Engines:                             5
 Memory:                                           9207742464
 Properties for Device   1
 Minimum vector length:                              32
 Maximum vector length:                            1024
 Number of SMPs:                                    108
 Maximum number of threads per SMP:                2048
 Number of ASync Engines:                             5
 Memory:                                           9207742464
 Properties for Device   2
 Minimum vector length:                              32
 Maximum vector length:                            1024
 Number of SMPs:                                    108
 Maximum number of threads per SMP:                2048
 Number of ASync Engines:                             5
 Memory:                                           9207742464
 Properties for Device   3
 Minimum vector length:                              32
 Maximum vector length:                            1024
 Number of SMPs:                                    108
 Maximum number of threads per SMP:                2048
 Number of ASync Engines:                             5
 Memory:                                           9207742464
   8286968217 words of memory will be used on each GPU.
 Copying data from "5cn5_III_D.chk" to current chk file "5cn5_III_Dre.chk"
 IOpt=  2 FromEx=T IUOpen= 4 IOptOp= 5 NList=   0 IFRang= 0 IUIn= 4 IUOut= 2.
 --------------------------------------
 # apfd/gen scf=maxcycle=999 geom=check
 --------------------------------------
 1/29=2,38=1,172=1/1;
 2/12=2,40=1/2;
 3/5=7,11=2,14=-4,25=1,30=1,74=-44/1,2,3;
 4//1;
 5/5=2,7=999,38=5/2;
 6/7=2,8=2,9=2,10=2,28=1/1;
 99/5=1,9=1/99;
 ----------
 5cn5_III_H
 ----------
 Structure from the checkpoint file:  "5cn5_III_Dre.chk"
 Charge =  1 Multiplicity = 6
 Z-Matrix found in chk file.
 Fe,0,12.0672413741,-28.9308924655,13.6094571669
 N,0,11.0403816432,-30.2494561814,14.6855359893
 N,0,11.9704605714,-27.6246927996,15.1374556512
 N,0,12.9370098271,-27.5075596836,12.4892376581
 N,0,12.007708957,-30.1355509427,12.0340549179
 C,0,10.6683648061,-31.5003233898,14.2959190582
 C,0,10.0268748553,-32.2079716127,15.3809785856
 C,0,10.0063070159,-31.3514034035,16.4367933325
 C,0,10.6402749569,-30.1340412891,15.9832123028
 C,0,11.4105052567,-27.8392695748,16.3632863115
 C,0,11.4974520144,-26.6624138566,17.1875884321
 C,0,12.1361672953,-25.7136234722,16.4348786915
 C,0,12.4185015261,-26.3397663542,15.1587872275
 C,0,13.2325257383,-26.227037892,12.8526548106
 C,0,13.7491492746,-25.4756931615,11.7386125577
 C,0,13.7642893798,-26.333577708,10.6717372155
 C,0,13.2391196255,-27.5914662659,11.1644589965
 C,0,12.4883077869,-29.8909573504,10.7839567054
 C,0,12.2330316491,-31.0104770979,9.9053764664
 C,0,11.596411228,-31.9472806611,10.6574628449
 C,0,11.4592106062,-31.3813852419,11.9809525801
 C,0,10.8568343456,-32.0363494643,13.0365680169
 H,0,10.4892893641,-33.0354358913,12.8597956384
 C,0,10.8113324201,-29.0172534636,16.7743004677
 H,0,10.4181374308,-29.0544148352,17.7786692813
 C,0,13.0330159047,-25.6886297495,14.1096111939
 H,0,13.3141223283,-24.6576708898,14.2586544852
 C,0,13.0947871849,-28.7188431024,10.3779636828
 H,0,13.4059172611,-28.6534113832,9.346684693
 C,0,9.4550980788,-31.5508095817,17.8070333381
 H,0,9.0352668039,-32.5478990411,17.9133632734
 H,0,8.6682951235,-30.8244964733,18.0114292656
 H,0,10.2348550253,-31.4246773835,18.5588604127
 C,0,9.5061884016,-33.6007637455,15.284675737
 H,0,10.3026939846,-34.2886362856,15.0003378464
 H,0,8.720088678,-33.6640414982,14.5320054219
 H,0,9.0946055838,-33.9267399366,16.2367069969
 C,0,11.0367880512,-26.5676838909,18.600308649
 H,0,11.2320679872,-27.4961595514,19.1350756774
 H,0,9.9646352757,-26.3712788,18.6468593846
 H,0,11.5565288991,-25.7577209597,19.1079163187
 C,0,12.4983409226,-24.357795039,16.7857454443
 H,0,13.4202238016,-23.9921536717,16.3482365437
 C,0,11.7987302541,-23.5528894564,17.5786305579
 H,0,10.8533214818,-23.8446975769,18.0012870469
 H,0,12.1376683084,-22.5566722687,17.8098331597
 C,0,14.2300454142,-24.0685599738,11.804031492
 H,0,14.7555576608,-23.8835759687,12.7397335428
 H,0,13.3947433577,-23.3693444588,11.7421189836
 H,0,14.9088057019,-23.8676709072,10.9777193417
 C,0,14.2017062692,-26.0956753823,9.3132719864
 H,0,14.6576243246,-26.9420256178,8.8122750628
 C,0,14.0803562611,-24.9477300984,8.6550668028
 H,0,13.5883322854,-24.0918465956,9.0827702596
 H,0,14.4404852365,-24.8362963939,7.6458945878
 C,0,12.6234920982,-31.0564473471,8.4681544796
 H,0,13.7048217062,-30.9661669133,8.36069749
 H,0,12.1595054604,-30.2368209553,7.9194011039
 H,0,12.3116115078,-31.9930870798,8.0129001243
 C,0,11.0923234126,-33.2929136083,10.2632497571
 H,0,11.5998103882,-34.0730266714,10.8316721444
 H,0,11.2622503766,-33.4747518037,9.204961836
 H,0,10.0230634975,-33.3734421323,10.4581896253
 C,0,17.3395008242,-30.7560791494,13.9626285339
 H,0,17.5499544807,-30.5680829184,12.9140826551
 H,0,17.4947120525,-31.8160762676,14.1654308682
 H,0,18.0435647981,-30.1861037664,14.5688403346
 N,0,15.4164574031,-30.4345368994,15.5325008544
 H,0,15.9036379446,-30.7533838591,16.3539972852
 C,0,15.9418139039,-30.3599462829,14.2694154282
 C,0,14.1367865494,-30.0036827169,15.4719224724
 H,0,13.4800537105,-29.9523685858,16.3168992507
 N,0,13.8167318426,-29.6600466136,14.2451779478
 C,0,14.9326128857,-29.8776507804,13.4861218682
 H,0,14.9325103568,-29.6726959079,12.4349238458
 Recover connectivity data from disk.
 Stoichiometry    C34H34FeN6(1+,6)
 Framework group  C1[X(C34H34FeN6)]
 Deg. of freedom   219
 Full point group                 C1      NOp   1
 Largest Abelian subgroup         C1      NOp   1
 Largest concise Abelian subgroup C1      NOp   1
                         Standard orientation:                         
 ---------------------------------------------------------------------
 Center     Atomic      Atomic             Coordinates (Angstroms)
 Number     Number       Type             X           Y           Z
 ---------------------------------------------------------------------
      1         26           0       -0.044038   -0.183533   -0.344604
      2          7           0       -1.317214   -1.695535   -0.554055
      3          7           0       -1.590999    1.103765   -0.335829
      4          7           0        1.216863    1.380711   -0.321492
      5          7           0        1.494152   -1.421590   -0.539092
      6          6           0       -0.999221   -3.016492   -0.647968
      7          6           0       -2.192322   -3.831876   -0.683868
      8          6           0       -3.244502   -2.972787   -0.622538
      9          6           0       -2.679087   -1.644669   -0.544879
     10          6           0       -2.917525    0.789492   -0.397593
     11          6           0       -3.732903    1.975720   -0.404429
     12          6           0       -2.868404    3.035393   -0.337586
     13          6           0       -1.537560    2.463154   -0.297909
     14          6           0        0.898448    2.706488   -0.313572
     15          6           0        2.078018    3.525855   -0.412365
     16          6           0        3.139076    2.663433   -0.481670
     17          6           0        2.572395    1.330117   -0.436924
     18          6           0        2.817515   -1.102900   -0.565408
     19          6           0        3.629166   -2.285932   -0.744432
     20          6           0        2.765299   -3.333569   -0.813063
     21          6           0        1.437650   -2.774388   -0.689158
     22          6           0        0.281963   -3.529318   -0.714195
     23          1           0        0.386486   -4.599001   -0.810972
     24          6           0       -3.433734   -0.492726   -0.468515
     25          1           0       -4.507294   -0.598599   -0.500143
     26          6           0       -0.384017    3.218259   -0.258771
     27          1           0       -0.490713    4.291910   -0.258097
     28          6           0        3.331529    0.176069   -0.484603
     29          1           0        4.403682    0.283783   -0.543819
     30          6           0       -4.706143   -3.263613   -0.635776
     31          1           0       -4.886667   -4.334120   -0.692146
     32          1           0       -5.181733   -2.790534   -1.495065
     33          1           0       -5.183797   -2.882004    0.267217
     34          6           0       -2.191680   -5.318858   -0.779478
     35          1           0       -1.639162   -5.755921    0.052471
     36          1           0       -1.718405   -5.642310   -1.706764
     37          1           0       -3.206544   -5.708341   -0.759999
     38          6           0       -5.221730    1.994230   -0.408131
     39          1           0       -5.621212    1.187954    0.205473
     40          1           0       -5.609155    1.870707   -1.420504
     41          1           0       -5.583299    2.942354   -0.015492
     42          6           0       -3.158033    4.452032   -0.295208
     43          1           0       -2.474930    5.051284    0.295760
     44          6           0       -4.169073    5.051740   -0.915002
     45          1           0       -4.849159    4.515493   -1.553368
     46          1           0       -4.334001    6.112735   -0.826291
     47          6           0        2.093590    5.013546   -0.366548
     48          1           0        1.359398    5.385249    0.346698
     49          1           0        1.857064    5.434770   -1.344858
     50          1           0        3.078553    5.367150   -0.068766
     51          6           0        4.552212    2.958315   -0.578886
     52          1           0        5.212594    2.260752   -0.076423
     53          6           0        5.080628    3.990390   -1.227989
     54          1           0        4.478100    4.683265   -1.788738
     55          1           0        6.144680    4.157346   -1.249383
     56          6           0        5.116942   -2.279455   -0.826058
     57          1           0        5.550397   -1.882065    0.092185
     58          1           0        5.451739   -1.656288   -1.655380
     59          1           0        5.499887   -3.285555   -0.977501
     60          6           0        3.051442   -4.783847   -1.000282
     61          1           0        2.709480   -5.355685   -0.136982
     62          1           0        4.117960   -4.954810   -1.123668
     63          1           0        2.538210   -5.164519   -1.883166
     64          6           0        1.352499   -0.371327    5.065311
     65          1           0        2.403495   -0.176698    4.873980
     66          1           0        1.262344   -1.329665    5.577438
     67          1           0        0.966877    0.405742    5.725258
     68          7           0       -0.751559   -0.556392    3.721928
     69          1           0       -1.363562   -0.682281    4.511529
     70          6           0        0.606716   -0.387614    3.781523
     71          6           0       -1.113766   -0.521306    2.420223
     72          1           0       -2.122467   -0.626706    2.074781
     73          7           0       -0.066462   -0.340865    1.648200
     74          6           0        1.011878   -0.256386    2.484115
     75          1           0        1.999086   -0.107185    2.096581
 ---------------------------------------------------------------------
 Rotational constants (GHZ):           0.0941118           0.0926755           0.0594166
 General basis read from cards:  (5D, 7F)
 There are   704 symmetry adapted cartesian basis functions of A   symmetry.
 There are   661 symmetry adapted basis functions of A   symmetry.
   661 basis functions,  1342 primitive gaussians,   704 cartesian basis functions
   155 alpha electrons      150 beta electrons
       nuclear repulsion energy      5571.8294943842 Hartrees.
 NAtoms=   75 NActive=   75 NUniq=   75 SFac= 1.00D+00 NAtFMM=   60 NAOKFM=T Big=T
 Integral buffers will be    131072 words long.
 Raffenetti 2 integral format.
 Two-electron integral symmetry is turned on.
 R6APFD:  NTU= -4 IXU= 1 FactS= 1.050
 Nuclear repulsion after empirical dispersion term =     5571.6962406918 Hartrees.
 One-electron integrals computed using PRISM.
 NBasis=   661 RedAO= T EigKep=  2.53D-04  NBF=   661
 NBsUse=   661 1.00D-06 EigRej= -1.00D+00 NBFU=   661
 ExpMin= 4.20D-02 ExpMax= 3.01D+05 ExpMxC= 2.91D+03 IAcc=3 IRadAn=         5 AccDes= 0.00D+00
 Harris functional with IExCor= 3731 and IRadAn=       5 diagonalized for initial guess.
 HarFok:  IExCor= 3731 AccDes= 0.00D+00 IRadAn=         5 IDoV= 1 UseB2=F ITyADJ=14
 ICtDFT=  3500011 ScaDFX=  1.000000  1.000000  1.000000  1.000000
 FoFCou: FMM=F IPFlag=           0 FMFlag=      100000 FMFlg1=        2001
         NFxFlg=           0 DoJE=T BraDBF=F KetDBF=T FulRan=T
         wScrn=  0.000000 ICntrl=       500 IOpCl=  0 I1Cent=   200000004 NGrid=           0
         NMat0=    1 NMatS0=      1 NMatT0=    0 NMatD0=    1 NMtDS0=    0 NMtDT0=    0
 Petite list used in FoFCou.
 Initial guess <Sx>= 0.0000 <Sy>= 0.0000 <Sz>= 2.5000 <S**2>= 8.7500 S= 2.5000
 Requested convergence on RMS density matrix=1.00D-08 within 999 cycles.
 Requested convergence on MAX density matrix=1.00D-06.
 Requested convergence on             energy=1.00D-06.
 No special actions if energy rises.
 EnCoef did   100 forward-backward iterations
 EnCoef did   100 forward-backward iterations
 EnCoef did   100 forward-backward iterations
 EnCoef did     3 forward-backward iterations
 EnCoef did     2 forward-backward iterations
 EnCoef did   100 forward-backward iterations
 EnCoef did     8 forward-backward iterations
 EnCoef did     4 forward-backward iterations
 EnCoef did     3 forward-backward iterations
 Restarting incremental Fock formation.
 SCF Done:  E(UAPFD) =  -2906.84018199     A.U. after   31 cycles
            NFock= 31  Conv=0.72D-08     -V/T= 2.0035
 <Sx>= 0.0000 <Sy>= 0.0000 <Sz>= 2.5000 <S**2>= 8.7607 S= 2.5018
 <L.S>=  0.00000000000    
 Annihilation of the first spin contaminant:
 S**2 before annihilation     8.7607,   after     8.7500

 **********************************************************************

            Population analysis using the SCF Density.

 **********************************************************************

 Orbital symmetries:
 Alpha Orbitals:
       Occupied  (A) (A) (A) (A) (A) (A) (A) (A) (A) (A) (A) (A)
                 (A) (A) (A) (A) (A) (A) (A) (A) (A) (A) (A) (A)
                 (A) (A) (A) (A) (A) (A) (A) (A) (A) (A) (A) (A)
                 (A) (A) (A) (A) (A) (A) (A) (A) (A) (A) (A) (A)
                 (A) (A) (A) (A) (A) (A) (A) (A) (A) (A) (A) (A)
                 (A) (A) (A) (A) (A) (A) (A) (A) (A) (A) (A) (A)
                 (A) (A) (A) (A) (A) (A) (A) (A) (A) (A) (A) (A)
                 (A) (A) (A) (A) (A) (A) (A) (A) (A) (A) (A) (A)
                 (A) (A) (A) (A) (A) (A) (A) (A) (A) (A) (A) (A)
                 (A) (A) (A) (A) (A) (A) (A) (A) (A) (A) (A) (A)
                 (A) (A) (A) (A) (A) (A) (A) (A) (A) (A) (A) (A)
                 (A) (A) (A) (A) (A) (A) (A) (A) (A) (A) (A) (A)
                 (A) (A) (A) (A) (A) (A) (A) (A) (A) (A) (A)
       Virtual   (A) (A) (A) (A) (A) (A) (A) (A) (A) (A) (A) (A)
                 (A) (A) (A) (A) (A) (A) (A) (A) (A) (A) (A) (A)
                 (A) (A) (A) (A) (A) (A) (A) (A) (A) (A) (A) (A)
                 (A) (A) (A) (A) (A) (A) (A) (A) (A) (A) (A) (A)
                 (A) (A) (A) (A) (A) (A) (A) (A) (A) (A) (A) (A)
                 (A) (A) (A) (A) (A) (A) (A) (A) (A) (A) (A) (A)
                 (A) (A) (A) (A) (A) (A) (A) (A) (A) (A) (A) (A)
                 (A) (A) (A) (A) (A) (A) (A) (A) (A) (A) (A) (A)
                 (A) (A) (A) (A) (A) (A) (A) (A) (A) (A) (A) (A)
                 (A) (A) (A) (A) (A) (A) (A) (A) (A) (A) (A) (A)
                 (A) (A) (A) (A) (A) (A) (A) (A) (A) (A) (A) (A)
                 (A) (A) (A) (A) (A) (A) (A) (A) (A) (A) (A) (A)
                 (A) (A) (A) (A) (A) (A) (A) (A) (A) (A) (A) (A)
                 (A) (A) (A) (A) (A) (A) (A) (A) (A) (A) (A) (A)
                 (A) (A) (A) (A) (A) (A) (A) (A) (A) (A) (A) (A)
                 (A) (A) (A) (A) (A) (A) (A) (A) (A) (A) (A) (A)
                 (A) (A) (A) (A) (A) (A) (A) (A) (A) (A) (A) (A)
                 (A) (A) (A) (A) (A) (A) (A) (A) (A) (A) (A) (A)
                 (A) (A) (A) (A) (A) (A) (A) (A) (A) (A) (A) (A)
                 (A) (A) (A) (A) (A) (A) (A) (A) (A) (A) (A) (A)
                 (A) (A) (A) (A) (A) (A) (A) (A) (A) (A) (A) (A)
                 (A) (A) (A) (A) (A) (A) (A) (A) (A) (A) (A) (A)
                 (A) (A) (A) (A) (A) (A) (A) (A) (A) (A) (A) (A)
                 (A) (A) (A) (A) (A) (A) (A) (A) (A) (A) (A) (A)
                 (A) (A) (A) (A) (A) (A) (A) (A) (A) (A) (A) (A)
                 (A) (A) (A) (A) (A) (A) (A) (A) (A) (A) (A) (A)
                 (A) (A) (A) (A) (A) (A) (A) (A) (A) (A) (A) (A)
                 (A) (A) (A) (A) (A) (A) (A) (A) (A) (A) (A) (A)
                 (A) (A) (A) (A) (A) (A) (A) (A) (A) (A) (A) (A)
                 (A) (A) (A) (A) (A) (A) (A) (A) (A) (A) (A) (A)
                 (A) (A) (A) (A) (A) (A) (A) (A) (A) (A) (A) (A)
                 (A) (A) (A) (A) (A) (A) (A) (A) (A) (A) (A) (A)
                 (A) (A) (A) (A) (A) (A) (A) (A) (A) (A) (A) (A)
                 (A) (A) (A) (A) (A) (A) (A) (A) (A) (A) (A) (A)
                 (A) (A) (A) (A) (A) (A) (A) (A) (A) (A) (A) (A)
                 (A) (A) (A) (A) (A) (A) (A) (A) (A) (A) (A) (A)
                 (A) (A) (A) (A) (A) (A) (A) (A) (A) (A) (A) (A)
                 (A) (A) (A) (A) (A) (A) (A) (A) (A) (A) (A) (A)
                 (A) (A) (A) (A) (A) (A) (A) (A) (A) (A) (A) (A)
                 (A) (A) (A) (A) (A) (A) (A) (A) (A) (A) (A) (A)
                 (A) (A) (A) (A) (A) (A) (A) (A) (A) (A) (A) (A)
                 (A) (A) (A) (A) (A) (A) (A) (A) (A) (A) (A) (A)
                 (A) (A)
 Beta  Orbitals:
       Occupied  (A) (A) (A) (A) (A) (A) (A) (A) (A) (A) (A) (A)
                 (A) (A) (A) (A) (A) (A) (A) (A) (A) (A) (A) (A)
                 (A) (A) (A) (A) (A) (A) (A) (A) (A) (A) (A) (A)
                 (A) (A) (A) (A) (A) (A) (A) (A) (A) (A) (A) (A)
                 (A) (A) (A) (A) (A) (A) (A) (A) (A) (A) (A) (A)
                 (A) (A) (A) (A) (A) (A) (A) (A) (A) (A) (A) (A)
                 (A) (A) (A) (A) (A) (A) (A) (A) (A) (A) (A) (A)
                 (A) (A) (A) (A) (A) (A) (A) (A) (A) (A) (A) (A)
                 (A) (A) (A) (A) (A) (A) (A) (A) (A) (A) (A) (A)
                 (A) (A) (A) (A) (A) (A) (A) (A) (A) (A) (A) (A)
                 (A) (A) (A) (A) (A) (A) (A) (A) (A) (A) (A) (A)
                 (A) (A) (A) (A) (A) (A) (A) (A) (A) (A) (A) (A)
                 (A) (A) (A) (A) (A) (A)
       Virtual   (A) (A) (A) (A) (A) (A) (A) (A) (A) (A) (A) (A)
                 (A) (A) (A) (A) (A) (A) (A) (A) (A) (A) (A) (A)
                 (A) (A) (A) (A) (A) (A) (A) (A) (A) (A) (A) (A)
                 (A) (A) (A) (A) (A) (A) (A) (A) (A) (A) (A) (A)
                 (A) (A) (A) (A) (A) (A) (A) (A) (A) (A) (A) (A)
                 (A) (A) (A) (A) (A) (A) (A) (A) (A) (A) (A) (A)
                 (A) (A) (A) (A) (A) (A) (A) (A) (A) (A) (A) (A)
                 (A) (A) (A) (A) (A) (A) (A) (A) (A) (A) (A) (A)
                 (A) (A) (A) (A) (A) (A) (A) (A) (A) (A) (A) (A)
                 (A) (A) (A) (A) (A) (A) (A) (A) (A) (A) (A) (A)
                 (A) (A) (A) (A) (A) (A) (A) (A) (A) (A) (A) (A)
                 (A) (A) (A) (A) (A) (A) (A) (A) (A) (A) (A) (A)
                 (A) (A) (A) (A) (A) (A) (A) (A) (A) (A) (A) (A)
                 (A) (A) (A) (A) (A) (A) (A) (A) (A) (A) (A) (A)
                 (A) (A) (A) (A) (A) (A) (A) (A) (A) (A) (A) (A)
                 (A) (A) (A) (A) (A) (A) (A) (A) (A) (A) (A) (A)
                 (A) (A) (A) (A) (A) (A) (A) (A) (A) (A) (A) (A)
                 (A) (A) (A) (A) (A) (A) (A) (A) (A) (A) (A) (A)
                 (A) (A) (A) (A) (A) (A) (A) (A) (A) (A) (A) (A)
                 (A) (A) (A) (A) (A) (A) (A) (A) (A) (A) (A) (A)
                 (A) (A) (A) (A) (A) (A) (A) (A) (A) (A) (A) (A)
                 (A) (A) (A) (A) (A) (A) (A) (A) (A) (A) (A) (A)
                 (A) (A) (A) (A) (A) (A) (A) (A) (A) (A) (A) (A)
                 (A) (A) (A) (A) (A) (A) (A) (A) (A) (A) (A) (A)
                 (A) (A) (A) (A) (A) (A) (A) (A) (A) (A) (A) (A)
                 (A) (A) (A) (A) (A) (A) (A) (A) (A) (A) (A) (A)
                 (A) (A) (A) (A) (A) (A) (A) (A) (A) (A) (A) (A)
                 (A) (A) (A) (A) (A) (A) (A) (A) (A) (A) (A) (A)
                 (A) (A) (A) (A) (A) (A) (A) (A) (A) (A) (A) (A)
                 (A) (A) (A) (A) (A) (A) (A) (A) (A) (A) (A) (A)
                 (A) (A) (A) (A) (A) (A) (A) (A) (A) (A) (A) (A)
                 (A) (A) (A) (A) (A) (A) (A) (A) (A) (A) (A) (A)
                 (A) (A) (A) (A) (A) (A) (A) (A) (A) (A) (A) (A)
                 (A) (A) (A) (A) (A) (A) (A) (A) (A) (A) (A) (A)
                 (A) (A) (A) (A) (A) (A) (A) (A) (A) (A) (A) (A)
                 (A) (A) (A) (A) (A) (A) (A) (A) (A) (A) (A) (A)
                 (A) (A) (A) (A) (A) (A) (A) (A) (A) (A) (A) (A)
                 (A) (A) (A) (A) (A) (A) (A) (A) (A) (A) (A) (A)
                 (A) (A) (A) (A) (A) (A) (A) (A) (A) (A) (A) (A)
                 (A) (A) (A) (A) (A) (A) (A) (A) (A) (A) (A) (A)
                 (A) (A) (A) (A) (A) (A) (A) (A) (A) (A) (A) (A)
                 (A) (A) (A) (A) (A) (A) (A) (A) (A) (A) (A) (A)
                 (A) (A) (A) (A) (A) (A) (A)
 The electronic state is 6-A.
 Alpha  occ. eigenvalues -- -256.42460 -30.33458 -26.16507 -26.16339 -26.16321
 Alpha  occ. eigenvalues --  -14.54414 -14.50057 -14.47027 -14.46990 -14.46982
 Alpha  occ. eigenvalues --  -14.46979 -10.38553 -10.35628 -10.33847 -10.33694
 Alpha  occ. eigenvalues --  -10.33689 -10.33678 -10.33666 -10.33638 -10.33630
 Alpha  occ. eigenvalues --  -10.33515 -10.33099 -10.30735 -10.30731 -10.30695
 Alpha  occ. eigenvalues --  -10.30662 -10.30626 -10.30575 -10.30572 -10.30513
 Alpha  occ. eigenvalues --  -10.30497 -10.30430 -10.30412 -10.30400 -10.30380
 Alpha  occ. eigenvalues --  -10.29519 -10.29511 -10.28617 -10.28486 -10.28415
 Alpha  occ. eigenvalues --  -10.28383 -10.28301 -10.28231 -10.28191 -10.28096
 Alpha  occ. eigenvalues --   -3.78804  -2.55467  -2.55339  -2.55320  -1.17169
 Alpha  occ. eigenvalues --   -1.09418  -1.08382  -1.08342  -1.07388  -1.03067
 Alpha  occ. eigenvalues --   -0.93820  -0.92507  -0.92204  -0.91793  -0.91488
 Alpha  occ. eigenvalues --   -0.91056  -0.90959  -0.90915  -0.86941  -0.85671
 Alpha  occ. eigenvalues --   -0.85536  -0.84534  -0.83181  -0.82460  -0.81457
 Alpha  occ. eigenvalues --   -0.80492  -0.78928  -0.78657  -0.78558  -0.76460
 Alpha  occ. eigenvalues --   -0.75380  -0.75339  -0.72702  -0.70953  -0.70308
 Alpha  occ. eigenvalues --   -0.69104  -0.68690  -0.67291  -0.65443  -0.64820
 Alpha  occ. eigenvalues --   -0.64228  -0.63969  -0.62366  -0.62162  -0.62127
 Alpha  occ. eigenvalues --   -0.61651  -0.60239  -0.58878  -0.58713  -0.58638
 Alpha  occ. eigenvalues --   -0.58029  -0.56639  -0.56526  -0.56138  -0.56092
 Alpha  occ. eigenvalues --   -0.55388  -0.55355  -0.54756  -0.54652  -0.54007
 Alpha  occ. eigenvalues --   -0.53873  -0.53571  -0.53532  -0.53375  -0.53072
 Alpha  occ. eigenvalues --   -0.52720  -0.52455  -0.52329  -0.52022  -0.51863
 Alpha  occ. eigenvalues --   -0.51462  -0.50866  -0.50682  -0.50617  -0.50358
 Alpha  occ. eigenvalues --   -0.50053  -0.49890  -0.49764  -0.49391  -0.49127
 Alpha  occ. eigenvalues --   -0.49027  -0.48903  -0.48532  -0.48170  -0.47849
 Alpha  occ. eigenvalues --   -0.47213  -0.47113  -0.46532  -0.45973  -0.45451
 Alpha  occ. eigenvalues --   -0.45088  -0.44049  -0.43667  -0.43233  -0.42951
 Alpha  occ. eigenvalues --   -0.42552  -0.41635  -0.40821  -0.39637  -0.39372
 Alpha  occ. eigenvalues --   -0.37558  -0.37452  -0.34932  -0.34116  -0.33831
 Alpha  occ. eigenvalues --   -0.32957  -0.32558  -0.32250  -0.29798  -0.28792
 Alpha virt. eigenvalues --   -0.17651  -0.17586  -0.11758  -0.09306  -0.08077
 Alpha virt. eigenvalues --   -0.06936  -0.05351  -0.04739  -0.04103  -0.02210
 Alpha virt. eigenvalues --   -0.01847  -0.01180   0.00643   0.00865   0.01727
 Alpha virt. eigenvalues --    0.02415   0.02924   0.03142   0.03612   0.03787
 Alpha virt. eigenvalues --    0.04175   0.04587   0.04758   0.05148   0.05468
 Alpha virt. eigenvalues --    0.05755   0.05909   0.06291   0.06806   0.07376
 Alpha virt. eigenvalues --    0.07499   0.07796   0.08049   0.08318   0.08421
 Alpha virt. eigenvalues --    0.08762   0.09251   0.09304   0.09504   0.09812
 Alpha virt. eigenvalues --    0.10022   0.10364   0.10804   0.11021   0.11409
 Alpha virt. eigenvalues --    0.11681   0.12078   0.12228   0.12525   0.12809
 Alpha virt. eigenvalues --    0.13112   0.13524   0.13842   0.14582   0.14964
 Alpha virt. eigenvalues --    0.15329   0.15583   0.15820   0.16374   0.16694
 Alpha virt. eigenvalues --    0.16899   0.17658   0.17794   0.19156   0.19323
 Alpha virt. eigenvalues --    0.19845   0.20624   0.21559   0.21678   0.22666
 Alpha virt. eigenvalues --    0.23159   0.24537   0.24974   0.25344   0.25568
 Alpha virt. eigenvalues --    0.26525   0.26837   0.26960   0.28403   0.29978
 Alpha virt. eigenvalues --    0.30299   0.30823   0.31776   0.33029   0.33639
 Alpha virt. eigenvalues --    0.33709   0.34294   0.34840   0.37209   0.37459
 Alpha virt. eigenvalues --    0.37836   0.38491   0.39086   0.39615   0.39718
 Alpha virt. eigenvalues --    0.40303   0.40472   0.40966   0.41395   0.41818
 Alpha virt. eigenvalues --    0.42482   0.42574   0.43162   0.43299   0.43659
 Alpha virt. eigenvalues --    0.43743   0.44482   0.44623   0.45015   0.45789
 Alpha virt. eigenvalues --    0.45837   0.46391   0.47112   0.47431   0.47581
 Alpha virt. eigenvalues --    0.48315   0.48471   0.48925   0.49370   0.49890
 Alpha virt. eigenvalues --    0.50141   0.50500   0.50847   0.51310   0.51955
 Alpha virt. eigenvalues --    0.52251   0.52708   0.53077   0.53775   0.54125
 Alpha virt. eigenvalues --    0.54421   0.54884   0.55157   0.55308   0.55833
 Alpha virt. eigenvalues --    0.56100   0.56561   0.56668   0.56997   0.57369
 Alpha virt. eigenvalues --    0.57474   0.57864   0.58398   0.59305   0.59425
 Alpha virt. eigenvalues --    0.59912   0.60346   0.60667   0.60923   0.62263
 Alpha virt. eigenvalues --    0.62592   0.62800   0.63015   0.63824   0.64660
 Alpha virt. eigenvalues --    0.64804   0.65603   0.66250   0.66608   0.66724
 Alpha virt. eigenvalues --    0.67378   0.67640   0.67955   0.68204   0.68346
 Alpha virt. eigenvalues --    0.68607   0.69071   0.69423   0.69651   0.70290
 Alpha virt. eigenvalues --    0.70331   0.71201   0.71385   0.72541   0.73277
 Alpha virt. eigenvalues --    0.73415   0.74259   0.74434   0.76011   0.76380
 Alpha virt. eigenvalues --    0.77220   0.77249   0.77579   0.78055   0.78232
 Alpha virt. eigenvalues --    0.78579   0.78885   0.78950   0.79516   0.80000
 Alpha virt. eigenvalues --    0.80928   0.81357   0.81374   0.82313   0.82474
 Alpha virt. eigenvalues --    0.82605   0.82699   0.82892   0.83587   0.83633
 Alpha virt. eigenvalues --    0.83964   0.84493   0.84681   0.84923   0.85678
 Alpha virt. eigenvalues --    0.86297   0.86492   0.87118   0.87322   0.87831
 Alpha virt. eigenvalues --    0.87903   0.88938   0.89255   0.89333   0.89683
 Alpha virt. eigenvalues --    0.90304   0.90745   0.90928   0.91262   0.91749
 Alpha virt. eigenvalues --    0.92454   0.92795   0.93396   0.93715   0.93955
 Alpha virt. eigenvalues --    0.94441   0.95123   0.95399   0.96147   0.97140
 Alpha virt. eigenvalues --    0.97211   0.97582   0.98249   0.99153   1.01041
 Alpha virt. eigenvalues --    1.01745   1.02604   1.03279   1.04979   1.05071
 Alpha virt. eigenvalues --    1.05691   1.05925   1.06664   1.07534   1.08026
 Alpha virt. eigenvalues --    1.08239   1.09651   1.09830   1.10160   1.10263
 Alpha virt. eigenvalues --    1.11099   1.11166   1.11647   1.12328   1.13369
 Alpha virt. eigenvalues --    1.13511   1.14474   1.15045   1.16566   1.17779
 Alpha virt. eigenvalues --    1.18609   1.19198   1.19947   1.20289   1.20748
 Alpha virt. eigenvalues --    1.21266   1.21692   1.22479   1.23154   1.23899
 Alpha virt. eigenvalues --    1.24883   1.25750   1.26403   1.26586   1.27193
 Alpha virt. eigenvalues --    1.27549   1.27756   1.27910   1.28230   1.29009
 Alpha virt. eigenvalues --    1.29411   1.30280   1.30621   1.32266   1.33219
 Alpha virt. eigenvalues --    1.33362   1.33928   1.34520   1.36037   1.37000
 Alpha virt. eigenvalues --    1.37534   1.37985   1.38646   1.39486   1.41249
 Alpha virt. eigenvalues --    1.41452   1.43011   1.43417   1.44176   1.44556
 Alpha virt. eigenvalues --    1.45276   1.45892   1.46342   1.47116   1.48419
 Alpha virt. eigenvalues --    1.49740   1.50237   1.51353   1.52235   1.52338
 Alpha virt. eigenvalues --    1.53349   1.55052   1.56462   1.56682   1.57888
 Alpha virt. eigenvalues --    1.59810   1.59989   1.61102   1.61652   1.62897
 Alpha virt. eigenvalues --    1.64938   1.67865   1.68157   1.68517   1.69223
 Alpha virt. eigenvalues --    1.69388   1.70317   1.70373   1.70953   1.71231
 Alpha virt. eigenvalues --    1.71436   1.72057   1.72709   1.72893   1.73510
 Alpha virt. eigenvalues --    1.73944   1.74798   1.75176   1.75495   1.76942
 Alpha virt. eigenvalues --    1.77139   1.77567   1.78026   1.79060   1.79359
 Alpha virt. eigenvalues --    1.79861   1.80641   1.81621   1.82018   1.82387
 Alpha virt. eigenvalues --    1.82806   1.84381   1.84601   1.84905   1.85760
 Alpha virt. eigenvalues --    1.85897   1.86307   1.88516   1.90111   1.90163
 Alpha virt. eigenvalues --    1.90239   1.90902   1.90998   1.91667   1.92796
 Alpha virt. eigenvalues --    1.93046   1.94626   1.95085   1.95368   1.95652
 Alpha virt. eigenvalues --    1.96056   1.97317   1.97709   1.98338   1.99054
 Alpha virt. eigenvalues --    2.00723   2.01041   2.01993   2.02743   2.03334
 Alpha virt. eigenvalues --    2.04724   2.04874   2.05631   2.06037   2.06384
 Alpha virt. eigenvalues --    2.06999   2.08158   2.08655   2.09999   2.10263
 Alpha virt. eigenvalues --    2.10896   2.11104   2.12437   2.12938   2.13226
 Alpha virt. eigenvalues --    2.13900   2.14082   2.15857   2.16372   2.16591
 Alpha virt. eigenvalues --    2.16757   2.16852   2.17254   2.18173   2.18695
 Alpha virt. eigenvalues --    2.19250   2.20023   2.20284   2.20676   2.21009
 Alpha virt. eigenvalues --    2.21413   2.21836   2.23281   2.24454   2.24800
 Alpha virt. eigenvalues --    2.25442   2.25971   2.26675   2.27365   2.27464
 Alpha virt. eigenvalues --    2.27913   2.28097   2.28905   2.30305   2.30864
 Alpha virt. eigenvalues --    2.31122   2.31386   2.32051   2.33046   2.33869
 Alpha virt. eigenvalues --    2.34022   2.34483   2.35045   2.35191   2.37956
 Alpha virt. eigenvalues --    2.38092   2.39072   2.39861   2.42031   2.42622
 Alpha virt. eigenvalues --    2.42961   2.43032   2.43272   2.45227   2.45534
 Alpha virt. eigenvalues --    2.46262   2.46572   2.46773   2.49193   2.50017
 Alpha virt. eigenvalues --    2.50585   2.50871   2.52908   2.54961   2.56557
 Alpha virt. eigenvalues --    2.57350   2.57941   2.58163   2.58549   2.60312
 Alpha virt. eigenvalues --    2.61522   2.63230   2.63899   2.65436   2.67608
 Alpha virt. eigenvalues --    2.68069   2.69735   2.70772   2.71361   2.76233
 Alpha virt. eigenvalues --    2.77111   2.77417   2.78341   2.80145   2.80674
 Alpha virt. eigenvalues --    2.82339   2.84593   2.86496   2.86776   2.87659
 Alpha virt. eigenvalues --    2.88486   2.89153   2.89363   2.90653   2.94056
 Alpha virt. eigenvalues --    2.94692   2.95158   3.01838   3.03412   3.04598
 Alpha virt. eigenvalues --    3.10274   3.12959   3.14157   3.19860   3.20020
 Alpha virt. eigenvalues --    3.27556   3.29300   3.29491   3.33168   3.35885
 Alpha virt. eigenvalues --    3.35998   3.36273   3.42753   3.68043   3.84219
 Alpha virt. eigenvalues --    4.03093
  Beta  occ. eigenvalues -- -256.42294 -30.23970 -26.08655 -26.08357 -26.08354
  Beta  occ. eigenvalues --  -14.54397 -14.49688 -14.46708 -14.46672 -14.46670
  Beta  occ. eigenvalues --  -14.46668 -10.38535 -10.35613 -10.33831 -10.33680
  Beta  occ. eigenvalues --  -10.33676 -10.33664 -10.33645 -10.33622 -10.33610
  Beta  occ. eigenvalues --  -10.33501 -10.33096 -10.30728 -10.30697 -10.30655
  Beta  occ. eigenvalues --  -10.30622 -10.30618 -10.30540 -10.30532 -10.30504
  Beta  occ. eigenvalues --  -10.30459 -10.30420 -10.30398 -10.30376 -10.30342
  Beta  occ. eigenvalues --  -10.29527 -10.29519 -10.28617 -10.28486 -10.28415
  Beta  occ. eigenvalues --  -10.28383 -10.28301 -10.28213 -10.28173 -10.28097
  Beta  occ. eigenvalues --   -3.56459  -2.32003  -2.31283  -2.31244  -1.16966
  Beta  occ. eigenvalues --   -1.09005  -1.07977  -1.07938  -1.06957  -1.02686
  Beta  occ. eigenvalues --   -0.93749  -0.92319  -0.92033  -0.91590  -0.91285
  Beta  occ. eigenvalues --   -0.90923  -0.90874  -0.90835  -0.86876  -0.85591
  Beta  occ. eigenvalues --   -0.85453  -0.84470  -0.83144  -0.82362  -0.81347
  Beta  occ. eigenvalues --   -0.80347  -0.78751  -0.78538  -0.78343  -0.76072
  Beta  occ. eigenvalues --   -0.75285  -0.75241  -0.72588  -0.70770  -0.70147
  Beta  occ. eigenvalues --   -0.68948  -0.68257  -0.67090  -0.65302  -0.64579
  Beta  occ. eigenvalues --   -0.63718  -0.63499  -0.61942  -0.61918  -0.61454
  Beta  occ. eigenvalues --   -0.59342  -0.59076  -0.58440  -0.58295  -0.58045
  Beta  occ. eigenvalues --   -0.56105  -0.55178  -0.54785  -0.54722  -0.54227
  Beta  occ. eigenvalues --   -0.53958  -0.53916  -0.53650  -0.53529  -0.53388
  Beta  occ. eigenvalues --   -0.53076  -0.52652  -0.52324  -0.52165  -0.52078
  Beta  occ. eigenvalues --   -0.51620  -0.50840  -0.50664  -0.50587  -0.50381
  Beta  occ. eigenvalues --   -0.50287  -0.49950  -0.49756  -0.49640  -0.49441
  Beta  occ. eigenvalues --   -0.49138  -0.48780  -0.48461  -0.47999  -0.47819
  Beta  occ. eigenvalues --   -0.47754  -0.47503  -0.47148  -0.46663  -0.46246
  Beta  occ. eigenvalues --   -0.45892  -0.44987  -0.44440  -0.43813  -0.43230
  Beta  occ. eigenvalues --   -0.42995  -0.42641  -0.41961  -0.41418  -0.39632
  Beta  occ. eigenvalues --   -0.39185  -0.37616  -0.37424  -0.35020  -0.34268
  Beta  occ. eigenvalues --   -0.34084  -0.32763  -0.32051  -0.29856  -0.28695
  Beta virt. eigenvalues --   -0.21600  -0.21516  -0.20085  -0.17480  -0.16468
  Beta virt. eigenvalues --   -0.16413  -0.11785  -0.11543  -0.08811  -0.07879
  Beta virt. eigenvalues --   -0.06732  -0.04933  -0.04448  -0.02316  -0.01826
  Beta virt. eigenvalues --   -0.01603  -0.00790   0.00846   0.01060   0.01748
  Beta virt. eigenvalues --    0.02495   0.02992   0.03258   0.03806   0.03952
  Beta virt. eigenvalues --    0.04298   0.04771   0.04925   0.05214   0.05607
  Beta virt. eigenvalues --    0.05816   0.06107   0.06440   0.06874   0.07421
  Beta virt. eigenvalues --    0.07590   0.07887   0.08191   0.08392   0.08546
  Beta virt. eigenvalues --    0.08939   0.09264   0.09419   0.09673   0.10014
  Beta virt. eigenvalues --    0.10086   0.10438   0.11043   0.11489   0.11742
  Beta virt. eigenvalues --    0.12010   0.12268   0.12480   0.12695   0.13033
  Beta virt. eigenvalues --    0.13328   0.13734   0.14400   0.14817   0.15205
  Beta virt. eigenvalues --    0.15706   0.15940   0.16221   0.16563   0.16875
  Beta virt. eigenvalues --    0.17131   0.17769   0.17886   0.19571   0.20325
  Beta virt. eigenvalues --    0.20485   0.20779   0.21885   0.22248   0.23060
  Beta virt. eigenvalues --    0.23339   0.24871   0.25267   0.25582   0.25869
  Beta virt. eigenvalues --    0.26718   0.27068   0.27469   0.28549   0.30251
  Beta virt. eigenvalues --    0.30833   0.31363   0.32255   0.33110   0.33720
  Beta virt. eigenvalues --    0.33810   0.34577   0.35703   0.37729   0.37834
  Beta virt. eigenvalues --    0.38193   0.38677   0.39401   0.39989   0.40186
  Beta virt. eigenvalues --    0.40540   0.40639   0.41643   0.41749   0.41927
  Beta virt. eigenvalues --    0.42611   0.42702   0.43250   0.43410   0.43767
  Beta virt. eigenvalues --    0.43838   0.44713   0.44924   0.45120   0.45985
  Beta virt. eigenvalues --    0.45999   0.46721   0.47331   0.47575   0.47666
  Beta virt. eigenvalues --    0.48451   0.48578   0.49025   0.49693   0.49992
  Beta virt. eigenvalues --    0.50254   0.50615   0.50945   0.51445   0.52183
  Beta virt. eigenvalues --    0.52370   0.52794   0.53265   0.53939   0.54223
  Beta virt. eigenvalues --    0.54759   0.55240   0.55493   0.55797   0.55945
  Beta virt. eigenvalues --    0.56549   0.56694   0.57146   0.57285   0.57517
  Beta virt. eigenvalues --    0.57655   0.58015   0.58586   0.59593   0.59695
  Beta virt. eigenvalues --    0.60071   0.60631   0.61166   0.61560   0.62428
  Beta virt. eigenvalues --    0.62794   0.63115   0.63415   0.63997   0.64882
  Beta virt. eigenvalues --    0.64956   0.65731   0.66469   0.66718   0.66897
  Beta virt. eigenvalues --    0.67575   0.67924   0.68097   0.68462   0.68774
  Beta virt. eigenvalues --    0.68816   0.69396   0.69561   0.69966   0.70416
  Beta virt. eigenvalues --    0.70696   0.71328   0.71759   0.72820   0.73429
  Beta virt. eigenvalues --    0.73586   0.74478   0.74800   0.76177   0.76511
  Beta virt. eigenvalues --    0.77353   0.77376   0.77650   0.78201   0.78406
  Beta virt. eigenvalues --    0.78715   0.78964   0.79116   0.79797   0.80305
  Beta virt. eigenvalues --    0.81032   0.81492   0.81709   0.82504   0.82601
  Beta virt. eigenvalues --    0.82760   0.83038   0.83173   0.83847   0.83938
  Beta virt. eigenvalues --    0.84082   0.84587   0.84953   0.85115   0.85893
  Beta virt. eigenvalues --    0.86517   0.86760   0.87226   0.87556   0.87948
  Beta virt. eigenvalues --    0.88156   0.89072   0.89568   0.89635   0.89906
  Beta virt. eigenvalues --    0.90482   0.90916   0.91159   0.91497   0.91827
  Beta virt. eigenvalues --    0.92609   0.93173   0.93833   0.93870   0.94312
  Beta virt. eigenvalues --    0.94709   0.95523   0.95780   0.96592   0.97302
  Beta virt. eigenvalues --    0.97511   0.97849   0.99091   0.99614   1.01319
  Beta virt. eigenvalues --    1.01881   1.03755   1.04288   1.05080   1.05585
  Beta virt. eigenvalues --    1.06636   1.06827   1.07533   1.07764   1.08392
  Beta virt. eigenvalues --    1.08764   1.09783   1.10214   1.10329   1.10628
  Beta virt. eigenvalues --    1.11242   1.11456   1.11828   1.13497   1.13819
  Beta virt. eigenvalues --    1.14254   1.14797   1.15157   1.16805   1.17923
  Beta virt. eigenvalues --    1.18783   1.19487   1.20126   1.20471   1.20881
  Beta virt. eigenvalues --    1.21402   1.21880   1.22748   1.23324   1.24180
  Beta virt. eigenvalues --    1.25132   1.25868   1.26543   1.26756   1.27311
  Beta virt. eigenvalues --    1.27688   1.27871   1.28008   1.28381   1.29201
  Beta virt. eigenvalues --    1.30094   1.30424   1.31223   1.32843   1.33478
  Beta virt. eigenvalues --    1.33589   1.34188   1.34729   1.36426   1.37194
  Beta virt. eigenvalues --    1.37660   1.38182   1.38806   1.40209   1.41437
  Beta virt. eigenvalues --    1.41833   1.43231   1.43555   1.44290   1.44740
  Beta virt. eigenvalues --    1.45452   1.46226   1.46629   1.47718   1.48864
  Beta virt. eigenvalues --    1.50207   1.50386   1.51643   1.52617   1.52985
  Beta virt. eigenvalues --    1.53613   1.55429   1.56671   1.57332   1.58404
  Beta virt. eigenvalues --    1.59992   1.60175   1.61314   1.61844   1.63149
  Beta virt. eigenvalues --    1.65172   1.68237   1.68542   1.69034   1.69548
  Beta virt. eigenvalues --    1.69923   1.70488   1.70518   1.71255   1.71560
  Beta virt. eigenvalues --    1.71728   1.72311   1.72888   1.73243   1.73686
  Beta virt. eigenvalues --    1.74222   1.74960   1.75369   1.75781   1.77073
  Beta virt. eigenvalues --    1.77268   1.77757   1.78123   1.79434   1.79745
  Beta virt. eigenvalues --    1.79980   1.80971   1.81857   1.82336   1.82674
  Beta virt. eigenvalues --    1.83094   1.84627   1.85051   1.85410   1.86059
  Beta virt. eigenvalues --    1.86333   1.87877   1.89624   1.90295   1.90388
  Beta virt. eigenvalues --    1.90429   1.91068   1.91233   1.91934   1.93276
  Beta virt. eigenvalues --    1.93516   1.94986   1.95299   1.95733   1.96016
  Beta virt. eigenvalues --    1.96442   1.97655   1.98057   1.98569   1.99445
  Beta virt. eigenvalues --    2.01010   2.01471   2.02141   2.03090   2.03524
  Beta virt. eigenvalues --    2.04898   2.05774   2.06150   2.06371   2.07085
  Beta virt. eigenvalues --    2.07484   2.08709   2.09316   2.10687   2.11089
  Beta virt. eigenvalues --    2.11249   2.12677   2.13290   2.13691   2.14308
  Beta virt. eigenvalues --    2.14584   2.15305   2.16112   2.16706   2.16935
  Beta virt. eigenvalues --    2.17011   2.17549   2.17706   2.18449   2.19087
  Beta virt. eigenvalues --    2.19866   2.20242   2.20436   2.20949   2.21600
  Beta virt. eigenvalues --    2.22025   2.22086   2.23432   2.24736   2.24964
  Beta virt. eigenvalues --    2.25546   2.26045   2.26890   2.27489   2.27679
  Beta virt. eigenvalues --    2.28182   2.28258   2.29087   2.30444   2.31003
  Beta virt. eigenvalues --    2.31350   2.31579   2.32234   2.33245   2.33971
  Beta virt. eigenvalues --    2.34253   2.34609   2.35342   2.35595   2.38126
  Beta virt. eigenvalues --    2.38474   2.39694   2.40301   2.42239   2.42860
  Beta virt. eigenvalues --    2.43131   2.43264   2.43570   2.45415   2.45763
  Beta virt. eigenvalues --    2.46400   2.46863   2.46979   2.49742   2.50178
  Beta virt. eigenvalues --    2.50808   2.51206   2.53035   2.55057   2.56678
  Beta virt. eigenvalues --    2.57758   2.58337   2.58514   2.58761   2.60494
  Beta virt. eigenvalues --    2.61756   2.63510   2.64234   2.65624   2.68185
  Beta virt. eigenvalues --    2.68266   2.69849   2.70857   2.71461   2.76521
  Beta virt. eigenvalues --    2.77370   2.77606   2.78568   2.80398   2.80907
  Beta virt. eigenvalues --    2.82628   2.84848   2.86659   2.86974   2.88384
  Beta virt. eigenvalues --    2.88696   2.89441   2.89638   2.90768   2.94485
  Beta virt. eigenvalues --    2.94996   2.95352   3.02074   3.03661   3.04691
  Beta virt. eigenvalues --    3.10394   3.13197   3.14830   3.19944   3.20109
  Beta virt. eigenvalues --    3.28038   3.29555   3.30408   3.36144   3.36265
  Beta virt. eigenvalues --    3.42535   3.49274   3.55348   3.79924   3.94794
  Beta virt. eigenvalues --    4.13398
          Condensed to atoms (all electrons):
          Atomic-Atomic Spin Densities.
 Mulliken charges and spin densities:
               1          2
     1  Fe   1.144673   4.272031
     2  N   -0.753614   0.093695
     3  N   -0.749856   0.089027
     4  N   -0.753502   0.088947
     5  N   -0.760382   0.094216
     6  C    0.341188   0.005248
     7  C    0.042178   0.018157
     8  C    0.043619   0.025213
     9  C    0.319111   0.000247
    10  C    0.320178   0.000831
    11  C    0.046104   0.022216
    12  C    0.009028   0.020668
    13  C    0.339557   0.000588
    14  C    0.335026   0.000591
    15  C    0.047355   0.023026
    16  C    0.010305   0.022273
    17  C    0.332755   0.002197
    18  C    0.329976   0.001348
    19  C    0.044964   0.024966
    20  C    0.043526   0.020377
    21  C    0.343798   0.005109
    22  C   -0.295643   0.002082
    23  H    0.193522   0.000147
    24  C   -0.311515   0.006447
    25  H    0.193226  -0.000055
    26  C   -0.288194   0.008170
    27  H    0.194796  -0.000130
    28  C   -0.302842   0.006956
    29  H    0.194001  -0.000077
    30  C   -0.611926  -0.001238
    31  H    0.205931   0.000408
    32  H    0.211047   0.001115
    33  H    0.198429   0.001107
    34  C   -0.612860  -0.000761
    35  H    0.203032   0.000828
    36  H    0.210174   0.000885
    37  H    0.204509   0.000391
    38  C   -0.614739  -0.001055
    39  H    0.191641   0.000715
    40  H    0.212026   0.001233
    41  H    0.212426   0.000510
    42  C   -0.154556  -0.006669
    43  H    0.180330   0.000589
    44  C   -0.387610   0.012540
    45  H    0.191180  -0.000614
    46  H    0.195480  -0.000461
    47  C   -0.616246  -0.001158
    48  H    0.196526   0.000794
    49  H    0.212100   0.001299
    50  H    0.212294   0.000514
    51  C   -0.154044  -0.007015
    52  H    0.178443   0.000656
    53  C   -0.386802   0.013247
    54  H    0.191917  -0.000646
    55  H    0.195244  -0.000480
    56  C   -0.613222  -0.001229
    57  H    0.202588   0.001161
    58  H    0.210705   0.001103
    59  H    0.205597   0.000410
    60  C   -0.613029  -0.000904
    61  H    0.204704   0.001023
    62  H    0.205333   0.000401
    63  H    0.208306   0.000899
    64  C   -0.602669   0.000869
    65  H    0.221944   0.000049
    66  H    0.215631   0.000283
    67  H    0.214191   0.000299
    68  N   -0.627636   0.005225
    69  H    0.387843   0.001484
    70  C    0.282713   0.007178
    71  C    0.267310   0.005476
    72  H    0.233760   0.000274
    73  N   -0.495878   0.107209
    74  C   -0.036963  -0.003461
    75  H    0.211494   0.001009
 Sum of Mulliken charges =   1.00000   5.00000
 Mulliken charges and spin densities with hydrogens summed into heavy atoms:
               1          2
     1  Fe   1.144673   4.272031
     2  N   -0.753614   0.093695
     3  N   -0.749856   0.089027
     4  N   -0.753502   0.088947
     5  N   -0.760382   0.094216
     6  C    0.341188   0.005248
     7  C    0.042178   0.018157
     8  C    0.043619   0.025213
     9  C    0.319111   0.000247
    10  C    0.320178   0.000831
    11  C    0.046104   0.022216
    12  C    0.009028   0.020668
    13  C    0.339557   0.000588
    14  C    0.335026   0.000591
    15  C    0.047355   0.023026
    16  C    0.010305   0.022273
    17  C    0.332755   0.002197
    18  C    0.329976   0.001348
    19  C    0.044964   0.024966
    20  C    0.043526   0.020377
    21  C    0.343798   0.005109
    22  C   -0.102121   0.002230
    24  C   -0.118290   0.006391
    26  C   -0.093398   0.008040
    28  C   -0.108841   0.006879
    30  C    0.003480   0.001392
    34  C    0.004855   0.001342
    38  C    0.001353   0.001402
    42  C    0.025774  -0.006080
    44  C   -0.000950   0.011465
    47  C    0.004673   0.001449
    51  C    0.024399  -0.006360
    53  C    0.000359   0.012121
    56  C    0.005668   0.001445
    60  C    0.005314   0.001419
    64  C    0.049097   0.001499
    68  N   -0.239793   0.006709
    70  C    0.282713   0.007178
    71  C    0.501070   0.005750
    73  N   -0.495878   0.107209
    74  C    0.174531  -0.002452
 Electronic spatial extent (au):  <R**2>=          19724.8989
 Charge=              1.0000 electrons
 Dipole moment (field-independent basis, Debye):
    X=             -0.9140    Y=             -1.5768    Z=              5.3503  Tot=              5.6522
 Quadrupole moment (field-independent basis, Debye-Ang):
   XX=           -170.6280   YY=           -177.3514   ZZ=           -205.9066
   XY=              1.3346   XZ=             -3.6663   YZ=             -3.3889
 Traceless Quadrupole moment (field-independent basis, Debye-Ang):
   XX=             14.0007   YY=              7.2773   ZZ=            -21.2779
   XY=              1.3346   XZ=             -3.6663   YZ=             -3.3889
 Octapole moment (field-independent basis, Debye-Ang**2):
  XXX=              6.6470  YYY=             -2.2716  ZZZ=            204.2548  XYY=             -9.4588
  XXY=              6.8923  XXZ=            -31.3774  XZZ=            -14.6961  YZZ=            -31.3522
  YYZ=            -57.1359  XYZ=              5.2743
 Hexadecapole moment (field-independent basis, Debye-Ang**3):
 XXXX=         -10128.4906 YYYY=          -9892.9902 ZZZZ=          -2360.0720 XXXY=             31.9468
 XXXZ=              5.5278 YYYX=            -39.6397 YYYZ=             20.3455 ZZZX=            -42.2721
 ZZZY=           -111.1031 XXYY=          -3131.2691 XXZZ=          -2420.2158 YYZZ=          -2468.9392
 XXYZ=            -88.6345 YYXZ=            -46.4834 ZZXY=             21.4061
 N-N= 5.571696240692D+03 E-N=-1.793667754846D+04  KE= 2.896811422736D+03
                          Isotropic Fermi Contact Couplings
        Atom                 a.u.       MegaHertz       Gauss      10(-4) cm-1
     1  Fe(57)             0.58229      16.89100       6.02713       5.63423
     2  N(14)              0.12818       8.28299       2.95558       2.76291
     3  N(14)              0.12938       8.36051       2.98324       2.78876
     4  N(14)              0.12793       8.26663       2.94974       2.75745
     5  N(14)              0.12699       8.20627       2.92820       2.73732
     6  C(13)              0.00530       1.19274       0.42560       0.39785
     7  C(13)              0.00554       1.24536       0.44438       0.41541
     8  C(13)              0.00657       1.47665       0.52691       0.49256
     9  C(13)              0.00492       1.10669       0.39489       0.36915
    10  C(13)              0.00462       1.03771       0.37028       0.34614
    11  C(13)              0.00611       1.37337       0.49005       0.45811
    12  C(13)              0.00599       1.34737       0.48078       0.44944
    13  C(13)              0.00480       1.07960       0.38523       0.36012
    14  C(13)              0.00482       1.08268       0.38633       0.36114
    15  C(13)              0.00617       1.38786       0.49522       0.46294
    16  C(13)              0.00610       1.37055       0.48905       0.45717
    17  C(13)              0.00478       1.07390       0.38319       0.35821
    18  C(13)              0.00503       1.13086       0.40352       0.37721
    19  C(13)              0.00645       1.44936       0.51717       0.48346
    20  C(13)              0.00581       1.30734       0.46649       0.43608
    21  C(13)              0.00534       1.20006       0.42821       0.40030
    22  C(13)             -0.00043      -0.09641      -0.03440      -0.03216
    23  H(1)               0.00005       0.04810       0.01716       0.01604
    24  C(13)              0.00044       0.09841       0.03512       0.03283
    25  H(1)              -0.00001      -0.01213      -0.00433      -0.00405
    26  C(13)              0.00056       0.12537       0.04474       0.04182
    27  H(1)              -0.00004      -0.03333      -0.01189      -0.01112
    28  C(13)              0.00052       0.11678       0.04167       0.03895
    29  H(1)              -0.00002      -0.01822      -0.00650      -0.00608
    30  C(13)             -0.00028      -0.06375      -0.02275      -0.02126
    31  H(1)               0.00016       0.14193       0.05064       0.04734
    32  H(1)               0.00059       0.52587       0.18764       0.17541
    33  H(1)               0.00058       0.51484       0.18371       0.17173
    34  C(13)             -0.00012      -0.02762      -0.00986      -0.00921
    35  H(1)               0.00043       0.38045       0.13575       0.12690
    36  H(1)               0.00046       0.41327       0.14746       0.13785
    37  H(1)               0.00015       0.13570       0.04842       0.04527
    38  C(13)             -0.00022      -0.04837      -0.01726      -0.01613
    39  H(1)               0.00034       0.30507       0.10885       0.10176
    40  H(1)               0.00065       0.58336       0.20816       0.19459
    41  H(1)               0.00018       0.15656       0.05586       0.05222
    42  C(13)             -0.00098      -0.22133      -0.07898      -0.07383
    43  H(1)               0.00022       0.19726       0.07039       0.06580
    44  C(13)              0.00200       0.44888       0.16017       0.14973
    45  H(1)              -0.00018      -0.16442      -0.05867      -0.05484
    46  H(1)              -0.00013      -0.11699      -0.04174      -0.03902
    47  C(13)             -0.00026      -0.05793      -0.02067      -0.01932
    48  H(1)               0.00037       0.32868       0.11728       0.10964
    49  H(1)               0.00068       0.60654       0.21643       0.20232
    50  H(1)               0.00018       0.15754       0.05621       0.05255
    51  C(13)             -0.00109      -0.24457      -0.08727      -0.08158
    52  H(1)               0.00025       0.22294       0.07955       0.07436
    53  C(13)              0.00214       0.48004       0.17129       0.16012
    54  H(1)              -0.00019      -0.17312      -0.06177      -0.05775
    55  H(1)              -0.00014      -0.12230      -0.04364      -0.04080
    56  C(13)             -0.00028      -0.06227      -0.02222      -0.02077
    57  H(1)               0.00060       0.53258       0.19004       0.17765
    58  H(1)               0.00058       0.51543       0.18392       0.17193
    59  H(1)               0.00016       0.14227       0.05077       0.04746
    60  C(13)             -0.00017      -0.03798      -0.01355      -0.01267
    61  H(1)               0.00053       0.47378       0.16906       0.15804
    62  H(1)               0.00016       0.14017       0.05002       0.04676
    63  H(1)               0.00046       0.41468       0.14797       0.13832
    64  C(13)              0.00053       0.11892       0.04243       0.03967
    65  H(1)               0.00005       0.04220       0.01506       0.01408
    66  H(1)               0.00016       0.14126       0.05041       0.04712
    67  H(1)               0.00017       0.15070       0.05377       0.05027
    68  N(14)              0.00883       0.57033       0.20351       0.19024
    69  H(1)               0.00061       0.54878       0.19582       0.18305
    70  C(13)              0.00509       1.14542       0.40871       0.38207
    71  C(13)              0.00659       1.48268       0.52906       0.49457
    72  H(1)               0.00018       0.16308       0.05819       0.05440
    73  N(14)              0.18754      12.11913       4.32441       4.04251
    74  C(13)              0.00097       0.21904       0.07816       0.07306
    75  H(1)               0.00045       0.39928       0.14247       0.13319
 --------------------------------------------------------
       Center         ----  Spin Dipole Couplings  ----
                      3XX-RR        3YY-RR        3ZZ-RR
 --------------------------------------------------------
     1   Atom        0.078565      0.115719     -0.194284
     2   Atom       -0.012421      0.064721     -0.052299
     3   Atom        0.070265     -0.007122     -0.063143
     4   Atom       -0.015287      0.073894     -0.058607
     5   Atom        0.068270     -0.021955     -0.046316
     6   Atom       -0.025732      0.051606     -0.025874
     7   Atom       -0.008047      0.003345      0.004702
     8   Atom       -0.005762     -0.004941      0.010703
     9   Atom        0.045736     -0.014468     -0.031268
    10   Atom        0.052361     -0.022298     -0.030063
    11   Atom        0.001501     -0.010127      0.008626
    12   Atom       -0.002913     -0.003639      0.006552
    13   Atom       -0.013796      0.043407     -0.029611
    14   Atom       -0.023009      0.052581     -0.029572
    15   Atom       -0.011138      0.001178      0.009960
    16   Atom       -0.004812     -0.003606      0.008418
    17   Atom        0.042109     -0.013909     -0.028201
    18   Atom        0.054382     -0.024413     -0.029969
    19   Atom        0.000491     -0.011164      0.010673
    20   Atom       -0.003036     -0.003961      0.006997
    21   Atom       -0.016401      0.042209     -0.025808
    22   Atom       -0.013960      0.032126     -0.018166
    23   Atom       -0.007145      0.015409     -0.008265
    24   Atom        0.030444     -0.016004     -0.014440
    25   Atom        0.015609     -0.007247     -0.008362
    26   Atom       -0.016520      0.029381     -0.012861
    27   Atom       -0.007294      0.015608     -0.008315
    28   Atom        0.030044     -0.016080     -0.013964
    29   Atom        0.015689     -0.007301     -0.008388
    30   Atom        0.005680     -0.001426     -0.004254
    31   Atom        0.002444      0.000732     -0.003176
    32   Atom        0.005066     -0.001702     -0.003364
    33   Atom        0.005276     -0.001564     -0.003711
    34   Atom       -0.003355      0.007739     -0.004384
    35   Atom       -0.002962      0.006853     -0.003891
    36   Atom       -0.002849      0.005967     -0.003117
    37   Atom       -0.000869      0.004033     -0.003164
    38   Atom        0.007612     -0.003206     -0.004405
    39   Atom        0.007106     -0.003099     -0.004007
    40   Atom        0.005441     -0.002418     -0.003022
    41   Atom        0.004036     -0.000835     -0.003200
    42   Atom       -0.001080      0.008221     -0.007140
    43   Atom       -0.001740      0.005696     -0.003956
    44   Atom        0.001288     -0.003250      0.001962
    45   Atom        0.001293      0.000788     -0.002081
    46   Atom       -0.000621      0.002641     -0.002020
    47   Atom       -0.003311      0.007703     -0.004392
    48   Atom       -0.003089      0.006976     -0.003887
    49   Atom       -0.002575      0.005725     -0.003151
    50   Atom       -0.000853      0.004067     -0.003214
    51   Atom        0.008300     -0.000777     -0.007523
    52   Atom        0.005815     -0.001709     -0.004106
    53   Atom       -0.003947      0.001146      0.002802
    54   Atom        0.000612      0.001468     -0.002079
    55   Atom        0.002605     -0.000619     -0.001986
    56   Atom        0.007766     -0.003524     -0.004243
    57   Atom        0.006632     -0.002893     -0.003739
    58   Atom        0.006322     -0.003025     -0.003297
    59   Atom        0.004079     -0.000954     -0.003125
    60   Atom       -0.001352      0.005561     -0.004209
    61   Atom       -0.001494      0.005333     -0.003839
    62   Atom        0.000730      0.002341     -0.003071
    63   Atom       -0.001709      0.004733     -0.003024
    64   Atom       -0.003949     -0.005057      0.009006
    65   Atom       -0.001414     -0.003956      0.005369
    66   Atom       -0.002771     -0.002717      0.005488
    67   Atom       -0.002904     -0.003005      0.005909
    68   Atom       -0.015046     -0.007896      0.022943
    69   Atom       -0.004141     -0.005980      0.010122
    70   Atom       -0.012128     -0.008735      0.020864
    71   Atom       -0.006849     -0.026174      0.033023
    72   Atom        0.006912     -0.019653      0.012741
    73   Atom       -0.193856     -0.153004      0.346860
    74   Atom       -0.006824     -0.035919      0.042743
    75   Atom        0.006362     -0.021451      0.015089
 --------------------------------------------------------
                        XY            XZ            YZ
 --------------------------------------------------------
     1   Atom       -0.004641      0.003830      0.034125
     2   Atom        0.212030      0.039423      0.037672
     3   Atom       -0.210410      0.016622     -0.021257
     4   Atom        0.207061     -0.011881     -0.025805
     5   Atom       -0.208700     -0.049657      0.029369
     6   Atom        0.017176      0.002424      0.007882
     7   Atom        0.015299      0.001749      0.000667
     8   Atom        0.016301      0.001677     -0.000450
     9   Atom        0.029875      0.004270      0.002584
    10   Atom       -0.017130      0.002060     -0.000476
    11   Atom       -0.014936      0.000758     -0.001943
    12   Atom       -0.016005     -0.000879     -0.001526
    13   Atom       -0.029305     -0.000713      0.000547
    14   Atom        0.016122     -0.000038     -0.000557
    15   Atom        0.014661      0.000771     -0.002256
    16   Atom        0.016005      0.000307     -0.001657
    17   Atom        0.030240     -0.004504     -0.000976
    18   Atom       -0.015934     -0.006720      0.001700
    19   Atom       -0.015270     -0.000939     -0.001517
    20   Atom       -0.016217     -0.002328     -0.000131
    21   Atom       -0.030575     -0.003977      0.008465
    22   Atom       -0.004486     -0.000603      0.007245
    23   Atom       -0.002195     -0.000275      0.002723
    24   Atom        0.004042      0.003594      0.000354
    25   Atom        0.002163      0.001028      0.000150
    26   Atom       -0.004673      0.000247     -0.000540
    27   Atom       -0.002336     -0.000031      0.000226
    28   Atom        0.005186     -0.003883     -0.000156
    29   Atom        0.002425     -0.001308     -0.000062
    30   Atom        0.006129      0.000532      0.000300
    31   Atom        0.004455      0.000376      0.000333
    32   Atom        0.003923      0.002263      0.000819
    33   Atom        0.004280     -0.001390     -0.000392
    34   Atom        0.004359      0.000376      0.000972
    35   Atom        0.002602     -0.000044     -0.000986
    36   Atom        0.002565      0.000519      0.002730
    37   Atom        0.003776      0.000284      0.000540
    38   Atom       -0.004336      0.000203     -0.000244
    39   Atom       -0.002240     -0.001232      0.000130
    40   Atom       -0.002941      0.002073     -0.000497
    41   Atom       -0.003735     -0.000500      0.000232
    42   Atom       -0.006940      0.003804      0.000669
    43   Atom       -0.004228     -0.000381      0.001103
    44   Atom       -0.002655     -0.008035     -0.002067
    45   Atom       -0.002904      0.001253     -0.000681
    46   Atom       -0.002479     -0.000162     -0.000229
    47   Atom        0.004245     -0.000128     -0.000060
    48   Atom        0.002270      0.000152      0.001551
    49   Atom        0.002702     -0.000395     -0.001974
    50   Atom        0.003739      0.000163      0.000457
    51   Atom        0.006667     -0.000533     -0.004403
    52   Atom        0.004273      0.000377      0.000084
    53   Atom        0.003656     -0.001229      0.008282
    54   Atom        0.002823     -0.000816     -0.001429
    55   Atom        0.002554     -0.000601     -0.000011
    56   Atom       -0.004278     -0.001014      0.000267
    57   Atom       -0.002701      0.001113     -0.000039
    58   Atom       -0.002215     -0.002723      0.000408
    59   Atom       -0.003753     -0.000831      0.000468
    60   Atom       -0.006117     -0.000866      0.001443
    61   Atom       -0.004297      0.000072     -0.000633
    62   Atom       -0.004398     -0.000754      0.000921
    63   Atom       -0.003950     -0.001159      0.002969
    64   Atom       -0.000105      0.003911     -0.000413
    65   Atom        0.000079      0.004513      0.000039
    66   Atom       -0.000382      0.002030     -0.001796
    67   Atom        0.000094      0.001573      0.001040
    68   Atom       -0.000629     -0.004167     -0.002479
    69   Atom        0.000597     -0.004988     -0.001731
    70   Atom       -0.000632      0.003158     -0.001588
    71   Atom        0.004695     -0.033508     -0.008554
    72   Atom        0.005654     -0.028904     -0.006065
    73   Atom       -0.004815     -0.001907     -0.035505
    74   Atom        0.001363      0.034230     -0.001172
    75   Atom        0.001296      0.030552      0.001124
 --------------------------------------------------------


 ---------------------------------------------------------------------------------
              Anisotropic Spin Dipole Couplings in Principal Axis System
 ---------------------------------------------------------------------------------

       Atom             a.u.   MegaHertz   Gauss  10(-4) cm-1        Axes

              Baa    -0.1981    -3.429    -1.224    -1.144 -0.0156 -0.1083  0.9940
     1 Fe(57) Bbb     0.0782     1.354     0.483     0.452  0.9947  0.0991  0.0264
              Bcc     0.1199     2.075     0.740     0.692 -0.1013  0.9892  0.1062
 
              Baa    -0.1896    -7.314    -2.610    -2.440  0.7707 -0.6355 -0.0469
     2 N(14)  Bbb    -0.0617    -2.379    -0.849    -0.794 -0.0763 -0.1651  0.9833
              Bcc     0.2513     9.693     3.459     3.233  0.6326  0.7543  0.1757
 
              Baa    -0.1826    -7.044    -2.514    -2.350  0.6369  0.7694  0.0483
     3 N(14)  Bbb    -0.0651    -2.511    -0.896    -0.838 -0.0959  0.0169  0.9952
              Bcc     0.2477     9.555     3.409     3.187  0.7649 -0.6385  0.0846
 
              Baa    -0.1829    -7.054    -2.517    -2.353  0.7744 -0.6301 -0.0568
     4 N(14)  Bbb    -0.0607    -2.342    -0.836    -0.781  0.1013  0.0348  0.9942
              Bcc     0.2436     9.396     3.353     3.134  0.6245  0.7757 -0.0908
 
              Baa    -0.1909    -7.361    -2.627    -2.455  0.6331  0.7717  0.0607
     5 N(14)  Bbb    -0.0569    -2.194    -0.783    -0.732  0.1099 -0.1672  0.9798
              Bcc     0.2478     9.556     3.410     3.187  0.7662 -0.6136 -0.1907
 
              Baa    -0.0296    -3.967    -1.415    -1.323  0.9527 -0.1777 -0.2464
     6 C(13)  Bbb    -0.0265    -3.557    -1.269    -1.187  0.2221 -0.1461  0.9640
              Bcc     0.0561     7.524     2.685     2.510  0.2073  0.9732  0.0997
 
              Baa    -0.0187    -2.513    -0.897    -0.838  0.8216 -0.5682 -0.0452
     7 C(13)  Bbb     0.0045     0.604     0.215     0.201 -0.0549 -0.1577  0.9860
              Bcc     0.0142     1.909     0.681     0.637  0.5674  0.8076  0.1607
 
              Baa    -0.0217    -2.916    -1.040    -0.973  0.7160 -0.6965 -0.0467
     8 C(13)  Bbb     0.0100     1.343     0.479     0.448 -0.4413 -0.5034  0.7429
              Bcc     0.0117     1.572     0.561     0.524  0.5409  0.5113  0.6678
 
              Baa    -0.0317    -4.248    -1.516    -1.417  0.0086 -0.1632  0.9866
     9 C(13)  Bbb    -0.0267    -3.577    -1.276    -1.193 -0.3847  0.9101  0.1539
              Bcc     0.0583     7.826     2.792     2.610  0.9230  0.3808  0.0550
 
              Baa    -0.0301    -4.041    -1.442    -1.348 -0.0226  0.0112  0.9997
    10 C(13)  Bbb    -0.0260    -3.494    -1.247    -1.166  0.2136  0.9769 -0.0061
              Bcc     0.0562     7.536     2.689     2.514  0.9767 -0.2134  0.0245
 
              Baa    -0.0204    -2.736    -0.976    -0.913  0.5622  0.8260  0.0406
    11 C(13)  Bbb     0.0079     1.060     0.378     0.354 -0.3608  0.2007  0.9108
              Bcc     0.0125     1.676     0.598     0.559  0.7442 -0.5267  0.4108
 
              Baa    -0.0194    -2.603    -0.929    -0.868  0.6969  0.7142  0.0656
    12 C(13)  Bbb     0.0066     0.890     0.318     0.297 -0.0969  0.0031  0.9953
              Bcc     0.0128     1.713     0.611     0.571  0.7106 -0.7000  0.0714
 
              Baa    -0.0297    -3.982    -1.421    -1.328  0.1187  0.0402  0.9921
    13 C(13)  Bbb    -0.0261    -3.501    -1.249    -1.168  0.9138  0.3863 -0.1250
              Bcc     0.0558     7.483     2.670     2.496 -0.3883  0.9215  0.0091
 
              Baa    -0.0296    -3.969    -1.416    -1.324 -0.0208  0.0109  0.9997
    14 C(13)  Bbb    -0.0263    -3.530    -1.259    -1.177  0.9795 -0.2000  0.0226
              Bcc     0.0559     7.498     2.676     2.501  0.2002  0.9797 -0.0065
 
              Baa    -0.0210    -2.818    -1.005    -0.940  0.8297 -0.5548 -0.0611
    15 C(13)  Bbb     0.0090     1.206     0.430     0.402  0.3742  0.4717  0.7984
              Bcc     0.0120     1.612     0.575     0.538  0.4141  0.6853 -0.5990
 
              Baa    -0.0203    -2.723    -0.972    -0.908  0.7185 -0.6939 -0.0477
    16 C(13)  Bbb     0.0082     1.103     0.393     0.368  0.2160  0.1573  0.9636
              Bcc     0.0121     1.620     0.578     0.540  0.6612  0.7027 -0.2629
 
              Baa    -0.0289    -3.879    -1.384    -1.294  0.2250 -0.3957  0.8904
    17 C(13)  Bbb    -0.0267    -3.577    -1.276    -1.193 -0.3341  0.8271  0.4520
              Bcc     0.0556     7.456     2.660     2.487  0.9153  0.3992 -0.0539
 
              Baa    -0.0306    -4.101    -1.463    -1.368  0.0524 -0.1376  0.9891
    18 C(13)  Bbb    -0.0275    -3.686    -1.315    -1.229  0.1995  0.9720  0.1246
              Bcc     0.0580     7.787     2.778     2.597  0.9785 -0.1907 -0.0784
 
              Baa    -0.0218    -2.922    -1.043    -0.975  0.5662  0.8224  0.0548
    19 C(13)  Bbb     0.0107     1.441     0.514     0.481 -0.2851  0.1330  0.9492
              Bcc     0.0110     1.481     0.528     0.494  0.7734 -0.5531  0.3098
 
              Baa    -0.0198    -2.661    -0.950    -0.888  0.6977  0.7135  0.0640
    20 C(13)  Bbb     0.0067     0.898     0.321     0.300  0.1375 -0.2211  0.9655
              Bcc     0.0131     1.763     0.629     0.588  0.7030 -0.6649 -0.2524
 
              Baa    -0.0295    -3.957    -1.412    -1.320  0.9178  0.3765  0.1257
    21 C(13)  Bbb    -0.0268    -3.600    -1.285    -1.201 -0.0723 -0.1529  0.9856
              Bcc     0.0563     7.557     2.697     2.521 -0.3903  0.9137  0.1131
 
              Baa    -0.0192    -2.575    -0.919    -0.859 -0.0063 -0.1403  0.9901
    22 C(13)  Bbb    -0.0144    -1.931    -0.689    -0.644  0.9955  0.0930  0.0195
              Bcc     0.0336     4.506     1.608     1.503 -0.0948  0.9857  0.1391
 
              Baa    -0.0086    -4.575    -1.632    -1.526  0.0213 -0.1108  0.9936
    23 H(1)   Bbb    -0.0074    -3.925    -1.400    -1.309  0.9952  0.0972 -0.0105
              Bcc     0.0159     8.500     3.033     2.835 -0.0954  0.9891  0.1124
 
              Baa    -0.0164    -2.195    -0.783    -0.732 -0.0840  0.9961 -0.0262
    24 C(13)  Bbb    -0.0147    -1.976    -0.705    -0.659 -0.0810  0.0194  0.9965
              Bcc     0.0311     4.171     1.488     1.391  0.9932  0.0858  0.0791
 
              Baa    -0.0084    -4.487    -1.601    -1.497 -0.0374 -0.0587  0.9976
    25 H(1)   Bbb    -0.0074    -3.973    -1.418    -1.325 -0.0957  0.9939  0.0549
              Bcc     0.0159     8.460     3.019     2.822  0.9947  0.0934  0.0428
 
              Baa    -0.0170    -2.281    -0.814    -0.761  0.9939  0.0996 -0.0464
    26 C(13)  Bbb    -0.0129    -1.726    -0.616    -0.576  0.0449  0.0177  0.9988
              Bcc     0.0299     4.007     1.430     1.337 -0.1003  0.9949 -0.0132
 
              Baa    -0.0083    -4.438    -1.583    -1.480  0.0107 -0.0084  0.9999
    27 H(1)   Bbb    -0.0075    -4.017    -1.433    -1.340  0.9949  0.1005 -0.0098
              Bcc     0.0158     8.455     3.017     2.820 -0.1004  0.9949  0.0094
 
              Baa    -0.0167    -2.239    -0.799    -0.747 -0.1189  0.9864 -0.1131
    28 C(13)  Bbb    -0.0143    -1.914    -0.683    -0.639  0.0724  0.1222  0.9899
              Bcc     0.0310     4.154     1.482     1.386  0.9903  0.1095 -0.0860
 
              Baa    -0.0085    -4.516    -1.612    -1.506  0.0615 -0.0752  0.9953
    29 H(1)   Bbb    -0.0075    -4.027    -1.437    -1.343 -0.0989  0.9918  0.0811
              Bcc     0.0160     8.543     3.048     2.850  0.9932  0.1034 -0.0535
 
              Baa    -0.0050    -0.665    -0.237    -0.222 -0.4995  0.8663  0.0079
    30 C(13)  Bbb    -0.0043    -0.574    -0.205    -0.192 -0.0352 -0.0294  0.9989
              Bcc     0.0092     1.240     0.442     0.414  0.8656  0.4987  0.0452
 
              Baa    -0.0032    -1.709    -0.610    -0.570  0.0016 -0.0860  0.9963
    31 H(1)   Bbb    -0.0029    -1.573    -0.561    -0.525 -0.6383  0.7668  0.0673
              Bcc     0.0062     3.282     1.171     1.095  0.7698  0.6361  0.0537
 
              Baa    -0.0040    -2.121    -0.757    -0.708 -0.3384  0.2581  0.9049
    32 H(1)   Bbb    -0.0034    -1.826    -0.651    -0.609 -0.3084  0.8781 -0.3658
              Bcc     0.0074     3.947     1.408     1.317  0.8890  0.4029  0.2176
 
              Baa    -0.0040    -2.155    -0.769    -0.719  0.3179 -0.4148  0.8526
    33 H(1)   Bbb    -0.0035    -1.855    -0.662    -0.619 -0.3123  0.8033  0.5072
              Bcc     0.0075     4.010     1.431     1.337  0.8952  0.4275 -0.1258
 
              Baa    -0.0049    -0.653    -0.233    -0.218  0.9433 -0.3191 -0.0916
    34 C(13)  Bbb    -0.0045    -0.598    -0.214    -0.200  0.0621 -0.1013  0.9929
              Bcc     0.0093     1.251     0.447     0.417  0.3261  0.9423  0.0757
 
              Baa    -0.0041    -2.165    -0.772    -0.722 -0.3688  0.1705  0.9138
    35 H(1)   Bbb    -0.0035    -1.881    -0.671    -0.627  0.8983 -0.1874  0.3975
              Bcc     0.0076     4.045     1.443     1.349  0.2390  0.9674 -0.0840
 
              Baa    -0.0039    -2.107    -0.752    -0.703  0.3713 -0.3345  0.8662
    36 H(1)   Bbb    -0.0034    -1.836    -0.655    -0.612  0.8950 -0.1193 -0.4297
              Bcc     0.0074     3.943     1.407     1.315  0.2471  0.9348  0.2551
 
              Baa    -0.0032    -1.710    -0.610    -0.570 -0.0066 -0.0709  0.9975
    37 H(1)   Bbb    -0.0029    -1.558    -0.556    -0.520  0.8793 -0.4754 -0.0280
              Bcc     0.0061     3.267     1.166     1.090  0.4762  0.8769  0.0655
 
              Baa    -0.0048    -0.644    -0.230    -0.215  0.2985  0.8723  0.3873
    38 C(13)  Bbb    -0.0043    -0.583    -0.208    -0.194 -0.1460 -0.3593  0.9217
              Bcc     0.0091     1.227     0.438     0.409  0.9432 -0.3317  0.0201
 
              Baa    -0.0042    -2.221    -0.793    -0.741  0.1425  0.1814  0.9730
    39 H(1)   Bbb    -0.0035    -1.890    -0.674    -0.630  0.1786  0.9622 -0.2056
              Bcc     0.0077     4.111     1.467     1.371  0.9736 -0.2031 -0.1047
 
              Baa    -0.0036    -1.932    -0.689    -0.644 -0.3504 -0.5410  0.7645
    40 H(1)   Bbb    -0.0033    -1.736    -0.620    -0.579  0.1198  0.7837  0.6095
              Bcc     0.0069     3.668     1.309     1.224  0.9289 -0.3051  0.2099
 
              Baa    -0.0032    -1.727    -0.616    -0.576  0.0941  0.0501  0.9943
    41 H(1)   Bbb    -0.0029    -1.524    -0.544    -0.508  0.4697  0.8784 -0.0887
              Bcc     0.0061     3.250     1.160     1.084  0.8778 -0.4753 -0.0591
 
              Baa    -0.0099    -1.323    -0.472    -0.441 -0.5374 -0.2362  0.8095
    42 C(13)  Bbb    -0.0021    -0.288    -0.103    -0.096  0.6917  0.4256  0.5834
              Bcc     0.0120     1.611     0.575     0.537 -0.4824  0.8735 -0.0653
 
              Baa    -0.0041    -2.186    -0.780    -0.729 -0.1730 -0.1836  0.9676
    43 H(1)   Bbb    -0.0036    -1.935    -0.690    -0.645  0.8959  0.3789  0.2321
              Bcc     0.0077     4.121     1.470     1.375 -0.4092  0.9070  0.0990
 
              Baa    -0.0085    -1.146    -0.409    -0.382  0.6167  0.5352  0.5773
    44 C(13)  Bbb    -0.0011    -0.153    -0.055    -0.051 -0.3677  0.8442 -0.3900
              Bcc     0.0097     1.299     0.463     0.433 -0.6961  0.0282  0.7174
 
              Baa    -0.0026    -1.361    -0.486    -0.454 -0.4386 -0.2028  0.8755
    45 H(1)   Bbb    -0.0017    -0.911    -0.325    -0.304  0.5267  0.7313  0.4333
              Bcc     0.0043     2.272     0.811     0.758  0.7281 -0.6512  0.2139
 
              Baa    -0.0022    -1.197    -0.427    -0.399  0.5736  0.3263  0.7513
    46 H(1)   Bbb    -0.0017    -0.926    -0.331    -0.309  0.6683  0.3439 -0.6596
              Bcc     0.0040     2.123     0.758     0.708 -0.4736  0.8805 -0.0208
 
              Baa    -0.0048    -0.642    -0.229    -0.214  0.9163 -0.3103  0.2530
    47 C(13)  Bbb    -0.0044    -0.586    -0.209    -0.195 -0.2372  0.0882  0.9674
              Bcc     0.0092     1.228     0.438     0.410  0.3225  0.9465 -0.0072
 
              Baa    -0.0041    -2.213    -0.790    -0.738  0.2613 -0.1853  0.9473
    48 H(1)   Bbb    -0.0035    -1.879    -0.671    -0.627  0.9429 -0.1608 -0.2915
              Bcc     0.0077     4.093     1.460     1.365  0.2063  0.9694  0.1328
 
              Baa    -0.0037    -1.954    -0.697    -0.652 -0.4635  0.3081  0.8308
    49 H(1)   Bbb    -0.0033    -1.742    -0.621    -0.581  0.8421 -0.1387  0.5212
              Bcc     0.0069     3.695     1.319     1.233  0.2758  0.9412 -0.1952
 
              Baa    -0.0033    -1.736    -0.619    -0.579  0.1418 -0.1337  0.9808
    50 H(1)   Bbb    -0.0029    -1.523    -0.544    -0.508  0.8693 -0.4571 -0.1880
              Bcc     0.0061     3.259     1.163     1.087  0.4735  0.8793  0.0514
 
              Baa    -0.0101    -1.356    -0.484    -0.452 -0.1616  0.5134  0.8428
    51 C(13)  Bbb    -0.0021    -0.277    -0.099    -0.092 -0.4804  0.7051 -0.5216
              Bcc     0.0122     1.633     0.583     0.545  0.8620  0.4892 -0.1327
 
              Baa    -0.0041    -2.204    -0.786    -0.735 -0.0937  0.1309  0.9870
    52 H(1)   Bbb    -0.0036    -1.936    -0.691    -0.646 -0.4019  0.9020 -0.1578
              Bcc     0.0078     4.139     1.477     1.381  0.9109  0.4114  0.0319
 
              Baa    -0.0089    -1.198    -0.427    -0.399 -0.5881  0.6303 -0.5068
    53 C(13)  Bbb    -0.0015    -0.207    -0.074    -0.069  0.8010  0.3671 -0.4729
              Bcc     0.0105     1.405     0.501     0.469  0.1120  0.6841  0.7208
 
              Baa    -0.0026    -1.390    -0.496    -0.464 -0.1256  0.4049  0.9057
    54 H(1)   Bbb    -0.0017    -0.907    -0.324    -0.302  0.7726 -0.5328  0.3453
              Bcc     0.0043     2.297     0.820     0.766  0.6224  0.7431 -0.2459
 
              Baa    -0.0023    -1.232    -0.440    -0.411  0.3920 -0.5877  0.7078
    55 H(1)   Bbb    -0.0018    -0.934    -0.333    -0.312 -0.2863  0.6533  0.7009
              Bcc     0.0041     2.166     0.773     0.723  0.8743  0.4774 -0.0878
 
              Baa    -0.0050    -0.667    -0.238    -0.222  0.3242  0.9399  0.1072
    56 C(13)  Bbb    -0.0043    -0.579    -0.207    -0.193  0.0385 -0.1263  0.9912
              Bcc     0.0093     1.246     0.445     0.416  0.9452 -0.3173 -0.0771
 
              Baa    -0.0040    -2.133    -0.761    -0.712 -0.2135 -0.4926  0.8436
    57 H(1)   Bbb    -0.0035    -1.842    -0.657    -0.614  0.1648  0.8330  0.5281
              Bcc     0.0075     3.975     1.418     1.326  0.9629 -0.2518  0.0967
 
              Baa    -0.0041    -2.168    -0.774    -0.723  0.2987  0.2784  0.9129
    58 H(1)   Bbb    -0.0035    -1.843    -0.658    -0.615  0.1217  0.9376 -0.3257
              Bcc     0.0075     4.011     1.431     1.338  0.9466 -0.2084 -0.2462
 
              Baa    -0.0032    -1.720    -0.614    -0.574  0.0520 -0.1183  0.9916
    59 H(1)   Bbb    -0.0030    -1.576    -0.562    -0.526  0.4765  0.8756  0.0794
              Bcc     0.0062     3.297     1.176     1.100  0.8776 -0.4684 -0.1019
 
              Baa    -0.0049    -0.661    -0.236    -0.220  0.8654  0.4995  0.0399
    60 C(13)  Bbb    -0.0044    -0.593    -0.211    -0.198  0.0274 -0.1266  0.9916
              Bcc     0.0093     1.253     0.447     0.418 -0.5003  0.8570  0.1232
 
              Baa    -0.0040    -2.123    -0.757    -0.708  0.3900  0.2404  0.8889
    61 H(1)   Bbb    -0.0035    -1.847    -0.659    -0.616  0.8125  0.3643 -0.4551
              Bcc     0.0074     3.969     1.416     1.324 -0.4332  0.8997 -0.0533
 
              Baa    -0.0032    -1.721    -0.614    -0.574  0.0544 -0.1211  0.9911
    62 H(1)   Bbb    -0.0029    -1.566    -0.559    -0.522  0.7707  0.6362  0.0354
              Bcc     0.0062     3.287     1.173     1.096 -0.6349  0.7619  0.1280
 
              Baa    -0.0041    -2.174    -0.776    -0.725 -0.2548 -0.4096  0.8760
    63 H(1)   Bbb    -0.0035    -1.862    -0.664    -0.621  0.8778  0.2820  0.3872
              Bcc     0.0076     4.036     1.440     1.346 -0.4056  0.8676  0.2877
 
              Baa    -0.0051    -0.681    -0.243    -0.227 -0.2567  0.9613  0.0995
    64 C(13)  Bbb    -0.0050    -0.676    -0.241    -0.225  0.9285  0.2739 -0.2506
              Bcc     0.0101     1.356     0.484     0.452  0.2681 -0.0281  0.9630
 
              Baa    -0.0040    -2.116    -0.755    -0.706 -0.1612  0.9842  0.0738
    65 H(1)   Bbb    -0.0037    -1.952    -0.696    -0.651  0.8800  0.1772 -0.4407
              Bcc     0.0076     4.067     1.451     1.357  0.4468  0.0060  0.8946
 
              Baa    -0.0033    -1.734    -0.619    -0.578  0.9443 -0.2010 -0.2607
    66 H(1)   Bbb    -0.0031    -1.644    -0.587    -0.549  0.2438  0.9592  0.1432
              Bcc     0.0063     3.379     1.206     1.127  0.2212 -0.1988  0.9547
 
              Baa    -0.0032    -1.728    -0.616    -0.576  0.7862  0.5841 -0.2016
    67 H(1)   Bbb    -0.0031    -1.633    -0.583    -0.545 -0.5945  0.8040  0.0110
              Bcc     0.0063     3.360     1.199     1.121  0.1685  0.1112  0.9794
 
              Baa    -0.0156    -0.602    -0.215    -0.201  0.9865  0.1172  0.1142
    68 N(14)  Bbb    -0.0080    -0.308    -0.110    -0.103 -0.1249  0.9902  0.0626
              Bcc     0.0236     0.909     0.324     0.303 -0.1057 -0.0760  0.9915
 
              Baa    -0.0062    -3.294    -1.175    -1.099 -0.1312  0.9892  0.0649
    69 H(1)   Bbb    -0.0057    -3.045    -1.087    -1.016  0.9451  0.1050  0.3093
              Bcc     0.0119     6.339     2.262     2.114 -0.2991 -0.1020  0.9487
 
              Baa    -0.0125    -1.676    -0.598    -0.559  0.9877  0.1294 -0.0874
    70 C(13)  Bbb    -0.0088    -1.176    -0.420    -0.392 -0.1238  0.9901  0.0663
              Bcc     0.0213     2.852     1.018     0.951  0.0951 -0.0546  0.9940
 
              Baa    -0.0274    -3.675    -1.311    -1.226  0.0250  0.9878  0.1537
    71 C(13)  Bbb    -0.0259    -3.474    -1.240    -1.159  0.8711 -0.0969  0.4814
              Bcc     0.0533     7.149     2.551     2.385 -0.4904 -0.1219  0.8629
 
              Baa    -0.0208   -11.106    -3.963    -3.704 -0.1500  0.9875  0.0492
    72 H(1)   Bbb    -0.0192   -10.252    -3.658    -3.420  0.7320  0.0775  0.6768
              Bcc     0.0400    21.358     7.621     7.124 -0.6645 -0.1376  0.7345
 
              Baa    -0.1945    -7.501    -2.677    -2.502  0.9921  0.1252  0.0117
    73 N(14)  Bbb    -0.1549    -5.974    -2.132    -1.993 -0.1257  0.9896  0.0696
              Bcc     0.3494    13.475     4.808     4.495 -0.0029 -0.0705  0.9975
 
              Baa    -0.0362    -4.855    -1.732    -1.619 -0.1276  0.9893  0.0701
    74 C(13)  Bbb    -0.0240    -3.226    -1.151    -1.076  0.8815  0.1455 -0.4492
              Bcc     0.0602     8.081     2.884     2.696  0.4546 -0.0044  0.8907
 
              Baa    -0.0215   -11.492    -4.101    -3.833 -0.1460  0.9851  0.0915
    75 H(1)   Bbb    -0.0201   -10.721    -3.826    -3.576  0.7414  0.1701 -0.6492
              Bcc     0.0416    22.214     7.926     7.410  0.6551  0.0269  0.7551
 

 ---------------------------------------------------------------------------------

 Unable to Open any file for archive entry.
 1\1\GINC-BGN1009\SP\UAPFD\Gen\C34H34Fe1N6(1+,6)\BECSLEIP\19-Sep-2024\0
 \\# apfd/gen scf=maxcycle=999 geom=check\\5cn5_III_H\\1,6\Fe,0,12.0672
 413741,-28.9308924655,13.6094571669\N,0,11.0403816432,-30.2494561814,1
 4.6855359893\N,0,11.9704605714,-27.6246927996,15.1374556512\N,0,12.937
 0098271,-27.5075596836,12.4892376581\N,0,12.007708957,-30.1355509427,1
 2.0340549179\C,0,10.6683648061,-31.5003233898,14.2959190582\C,0,10.026
 8748553,-32.2079716127,15.3809785856\C,0,10.0063070159,-31.3514034035,
 16.4367933325\C,0,10.6402749569,-30.1340412891,15.9832123028\C,0,11.41
 05052567,-27.8392695748,16.3632863115\C,0,11.4974520144,-26.6624138566
 ,17.1875884321\C,0,12.1361672953,-25.7136234722,16.4348786915\C,0,12.4
 185015261,-26.3397663542,15.1587872275\C,0,13.2325257383,-26.227037892
 ,12.8526548106\C,0,13.7491492746,-25.4756931615,11.7386125577\C,0,13.7
 642893798,-26.333577708,10.6717372155\C,0,13.2391196255,-27.5914662659
 ,11.1644589965\C,0,12.4883077869,-29.8909573504,10.7839567054\C,0,12.2
 330316491,-31.0104770979,9.9053764664\C,0,11.596411228,-31.9472806611,
 10.6574628449\C,0,11.4592106062,-31.3813852419,11.9809525801\C,0,10.85
 68343456,-32.0363494643,13.0365680169\H,0,10.4892893641,-33.0354358913
 ,12.8597956384\C,0,10.8113324201,-29.0172534636,16.7743004677\H,0,10.4
 181374308,-29.0544148352,17.7786692813\C,0,13.0330159047,-25.688629749
 5,14.1096111939\H,0,13.3141223283,-24.6576708898,14.2586544852\C,0,13.
 0947871849,-28.7188431024,10.3779636828\H,0,13.4059172611,-28.65341138
 32,9.346684693\C,0,9.4550980788,-31.5508095817,17.8070333381\H,0,9.035
 2668039,-32.5478990411,17.9133632734\H,0,8.6682951235,-30.8244964733,1
 8.0114292656\H,0,10.2348550253,-31.4246773835,18.5588604127\C,0,9.5061
 884016,-33.6007637455,15.284675737\H,0,10.3026939846,-34.2886362856,15
 .0003378464\H,0,8.720088678,-33.6640414982,14.5320054219\H,0,9.0946055
 838,-33.9267399366,16.2367069969\C,0,11.0367880512,-26.5676838909,18.6
 00308649\H,0,11.2320679872,-27.4961595514,19.1350756774\H,0,9.96463527
 57,-26.3712788,18.6468593846\H,0,11.5565288991,-25.7577209597,19.10791
 63187\C,0,12.4983409226,-24.357795039,16.7857454443\H,0,13.4202238016,
 -23.9921536717,16.3482365437\C,0,11.7987302541,-23.5528894564,17.57863
 05579\H,0,10.8533214818,-23.8446975769,18.0012870469\H,0,12.1376683084
 ,-22.5566722687,17.8098331597\C,0,14.2300454142,-24.0685599738,11.8040
 31492\H,0,14.7555576608,-23.8835759687,12.7397335428\H,0,13.3947433577
 ,-23.3693444588,11.7421189836\H,0,14.9088057019,-23.8676709072,10.9777
 193417\C,0,14.2017062692,-26.0956753823,9.3132719864\H,0,14.6576243246
 ,-26.9420256178,8.8122750628\C,0,14.0803562611,-24.9477300984,8.655066
 8028\H,0,13.5883322854,-24.0918465956,9.0827702596\H,0,14.4404852365,-
 24.8362963939,7.6458945878\C,0,12.6234920982,-31.0564473471,8.46815447
 96\H,0,13.7048217062,-30.9661669133,8.36069749\H,0,12.1595054604,-30.2
 368209553,7.9194011039\H,0,12.3116115078,-31.9930870798,8.0129001243\C
 ,0,11.0923234126,-33.2929136083,10.2632497571\H,0,11.5998103882,-34.07
 30266714,10.8316721444\H,0,11.2622503766,-33.4747518037,9.204961836\H,
 0,10.0230634975,-33.3734421323,10.4581896253\C,0,17.3395008242,-30.756
 0791494,13.9626285339\H,0,17.5499544807,-30.5680829184,12.9140826551\H
 ,0,17.4947120525,-31.8160762676,14.1654308682\H,0,18.0435647981,-30.18
 61037664,14.5688403346\N,0,15.4164574031,-30.4345368994,15.5325008544\
 H,0,15.9036379446,-30.7533838591,16.3539972852\C,0,15.9418139039,-30.3
 599462829,14.2694154282\C,0,14.1367865494,-30.0036827169,15.4719224724
 \H,0,13.4800537105,-29.9523685858,16.3168992507\N,0,13.8167318426,-29.
 6600466136,14.2451779478\C,0,14.9326128857,-29.8776507804,13.486121868
 2\H,0,14.9325103568,-29.6726959079,12.4349238458\\Version=ES64L-G16Rev
 C.02\State=6-A\HF=-2906.840182\S2=8.760676\S2-1=0.\S2A=8.750034\RMSD=7
 .239e-09\Dipole=1.6108606,-1.1869544,0.9701987\Quadrupole=-14.1579375,
 4.848594,9.3093435,4.1985836,-5.9783518,-0.1608161\PG=C01 [X(C34H34Fe1
 N6)]\\@
 The archive entry for this job was punched.


 PICNIC:  A SNACK IN THE GRASS.
 Job cpu time:       0 days  1 hours 47 minutes  2.0 seconds.
 Elapsed time:       0 days  0 hours  1 minutes 54.7 seconds.
 File lengths (MBytes):  RWF=    408 Int=      0 D2E=      0 Chk=    150 Scr=      1
 Normal termination of Gaussian 16 at Thu Sep 19 23:08:29 2024.
